Membrane in water
40347
    1TMC1    C1    1   1.101   0.858  11.228 -0.1883 -0.5996 -0.0774
    1TMC1    C2    2   1.191   0.891  11.130 -0.3652 -0.1307  0.6094
    1TMC1    C3    3   1.200   1.016  11.087 -0.1574  0.4648  0.5271
    1TMC1    C4    4   1.042   0.952  11.297  0.0875  0.5251 -0.1580
    1TMC1    C5    5   1.054   1.077  11.259 -0.0405  0.1486  0.2289
    1TMC1    C6    6   1.139   1.116  11.159 -0.1245 -0.1263  0.3386
    1TMC1     C    7   1.079   0.717  11.267 -0.1952 -0.1365 -0.3130
    1TMC1     O    8   1.012   0.696  11.370  0.3747  0.3235 -0.1424
    1TMC1     H    9   1.239   0.810  11.076 -0.6228 -1.1444  1.9121
    1TMC1    H1   10   0.957   0.927  11.360  1.3016  0.1182  1.3044
    1TMC1    H2   11   1.131   1.216  11.120 -0.5753 -1.5624 -3.2670
    1TMC1    C7   12   0.960   1.174  11.304  0.1084 -0.4168  0.2217
    1TMC1    C8   13   1.254   1.031  10.952 -0.2449  0.6845  0.8604
    1TMC1    O1   14   0.888   1.248  11.233 -1.0443 -0.4376 -0.1497
    1TMC1    O2   15   1.341   0.962  10.899 -0.1884  0.2391 -0.0249
    1TMC1    O3   16   1.010   1.218  11.427  0.2005  0.5331  0.0349
    1TMC1    H3   17   1.072   1.150  11.463 -0.6787 -0.7926 -0.9622
    1TMC1    O5   18   1.152   1.076  10.875 -0.1443  0.2527 -0.2221
    1TMC1    H5   19   1.071   1.108  10.922  0.0272  2.1666 -1.2568
    2MPD2     C   20   1.151   0.208  11.215  0.2978  0.6457 -0.2169
    2MPD2    C1   21   1.089   0.277  11.316 -0.2393 -0.2741  0.0929
    2MPD2    C2   22   1.095   0.412  11.317 -0.8039  0.5031  0.0351
    2MPD2    C3   23   1.133   0.484  11.200  0.0188  0.2254 -0.5461
    2MPD2    C4   24   1.176   0.416  11.094 -0.0698 -0.1708 -0.7265
    2MPD2    C5   25   1.185   0.276  11.100 -0.5812  1.0199  0.7654
    2MPD2     H   26   1.043   0.456  11.401 -0.7711 -0.2586  0.4551
    2MPD2    H1   27   1.203   0.461  10.999 -1.0497 -1.2139 -1.4990
    2MPD2    H2   28   1.158   0.100  11.218  0.0497  0.6027 -1.3091
    2MPD2    H3   29   1.212   0.221  11.011 -1.6721  1.0799  0.3933
    2MPD2     N   30   1.126   0.623  11.182 -0.1164  0.1224 -0.3633
    2MPD2    H5   31   1.155   0.659  11.091  2.6119  1.0525  0.8783
    2MPD2    N1   32   1.043   0.209  11.434  1.1420  0.1967 -0.4876
    2MPD2    H7   33   1.021   0.275  11.508  0.0955  1.0587 -1.5663
    3TMC1    C1   34   0.051   1.277  10.424 -0.2364  0.4280  0.3353
    3TMC1    C2   35   0.126   1.395  10.412  0.6004 -0.9447  0.5799
    3TMC1    C3   36   0.169   1.429  10.281 -0.4728  0.7351 -0.0235
    3TMC1    C4   37   0.024   1.202  10.313 -0.0585  0.1344 -0.8706
    3TMC1    C5   38   0.081   1.227  10.194  1.2961 -0.0582  0.2388
    3TMC1    C6   39   0.153   1.345  10.174  0.2214 -0.0431 -0.5271
    3TMC1     C   40   4.734   1.236  10.550  0.1310 -0.1161  0.3525
    3TMC1     O   41   4.675   1.132  10.561  0.5214 -0.1752 -0.3797
    3TMC1     H   42   0.133   1.466  10.493  0.1733 -0.3433  0.0917
    3TMC1    H1   43   4.717   1.103  10.329  0.9376 -0.1893 -0.1814
    3TMC1    H2   44   0.202   1.375  10.082 -0.1846  0.7364 -0.4939
    3TMC1    C7   45   0.017   1.170  10.077  0.0659 -0.2908 -0.6472
    3TMC1    C8   46   0.266   1.539  10.286  0.1553 -0.1386 -0.2054
    3TMC1    O1   47   4.644   1.120  10.084  0.3123 -1.4032 -0.6364
    3TMC1    O2   48   0.351   1.543  10.373 -0.1645  0.1914  0.2711
    3TMC1    O3   49   0.071   1.224   9.965 -0.0834  0.0947  0.6750
    3TMC1    H3   50   0.167   1.246   9.971  0.4114 -1.3562 -1.7017
    3TMC1    O5   51   0.262   1.603  10.167 -0.5613  0.3755  0.1911
    3TMC1    H5   52   0.204   1.570  10.095  0.0564  0.5183 -0.3763
    4MPD2     C   53   4.699   1.313  11.061 -0.6657  0.3519  0.2402
    4MPD2    C1   54   0.002   1.430  10.999 -0.6138 -0.6962 -0.6212
    4MPD2    C2   55   0.025   1.424  10.864 -0.5590  0.9250  0.7737
    4MPD2    C3   56   4.734   1.314  10.787  0.5705  0.4862 -0.2597
    4MPD2    C4   57   4.690   1.198  10.850  0.9087 -0.3391  0.1135
    4MPD2    C5   58   4.685   1.194  10.986 -0.3940 -0.1674  0.6314
    4MPD2     H   59   0.064   1.508  10.807  0.5540 -1.7279 -2.4189
    4MPD2    H1   60   4.667   1.101  10.807 -2.3253  0.3373  0.2996
    4MPD2    H2   61   4.697   1.304  11.169 -0.5459 -0.0246  0.2096
    4MPD2    H3   62   4.668   1.094  11.027  0.7405 -0.3996  0.5269
    4MPD2     N   63   0.036   1.320  10.650 -0.1366  0.4284 -0.3307
    4MPD2    H5   64   0.089   1.406  10.631 -1.3399  1.7962  2.5437
    4MPD2    N1   65   0.029   1.555  11.067  0.1825 -0.3536  0.4063
    4MPD2    H7   66   0.072   1.625  11.008 -0.2048  1.5862  2.4013
    5TCq1    O1   67   0.859   3.331  12.148  0.5667  0.5926  0.0194
    5TCq1    C1   68   0.908   3.332  12.023  0.4338 -0.7529 -0.4029
    5TCq1    O2   69   1.022   3.305  11.985 -0.2941  0.2928 -0.5664
    5TCq1    C2   70   0.795   3.317  11.937 -0.6364 -0.4563 -0.0761
    5TCq1    C3   71   0.670   3.367  11.970  0.2929  0.3292  0.3944
    5TCq1    C4   72   0.569   3.354  11.882  0.1176 -0.3582 -0.0338
    5TCq1    C5   73   0.589   3.297  11.759  0.2392  0.0332  0.2802
    5TCq1    C6   74   0.712   3.246  11.729  0.0980 -0.4634 -1.0197
    5TCq1    C7   75   0.814   3.259  11.818 -0.2135  0.0368 -0.1894
    5TCq1    C8   76   0.745   3.168  11.606  0.2110  1.2972 -0.3338
    5TCq1    O4   77   0.852   3.107  11.609 -0.1187 -0.1990 -0.6192
    5TCq1    C9   78   0.437   3.374  11.923  0.8238  0.0915 -0.4671
    5TCq1    O5   79   0.345   3.343  11.843  0.0612 -0.1034 -0.3676
    5TCq1    O6   80   0.417   3.420  12.035 -0.5430 -0.2435 -0.4992
    5TCq1    H1   81   0.762   3.317  12.146  0.9804 -2.4343  0.7129
    5TCq1    H2   82   0.653   3.417  12.065 -0.4501 -1.7247  1.3508
    5TCq1    H3   83   0.502   3.278  11.697  1.2708 -4.0954  0.1263
    5TCq1    H4   84   0.910   3.224  11.781  0.3691  1.5237 -0.0564
    6MPD2     C   85   0.592   3.245  11.275  0.1140  0.6259 -0.4413
    6MPD2    C1   86   0.689   3.193  11.361  0.3870  0.0001  0.3262
    6MPD2    C2   87   0.799   3.126  11.302  0.6033 -0.0552  0.7034
    6MPD2    C3   88   0.811   3.122  11.166 -1.0805  0.4818 -0.2748
    6MPD2    C4   89   0.718   3.177  11.083  0.2590 -0.1597 -0.0378
    6MPD2    C5   90   0.604   3.241  11.139  0.1746  0.3138  0.0580
    6MPD2     H   91   0.874   3.078  11.363 -1.0955  0.4265  3.1737
    6MPD2    H1   92   0.721   3.165  10.975 -1.4665 -2.8258  0.2098
    6MPD2    H2   93   0.506   3.298  11.316  0.2328 -0.0033  0.6345
    6MPD2    H3   94   0.524   3.282  11.078 -0.3560  2.7477  2.3653
    6MPD2     N   95   0.920   3.041  11.124 -0.5361 -0.0518  0.7340
    6MPD2    H5   96   0.981   3.005  11.196 -0.3258 -1.6647 -0.2684
    6MPD2    N1   97   0.674   3.216  11.499 -0.7769 -0.3388 -0.0141
    6MPD2    H7   98   0.593   3.270  11.528 -0.5782 -0.7346  1.2794
    7TCq1    O1   99   3.581   3.043  13.731  0.4399  0.1804  0.1089
    7TCq1    C1  100   3.481   3.137  13.746  0.0870  0.4866 -0.1267
    7TCq1    O2  101   3.489   3.258  13.753  0.4912  0.7685  0.5715
    7TCq1    C2  102   3.347   3.077  13.755 -0.1621  0.2130  0.4410
    7TCq1    C3  103   3.240   3.149  13.800 -1.0088 -0.5369  0.6212
    7TCq1    C4  104   3.114   3.104  13.789 -0.1324  0.2168 -0.5118
    7TCq1    C5  105   3.092   2.982  13.720 -0.6349 -0.0034 -0.5709
    7TCq1    C6  106   3.199   2.925  13.650  0.3455 -0.3500 -0.4520
    7TCq1    C7  107   3.329   2.975  13.665  0.5538 -0.8459  0.4902
    7TCq1    C8  108   3.184   2.797  13.578  0.1125 -0.2799 -0.0626
    7TCq1    O4  109   3.252   2.700  13.618 -0.5321  0.3418  0.0658
    7TCq1    C9  110   3.006   3.177  13.849 -0.6904  0.3364 -0.7503
    7TCq1    O5  111   3.028   3.298  13.885 -0.5762 -0.6338 -0.3130
    7TCq1    O6  112   2.906   3.113  13.885 -0.6236  0.2963 -0.4937
    7TCq1    H1  113   3.543   2.956  13.758  1.3709  0.2425  1.6141
    7TCq1    H2  114   3.266   3.236  13.858 -1.1910  1.4811 -2.3006
    7TCq1    H3  115   2.995   2.935  13.720 -0.7651  0.2709 -2.0687
    7TCq1    H4  116   3.403   2.927  13.602  1.1857  0.9971 -0.1762
    8MPD2     C  117   2.854   2.447  13.407 -0.3949  0.0337 -0.0358
    8MPD2    C1  118   2.983   2.431  13.444 -0.0063 -0.1884  0.3748
    8MPD2    C2  119   3.057   2.546  13.476  0.1249 -0.7385 -0.6778
    8MPD2    C3  120   2.999   2.673  13.469 -0.2511 -0.4696 -0.6199
    8MPD2    C4  121   2.867   2.686  13.432  0.5820  0.1495 -0.1662
    8MPD2    C5  122   2.798   2.568  13.398 -0.3467 -0.6491 -0.1407
    8MPD2     H  123   3.164   2.538  13.496  0.1564  1.0158 -0.1398
    8MPD2    H1  124   2.825   2.785  13.417  0.9516  0.4867  0.9692
    8MPD2    H2  125   2.793   2.359  13.390 -1.1458  0.7802 -1.2635
    8MPD2    H3  126   2.693   2.579  13.374  0.0821 -0.1830 -1.7484
    8MPD2     N  127   3.062   2.789  13.510  0.1849  0.0433 -0.8352
    8MPD2    H5  128   3.020   2.879  13.489  0.8075  0.6846  0.6434
    8MPD2    N1  129   3.039   2.299  13.438 -0.4130  0.8550  0.3260
    8MPD2    H7  130   2.969   2.229  13.414 -0.3846  0.4590  1.4214
    9TMC1    C1  131   0.567   0.785  11.059 -0.6131  0.2478  0.5116
    9TMC1    C2  132   0.500   0.671  11.109 -0.0862  0.2579 -0.0899
    9TMC1    C3  133   0.442   0.590  11.020  0.0135 -0.0697 -0.4423
    9TMC1    C4  134   0.545   0.824  10.932  0.3980  0.1343  0.6096
    9TMC1    C5  135   0.502   0.724  10.849  0.3184 -0.2633  0.3957
    9TMC1    C6  136   0.459   0.603  10.892  0.2325 -0.6176 -0.3787
    9TMC1     C  137   0.631   0.882  11.149  0.2125  0.2640  0.2586
    9TMC1     O  138   0.707   0.959  11.096 -0.1695  0.2156  0.2833
    9TMC1     H  139   0.506   0.646  11.214  1.6717 -1.4082 -0.5725
    9TMC1    H1  140   0.592   0.910  10.886 -1.1460  0.8845  0.4571
    9TMC1    H2  141   0.438   0.519  10.827  0.7793 -1.3419  0.3878
    9TMC1    C7  142   0.543   0.747  10.712 -0.2494  0.5480  0.2344
    9TMC1    C8  143   0.366   0.474  11.062  0.0167 -0.3970  0.1375
    9TMC1    O1  144   0.640   0.817  10.683 -0.5830  0.5829 -0.0762
    9TMC1    O2  145   0.350   0.379  10.989  0.3318 -0.2652 -0.1773
    9TMC1    O3  146   0.475   0.663  10.636  0.4562 -0.1634 -0.9652
    9TMC1    H3  147   0.397   0.632  10.687  1.2596 -0.6257 -0.0130
    9TMC1    O5  148   0.354   0.472  11.196 -0.0923 -0.1035 -0.1270
    9TMC1    H5  149   0.335   0.564  11.225 -0.8863 -0.2387 -0.2363
   10MPD2     C  150   0.626   1.119  11.317 -0.1826 -0.4860  0.2328
   10MPD2    C1  151   0.568   1.003  11.360  0.5906  0.3582  0.5418
   10MPD2    C2  152   0.504   0.984  11.486 -0.5244  0.4895  0.5445
   10MPD2    C3  153   0.523   1.088  11.577 -0.3300  0.9644 -0.2278
   10MPD2    C4  154   0.587   1.203  11.545 -0.1765 -0.6336  0.5745
   10MPD2    C5  155   0.624   1.225  11.412  0.3690  0.4478  0.1169
   10MPD2     H  156   0.463   0.887  11.514 -2.2042  1.6620  2.1293
   10MPD2    H1  157   0.611   1.284  11.613 -1.0290 -0.4212  0.6230
   10MPD2    H2  158   0.652   1.143  11.214  0.4414  1.1366  0.7714
   10MPD2    H3  159   0.657   1.323  11.380 -0.6883  0.0136 -2.3104
   10MPD2     N  160   0.486   1.086  11.711 -0.1802 -0.1787 -0.1452
   10MPD2    H5  161   0.529   1.151  11.776 -2.9959  3.5103 -1.9318
   10MPD2    N1  162   0.560   0.892  11.270 -0.2301 -0.7030 -0.0403
   10MPD2    H7  163   0.502   0.813  11.294 -0.7424  0.1891  1.7072
   11TCq1    O1  164   1.492   1.909  14.411 -0.2135 -0.2844  0.3929
   11TCq1    C1  165   1.421   1.913  14.292  0.1798 -0.3157 -0.2611
   11TCq1    O2  166   1.335   1.997  14.260 -0.2024  0.3867 -0.2100
   11TCq1    C2  167   1.471   1.806  14.213  0.0386  0.6872  0.5014
   11TCq1    C3  168   1.598   1.756  14.242 -0.4500  0.8177  1.2592
   11TCq1    C4  169   1.637   1.648  14.164  0.0319  0.1753 -0.0064
   11TCq1    C5  170   1.556   1.593  14.074  0.0567  0.3372 -0.7588
   11TCq1    C6  171   1.431   1.661  14.048  0.5822 -0.2563  0.0200
   11TCq1    C7  172   1.387   1.764  14.112  0.1283 -0.4934  0.5271
   11TCq1    C8  173   1.366   1.649  13.919 -0.2784  0.0801 -0.1378
   11TCq1    O4  174   1.341   1.750  13.857 -0.1728 -0.6007 -0.5160
   11TCq1    C9  175   1.770   1.590  14.189 -0.7348 -0.2274  0.0718
   11TCq1    O5  176   1.839   1.649  14.275  0.2656  0.1571 -0.2397
   11TCq1    O6  177   1.791   1.474  14.139 -0.0365  0.3858  0.6751
   11TCq1    H1  178   1.530   1.818  14.415 -0.0127 -0.2206 -0.1379
   11TCq1    H2  179   1.672   1.796  14.310 -1.0590  1.3608  1.5999
   11TCq1    H3  180   1.593   1.506  14.021 -1.2815 -0.7882  0.1422
   11TCq1    H4  181   1.306   1.822  14.070  0.5230  1.0383  1.8698
   12MPD2     C  182   1.192   1.559  13.694 -0.1817 -0.4415  0.1966
   12MPD2    C1  183   1.265   1.474  13.773 -0.3066 -0.8332  0.9954
   12MPD2    C2  184   1.256   1.339  13.754  0.2558 -0.1165  0.4418
   12MPD2    C3  185   1.172   1.283  13.658 -0.6938  0.4390 -0.1955
   12MPD2    C4  186   1.087   1.371  13.589  0.9620  0.2318  0.3314
   12MPD2    C5  187   1.100   1.508  13.611  1.1542 -0.4881  0.3027
   12MPD2     H  188   1.325   1.279  13.812 -0.1754 -1.4538 -0.4091
   12MPD2    H1  189   1.012   1.331  13.521 -0.5598  0.3960  1.9131
   12MPD2    H2  190   1.197   1.667  13.696 -1.2374 -0.3952  0.2675
   12MPD2    H3  191   1.036   1.575  13.554  0.7346 -0.5362  0.7082
   12MPD2     N  192   1.156   1.146  13.639  0.3285  0.8997 -0.2992
   12MPD2    H5  193   1.087   1.131  13.566 -0.4940  0.9128  0.4702
   12MPD2    N1  194   1.330   1.516  13.892  0.6961  0.9939  0.5412
   12MPD2    H7  195   1.366   1.449  13.960 -0.6839 -1.4298 -1.1503
   13TCq1    O1  196   0.982   1.255  10.171  0.4662  0.5891  0.8059
   13TCq1    C1  197   0.901   1.307  10.077  0.3276 -0.3025  0.0683
   13TCq1    O2  198   0.932   1.383   9.987 -0.3559  0.2507 -0.2293
   13TCq1    C2  199   0.766   1.277  10.120  0.8513  0.5982  0.5557
   13TCq1    C3  200   0.669   1.275  10.020 -0.1214 -0.7362 -0.0054
   13TCq1    C4  201   0.543   1.244  10.054  0.2113  0.1585  0.2752
   13TCq1    C5  202   0.506   1.208  10.181  0.0432 -0.2412 -0.5423
   13TCq1    C6  203   0.606   1.209  10.277  0.7308  0.3460  0.5608
   13TCq1    C7  204   0.734   1.242  10.250 -0.0888  0.2909 -0.4795
   13TCq1    C8  205   0.563   1.184  10.411 -0.3241 -0.4640 -0.5299
   13TCq1    O4  206   0.632   1.220  10.503  0.3498  0.3207 -0.6103
   13TCq1    C9  207   0.447   1.253   9.946 -0.2951  0.7258 -0.6780
   13TCq1    O5  208   0.328   1.218   9.970  0.4290 -0.1160 -0.2857
   13TCq1    O6  209   0.488   1.284   9.831 -0.1798  0.0223  1.0042
   13TCq1    H1  210   0.942   1.176  10.212 -1.3833  1.5964  0.9136
   13TCq1    H2  211   0.697   1.296   9.917 -0.4837 -0.9432 -0.1479
   13TCq1    H3  212   0.400   1.189  10.197 -0.0980  1.2376  0.2323
   13TCq1    H4  213   0.806   1.244  10.331 -0.3716 -0.3453 -0.2098
   14MPD2     C  214   0.301   0.949  10.501 -0.0990  0.3044 -0.8559
   14MPD2    C1  215   0.394   1.048  10.527  0.1679 -0.4209  0.4289
   14MPD2    C2  216   0.407   1.090  10.656 -0.1614 -0.2709  0.0894
   14MPD2    C3  217   0.322   1.049  10.754  0.6575  0.2552  0.2293
   14MPD2    C4  218   0.224   0.957  10.726 -0.1934  0.1736 -0.0106
   14MPD2    C5  219   0.209   0.908  10.598  0.6368 -0.1347  0.2155
   14MPD2     H  220   0.483   1.160  10.689  0.8797 -2.0291  1.4475
   14MPD2    H1  221   0.146   0.923  10.792  0.4415 -2.2400 -0.5159
   14MPD2    H2  222   0.282   0.915  10.400 -1.5880  1.7588 -1.0582
   14MPD2    H3  223   0.132   0.834  10.581  0.7307  0.3515 -2.2558
   14MPD2     N  224   0.340   1.098  10.888  0.1024  0.1556 -0.5040
   14MPD2    H5  225   0.411   1.170  10.891  0.2016  0.0264  0.3291
   14MPD2    N1  226   0.455   1.101  10.413 -0.2838  0.3478  0.9227
   14MPD2    H7  227   0.438   1.062  10.320  1.1316  1.0368  0.3789
   15TCq1    O1  228   2.180   1.033   0.750 -0.3736 -0.4603  0.6332
   15TCq1    C1  229   2.156   0.946   0.854 -0.6448  0.4000  0.1075
   15TCq1    O2  230   2.204   0.953   0.966 -0.1629 -0.0808  0.2398
   15TCq1    C2  231   2.122   0.816   0.805 -0.7367  0.2810 -1.0668
   15TCq1    C3  232   2.046   0.806   0.696  0.9407 -0.1788  0.5087
   15TCq1    C4  233   1.998   0.679   0.663 -0.3105  0.1962  0.6742
   15TCq1    C5  234   2.047   0.568   0.724  0.3743  0.0389  0.5030
   15TCq1    C6  235   2.118   0.587   0.844 -0.6686 -0.0221  0.6094
   15TCq1    C7  236   2.151   0.705   0.885  0.7917  0.2235 -0.3361
   15TCq1    C8  237   2.124   0.475   0.928  0.3173  0.2218  0.0325
   15TCq1    O4  238   2.136   0.373   0.868  0.1635  0.5830 -0.4264
   15TCq1    C9  239   1.910   0.678   0.557  0.2762 -0.7815  0.5947
   15TCq1    O5  240   1.892   0.783   0.493  0.0789 -0.0329 -0.2637
   15TCq1    O6  241   1.857   0.567   0.534  0.8814 -0.4299 -0.2064
   15TCq1    H1  242   2.140   1.000   0.666 -0.5555 -0.2504  0.6339
   15TCq1    H2  243   2.009   0.887   0.634 -0.5817 -0.3858  1.1280
   15TCq1    H3  244   2.018   0.471   0.686  0.7819  0.4919 -0.9533
   15TCq1    H4  245   2.200   0.719   0.981  1.3922  1.2319 -0.7839
   16MPD2     C  246   2.118   0.421   1.287 -0.2012  0.5756  0.2852
   16MPD2    C1  247   2.143   0.388   1.161 -0.8329  0.0130  0.1727
   16MPD2    C2  248   2.218   0.278   1.139  0.0864  0.5724  0.8738
   16MPD2    C3  249   2.264   0.201   1.247  0.7283 -0.9201 -0.2164
   16MPD2    C4  250   2.217   0.228   1.372 -1.0209 -0.3427 -0.0908
   16MPD2    C5  251   2.155   0.348   1.395 -0.4356 -0.9123  0.9212
   16MPD2     H  252   2.244   0.258   1.036  1.4878  2.4809  0.8547
   16MPD2    H1  253   2.249   0.166   1.455  0.8449  0.1584 -0.4308
   16MPD2    H2  254   2.056   0.509   1.296  0.9548  1.6300 -2.0551
   16MPD2    H3  255   2.135   0.377   1.498 -3.3369  2.5562 -0.6026
   16MPD2     N  256   2.371   0.111   1.229 -0.0299 -0.3841  0.4650
   16MPD2    H5  257   2.401   0.078   1.320  1.8410  1.1727  0.3989
   16MPD2    N1  258   2.116   0.495   1.069 -0.0289  0.0773  0.0575
   16MPD2    H7  259   2.082   0.586   1.101  0.2165 -0.8324  2.8810
   17TMC1    C1  260   0.097   0.754   9.524  0.3574  0.1535 -1.0818
   17TMC1    C2  261   0.084   0.774   9.660  0.1707 -0.2531  0.1296
   17TMC1    C3  262   4.690   0.783   9.707 -0.0443 -0.0680 -0.7162
   17TMC1    C4  263   4.724   0.740   9.446 -0.8659 -0.3150  0.4905
   17TMC1    C5  264   4.604   0.767   9.495  0.4760 -0.7047  0.2532
   17TMC1    C6  265   4.582   0.798   9.627  0.2395  0.3364 -0.5065
   17TMC1     C  266   0.229   0.733   9.469 -0.4550 -0.3335  0.0871
   17TMC1     O  267   0.236   0.732   9.345  0.8795  0.0760 -0.0744
   17TMC1     H  268   0.170   0.794   9.723  1.1189  0.6810 -1.4535
   17TMC1    H1  269   4.733   0.737   9.338  0.5327 -0.2865  0.6107
   17TMC1    H2  270   4.482   0.822   9.663  0.7356  2.0478 -0.2299
   17TMC1    C7  271   4.497   0.756   9.405  0.5116  0.1954 -0.6162
   17TMC1    C8  272   4.685   0.845   9.836  1.2662 -0.1847 -0.3998
   17TMC1    O1  273   4.384   0.797   9.431 -0.1330 -0.0343  0.2142
   17TMC1    O2  274   0.040   0.898   9.891  0.4620 -0.0463  0.6405
   17TMC1    O3  275   4.524   0.644   9.330  0.3551  0.2783 -0.2802
   17TMC1    H3  276   4.607   0.594   9.348  0.6979  0.3217 -1.6845
   17TMC1    O5  277   4.567   0.813   9.883  0.0325  0.2630  0.1949
   17TMC1    H5  278   4.519   0.740   9.837  1.3351 -1.4851  1.6014
   18MPD2     C  279   0.521   0.764   9.410  0.2030 -1.2004 -0.0988
   18MPD2    C1  280   0.474   0.734   9.537  0.0811  0.1616  0.0832
   18MPD2    C2  281   0.566   0.708   9.640 -0.0787  0.5564  0.3373
   18MPD2    C3  282   0.700   0.721   9.617  0.2275  0.0429 -0.0695
   18MPD2    C4  283   0.747   0.746   9.486 -0.0634  0.3019 -0.6544
   18MPD2    C5  284   0.656   0.784   9.396 -0.1675  0.2571 -0.0416
   18MPD2     H  285   0.534   0.665   9.734  2.4517  0.9639  1.3797
   18MPD2    H1  286   0.851   0.768   9.463 -0.7202  1.7162 -2.2517
   18MPD2    H2  287   0.455   0.779   9.325 -0.3938  1.5221  0.8758
   18MPD2    H3  288   0.689   0.823   9.301  0.4912  0.6524  0.3463
   18MPD2     N  289   0.807   0.688   9.708  0.5936  0.2505  0.0469
   18MPD2    H5  290   0.896   0.710   9.665  0.3774  2.4391  0.7137
   18MPD2    N1  291   0.332   0.721   9.560 -0.3688  0.7975  0.9831
   18MPD2    H7  292   0.302   0.697   9.654  1.3041  1.1157  1.5967
   19TMC2    C1  293   2.776   0.865  13.432 -0.8949 -0.2966 -0.0844
   19TMC2    C2  294   2.728   0.963  13.346  0.4196  0.4750  0.5126
   19TMC2    C3  295   2.595   0.990  13.337 -0.8516 -0.0073 -0.1641
   19TMC2    C4  296   2.686   0.785  13.503 -0.7745 -0.6946 -0.5408
   19TMC2    C5  297   2.553   0.800  13.475 -0.3347 -0.7132  0.3343
   19TMC2    C6  298   2.508   0.905  13.390  0.0042 -1.0197  0.1051
   19TMC2     C  299   2.916   0.870  13.467  0.1586  0.2345 -0.9038
   19TMC2     O  300   2.989   0.936  13.397 -0.5045  0.5519 -0.6112
   19TMC2     H  301   2.788   1.035  13.293  0.5442  0.6062  0.8309
   19TMC2    H1  302   2.733   0.700  13.551 -1.9711 -0.6307  0.7302
   19TMC2    H2  303   2.401   0.921  13.381  0.3629  1.2270 -0.1074
   19TMC2    C7  304   2.459   0.722  13.550  0.2799 -0.3758 -0.2391
   19TMC2    C8  305   2.558   1.054  13.213 -0.1193 -0.6564  0.1549
   19TMC2    O1  306   2.506   0.622  13.599 -0.4669  0.4921 -0.2819
   19TMC2    O2  307   2.633   1.050  13.117  0.7116 -0.1414 -0.4590
   19TMC2    O5  308   2.460   1.140  13.231  0.1394 -0.7164  0.9184
   19TMC2    H5  309   2.433   1.154  13.324 -1.1741 -0.1512  0.4605
   20MPD2     C  310   3.176   0.861  13.609 -0.0755  0.5068 -0.0254
   20MPD2    C1  311   3.052   0.842  13.670  0.1724 -0.0462  0.0884
   20MPD2    C2  312   3.060   0.821  13.809 -0.9812 -0.2643 -0.0179
   20MPD2    C3  313   3.179   0.829  13.878  0.0090  0.0545 -0.4638
   20MPD2    C4  314   3.299   0.837  13.813 -0.2675  0.4040  0.1522
   20MPD2    C5  315   3.295   0.853  13.681 -0.1871  0.2646  0.2098
   20MPD2     H  316   2.965   0.825  13.862 -0.0905  5.3433  1.1889
   20MPD2    H1  317   3.393   0.843  13.867  0.4537 -0.1091 -1.0685
   20MPD2    H2  318   3.188   0.864  13.501  1.9603  0.0966  0.1882
   20MPD2    H3  319   3.386   0.864  13.623  0.0977 -1.5479  0.3123
   20MPD2     N  320   3.185   0.811  14.020 -0.1041  0.9152  0.9280
   20MPD2    H5  321   3.276   0.798  14.064  0.5856  2.6934  0.0071
   20MPD2    N1  322   2.932   0.832  13.599 -0.3675 -0.8294  0.3813
   20MPD2    H7  323   2.852   0.811  13.657 -0.6565  0.4791  0.4416
   21TMC2    C1  324   4.724   1.324  14.193 -0.5595 -0.1291 -0.2521
   21TMC2    C2  325   4.682   1.231  14.109  0.3994  0.4588  0.0356
   21TMC2    C3  326   4.588   1.149  14.148 -0.1135 -0.8862 -0.0486
   21TMC2    C4  327   4.678   1.341  14.324 -0.0352  0.2177  0.5724
   21TMC2    C5  328   4.581   1.256  14.368  0.2317 -0.6176 -0.3203
   21TMC2    C6  329   4.535   1.167  14.275  0.1094  0.5521  0.1453
   21TMC2     C  330   0.116   1.379  14.155  0.0282  0.2122  0.0289
   21TMC2     O  331   0.197   1.315  14.088 -0.1636  0.5125 -0.2475
   21TMC2     H  332   4.733   1.229  14.014 -1.7157  1.6599 -1.1196
   21TMC2    H1  333   4.722   1.403  14.401  1.0572 -0.1378  0.2380
   21TMC2    H2  334   4.443   1.115  14.301  0.6140 -0.8069 -0.7704
   21TMC2    C7  335   4.498   1.287  14.479  0.9144  0.3995  0.2683
   21TMC2    C8  336   4.531   1.060  14.058  0.3070 -0.5994 -0.1494
   21TMC2    O1  337   4.428   1.194  14.522  0.0249  0.0337 -0.3883
   21TMC2    O2  338   4.419   1.012  14.068  0.1469  0.4934  0.3572
   21TMC2    O5  339   4.636   1.013  13.989 -0.4300 -0.2321 -0.0419
   21TMC2    H5  340   4.715   1.071  13.987  0.0763 -0.8855  1.8203
   22MPD2     C  341   0.406   1.817  14.211 -0.7524 -0.3247  0.1402
   22MPD2    C1  342   0.437   1.699  14.149 -0.1125 -0.8492  0.2565
   22MPD2    C2  343   0.344   1.595  14.144  0.5106  0.2991 -0.4342
   22MPD2    C3  344   0.223   1.603  14.202 -0.4420  0.8970 -0.4627
   22MPD2    C4  345   0.196   1.719  14.264 -0.6564 -0.7223 -0.0384
   22MPD2    C5  346   0.277   1.825  14.265 -0.2057  0.7728 -0.3389
   22MPD2     H  347   0.364   1.505  14.086  0.5104 -0.5202  0.8264
   22MPD2    H1  348   0.095   1.730  14.301 -1.2986  0.5138 -2.1025
   22MPD2    H2  349   0.468   1.906  14.220  0.1280 -0.8740 -0.4744
   22MPD2    H3  350   0.266   1.920  14.314  0.1161  1.0235 -0.7517
   22MPD2     N  351   0.118   1.505  14.202  0.5172 -0.9023  0.6448
   22MPD2    H5  352   0.032   1.539  14.243  0.9650 -1.7216  2.2744
   22MPD2    N1  353   0.567   1.685  14.079 -0.5362  0.2451 -0.8022
   22MPD2    H7  354   0.571   1.599  14.025 -1.0152  0.3886 -1.0618
   23TMC2    C1  355   1.307   2.698  14.385 -0.0876 -0.7928 -0.0004
   23TMC2    C2  356   1.389   2.716  14.280 -1.4331 -0.3519  0.4406
   23TMC2    C3  357   1.381   2.626  14.176 -0.4647  0.2256 -0.3487
   23TMC2    C4  358   1.216   2.587  14.391  0.0381  0.4087 -0.2454
   23TMC2    C5  359   1.198   2.508  14.280 -0.5250 -0.0700  0.2633
   23TMC2    C6  360   1.292   2.524  14.180  0.5028 -0.4058  0.1682
   23TMC2     C  361   1.351   2.742  14.512 -0.2498 -0.1787 -0.2268
   23TMC2     O  362   1.274   2.699  14.598  0.2008  0.0174  0.2956
   23TMC2     H  363   1.452   2.804  14.268 -0.9837 -0.6926  0.2795
   23TMC2    H1  364   1.148   2.579  14.475  0.1768  0.4923 -0.1238
   23TMC2    H2  365   1.303   2.445  14.106  0.7995 -0.3144  0.1117
   23TMC2    C7  366   1.125   2.381  14.281 -0.3789 -0.1364  0.2708
   23TMC2    C8  367   1.440   2.650  14.051 -0.2345  0.1205 -0.0840
   23TMC2    O1  368   1.163   2.291  14.205 -0.4850  0.6660  0.1890
   23TMC2    O2  369   1.406   2.584  13.953  0.5324  0.2667 -0.0013
   23TMC2    O5  370   1.564   2.709  14.072  0.0863  0.0245 -0.1885
   23TMC2    H5  371   1.581   2.717  14.168 -0.8051  0.3986 -0.0542
   24MPD2     C  372   1.648   2.963  14.861 -0.1662  0.1058  0.0232
   24MPD2    C1  373   1.582   2.844  14.862  0.6520  0.2999  0.4781
   24MPD2    C2  374   1.512   2.805  14.751 -0.2231 -0.1348  0.1729
   24MPD2    C3  375   1.506   2.887  14.637 -0.8572 -0.0481 -0.0645
   24MPD2    C4  376   1.567   3.009  14.638 -0.7651 -0.7130 -0.0716
   24MPD2    C5  377   1.639   3.046  14.749 -0.0140 -0.5886  0.1021
   24MPD2     H  378   1.460   2.709  14.751 -3.0786  1.4076  2.2777
   24MPD2    H1  379   1.558   3.079  14.555 -1.6803 -2.9444 -1.8451
   24MPD2    H2  380   1.716   2.988  14.941 -0.3558  0.3590  0.1079
   24MPD2    H3  381   1.709   3.128  14.745 -0.4412 -0.2223  0.2373
   24MPD2     N  382   1.444   2.843  14.513  0.8544 -0.0274  0.3753
   24MPD2    H5  383   1.460   2.902  14.431 -1.7355  0.2740  0.1095
   24MPD2    N1  384   1.590   2.755  14.969  0.0809  0.0362  0.1527
   24MPD2    H7  385   1.549   2.664  14.953 -1.0707  0.6627 -0.4629
   25TMC2    C1  386   0.113   4.598  12.227 -0.2642 -0.0250  0.1117
   25TMC2    C2  387   0.181   4.709  12.271  0.2548  0.3013 -0.0385
   25TMC2    C3  388   0.167   4.732  12.406 -0.1437  0.2294 -0.1645
   25TMC2    C4  389   0.029   4.524  12.306 -0.3313  0.1085  0.0279
   25TMC2    C5  390   0.009   4.572  12.433 -0.3154  0.3627  0.2485
   25TMC2    C6  391   0.080   4.671  12.493 -0.1956  0.0842  0.3105
   25TMC2     C  392   0.144   4.561  12.089 -0.1089  0.3961  0.3618
   25TMC2     O  393   0.237   4.611  12.032 -0.0602 -0.1042 -0.1994
   25TMC2     H  394   0.260   0.024  12.216  0.5994 -0.0864  0.0985
   25TMC2    H1  395   4.719   4.429  12.281 -1.5493  0.5936  0.3875
   25TMC2    H2  396   0.069   4.687  12.600 -0.0569  0.5942  0.2489
   25TMC2    C7  397   4.633   4.524  12.508  0.1866 -0.7375  0.2896
   25TMC2    C8  398   0.259   0.091  12.468  0.8251 -0.0031  1.0932
   25TMC2    O1  399   4.644   4.540  12.633  0.2375 -0.5015  0.0982
   25TMC2    O2  400   0.313   0.089  12.580  0.1438 -0.1213  0.0185
   25TMC2    O5  401   0.251   0.207  12.397 -0.0508 -0.4092  0.2417
   25TMC2    H5  402   0.185   0.201  12.325  1.4808 -0.4579 -1.1580
   26MPD2     C  403   0.086   4.222  11.714  0.0841  0.5546 -0.3382
   26MPD2    C1  404   4.713   4.206  11.801 -0.4109  0.3148  0.4085
   26MPD2    C2  405   4.713   4.283  11.921  0.5498  0.4173  0.2144
   26MPD2    C3  406   0.077   4.381  11.939 -0.4647 -0.4924 -0.2585
   26MPD2    C4  407   0.172   4.403  11.848  0.0252  0.1305 -0.7020
   26MPD2    C5  408   0.179   4.318  11.746  0.0295 -0.4384 -0.2807
   26MPD2     H  409   4.647   4.261  12.004  1.8529 -0.0547  1.1390
   26MPD2    H1  410   0.259   4.467  11.855 -1.1191  1.7373 -1.0947
   26MPD2    H2  411   0.102   4.162  11.625  1.1072  0.2171  0.0760
   26MPD2    H3  412   0.264   4.334  11.679  0.2918  0.6168  0.3053
   26MPD2     N  413   0.061   4.465  12.047 -0.1175 -0.1968 -0.1153
   26MPD2    H5  414   4.726   4.440  12.116 -0.9080  2.5648  0.0569
   26MPD2    N1  415   4.621   4.097  11.775 -0.3105 -0.5733  0.1673
   26MPD2    H7  416   4.644   4.046  11.691  2.6769 -0.5408  0.9548
   27TMC2    C1  417   4.017   2.089  12.104 -0.7599 -0.4968 -0.2436
   27TMC2    C2  418   4.072   2.157  11.998  1.1613 -0.3285 -0.0797
   27TMC2    C3  419   4.185   2.225  12.006 -0.4555  0.5787 -0.0600
   27TMC2    C4  420   4.076   2.086  12.224  0.1741  0.6637 -0.4909
   27TMC2    C5  421   4.175   2.183  12.234  0.0354 -0.5252 -0.2006
   27TMC2    C6  422   4.241   2.249  12.130 -0.4949  0.0709 -0.3334
   27TMC2     C  423   3.894   2.015  12.084  0.1516  0.5440 -0.3849
   27TMC2     O  424   3.821   2.060  11.998 -0.1617  0.3270  0.4155
   27TMC2     H  425   4.019   2.153  11.903  1.5556 -3.9551 -0.1218
   27TMC2    H1  426   4.048   2.022  12.307 -0.7216  0.3764 -1.0187
   27TMC2    H2  427   4.328   2.311  12.147  0.4940 -1.5841  0.6337
   27TMC2    C7  428   4.219   2.203  12.366 -0.5541  0.5903 -0.1778
   27TMC2    C8  429   4.245   2.263  11.881  0.4400 -0.7684 -0.5003
   27TMC2    O1  430   4.191   2.120  12.450  0.2866  0.6421  0.2287
   27TMC2    O2  431   4.193   2.259  11.768 -0.3397 -0.3542 -0.2176
   27TMC2    O5  432   4.367   2.226  11.907  0.0823 -0.0411  0.2526
   27TMC2    H5  433   4.385   2.217  12.003  1.1720 -0.7725 -0.0172
   28MPD2     C  434   3.519   1.688  12.178 -0.6914  0.2771 -0.3263
   28MPD2    C1  435   3.582   1.712  12.300 -0.3878 -0.3850  0.9713
   28MPD2    C2  436   3.705   1.775  12.297 -0.2475 -0.2287  0.2031
   28MPD2    C3  437   3.752   1.841  12.180 -0.2091 -0.0506 -0.1110
   28MPD2    C4  438   3.684   1.819  12.067  0.1452 -0.5753 -0.1666
   28MPD2    C5  439   3.578   1.738  12.065 -0.3281  0.7871 -0.0506
   28MPD2     H  440   3.761   1.797  12.387 -4.2010 -0.5767  2.7199
   28MPD2    H1  441   3.725   1.855  11.974 -1.0343 -0.3774 -0.6027
   28MPD2    H2  442   3.422   1.642  12.167  0.2650 -1.6662 -0.7939
   28MPD2    H3  443   3.527   1.716  11.972  0.4535  0.0251 -0.2899
   28MPD2     N  444   3.870   1.920  12.180  0.1779 -0.0024  0.1514
   28MPD2    H5  445   3.939   1.908  12.253  0.5830 -1.1880 -0.4311
   28MPD2    N1  446   3.522   1.657  12.415 -0.2733  0.2590  0.5446
   28MPD2    H7  447   3.439   1.600  12.405 -0.1957  0.2215  0.1133
   29TMC2    C1  448   3.387   4.467  14.602  0.1166  0.0577 -0.0345
   29TMC2    C2  449   3.417   4.453  14.737 -0.2936  0.7458  0.3803
   29TMC2    C3  450   3.440   4.574  14.798 -0.3105  0.0029  0.0283
   29TMC2    C4  451   3.354   4.588  14.542  0.0040  0.0078  0.0684
   29TMC2    C5  452   3.362   4.707  14.613  0.2979  0.1785  0.2973
   29TMC2    C6  453   3.413   4.697  14.742  0.1140  0.0348  0.3678
   29TMC2     C  454   3.401   4.345  14.524  0.7777 -0.2240  0.3893
   29TMC2     O  455   3.472   4.251  14.567  0.0763 -0.1347 -0.5176
   29TMC2     H  456   3.440   4.359  14.786 -1.7720 -0.7285 -1.7568
   29TMC2    H1  457   3.332   4.598  14.437 -0.4779 -0.7801  0.0879
   29TMC2    H2  458   3.421   0.050  14.804 -2.4489  2.4816 -2.7861
   29TMC2    C7  459   3.347   0.099  14.544 -0.4547 -0.7639 -0.6407
   29TMC2    C8  460   3.462   4.557  14.946 -0.4194  0.3626  0.2017
   29TMC2    O1  461   3.288   0.107  14.433  0.1924 -0.1526  0.1099
   29TMC2    O2  462   3.427   4.453  15.001  0.0065 -0.3336  0.2963
   29TMC2    O5  463   3.512   4.675  14.993 -0.2022 -0.0686 -0.0949
   29TMC2    H5  464   3.547   0.011  14.936  0.7625 -1.0258 -0.6915
   30MPD2     C  465   3.314   4.086  14.098 -0.3235  0.2673  0.2344
   30MPD2    C1  466   3.401   4.056  14.204 -0.3998 -0.0140  0.1107
   30MPD2    C2  467   3.415   4.156  14.301 -0.3763 -0.1898 -0.3419
   30MPD2    C3  468   3.331   4.263  14.305  0.5695 -0.1114 -0.4320
   30MPD2    C4  469   3.242   4.290  14.206 -0.0561  0.4837  0.3322
   30MPD2    C5  470   3.228   4.195  14.108 -0.7069  0.5053  0.0877
   30MPD2     H  471   3.486   4.136  14.380 -2.0516  0.0311  1.2089
   30MPD2    H1  472   3.179   4.378  14.216 -1.0491 -0.2368  0.4607
   30MPD2    H2  473   3.306   4.013  14.018  0.5522 -0.9827  1.2754
   30MPD2    H3  474   3.144   4.203  14.040 -1.2475 -1.4506  0.5135
   30MPD2     N  475   3.328   4.359  14.407  0.1479  0.1042 -0.4414
   30MPD2    H5  476   3.268   4.441  14.413  0.2722  0.1636 -0.0118
   30MPD2    N1  477   3.463   3.934  14.224 -0.4505 -0.6120  0.1518
   30MPD2    H7  478   3.524   3.925  14.304  0.3109 -2.9761 -0.6800
   31TMC2    C1  479   1.244   3.160  15.780  0.3092 -0.3443  0.2622
   31TMC2    C2  480   1.120   3.205  15.819 -0.8356 -0.1996 -0.1761
   31TMC2    C3  481   1.089   3.185  15.950 -0.4030 -0.4114  0.0632
   31TMC2    C4  482   1.336   3.116  15.866  0.4474 -0.1917  0.5714
   31TMC2    C5  483   1.304   3.111  15.994 -0.3537  0.2200 -0.4009
   31TMC2    C6  484   1.178   3.137  16.042 -0.8945 -0.3782 -0.2749
   31TMC2     C  485   1.275   3.196  15.644 -0.1433  0.1850 -0.1537
   31TMC2     O  486   1.211   3.282  15.581  0.0804 -0.1396 -0.4526
   31TMC2     H  487   1.046   3.230  15.743 -1.2025  1.4335  0.7110
   31TMC2    H1  488   1.414   3.050  15.829  0.8456  0.2419  0.6326
   31TMC2    H2  489   1.152   3.118  16.146  1.3022 -0.9318  0.1566
   31TMC2    C7  490   1.388   3.061  16.100 -0.0376  0.1011  0.0794
   31TMC2    C8  491   0.947   3.159  15.971  0.4578  0.6351 -0.1326
   31TMC2    O1  492   1.438   2.953  16.082 -0.2366 -0.3253 -0.4641
   31TMC2    O2  493   0.911   3.078  16.059  0.0857  0.0434  0.2981
   31TMC2    O5  494   0.898   3.288  15.950  0.2009  0.2520  0.0407
   31TMC2    H5  495   0.954   3.351  15.900  0.5264 -1.6098 -1.9157
   32MPD2     C  496   1.604   3.215  15.247  0.6476  0.0553 -0.4920
   32MPD2    C1  497   1.495   3.283  15.272 -0.0100 -0.3568  0.0448
   32MPD2    C2  498   1.421   3.251  15.381 -0.5392  0.0458 -0.5692
   32MPD2    C3  499   1.453   3.155  15.476  0.5494 -0.3611 -0.4915
   32MPD2    C4  500   1.568   3.083  15.438 -0.2770 -0.6324  0.3669
   32MPD2    C5  501   1.644   3.116  15.331  0.0973 -0.2292 -0.6125
   32MPD2     H  502   1.338   3.317  15.406 -0.5842 -0.2824  0.1485
   32MPD2    H1  503   1.597   2.997  15.498  1.2099 -0.9769 -0.8507
   32MPD2    H2  504   1.665   3.238  15.160 -0.5617  1.1997 -1.0346
   32MPD2    H3  505   1.727   3.050  15.312  1.8502  2.5399 -2.6063
   32MPD2     N  506   1.382   3.126  15.593 -0.8732  0.2301 -0.0184
   32MPD2    H5  507   1.419   3.048  15.647  0.9655  0.6449 -0.6725
   32MPD2    N1  508   1.474   3.384  15.184 -0.3009  0.1756  1.0604
   32MPD2    H7  509   1.548   3.412  15.120  0.6654  1.1938  2.6131
   33TMC2    C1  510   1.925   0.659   9.568  0.0477 -0.3344 -0.5429
   33TMC2    C2  511   1.982   0.561   9.490  0.2011 -0.0132 -0.0491
   33TMC2    C3  512   2.115   0.548   9.507  0.3391 -0.5622 -0.1263
   33TMC2    C4  513   1.989   0.739   9.654 -0.5773  0.0323 -0.3862
   33TMC2    C5  514   2.123   0.719   9.668  0.0314  1.0885 -0.1031
   33TMC2    C6  515   2.185   0.616   9.595  0.3130  0.6304  0.5119
   33TMC2     C  516   1.782   0.651   9.580  0.0956 -0.3791 -0.3846
   33TMC2     O  517   1.736   0.699   9.683  0.3230  0.3556  0.0025
   33TMC2     H  518   1.932   0.489   9.425  1.2975 -1.1967  0.4120
   33TMC2    H1  519   1.935   0.819   9.703 -2.2156 -1.1144 -0.3302
   33TMC2    H2  520   2.285   0.577   9.609  0.1867 -0.0347 -0.3986
   33TMC2    C7  521   2.202   0.823   9.725  0.1668  0.2119  0.8099
   33TMC2    C8  522   2.175   0.428   9.449  0.0582  0.2953  0.2174
   33TMC2    O1  523   2.137   0.912   9.779 -0.5552  0.0556  0.0123
   33TMC2    O2  524   2.105   0.335   9.405 -0.8689 -0.5985 -0.2418
   33TMC2    O5  525   2.293   0.465   9.390 -0.4071 -0.2823  0.3895
   33TMC2    H5  526   2.313   0.561   9.389  0.4744 -0.4723  0.1634
   34MPD2     C  527   1.322   0.498   9.439  0.3294 -0.2247  0.6687
   34MPD2    C1  528   1.364   0.541   9.563  0.2850  0.1019  0.4162
   34MPD2    C2  529   1.496   0.583   9.574 -0.8811 -0.0431  0.1581
   34MPD2    C3  530   1.583   0.572   9.464 -0.3708  0.1084  0.2362
   34MPD2    C4  531   1.538   0.521   9.343 -0.1951  0.4331  0.4354
   34MPD2    C5  532   1.412   0.486   9.336  0.1624 -0.0817 -0.2297
   34MPD2     H  533   1.514   0.649   9.659 -2.8866 -1.0511  1.3541
   34MPD2    H1  534   1.594   0.515   9.251  0.8785  0.2659  1.1024
   34MPD2    H2  535   1.223   0.467   9.405  1.6919 -3.9658  0.0852
   34MPD2    H3  536   1.384   0.437   9.243  1.6032 -0.0206 -0.6926
   34MPD2     N  537   1.717   0.596   9.474 -0.2092  0.2640  0.1941
   34MPD2    H5  538   1.766   0.581   9.386 -0.1599  0.8027  0.1261
   34MPD2    N1  539   1.262   0.552   9.659  0.2969  0.4375  0.5018
   34MPD2    H7  540   1.169   0.530   9.625  0.8010 -1.2735  0.2299
   35TMC2    C1  541   2.375   1.870  11.598  0.5611 -0.2907  0.0393
   35TMC2    C2  542   2.354   1.997  11.552 -0.0485  0.5581 -0.3147
   35TMC2    C3  543   2.233   2.056  11.579 -0.8720  0.1157 -0.2415
   35TMC2    C4  544   2.284   1.795  11.668 -0.1533 -0.7830  0.5611
   35TMC2    C5  545   2.157   1.857  11.689  0.1230  0.3877 -0.0926
   35TMC2    C6  546   2.128   1.991  11.647 -0.3596  0.1163  0.3812
   35TMC2     C  547   2.508   1.814  11.574 -0.2954  0.2196 -0.3557
   35TMC2     O  548   2.563   1.864  11.479 -0.7406 -0.2768  0.2848
   35TMC2     H  549   2.420   2.042  11.479  0.5624  0.6038  0.2645
   35TMC2    H1  550   2.311   1.695  11.698 -0.1917 -1.4142 -1.5153
   35TMC2    H2  551   2.039   2.041  11.684 -0.5965 -0.2614  0.3208
   35TMC2    C7  552   2.051   1.765  11.708  0.5286  0.2733 -0.3925
   35TMC2    C8  553   2.227   2.196  11.555 -0.1174  1.1205  0.0953
   35TMC2    O1  554   2.072   1.657  11.769 -0.2836 -0.2555 -0.5028
   35TMC2    O2  555   2.330   2.262  11.542 -0.3744 -0.4435 -0.2455
   35TMC2    O5  556   2.105   2.232  11.510  0.8390  0.1280 -0.1611
   35TMC2    H5  557   2.038   2.160  11.514 -0.2731  1.1556 -0.4716
   36MPD2     C  558   2.950   1.558  11.636 -0.0506 -0.4912  0.1120
   36MPD2    C1  559   2.874   1.532  11.746  0.2212  0.1455  0.1379
   36MPD2    C2  560   2.741   1.589  11.754  0.2890 -0.9467 -0.2964
   36MPD2    C3  561   2.689   1.669  11.651 -0.4786 -0.2951  0.3598
   36MPD2    C4  562   2.779   1.699  11.548  0.3923  0.2768  0.4852
   36MPD2    C5  563   2.904   1.648  11.541 -0.7540  0.0955  0.0357
   36MPD2     H  564   2.674   1.573  11.837 -0.0858 -0.1930 -0.4493
   36MPD2    H1  565   2.754   1.753  11.457 -2.0022 -2.5369 -0.5324
   36MPD2    H2  566   3.047   1.511  11.622 -0.4093 -0.7350 -1.6595
   36MPD2    H3  567   2.977   1.688  11.472  0.7992 -0.1734  1.5256
   36MPD2     N  568   2.557   1.715  11.664 -0.0234 -0.3524  0.2850
   36MPD2    H5  569   2.496   1.676  11.735 -0.1155  1.5907  1.2690
   36MPD2    N1  570   2.929   1.452  11.843 -0.4039  0.0054  0.0041
   36MPD2    H7  571   3.029   1.437  11.856 -0.3992  1.0031  1.1015
   37TMC2    C1  572   0.358   2.280  11.347 -1.1094 -0.6396 -0.3305
   37TMC2    C2  573   0.397   2.349  11.235  0.1175  0.4928  0.0249
   37TMC2    C3  574   0.523   2.404  11.233 -0.1458  0.4215 -0.3703
   37TMC2    C4  575   0.443   2.283  11.463 -0.2493 -0.7238 -0.3050
   37TMC2    C5  576   0.562   2.343  11.454 -0.4011 -0.6218  0.1408
   37TMC2    C6  577   0.612   2.389  11.334 -0.8558  0.7415  0.3326
   37TMC2     C  578   0.221   2.297  11.385  0.4713 -0.1985 -0.1196
   37TMC2     O  579   0.137   2.275  11.300  0.4217 -0.2931  0.1053
   37TMC2     H  580   0.331   2.348  11.150  2.3187 -1.7340 -1.6702
   37TMC2    H1  581   0.409   2.233  11.553  0.5761 -1.0330 -0.1657
   37TMC2    H2  582   0.705   2.443  11.320 -1.3842  0.9778 -2.2916
   37TMC2    C7  583   0.638   2.352  11.576  0.8455 -0.0278  0.0184
   37TMC2    C8  584   0.591   2.447  11.111  0.6174  0.3884  0.2651
   37TMC2    O1  585   0.571   2.340  11.680  0.1371 -0.1755 -0.4048
   37TMC2    O2  586   0.709   2.451  11.080 -0.3478  0.4127 -0.2154
   37TMC2    O5  587   0.495   2.508  11.040  0.3604  0.1047  0.2552
   37TMC2    H5  588   0.417   2.525  11.097 -0.2859 -0.2959 -0.5077
   38MPD2     C  589   4.605   2.405  11.747 -0.0582 -0.3431  0.2376
   38MPD2    C1  590   4.729   2.414  11.801 -0.0553 -0.0783  0.7986
   38MPD2    C2  591   0.100   2.394  11.721  0.6440 -0.1906 -0.2234
   38MPD2    C3  592   0.089   2.354  11.587 -0.3667  0.5080 -0.0834
   38MPD2    C4  593   4.694   2.332  11.532  0.1975 -0.4787  0.3672
   38MPD2    C5  594   4.591   2.368  11.613 -0.6428 -0.5532 -0.2560
   38MPD2     H  595   0.199   2.396  11.765  0.5413  1.1332 -0.0734
   38MPD2    H1  596   4.667   2.306  11.431  0.5350 -4.1647  1.2167
   38MPD2    H2  597   4.513   2.428  11.800  0.5760  0.0252  1.1871
   38MPD2    H3  598   4.490   2.364  11.571 -1.1284 -0.7717  0.9420
   38MPD2     N  599   0.210   2.331  11.515  0.3850 -0.3382  0.0357
   38MPD2    H5  600   0.297   2.349  11.564  0.7300 -0.9335 -0.3509
   38MPD2    N1  601   0.026   2.441  11.940  0.1475 -0.4083  0.2200
   38MPD2    H7  602   0.125   2.430  11.957  0.3051  0.8945  0.1419
   39TMC2    C1  603   2.833   3.810   2.070 -0.4264  0.2273 -0.4028
   39TMC2    C2  604   2.733   3.791   2.161  0.6674 -0.5768  0.1889
   39TMC2    C3  605   2.761   3.711   2.265 -0.3167 -0.4004  0.7004
   39TMC2    C4  606   2.962   3.753   2.085  0.9189 -0.0352  0.0735
   39TMC2    C5  607   2.987   3.686   2.207 -0.4054 -0.0653  0.5489
   39TMC2    C6  608   2.884   3.661   2.296 -0.5334  0.1721 -0.3011
   39TMC2     C  609   2.809   3.883   1.950 -1.0050 -1.3905  0.1871
   39TMC2     O  610   2.693   3.879   1.913 -0.1818 -0.1143  0.4462
   39TMC2     H  611   2.644   3.850   2.144  0.7636 -0.3444  0.4864
   39TMC2    H1  612   3.030   3.751   2.000  1.1067  1.3405  0.1808
   39TMC2    H2  613   2.893   3.598   2.384 -0.8315  2.3186  1.2467
   39TMC2    C7  614   3.122   3.646   2.238  0.6048  0.0679  0.1226
   39TMC2    C8  615   2.662   3.716   2.377 -0.1591  0.7195 -0.4124
   39TMC2    O1  616   3.136   3.581   2.343 -0.7276  0.6428 -0.3765
   39TMC2    O2  617   2.587   3.618   2.378 -0.3062 -0.0479 -0.2700
   39TMC2    O5  618   2.730   3.756   2.484  0.5616  0.0024 -0.2569
   39TMC2    H5  619   2.794   3.826   2.458  2.0290 -0.7457  1.3023
   40MPD2     C  620   3.076   3.988   1.715  0.7230  0.3844  0.6050
   40MPD2    C1  621   2.947   3.979   1.757 -0.1025 -0.6646  0.1437
   40MPD2    C2  622   2.848   4.009   1.677 -0.8474 -0.3941 -0.5074
   40MPD2    C3  623   2.870   4.053   1.547  0.1243 -0.2026  0.3646
   40MPD2    C4  624   3.000   4.048   1.496 -0.1164  0.1637 -0.7229
   40MPD2    C5  625   3.103   4.024   1.581  0.5867  0.3848  0.2724
   40MPD2     H  626   2.747   4.012   1.716 -0.7415  0.4809 -0.2901
   40MPD2    H1  627   3.030   4.077   1.396  0.6335  0.8669 -0.2898
   40MPD2    H2  628   3.159   3.960   1.779  1.1924  1.0761  0.2900
   40MPD2    H3  629   3.202   4.006   1.541 -0.5113 -0.5470 -1.9493
   40MPD2     N  630   2.768   4.085   1.456  0.0330 -0.5992 -0.5653
   40MPD2    H5  631   2.797   4.114   1.363  1.5986  1.7072  0.6304
   40MPD2    N1  632   2.930   3.923   1.889  0.1597 -0.2211 -0.3207
   40MPD2    H7  633   3.020   3.914   1.936  0.2562  1.3155 -0.2225
   41TMC2    C1  634   2.108   2.345  13.610 -0.6107  0.4951  1.2494
   41TMC2    C2  635   2.050   2.459  13.658 -0.4105  0.3507  0.4993
   41TMC2    C3  636   2.087   2.574  13.607  0.1115 -0.0646  0.6974
   41TMC2    C4  637   2.206   2.346  13.509  0.8598  0.4596 -0.3720
   41TMC2    C5  638   2.214   2.468  13.439 -0.5200 -0.1018 -0.1395
   41TMC2    C6  639   2.160   2.580  13.493  1.5982 -0.6480  0.0033
   41TMC2     C  640   2.070   2.217  13.654  0.5034  0.1619  0.2577
   41TMC2     O  641   2.094   2.124  13.580  0.3558  0.1487 -0.3983
   41TMC2     H  642   1.967   2.452  13.728 -0.3743  0.5083  0.5566
   41TMC2    H1  643   2.262   2.257  13.484  0.5184  0.8649 -2.6307
   41TMC2    H2  644   2.174   2.678  13.448 -0.1422  0.3395  1.5987
   41TMC2    C7  645   2.336   2.494  13.373 -0.5692 -0.1459 -0.2810
   41TMC2    C8  646   2.068   2.698  13.682 -0.4574  0.2705 -0.0499
   41TMC2    O1  647   2.398   2.597  13.402  0.3419 -0.1811  0.0888
   41TMC2    O2  648   2.078   2.806  13.626  1.1764  0.5179  0.4642
   41TMC2    O5  649   2.112   2.679  13.807 -0.4254 -0.1244 -0.0544
   41TMC2    H5  650   2.113   2.585  13.833  0.8934 -0.4667 -1.3521
   42MPD2     C  651   1.963   1.984  13.831 -1.2108  0.1331  0.0121
   42MPD2    C1  652   1.979   2.116  13.879  0.0154  0.0356 -0.6291
   42MPD2    C2  653   1.963   2.151  14.011  0.1530 -0.5620  0.4027
   42MPD2    C3  654   1.926   2.057  14.100 -0.4175 -0.0705  0.6222
   42MPD2    C4  655   1.922   1.928  14.055 -0.6217  0.3492  0.4177
   42MPD2    C5  656   1.931   1.891  13.924 -0.4881  0.2376 -0.2145
   42MPD2     H  657   1.957   2.256  14.036  0.5138 -0.0596 -1.5880
   42MPD2    H1  658   1.898   1.845  14.121 -0.6101 -0.0887 -0.1265
   42MPD2    H2  659   1.974   1.966  13.724  1.1813  1.4758  0.0251
   42MPD2    H3  660   1.927   1.788  13.891  3.8057  0.5618 -1.7993
   42MPD2     N  661   1.905   2.092  14.241  0.3280 -0.5320  0.4471
   42MPD2    H5  662   1.880   2.009  14.293  0.3998  0.8390  2.6358
   42MPD2    N1  663   2.020   2.227  13.790 -0.5792  0.6915 -0.0253
   42MPD2    H7  664   2.017   2.319  13.834 -0.6461  0.6328  0.0918
   43TMC2    C1  665   3.233   0.751   1.117  0.7584  0.0075  0.7128
   43TMC2    C2  666   3.099   0.786   1.098  0.0925  0.2920  0.3031
   43TMC2    C3  667   3.061   0.912   1.136  0.0242 -0.3817  0.0398
   43TMC2    C4  668   3.317   0.824   1.187  0.6188 -0.8671 -0.5775
   43TMC2    C5  669   3.268   0.940   1.236  0.2154 -0.6067  0.9023
   43TMC2    C6  670   3.137   0.988   1.214 -0.4097 -0.4577 -0.5453
   43TMC2     C  671   3.282   0.649   1.028  0.6396  0.3127 -0.6368
   43TMC2     O  672   3.379   0.579   1.053 -0.2935 -0.3503  0.1618
   43TMC2     H  673   3.033   0.717   1.048 -0.2750 -0.0633  1.2639
   43TMC2    H1  674   3.420   0.793   1.205  1.8350  4.4199  1.4874
   43TMC2    H2  675   3.101   1.084   1.250  2.7256  1.4143 -2.3708
   43TMC2    C7  676   3.364   1.026   1.307  0.4782  0.0891  1.0777
   43TMC2    C8  677   2.926   0.952   1.103  0.6559  0.3174 -0.7127
   43TMC2    O1  678   3.470   0.970   1.339  0.4464  0.0853  0.5822
   43TMC2    O2  679   2.824   0.883   1.099 -0.4984 -0.0656  0.0053
   43TMC2    O5  680   2.920   1.088   1.109  0.2783 -0.7148  0.7477
   43TMC2    H5  681   3.002   1.135   1.082  0.3277 -0.2270  1.7582
   44MPD2     C  682   3.245   0.454   0.543  0.0146  0.3165 -0.1082
   44MPD2    C1  683   3.330   0.415   0.649 -0.0986  0.2961 -0.2999
   44MPD2    C2  684   3.320   0.479   0.770 -0.2339 -0.3205  0.2882
   44MPD2    C3  685   3.249   0.594   0.787  0.6970 -0.3864  0.1045
   44MPD2    C4  686   3.170   0.638   0.678  0.4720  0.1579  0.5376
   44MPD2    C5  687   3.168   0.571   0.555  0.0907 -0.1528 -0.2958
   44MPD2     H  688   3.379   0.440   0.852 -1.2359 -3.1186 -0.3279
   44MPD2    H1  689   3.105   0.724   0.684 -0.6159 -0.7238  1.2186
   44MPD2    H2  690   3.234   0.389   0.456 -0.5191 -1.1566  1.0511
   44MPD2    H3  691   3.100   0.596   0.474 -1.1999  1.3331  1.2390
   44MPD2     N  692   3.223   0.665   0.906 -0.2544  0.5888 -0.0524
   44MPD2    H5  693   3.162   0.746   0.898 -2.0692 -0.8141 -0.5013
   44MPD2    N1  694   3.410   0.300   0.622 -0.7922 -0.3518  0.5913
   44MPD2    H7  695   3.454   0.250   0.699 -2.4397  0.0129  1.7756
   45TMC2    C1  696   0.491   2.704  10.680 -0.2317  0.3074 -0.2546
   45TMC2    C2  697   0.584   2.661  10.772  0.3170 -0.0404  0.0572
   45TMC2    C3  698   0.615   2.755  10.871 -0.4337  0.6877 -0.8614
   45TMC2    C4  699   0.440   2.834  10.675  0.6798 -0.2177 -0.0099
   45TMC2    C5  700   0.488   2.921  10.772  1.0072 -0.2399  0.9713
   45TMC2    C6  701   0.566   2.885  10.875  0.3611 -0.4034 -0.3222
   45TMC2     C  702   0.437   2.596  10.591  0.0065 -0.1210  0.3291
   45TMC2     O  703   0.472   2.482  10.625  0.0150  0.4313  0.0899
   45TMC2     H  704   0.629   2.562  10.776  0.0504 -0.1567  0.2227
   45TMC2    H1  705   0.365   2.869  10.605  1.1014  2.4278  0.8674
   45TMC2    H2  706   0.601   2.963  10.941 -1.6774  1.4340 -1.4302
   45TMC2    C7  707   0.462   3.058  10.745 -0.1500  0.4911  0.7954
   45TMC2    C8  708   0.740   2.723  10.941 -0.0452  0.0890 -0.6487
   45TMC2    O1  709   0.432   3.133  10.841 -0.0059  0.0914  0.3356
   45TMC2    O2  710   0.835   2.671  10.885 -0.6301 -0.2550 -0.2886
   45TMC2    O5  711   0.735   2.771  11.065 -0.3890 -0.1711  1.0362
   45TMC2    H5  712   0.651   2.802  11.105  0.0310  0.6330  1.3124
   46MPD2     C  713   0.248   2.427  10.437  0.2419  0.8653  0.1452
   46MPD2    C1  714   0.267   2.566  10.413  0.0163  0.0198 -0.9245
   46MPD2    C2  715   0.203   2.623  10.298 -0.3066  0.6943 -0.6753
   46MPD2    C3  716   0.110   2.552  10.226 -0.9251 -0.5447  0.7526
   46MPD2    C4  717   0.076   2.425  10.271  0.3135  0.8442  0.0277
   46MPD2    C5  718   0.148   2.366  10.367  0.1106 -0.3392  0.3648
   46MPD2     H  719   0.235   2.721  10.265 -0.7522  0.4968 -1.6881
   46MPD2    H1  720   0.015   2.360  10.209 -0.2180 -0.4984  1.9519
   46MPD2    H2  721   0.309   2.362  10.498  0.7579 -1.7576 -3.1655
   46MPD2    H3  722   0.137   2.259  10.378 -1.6102 -0.0478  1.4544
   46MPD2     N  723   0.051   2.616  10.117 -0.4609 -0.0638  0.3004
   46MPD2    H5  724   0.078   2.713  10.103 -1.1593  0.0234 -0.4338
   46MPD2    N1  725   0.356   2.644  10.494  0.0532 -0.3106  0.2809
   46MPD2    H7  726   0.352   2.743  10.471 -0.0321 -0.2496  0.5587
   47TMC2    C1  727   2.066   2.913   9.144  0.1530 -0.2084  0.1707
   47TMC2    C2  728   1.971   3.005   9.118 -0.0858  0.4809 -0.1216
   47TMC2    C3  729   1.846   2.965   9.090 -0.1265 -0.2262  0.7615
   47TMC2    C4  730   2.029   2.780   9.158  0.4660  0.0479 -0.5205
   47TMC2    C5  731   1.901   2.745   9.124 -0.4545  0.0991 -0.4618
   47TMC2    C6  732   1.807   2.832   9.078 -0.0177 -0.4682 -0.0772
   47TMC2     C  733   2.195   2.970   9.177  0.6122 -0.2422  0.0991
   47TMC2     O  734   2.218   3.083   9.135  0.4522  0.0877 -0.5296
   47TMC2     H  735   1.995   3.110   9.133  0.7006  0.0224  1.8039
   47TMC2    H1  736   2.105   2.710   9.192  0.4367  0.6085  0.7171
   47TMC2    H2  737   1.702   2.819   9.053 -0.2444 -0.9317  1.0846
   47TMC2    C7  738   1.848   2.633   9.194  0.2069 -0.6487 -0.0330
   47TMC2    C8  739   1.737   3.051   9.105 -0.1978  0.0044 -0.0426
   47TMC2    O1  740   1.743   2.663   9.249 -0.0584  0.5402  0.2174
   47TMC2    O2  741   1.630   3.022   9.163 -0.0603 -0.2624  0.7907
   47TMC2    O5  742   1.767   3.166   9.038 -0.5163  0.4141 -0.1160
   47TMC2    H5  743   1.852   3.163   8.990 -1.7654 -0.2911 -2.2547
   48MPD2     C  744   2.444   3.039   9.312  0.2776 -0.1452 -0.3237
   48MPD2    C1  745   2.369   2.928   9.335 -0.2170 -0.1243  0.1563
   48MPD2    C2  746   2.423   2.834   9.427 -0.8891  0.1315  0.5932
   48MPD2    C3  747   2.525   2.866   9.513 -0.6695  0.1781  0.5388
   48MPD2    C4  748   2.604   2.978   9.484 -0.0543 -0.1546 -0.2924
   48MPD2    C5  749   2.567   3.053   9.378  0.3176  0.4246 -0.6638
   48MPD2     H  750   2.374   2.739   9.446  1.7371 -1.2030  0.7013
   48MPD2    H1  751   2.692   3.004   9.542 -0.0264 -1.8923  0.4256
   48MPD2    H2  752   2.412   3.120   9.247  0.7585 -0.3451 -0.8105
   48MPD2    H3  753   2.635   3.128   9.341  1.3839  0.5898  1.6258
   48MPD2     N  754   2.563   2.777   9.612 -0.4129  0.2729  0.3949
   48MPD2    H5  755   2.529   2.681   9.617 -1.3945  0.4657 -2.8642
   48MPD2    N1  756   2.255   2.895   9.265 -0.7302  0.7052 -0.0229
   48MPD2    H7  757   2.216   2.805   9.292 -0.2031  0.0999 -1.3068
   49TMC2    C1  758   4.682   4.330  10.777 -0.2093 -0.1050  0.0678
   49TMC2    C2  759   0.037   4.288  10.688 -0.5996 -0.1199  0.0927
   49TMC2    C3  760   0.010   4.302  10.553  0.3025  0.0762 -0.5330
   49TMC2    C4  761   4.552   4.359  10.731 -0.6820  0.1497  0.2626
   49TMC2    C5  762   4.528   4.387  10.599 -0.6094  0.2460  0.0578
   49TMC2    C6  763   4.624   4.360  10.504 -0.2256 -0.4488 -0.0622
   49TMC2     C  764   4.703   4.291  10.919  0.3333  0.4663 -0.9505
   49TMC2     O  765   0.048   4.202  10.936  0.6579  0.2564 -0.1931
   49TMC2     H  766   0.134   4.262  10.726 -0.1866 -0.4922 -1.2042
   49TMC2    H1  767   4.477   4.391  10.802 -1.0394  0.6139 -0.3209
   49TMC2    H2  768   4.611   4.383  10.399  0.2534 -0.9425 -0.2305
   49TMC2    C7  769   4.392   4.420  10.558  0.0878  0.4355 -0.0716
   49TMC2    C8  770   0.126   4.298  10.473 -0.7878  0.2838 -0.1410
   49TMC2    O1  771   4.306   4.390  10.635 -0.0946  0.1382 -0.1232
   49TMC2    O2  772   0.230   4.245  10.509  0.6016 -0.4430 -0.0188
   49TMC2    O5  773   0.125   4.422  10.428  0.0438 -0.1798 -0.4992
   49TMC2    H5  774   0.039   4.469  10.425  1.0670  1.6828 -0.5195
   50MPD2     C  775   4.682   4.289  11.214  0.2647  0.0688 -0.4519
   50MPD2    C1  776   4.653   4.400  11.137 -0.0976  0.5082  0.1229
   50MPD2    C2  777   4.605   4.510  11.206  0.1487 -0.5517  0.9833
   50MPD2    C3  778   4.588   4.516  11.348 -0.1564  0.1318  0.2022
   50MPD2    C4  779   4.617   4.400  11.417  0.5927 -0.4090 -0.3505
   50MPD2    C5  780   4.662   4.292  11.346  0.5281 -0.0599  0.0516
   50MPD2     H  781   4.576   4.598  11.150 -1.7877 -0.5692  1.9470
   50MPD2    H1  782   4.609   4.394  11.525 -1.0317 -0.8742 -0.5043
   50MPD2    H2  783   4.706   4.192  11.173  0.2928 -0.0128 -0.2422
   50MPD2    H3  784   4.687   4.201  11.399  0.9256 -0.1058 -0.2173
   50MPD2     N  785   4.542   4.631  11.419  0.2641  0.3165  0.2706
   50MPD2    H5  786   4.542   4.621  11.520  0.6959 -1.0681  0.1281
   50MPD2    N1  787   4.663   4.392  10.997 -0.1544 -0.0473 -0.2661
   50MPD2    H7  788   4.625   4.475  10.952  0.7830  0.1604 -0.6873
   51TMC2    C1  789   4.570   4.155   1.711 -0.1459 -0.2901  0.0289
   51TMC2    C2  790   4.474   4.137   1.615  0.6837 -0.6855 -0.5752
   51TMC2    C3  791   4.460   4.231   1.517 -0.4897 -0.1941 -0.3094
   51TMC2    C4  792   4.675   4.239   1.699  0.0199 -0.5617 -0.2647
   51TMC2    C5  793   4.657   4.334   1.600 -0.0448  0.3605  0.2086
   51TMC2    C6  794   4.555   4.330   1.511 -0.0413 -0.4528  0.0900
   51TMC2     C  795   4.602   4.043   1.786 -0.7326 -0.0545  0.0790
   51TMC2     O  796   4.719   4.017   1.802  0.1316  0.7829  0.7263
   51TMC2     H  797   4.414   4.046   1.612 -2.6137  1.4562  0.5616
   51TMC2    H1  798   0.016   4.237   1.776  0.6969  1.0055 -0.8855
   51TMC2    H2  799   4.546   4.393   1.423  1.0040 -0.3783  0.0437
   51TMC2    C7  800   0.039   4.410   1.567  0.0361 -0.5929  0.4168
   51TMC2    C8  801   4.376   4.192   1.402  0.1910  0.0552  0.0565
   51TMC2    O1  802   0.143   4.377   1.620 -0.1309  0.8776 -0.4865
   51TMC2    O2  803   4.260   4.155   1.421  0.3016 -0.1419  0.5029
   51TMC2    O5  804   4.465   4.115   1.333 -0.1782  0.3901  0.2179
   51TMC2    H5  805   4.558   4.141   1.350 -0.5996  0.6304  2.0842
   52MPD2     C  806   4.452   3.558   1.875  0.2621 -0.0956 -0.0149
   52MPD2    C1  807   4.575   3.611   1.831  0.1202  0.3939 -0.4057
   52MPD2    C2  808   4.591   3.751   1.832  1.1823 -0.3720 -0.5053
   52MPD2    C3  809   4.486   3.833   1.846  0.0866 -0.3131  0.4370
   52MPD2    C4  810   4.359   3.773   1.874 -1.0009 -0.2884  0.5326
   52MPD2    C5  811   4.341   3.637   1.887 -0.0400 -0.3597  0.1694
   52MPD2     H  812   4.688   3.791   1.807  1.3220 -1.2514 -1.3429
   52MPD2    H1  813   4.266   3.828   1.868 -0.3169  0.9045  0.7801
   52MPD2    H2  814   4.433   3.451   1.871  1.5411 -0.3679  1.2389
   52MPD2    H3  815   4.240   3.601   1.905 -0.0894 -0.3266 -0.0456
   52MPD2     N  816   4.491   3.974   1.824 -0.0965 -0.6419 -0.5158
   52MPD2    H5  817   4.398   4.013   1.838  0.3616  0.0827  0.5041
   52MPD2    N1  818   4.683   3.530   1.803  0.4034  0.5363 -0.3528
   52MPD2    H7  819   0.036   3.568   1.772  0.6227  0.1952 -0.1436
   53TMC2    C1  820   0.868   2.637  12.228 -0.1741  0.4042 -0.4158
   53TMC2    C2  821   0.933   2.700  12.325 -0.2530  0.5091 -0.0340
   53TMC2    C3  822   0.875   2.786  12.416  0.1938  0.1506 -0.4984
   53TMC2    C4  823   0.729   2.656  12.221 -0.4190  0.1212 -0.3986
   53TMC2    C5  824   0.673   2.728  12.321 -0.5685  0.0542  0.4090
   53TMC2    C6  825   0.741   2.797  12.421  0.1847 -0.7034  0.1461
   53TMC2     C  826   0.932   2.568  12.118 -0.6256 -0.2265  0.1068
   53TMC2     O  827   1.052   2.565  12.132  0.0308  0.0704 -0.0697
   53TMC2     H  828   1.041   2.695  12.335 -0.0433 -1.3479 -3.0177
   53TMC2    H1  829   0.669   2.604  12.147  0.2331 -0.3823 -0.5685
   53TMC2    H2  830   0.699   2.877  12.480 -0.6609  0.7064 -2.3680
   53TMC2    C7  831   0.532   2.743  12.308  0.2951  0.8644  0.7749
   53TMC2    C8  832   0.942   2.820  12.542 -0.5293  0.4356  0.3759
   53TMC2    O1  833   0.479   2.707  12.205  0.0629 -0.2732 -0.0082
   53TMC2    O2  834   0.897   2.764  12.642  0.3327 -0.1575 -0.4011
   53TMC2    O5  835   1.067   2.852  12.519  0.4730 -0.5947  0.1657
   53TMC2    H5  836   1.073   2.907  12.438 -1.1236  0.0866  0.5157
   54MPD2     C  837   1.042   2.487  11.850  0.4478 -0.9793  0.0811
   54MPD2    C1  838   0.908   2.468  11.894  0.7275  0.4841 -0.6020
   54MPD2    C2  839   0.826   2.422  11.793  0.3248 -0.0915  0.2794
   54MPD2    C3  840   0.869   2.398  11.665  0.0953  0.6797  0.2283
   54MPD2    C4  841   1.002   2.409  11.634 -0.3423  0.2276  0.0846
   54MPD2    C5  842   1.085   2.458  11.726  0.9822  0.2458 -0.1138
   54MPD2     H  843   0.721   2.414  11.819  0.0539  0.1411 -0.7390
   54MPD2    H1  844   1.036   2.394  11.533  3.3134 -2.0306  1.6483
   54MPD2    H2  845   1.118   2.522  11.919 -0.9898  4.2690 -1.0118
   54MPD2    H3  846   1.190   2.462  11.700  0.7200  1.0551 -1.0074
   54MPD2     N  847   0.774   2.376  11.562  0.3736  0.0503 -0.3616
   54MPD2    H5  848   0.819   2.363  11.472  0.3183  1.8668 -0.6638
   54MPD2    N1  849   0.854   2.504  12.018  0.1823 -0.7608  0.1685
   54MPD2    H7  850   0.755   2.502  12.039  0.4545 -0.6518  1.4433
   55TMC2    C1  851   1.874   1.135  17.670  0.0082  0.4886 -0.3106
   55TMC2    C2  852   1.934   1.185  17.555 -0.3464 -0.6885 -0.5362
   55TMC2    C3  853   2.015   1.093  17.492 -0.4873 -0.5127  0.0723
   55TMC2    C4  854   1.909   1.008  17.723  0.5095  0.2413 -0.4136
   55TMC2    C5  855   1.973   0.915  17.648 -0.3787 -0.3284  0.0725
   55TMC2    C6  856   2.038   0.959  17.533  0.3581 -0.0487  0.1695
   55TMC2     C  857   1.799   1.220   0.015 -0.3871 -0.2178 -0.0810
   55TMC2     O  858   1.793   1.185   0.129  0.6323 -0.6434 -0.4987
   55TMC2     H  859   1.911   1.277  17.503 -1.1002 -0.2921  0.5049
   55TMC2    H1  860   1.865   0.974   0.076 -0.1351 -1.3995 -1.3191
   55TMC2    H2  861   2.091   0.886  17.471 -1.6346 -1.6678  0.3632
   55TMC2    C7  862   1.933   0.780  17.648  0.0578 -0.8425 -0.3775
   55TMC2    C8  863   2.060   1.124  17.350  0.1954 -0.0962  0.2664
   55TMC2    O1  864   1.953   0.713  17.549  0.2433  0.1985 -0.3360
   55TMC2    O2  865   2.015   1.227  17.295 -0.3337  0.2982 -0.0672
   55TMC2    O5  866   2.188   1.071  17.331 -0.1137 -0.0285  0.0166
   55TMC2    H5  867   2.216   1.018  17.408  1.8187 -0.3188 -0.8790
   56MPD2     C  868   1.625   1.542  17.696 -0.6292  0.0632  0.4154
   56MPD2    C1  869   1.665   1.430   0.027  0.0109 -0.0882 -0.2591
   56MPD2    C2  870   1.609   1.416   0.154 -0.3894  0.4235  0.1634
   56MPD2    C3  871   1.507   1.489   0.198 -0.3402 -0.1734  0.3915
   56MPD2    C4  872   1.465   1.596   0.120  0.4077  0.5793 -0.3838
   56MPD2    C5  873   1.532   1.625   0.010  0.2242  0.1675  0.4338
   56MPD2     H  874   1.640   1.341   0.225 -0.7519 -1.1138 -1.2932
   56MPD2    H1  875   1.393   1.671   0.151  0.2386  0.7854 -1.2585
   56MPD2    H2  876   1.676   1.564  17.603  1.5354 -1.2334  1.2900
   56MPD2    H3  877   1.501   1.710  17.690  0.3899 -0.7487 -0.9498
   56MPD2     N  878   1.445   1.453   0.326  0.0854 -0.2792  0.0746
   56MPD2    H5  879   1.484   1.374   0.375 -0.2987 -0.6937 -0.2840
   56MPD2    N1  880   1.748   1.339  17.704 -0.8908 -0.3327 -0.5178
   56MPD2    H7  881   1.776   1.372  17.612 -0.5559 -0.4544 -0.4581
   57TMC2    C1  882   0.243   0.975  13.270 -0.2321  0.1140 -0.8101
   57TMC2    C2  883   0.150   0.926  13.182 -0.9642 -0.3437  0.1585
   57TMC2    C3  884   0.184   0.884  13.061 -0.5005 -0.3741  0.0418
   57TMC2    C4  885   0.376   0.986  13.235 -0.2636 -0.0557  0.0444
   57TMC2    C5  886   0.407   0.908  13.129  0.5661 -0.0620 -0.2738
   57TMC2    C6  887   0.313   0.859  13.041 -0.4181  0.2730  0.0484
   57TMC2     C  888   0.201   1.039  13.395 -0.1780 -0.0501  0.0991
   57TMC2     O  889   0.288   1.090  13.465  0.0086 -0.2176  0.3827
   57TMC2     H  890   0.043   0.928  13.200 -1.0856  0.7019 -0.6412
   57TMC2    H1  891   0.446   1.036  13.300  0.7776 -0.1466 -1.0072
   57TMC2    H2  892   0.339   0.816  12.945 -1.2049 -1.3018  0.5402
   57TMC2    C7  893   0.550   0.907  13.092 -0.2062  0.2325 -0.0325
   57TMC2    C8  894   0.078   0.820  12.982  0.0849 -0.0904 -0.4588
   57TMC2    O1  895   0.600   1.018  13.102 -0.1322  0.1766  0.2947
   57TMC2    O2  896   4.710   0.778  13.033 -0.6555  0.0344 -0.1804
   57TMC2    O5  897   0.091   0.873  12.859 -0.5009  0.2807  0.4673
   57TMC2    H5  898   0.174   0.923  12.843 -1.5581  2.1793  0.8342
   58MPD2     C  899   4.576   1.213  13.720 -0.0451 -0.4955  0.6908
   58MPD2    C1  900   4.712   1.250  13.708  0.7567 -0.1469  1.2481
   58MPD2    C2  901   0.047   1.184  13.607  0.5093  0.3486  0.3941
   58MPD2    C3  902   4.732   1.085  13.527  0.6138  0.4359  0.2338
   58MPD2    C4  903   4.599   1.054  13.541 -0.2177 -0.3147  0.3098
   58MPD2    C5  904   4.525   1.118  13.639  0.3573 -0.8377  0.2976
   58MPD2     H  905   0.147   1.221  13.589 -0.5486  2.0647 -1.8880
   58MPD2    H1  906   4.548   0.980  13.480  0.7357  0.4557 -1.4167
   58MPD2    H2  907   4.505   1.265  13.784 -1.6402 -0.9265 -0.7250
   58MPD2    H3  908   4.424   1.083  13.653  0.4058 -1.0217  0.1847
   58MPD2     N  909   0.070   1.032  13.416  0.4840 -0.1303  0.6592
   58MPD2    H5  910   0.023   0.973  13.348  1.9846 -0.3549 -0.1692
   58MPD2    N1  911   0.042   1.364  13.763  0.8296 -0.1352 -0.2468
   58MPD2    H7  912   0.134   1.383  13.725 -0.4782 -0.2391 -3.4105
   59TMC2    C1  913   3.728   1.245  12.921 -0.6904 -0.1728 -0.2899
   59TMC2    C2  914   3.854   1.203  12.957  0.5157  0.5412  0.2398
   59TMC2    C3  915   3.939   1.164  12.855 -0.1780  0.0010  0.1275
   59TMC2    C4  916   3.691   1.263  12.790 -0.2153  0.5002 -0.4365
   59TMC2    C5  917   3.785   1.227  12.700 -0.2251 -0.3534 -0.2032
   59TMC2    C6  918   3.909   1.176  12.727 -0.1809 -0.0711  0.0579
   59TMC2     C  919   3.644   1.293  13.027  0.0611  0.2133 -0.4157
   59TMC2     O  920   3.526   1.293  12.994  0.0778  0.0334  0.5850
   59TMC2     H  921   3.877   1.190  13.062 -0.2497  1.0780  0.4729
   59TMC2    H1  922   3.592   1.302  12.770  0.0560  2.2169  1.5427
   59TMC2    H2  923   3.970   1.134  12.648 -0.2986  1.2153 -0.7289
   59TMC2    C7  924   3.768   1.252  12.553 -0.6131 -0.3500 -0.0601
   59TMC2    C8  925   4.074   1.127  12.889 -0.6026 -0.4305  0.2173
   59TMC2    O1  926   3.855   1.205  12.479  0.2793  0.2762 -0.2346
   59TMC2    O2  927   4.143   1.063  12.808  0.0787 -0.3241 -0.1025
   59TMC2    O5  928   4.117   1.234  12.955 -0.0364 -0.3914 -0.1884
   59TMC2    H5  929   4.042   1.274  13.003  0.1245  1.6421 -1.5982
   60MPD2     C  930   3.502   1.376  13.274  0.4994  0.1105 -0.5177
   60MPD2    C1  931   3.634   1.405  13.239  0.3547  0.6937  0.1388
   60MPD2    C2  932   3.698   1.501  13.318  0.1844  0.0687 -0.3255
   60MPD2    C3  933   3.640   1.564  13.421 -0.5565  0.0827  0.5932
   60MPD2    C4  934   3.512   1.530  13.461 -0.0958 -0.0606  0.2399
   60MPD2    C5  935   3.447   1.427  13.390 -0.7806  0.3849  0.1429
   60MPD2     H  936   3.799   1.520  13.282 -0.5059 -0.9491 -2.7827
   60MPD2    H1  937   3.462   1.571  13.548 -1.3439 -0.4096 -0.3155
   60MPD2    H2  938   3.433   1.312  13.221  1.6588  0.1172 -2.0359
   60MPD2    H3  939   3.360   1.378  13.433  0.1132 -0.7900  0.5912
   60MPD2     N  940   3.688   1.681  13.482  0.1770  0.2523  0.2161
   60MPD2    H5  941   3.627   1.737  13.541  0.1246 -1.7644  2.0601
   60MPD2    N1  942   3.703   1.357  13.131 -0.1622  0.0636  0.0188
   60MPD2    H7  943   3.802   1.377  13.121 -0.8622  2.9601 -1.0092
   61TMC2    C1  944   2.568   3.161  15.899 -0.1079 -0.3412 -0.0594
   61TMC2    C2  945   2.567   3.186  16.031  0.3231  0.8493 -0.1044
   61TMC2    C3  946   2.537   3.318  16.059 -0.2704 -0.0166 -1.1102
   61TMC2    C4  947   2.552   3.252  15.795  0.7617  0.6008 -0.4964
   61TMC2    C5  948   2.504   3.376  15.834 -0.7305 -0.3820 -0.6888
   61TMC2    C6  949   2.513   3.412  15.964 -0.1361 -0.6503  0.9370
   61TMC2     C  950   2.594   3.018  15.870 -0.3008  0.0655  0.0116
   61TMC2     O  951   2.618   2.936  15.957  0.2482 -0.2259  0.0543
   61TMC2     H  952   2.573   3.109  16.107  0.4452 -1.5898 -2.5875
   61TMC2    H1  953   2.570   3.236  15.689 -1.9662 -0.7660 -0.7667
   61TMC2    H2  954   2.495   3.516  15.990 -2.4557 -0.7163 -0.4782
   61TMC2    C7  955   2.463   3.478  15.732  0.1948  0.1940 -0.2235
   61TMC2    C8  956   2.526   3.342  16.199  0.0705  0.8692 -0.7503
   61TMC2    O1  957   2.512   3.455  15.623 -0.3943 -0.1269 -0.6311
   61TMC2    O2  958   2.502   3.255  16.282  0.1369  0.5520  0.0690
   61TMC2    O5  959   2.553   3.474  16.225  0.4000  0.6418  0.2410
   61TMC2    H5  960   2.607   3.525  16.161  0.1362  0.2588 -0.2875
   62MPD2     C  961   2.612   2.762  15.712  0.1147  0.1277  0.0102
   62MPD2    C1  962   2.596   2.887  15.655  0.3120 -0.6975  0.0399
   62MPD2    C2  963   2.589   2.897  15.516 -1.0871  0.0196  0.7464
   62MPD2    C3  964   2.573   2.789  15.436 -0.5965  0.9581 -0.5561
   62MPD2    C4  965   2.580   2.664  15.493  0.2850  0.7210 -0.1358
   62MPD2    C5  966   2.612   2.653  15.629  0.3922  0.3715 -0.0097
   62MPD2     H  967   2.590   2.996  15.472 -1.4531 -1.2802 -2.1727
   62MPD2    H1  968   2.578   2.571  15.438  0.1759 -0.1250  1.2956
   62MPD2    H2  969   2.621   2.737  15.818 -0.4454  0.3259  0.1058
   62MPD2    H3  970   2.622   2.554  15.672 -0.1321 -0.5722 -2.0904
   62MPD2     N  971   2.571   2.803  15.292  0.4030 -0.1772  0.3297
   62MPD2    H5  972   2.552   2.897  15.257  0.6568 -0.3545 -0.2783
   62MPD2    N1  973   2.599   3.003  15.732 -0.4859  0.4853  0.2898
   62MPD2    H7  974   2.595   3.088  15.676  0.8427  0.8809  0.7948
   63TMC2    C1  975   2.462   2.631  11.083 -0.0452  0.1572  1.0377
   63TMC2    C2  976   2.563   2.659  11.169  0.1004  0.7472  0.5779
   63TMC2    C3  977   2.640   2.769  11.153  0.8584  1.0026  0.6503
   63TMC2    C4  978   2.441   2.716  10.976  0.6558  0.6798 -0.3518
   63TMC2    C5  979   2.519   2.827  10.962 -0.3732  0.4529 -0.0834
   63TMC2    C6  980   2.628   2.853  11.041  0.1850  0.6455 -0.4356
   63TMC2     C  981   2.365   2.524  11.113 -0.0982 -0.2102 -0.7186
   63TMC2     O  982   2.368   2.474  11.224  0.3418 -0.6555 -0.5287
   63TMC2     H  983   2.575   2.606  11.264 -0.5745  0.9779  0.7870
   63TMC2    H1  984   2.363   2.694  10.904  2.3669  0.5499 -2.1647
   63TMC2    H2  985   2.694   2.939  11.029 -0.4414  1.1873 -0.0100
   63TMC2    C7  986   2.474   2.927  10.859  0.1564 -0.4210 -0.3318
   63TMC2    C8  987   2.696   2.815  11.270 -0.0940  0.4040  0.3489
   63TMC2    O1  988   2.381   2.894  10.790  0.5206  0.1150 -0.0218
   63TMC2    O2  989   2.691   2.934  11.295  0.0563  0.4204  0.8537
   63TMC2    O5  990   2.798   2.733  11.293  0.3130  0.1851  0.0132
   63TMC2    H5  991   2.795   2.646  11.247 -5.5557  0.0617  0.6676
   64MPD2     C  992   1.993   2.196  10.983  0.8575 -1.4151  0.0002
   64MPD2    C1  993   2.017   2.273  10.878 -0.3137 -0.3424 -0.1525
   64MPD2    C2  994   2.111   2.373  10.887  0.4545  0.1399  0.5894
   64MPD2    C3  995   2.178   2.395  11.001 -0.2021 -0.1215 -0.0195
   64MPD2    C4  996   2.144   2.317  11.108  0.2283  0.5175  0.7183
   64MPD2    C5  997   2.047   2.223  11.104 -0.5462 -0.3001  0.3573
   64MPD2     H  998   2.153   2.423  10.800  1.9696 -0.8424  0.7614
   64MPD2    H1  999   2.187   2.322  11.208 -0.2673  1.1948  0.9019
   64MPD2    H2 1000   1.938   2.102  10.986 -2.5341  0.6569  1.7057
   64MPD2    H3 1001   2.023   2.157  11.187  0.1354 -0.6104  0.3053
   64MPD2     N 1002   2.277   2.496  11.009 -0.0007  0.2485  0.7107
   64MPD2    H5 1003   2.270   2.550  10.923  0.4290  0.1121  0.5907
   64MPD2    N1 1004   1.982   2.240  10.743 -0.9212 -0.0177  0.4891
   64MPD2    H7 1005   2.032   2.290  10.671 -1.3352 -0.7622 -0.3135
   65TMC2    C1 1006   2.982   2.617  15.659  0.1242 -0.2162 -0.2877
   65TMC2    C2 1007   2.975   2.585  15.525  0.6919 -0.0700  1.0116
   65TMC2    C3 1008   2.973   2.696  15.441 -0.0958 -0.1250 -0.5698
   65TMC2    C4 1009   2.965   2.740  15.712 -0.3129  0.1137  0.7598
   65TMC2    C5 1010   2.950   2.844  15.622 -0.0887  0.7913 -0.0346
   65TMC2    C6 1011   2.954   2.824  15.484 -0.5864  0.5432  0.1965
   65TMC2     C 1012   2.957   2.510  15.762 -0.1378 -0.2882 -0.0589
   65TMC2     O 1013   2.905   2.546  15.869 -0.5673 -0.5396 -0.0479
   65TMC2     H 1014   2.956   2.482  15.496  0.4619  1.0145 -2.7298
   65TMC2    H1 1015   2.973   2.750  15.819  0.0434  0.3142  0.7119
   65TMC2    H2 1016   2.963   2.904  15.411 -2.1907  1.1152  0.6410
   65TMC2    C7 1017   2.936   2.988  15.651 -0.4193  0.1741  0.5548
   65TMC2    C8 1018   2.983   2.670  15.298  0.2471  0.1226 -0.3997
   65TMC2    O1 1019   2.935   3.068  15.559 -0.5765  0.1076  0.3137
   65TMC2    O2 1020   2.989   2.754  15.210 -0.3533 -0.0690 -0.0020
   65TMC2    O5 1021   3.029   2.540  15.287 -0.0036  0.0226 -0.2665
   65TMC2    H5 1022   3.031   2.479  15.363 -1.4740  0.0387 -0.1978
   66MPD2     C 1023   2.894   2.252  15.899 -0.3350  0.3811 -0.0634
   66MPD2    C1 1024   2.946   2.258  15.775 -0.4094 -0.3316 -0.1009
   66MPD2    C2 1025   2.959   2.148  15.692  0.4537  0.2037 -0.1778
   66MPD2    C3 1026   2.939   2.021  15.748 -0.3103  0.5030 -0.1645
   66MPD2    C4 1027   2.886   2.015  15.878  0.4962  0.3179  0.4364
   66MPD2    C5 1028   2.871   2.132  15.951 -0.5790  0.1037 -0.3959
   66MPD2     H 1029   2.994   2.154  15.590  3.2696 -0.3885  0.7523
   66MPD2    H1 1030   2.864   1.922  15.929 -1.1190  0.2408 -0.4025
   66MPD2    H2 1031   2.869   2.346  15.947 -0.8296  1.1749 -1.8595
   66MPD2    H3 1032   2.832   2.120  16.052  0.6229  0.4981  0.1149
   66MPD2     N 1033   2.959   1.901  15.685  0.2219  0.5248 -0.4097
   66MPD2    H5 1034   2.929   1.820  15.738 -1.1970  1.0172 -0.4636
   66MPD2    N1 1035   2.982   2.382  15.713 -0.4376 -0.4019  0.0597
   66MPD2    H7 1036   3.012   2.377  15.617 -0.5728  0.9778 -0.0551
   67TMC2    C1 1037   3.284   1.714  14.233 -0.1768  0.1922 -0.3883
   67TMC2    C2 1038   3.227   1.837  14.231 -0.2164 -0.8018 -0.0351
   67TMC2    C3 1039   3.209   1.905  14.351 -0.2616  0.0488  0.6464
   67TMC2    C4 1040   3.338   1.666  14.344  0.2997  0.5988 -0.0240
   67TMC2    C5 1041   3.332   1.738  14.460 -0.2945 -0.4598  0.9381
   67TMC2    C6 1042   3.255   1.851  14.469  0.3756  0.2324  0.1090
   67TMC2     C 1043   3.290   1.638  14.118  0.0060 -0.9196 -0.2238
   67TMC2     O 1044   3.373   1.549  14.112 -0.0719  0.5530 -0.0508
   67TMC2     H 1045   3.214   1.892  14.138  0.6964 -1.5651 -0.6155
   67TMC2    H1 1046   3.375   1.564  14.349 -0.6090  0.1784 -1.6536
   67TMC2    H2 1047   3.226   1.894  14.564 -3.5385 -0.3394 -0.8379
   67TMC2    C7 1048   3.441   1.730  14.554  0.9856  0.8087 -0.3779
   67TMC2    C8 1049   3.190   2.046  14.334 -0.5784 -0.5451 -0.1387
   67TMC2    O1 1050   3.548   1.702  14.500 -0.1864  0.3851  0.2652
   67TMC2    O2 1051   3.150   2.105  14.235 -0.3809 -0.1073  0.0024
   67TMC2    O5 1052   3.226   2.117  14.448  0.0244  0.1047 -0.3476
   67TMC2    H5 1053   3.258   2.061  14.522  1.2798  1.7869  0.3995
   68MPD2     C 1054   3.240   1.557  13.835 -0.2296 -0.2837  0.3238
   68MPD2    C1 1055   3.142   1.598  13.922 -0.7949  0.8497  0.0665
   68MPD2    C2 1056   3.012   1.583  13.883  0.2863  0.5196  0.2527
   68MPD2    C3 1057   2.978   1.519  13.762  0.2390  0.2997  0.4553
   68MPD2    C4 1058   3.080   1.481  13.678 -0.0029  0.0561  0.6141
   68MPD2    C5 1059   3.209   1.500  13.711  0.2755  0.0364  0.3955
   68MPD2     H 1060   2.937   1.623  13.952 -0.8775  0.5184 -1.0126
   68MPD2    H1 1061   3.050   1.445  13.581 -1.4936 -0.0176  1.0960
   68MPD2    H2 1062   3.343   1.555  13.869 -0.1940  1.8479  0.3057
   68MPD2    H3 1063   3.284   1.463  13.642 -2.6123  0.2895 -2.8395
   68MPD2     N 1064   2.844   1.485  13.727  0.2982 -1.0775  0.0968
   68MPD2    H5 1065   2.821   1.459  13.632  1.3498 -1.7467  0.0175
   68MPD2    N1 1066   3.174   1.656  14.047  0.1761 -0.4676 -0.0832
   68MPD2    H7 1067   3.099   1.714  14.081  1.5954  1.1045  0.3580
   69TMC2    C1 1068   0.507   3.187  12.777 -0.2950  0.2973 -0.3665
   69TMC2    C2 1069   0.404   3.268  12.734  0.3310  0.3664 -0.0815
   69TMC2    C3 1070   0.399   3.307  12.605 -0.7216  0.7589  0.4957
   69TMC2    C4 1071   0.603   3.154  12.686  0.2664  0.2771 -0.0823
   69TMC2    C5 1072   0.598   3.203  12.553  0.2797  0.0185  0.2038
   69TMC2    C6 1073   0.488   3.277  12.505 -0.5165  0.2566 -0.8805
   69TMC2     C 1074   0.476   3.096  12.886 -0.0538  0.0370 -0.3748
   69TMC2     O 1075   0.360   3.072  12.924 -0.0785 -0.5377 -0.2769
   69TMC2     H 1076   0.324   3.282  12.806  1.1594  0.1684  0.8826
   69TMC2    H1 1077   0.688   3.091  12.711 -0.4751 -1.4542 -1.9039
   69TMC2    H2 1078   0.488   3.319  12.405  0.7647 -0.8822 -1.3490
   69TMC2    C7 1079   0.687   3.150  12.457  0.2593  1.1077  0.7345
   69TMC2    C8 1080   0.275   3.374  12.573  0.1661  0.2615 -0.4520
   69TMC2    O1 1081   0.787   3.098  12.501 -0.3679  0.5500  0.4434
   69TMC2    O2 1082   0.201   3.428  12.659 -0.3500 -0.6724 -0.3235
   69TMC2    O5 1083   0.277   3.408  12.447 -0.5009 -0.0227  0.2720
   69TMC2    H5 1084   0.294   3.332  12.387  1.2629  0.3580  0.2757
   70MPD2     C 1085   0.707   2.858  13.027 -0.6180 -0.5040  0.2902
   70MPD2    C1 1086   0.588   2.907  12.994  0.0928  0.1058  0.3497
   70MPD2    C2 1087   0.471   2.829  13.021  0.5871  0.8817 -0.1231
   70MPD2    C3 1088   0.474   2.711  13.094 -0.0659 -0.2642 -0.2201
   70MPD2    C4 1089   0.597   2.659  13.125 -0.3377  0.5306  0.2143
   70MPD2    C5 1090   0.708   2.728  13.084 -1.1275 -0.0964 -0.1432
   70MPD2     H 1091   0.379   2.858  12.971 -0.7476 -2.1125  0.5649
   70MPD2    H1 1092   0.610   2.563  13.175 -0.4136  0.7148  0.5877
   70MPD2    H2 1093   0.805   2.899  13.003 -0.6792 -0.7410 -0.3633
   70MPD2    H3 1094   0.804   2.682  13.105 -0.3528  0.7750 -1.8035
   70MPD2     N 1095   0.370   2.627  13.129 -0.1770  0.2323  0.1846
   70MPD2    H5 1096   0.395   2.540  13.174  1.2650  0.3617 -0.3610
   70MPD2    N1 1097   0.589   3.029  12.920  0.1412  0.3210 -0.3017
   70MPD2    H7 1098   0.676   3.077  12.905  1.1472 -0.7289  2.0884
   71TMC2    C1 1099   3.319   3.573   1.508  1.1737  0.7340 -0.5014
   71TMC2    C2 1100   3.414   3.650   1.566 -0.5658 -0.1612  0.9049
   71TMC2    C3 1101   3.387   3.708   1.688 -0.4538  0.3988 -0.6564
   71TMC2    C4 1102   3.191   3.558   1.556  0.3284 -0.0210  0.4338
   71TMC2    C5 1103   3.169   3.622   1.678 -0.0039 -0.5752  0.5685
   71TMC2    C6 1104   3.264   3.695   1.744  0.0338  0.3150 -0.0962
   71TMC2     C 1105   3.319   3.561   1.364  0.1508 -0.5960  0.4233
   71TMC2     O 1106   3.216   3.597   1.308 -0.4326  0.0414 -0.3445
   71TMC2     H 1107   3.511   3.662   1.519 -0.7068 -1.5209  0.2554
   71TMC2    H1 1108   3.119   3.487   1.518  0.6071  0.5696 -1.2156
   71TMC2    H2 1109   3.244   3.734   1.842 -2.6619 -1.3776  0.0303
   71TMC2    C7 1110   3.058   3.566   1.761  0.1309 -0.5338 -0.4053
   71TMC2    C8 1111   3.477   3.817   1.731 -0.3447  0.3992  0.3039
   71TMC2    O1 1112   3.090   3.542   1.877  0.3373  0.1854  0.0967
   71TMC2    O2 1113   3.480   3.861   1.845  0.4401  0.7648 -0.3728
   71TMC2    O5 1114   3.525   3.875   1.620  0.6275 -0.2037 -0.8933
   71TMC2    H5 1115   3.476   3.856   1.537  1.2658 -0.1840 -1.2767
   72MPD2     C 1116   3.529   3.567   0.898 -0.5471  0.3421  0.4376
   72MPD2    C1 1117   3.398   3.582   0.935 -0.3424 -0.2989 -0.5513
   72MPD2    C2 1118   3.359   3.579   1.065 -0.2369  0.3572 -0.0241
   72MPD2    C3 1119   3.457   3.567   1.167 -0.0213  0.9629  0.2389
   72MPD2    C4 1120   3.588   3.556   1.125 -0.8728 -0.4026 -0.1193
   72MPD2    C5 1121   3.628   3.553   0.992  0.1034 -0.0532  0.0521
   72MPD2     H 1122   3.255   3.599   1.086 -0.6180 -1.6377 -0.0541
   72MPD2    H1 1123   3.660   3.543   1.204 -1.8454  0.4069  0.8907
   72MPD2    H2 1124   3.572   3.586   0.801 -1.9903 -3.0182 -0.8472
   72MPD2    H3 1125   3.732   3.530   0.974  0.0298 -0.7859  0.5379
   72MPD2     N 1126   3.441   3.553   1.304 -0.2326  0.5209  0.3769
   72MPD2    H5 1127   3.523   3.551   1.363  0.5573 -0.1292 -0.7274
   72MPD2    N1 1128   3.296   3.621   0.842 -0.2569 -0.0808 -0.2427
   72MPD2    H7 1129   3.211   3.666   0.876 -0.9762 -1.5137 -0.1175
   73TMC2    C1 1130   1.764   4.503  13.511 -0.2702 -0.9464  0.0885
   73TMC2    C2 1131   1.722   4.494  13.642 -0.3011 -0.2324  0.3746
   73TMC2    C3 1132   1.765   4.396  13.714 -1.1592  0.6351  0.9472
   73TMC2    C4 1133   1.834   4.409  13.449  0.2188  0.1343 -0.4867
   73TMC2    C5 1134   1.884   4.308  13.535 -0.1711  0.0976 -0.1424
   73TMC2    C6 1135   1.850   4.301  13.667 -0.5924 -0.0359  0.5621
   73TMC2     C 1136   1.807   4.627  13.476 -0.4831  0.6435 -0.2892
   73TMC2     O 1137   1.915   4.633  13.414 -0.0371  0.1473  0.1643
   73TMC2     H 1138   1.670   4.577  13.688  1.7605  0.8041  0.8551
   73TMC2    H1 1139   1.869   4.412  13.346 -0.9952 -4.6396 -1.0511
   73TMC2    H2 1140   1.895   4.228  13.733  0.2026 -1.1009 -1.1594
   73TMC2    C7 1141   2.021   4.291  13.514  0.1379  0.5139  0.3361
   73TMC2    C8 1142   1.798   4.423  13.846  0.2481 -0.3047  0.5088
   73TMC2    O1 1143   2.072   4.193  13.570 -0.5671  0.2185 -0.2563
   73TMC2    O2 1144   1.756   4.341  13.925  0.4743 -0.4265  0.5216
   73TMC2    O5 1145   1.932   4.439  13.819 -0.1343 -0.2062  0.0085
   73TMC2    H5 1146   1.947   4.519  13.764 -1.3336  0.6687  0.9480
   74MPD2     C 1147   1.773   0.400  13.450 -0.1767  0.7169 -0.6580
   74MPD2    C1 1148   1.878   0.313  13.460  0.3979 -0.9076  0.1541
   74MPD2    C2 1149   1.855   0.179  13.470 -0.2660  0.4358  0.3782
   74MPD2    C3 1150   1.727   0.128  13.469  0.0201  0.3091 -0.0775
   74MPD2    C4 1151   1.624   0.222  13.467  0.4162 -0.3771  0.6789
   74MPD2    C5 1152   1.648   0.354  13.466 -0.3795  0.1422  0.0281
   74MPD2     H 1153   1.936   0.107  13.473 -0.0774  0.6241 -0.0989
   74MPD2    H1 1154   1.524   0.181  13.455 -0.0143  0.7372  0.4472
   74MPD2    H2 1155   1.788   0.507  13.446  1.0363  0.5837  0.3259
   74MPD2    H3 1156   1.570   0.427  13.487  0.6386  1.2859 -0.1850
   74MPD2     N 1157   1.709   4.725  13.479 -0.6762  0.1752  0.4256
   74MPD2    H5 1158   1.611   4.699  13.489 -1.2008  2.3601  0.8541
   74MPD2    N1 1159   2.011   0.368  13.459 -0.4661  0.2686  0.6437
   74MPD2    H7 1160   2.019   0.467  13.437 -1.7336 -0.2492 -2.1864
   75TMC2    C1 1161   2.619   1.437  13.779  0.1186  0.0650  1.0940
   75TMC2    C2 1162   2.530   1.402  13.881  0.5432 -0.8119  0.6543
   75TMC2    C3 1163   2.400   1.416  13.846 -0.2507  0.1452  0.1578
   75TMC2    C4 1164   2.577   1.471  13.653  0.0648 -0.7078  0.0317
   75TMC2    C5 1165   2.442   1.453  13.623 -0.2782  0.2250  0.1356
   75TMC2    C6 1166   2.354   1.439  13.721 -0.0956 -0.5329 -0.4104
   75TMC2     C 1167   2.751   1.473  13.827 -0.4157 -0.5457 -0.3078
   75TMC2     O 1168   2.765   1.475  13.947 -0.1267  0.3768  0.1508
   75TMC2     H 1169   2.554   1.372  13.982 -1.2252  1.3196  1.7224
   75TMC2    H1 1170   2.643   1.508  13.576  0.7164  0.4932  1.1682
   75TMC2    H2 1171   2.248   1.437  13.701 -0.1799  1.4179 -0.1861
   75TMC2    C7 1172   2.407   1.521  13.498  0.4477  0.0712  0.0398
   75TMC2    C8 1173   2.298   1.371  13.946  0.5005  0.7848 -0.4668
   75TMC2    O1 1174   2.491   1.517  13.410 -0.4225  0.3630 -0.0261
   75TMC2    O2 1175   2.187   1.324  13.935  0.2370  0.3305 -0.9627
   75TMC2    O5 1176   2.332   1.461  14.039  0.0201  0.2233 -0.5270
   75TMC2    H5 1177   2.413   1.509  14.013 -0.4930  1.4628  0.1553
   76TMC2    C1 1178   1.827   2.000  12.007  0.2395  0.1344 -0.0283
   76TMC2    C2 1179   1.727   1.913  11.965  0.2906  0.3299  0.3802
   76TMC2    C3 1180   1.749   1.784  11.996  0.1499 -0.5112 -0.0630
   76TMC2    C4 1181   1.940   1.955  12.067 -0.2401 -0.4604 -0.0613
   76TMC2    C5 1182   1.960   1.824  12.082 -0.2013 -0.0746  0.9120
   76TMC2    C6 1183   1.866   1.740  12.045  0.3977  0.3473 -0.5410
   76TMC2     C 1184   1.796   2.141  12.005  0.3774 -0.2549 -0.3555
   76TMC2     O 1185   1.722   2.188  11.922 -0.1140  0.0931  0.9084
   76TMC2     H 1186   1.643   1.963  11.919 -0.1759 -1.5831 -0.8311
   76TMC2    H1 1187   2.018   2.020  12.103 -1.1273  2.2556 -3.0532
   76TMC2    H2 1188   1.888   1.634  12.050 -2.1526 -0.2608 -2.3391
   76TMC2    C7 1189   2.095   1.776  12.126  0.2690 -0.1992 -0.4557
   76TMC2    C8 1190   1.635   1.692  11.963  0.0070  0.6438  0.2240
   76TMC2    O1 1191   2.174   1.867  12.145  0.1494 -0.1696  0.3968
   76TMC2    O2 1192   1.646   1.573  11.987  0.0219  0.0097 -0.8598
   76TMC2    O5 1193   1.521   1.762  12.008  0.2751 -0.3151 -0.0855
   76TMC2    H5 1194   1.530   1.859  12.016 -0.4841 -0.2226 -0.3689
   77MPD2     C 1195   1.743   2.574  12.272 -0.1223  0.5002  0.4409
   77MPD2    C1 1196   1.669   2.524  12.171 -0.1318 -0.4959  0.2923
   77MPD2    C2 1197   1.716   2.410  12.103 -0.3610 -0.3632 -0.2774
   77MPD2    C3 1198   1.821   2.334  12.155  0.4603  0.3593 -0.0796
   77MPD2    C4 1199   1.894   2.390  12.255  0.4614 -0.0495  0.8352
   77MPD2    C5 1200   1.855   2.503  12.318 -0.7713 -0.3419  0.0579
   77MPD2     H 1201   1.650   2.383  12.021 -1.1068 -1.8038  0.8078
   77MPD2    H1 1202   1.983   2.350  12.302 -0.4823 -2.5278  0.5184
   77MPD2    H2 1203   1.718   2.667  12.322  0.3941  1.1834 -0.5629
   77MPD2    H3 1204   1.918   2.544  12.396 -1.0912  0.2859 -0.0095
   77MPD2     N 1205   1.849   2.201  12.119  0.0856 -1.1630 -0.5749
   77MPD2    H5 1206   1.916   2.160  12.184  0.1933 -2.0784 -1.2658
   77MPD2    N1 1207   1.562   2.590  12.112 -0.1464 -0.3387 -0.4361
   77MPD2    H7 1208   1.516   2.552  12.030 -2.0294  3.7295 -1.2620
   78TMC2    C1 1209   2.884   3.115   1.754  0.6965  0.2565  0.1138
   78TMC2    C2 1210   2.858   3.102   1.883  0.0198  0.5360 -0.0618
   78TMC2    C3 1211   2.941   3.154   1.978  0.8914  0.4214 -0.3212
   78TMC2    C4 1212   3.006   3.160   1.712 -0.8248 -0.4804  0.0733
   78TMC2    C5 1213   3.081   3.219   1.799 -0.0916  0.1212  0.2304
   78TMC2    C6 1214   3.052   3.225   1.933  0.4254  0.7505  0.2668
   78TMC2     C 1215   2.795   3.067   1.646  0.1473  0.0323  0.4978
   78TMC2     O 1216   2.831   3.072   1.528 -0.4247  0.0462  0.0470
   78TMC2     H 1217   2.756   3.078   1.912  0.5046  0.2291  1.3715
   78TMC2    H1 1218   3.027   3.138   1.608  1.1151  1.7213  0.0105
   78TMC2    H2 1219   3.118   3.278   2.001  2.0328 -0.2325 -0.5471
   78TMC2    C7 1220   3.217   3.218   1.759  0.3100 -0.0270  0.2753
   78TMC2    C8 1221   2.877   3.180   2.104  0.6219  0.9335  0.4146
   78TMC2    O1 1222   3.252   3.136   1.675  0.0871 -0.0777 -0.1052
   78TMC2    O2 1223   2.902   3.273   2.182  0.2067 -0.5309  0.1861
   78TMC2    O5 1224   2.841   3.055   2.139  0.2442 -0.1174 -0.0404
   78TMC2    H5 1225   2.863   2.986   2.074 -0.6522 -1.2798  0.8756
   79MPD1     C 1226   2.347   2.868   1.481  0.2496  0.9981 -0.0136
   79MPD1    C1 1227   2.471   2.862   1.422 -0.1496 -0.1561  0.8230
   79MPD1    C2 1228   2.580   2.921   1.479  0.5091 -0.2993 -0.2719
   79MPD1    C3 1229   2.560   2.983   1.608 -0.1182 -1.0906  0.3807
   79MPD1    C4 1230   2.435   2.979   1.671 -0.4781  0.3089 -0.0620
   79MPD1    C5 1231   2.328   2.928   1.602  0.2624  0.5564  0.2968
   79MPD1     H 1232   2.673   2.918   1.423  0.7264 -0.5185  0.1011
   79MPD1    H1 1233   2.421   3.032   1.765 -2.2756 -0.7073  0.2496
   79MPD1    H2 1234   2.262   2.828   1.427 -1.1935  1.5787  1.8309
   79MPD1    H3 1235   2.229   2.939   1.644  1.0628 -0.5165  2.5129
   79MPD1     N 1236   2.665   3.050   1.684  0.0220 -0.1259  0.6065
   79MPD1    H5 1237   2.637   3.071   1.780 -1.4263 -2.5114  0.7019
   79MPD1    N1 1238   2.483   2.805   1.292 -0.1581  0.1317  0.3563
   79MPD1    H6 1239   2.578   2.791   1.257  0.2318  1.8964  0.7418
   79MPD1    H7 1240   2.423   2.724   1.277  1.5092 -0.7901 -1.3622
   80TMC2    C1 1241   1.004   2.221  12.186 -0.4207 -0.3341  0.3078
   80TMC2    C2 1242   1.134   2.262  12.158 -0.1252  0.5433 -0.3848
   80TMC2    C3 1243   1.188   2.217  12.040  0.4209  0.1209 -0.5095
   80TMC2    C4 1244   0.928   2.152  12.090  0.4455 -0.1206 -0.3479
   80TMC2    C5 1245   0.991   2.118  11.975  0.1030 -0.1284 -0.2977
   80TMC2    C6 1246   1.124   2.144  11.946  0.1411 -0.1730 -0.0111
   80TMC2     C 1247   0.952   2.256  12.313  0.2761  0.7534  0.4255
   80TMC2     O 1248   1.035   2.274  12.401  0.1792 -0.1435  0.3421
   80TMC2     H 1249   1.187   2.327  12.226 -0.1122  0.1734 -0.0421
   80TMC2    H1 1250   0.825   2.133  12.118  1.0701 -0.2198  1.8528
   80TMC2    H2 1251   1.162   2.105  11.852 -0.1295 -0.2693 -0.0813
   80TMC2    C7 1252   0.923   2.026  11.880  0.2250 -0.4397  0.0953
   80TMC2    C8 1253   1.312   2.268  11.992  1.0496 -0.8715  0.1705
   80TMC2    O1 1254   0.984   2.002  11.779  0.4166 -0.6994  0.4957
   80TMC2    O2 1255   1.354   2.225  11.885  0.1857  0.6538 -0.5915
   80TMC2    O5 1256   1.326   2.398  12.029  0.8970  0.7458 -0.2372
   80TMC2    H5 1257   1.279   2.409  12.114  0.2682 -0.1785 -0.4610
   81MPD2     C 1258   0.795   2.392  12.529  0.4368 -0.0198 -0.2439
   81MPD2    C1 1259   0.740   2.330  12.418  0.2269 -0.4034  0.5607
   81MPD2    C2 1260   0.609   2.349  12.386  0.4249 -0.2803  0.0698
   81MPD2    C3 1261   0.524   2.413  12.473  0.8515 -0.4373 -0.2236
   81MPD2    C4 1262   0.575   2.447  12.598  0.7974 -0.2774  0.4236
   81MPD2    C5 1263   0.707   2.433  12.629  0.2157  0.2009  1.0157
   81MPD2     H 1264   0.579   2.314  12.288  1.1620  0.7039 -0.5098
   81MPD2    H1 1265   0.513   2.501  12.669 -1.4730 -3.4612  0.8657
   81MPD2    H2 1266   0.898   2.391  12.561  0.7962  0.5860 -1.3636
   81MPD2    H3 1267   0.743   2.475  12.721 -0.6962  1.9665  0.5606
   81MPD2     N 1268   0.386   2.439  12.439  0.0960 -0.1364  0.1632
   81MPD2    H5 1269   0.330   2.485  12.510 -0.8228 -1.9531  0.6162
   81MPD2    N1 1270   0.824   2.288  12.312 -0.0683 -0.7487  0.5540
   81MPD2    H7 1271   0.769   2.257  12.233 -0.0310 -0.4812  0.4262
   82TMC2    C1 1272   4.019   1.065  11.440 -0.1261 -0.0189  1.5887
   82TMC2    C2 1273   4.078   1.113  11.326  0.8572  0.0437 -0.2949
   82TMC2    C3 1274   4.130   1.016  11.236 -0.0299  0.1800 -1.7279
   82TMC2    C4 1275   4.008   0.930  11.466  0.3253 -0.5520  0.8447
   82TMC2    C5 1276   4.057   0.833  11.384 -0.0113  0.4372 -0.1905
   82TMC2    C6 1277   4.113   0.884  11.267 -0.4799  0.1794  0.3655
   82TMC2     C 1278   3.911   1.149  11.485  0.3581  0.2521 -0.6219
   82TMC2     O 1279   3.860   1.226  11.409 -0.1954  0.1473 -0.3834
   82TMC2     H 1280   4.079   1.218  11.300 -1.1550 -0.1948 -1.3326
   82TMC2    H1 1281   3.963   0.895  11.558  0.2348  1.0093  1.3983
   82TMC2    H2 1282   4.155   0.816  11.194  0.8283  0.4695  0.8323
   82TMC2    C7 1283   3.950   0.745  11.346  0.3014  0.3773  0.3719
   82TMC2    C8 1284   4.081   1.043  11.099  0.6177 -0.2857  0.6110
   82TMC2    O1 1285   3.923   0.661  11.431 -0.4097  0.2626 -0.5606
   82TMC2    O2 1286   3.987   0.974  11.067 -0.4362 -0.3578  0.0912
   82TMC2    O5 1287   4.116   1.166  11.054 -0.2711 -0.3734 -0.5931
   82TMC2    H5 1288   4.191   1.204  11.104  0.7190 -1.7065 -1.0870
   83MPD2     C 1289   3.485   1.182  11.780 -0.0749  0.1947 -0.4420
   83MPD2    C1 1290   3.507   1.230  11.647  0.0638  0.3941  0.1063
   83MPD2    C2 1291   3.626   1.205  11.593 -0.2014 -0.2060 -0.1719
   83MPD2    C3 1292   3.729   1.142  11.661  1.0951 -0.0046  0.5877
   83MPD2    C4 1293   3.711   1.104  11.794 -0.5065  0.2514 -0.0439
   83MPD2    C5 1294   3.583   1.110  11.845 -0.2876  0.2751  0.7689
   83MPD2     H 1295   3.639   1.241  11.492  1.4031  0.0853  0.1310
   83MPD2    H1 1296   3.789   1.047  11.843 -0.0724  0.8613 -0.0310
   83MPD2    H2 1297   3.387   1.179  11.827  0.0777 -1.5188 -0.2486
   83MPD2    H3 1298   3.559   1.057  11.937 -1.4374 -1.1755 -0.3864
   83MPD2     N 1299   3.860   1.116  11.605  0.2810  0.1267  0.4703
   83MPD2    H5 1300   3.920   1.061  11.666 -1.6955 -1.1447  1.2958
   83MPD2    N1 1301   3.400   1.297  11.580 -0.0575  0.4644  0.2596
   83MPD2    H7 1302   3.308   1.286  11.622 -0.1829  1.2491  0.1842
   84TMC2    C1 1303   4.325   0.325  11.473 -0.7095 -0.0560  0.2343
   84TMC2    C2 1304   4.284   0.292  11.597 -0.1447  0.1095 -0.2120
   84TMC2    C3 1305   4.297   0.163  11.644  0.5755 -0.9860 -0.0979
   84TMC2    C4 1306   4.395   0.238  11.398 -0.3287  0.0034  0.9147
   84TMC2    C5 1307   4.426   0.111  11.452 -0.0384  0.6152 -0.4643
   84TMC2    C6 1308   4.372   0.076  11.576 -0.1828  0.4380  0.0330
   84TMC2     C 1309   4.332   0.469  11.449  0.3124 -0.3916 -0.0303
   84TMC2     O 1310   4.308   0.540  11.541  0.4784 -0.3945 -0.8839
   84TMC2     H 1311   4.221   0.364  11.647  0.5748  1.9433 -1.9355
   84TMC2    H1 1312   4.447   0.275  11.311  2.7658 -3.4667  1.2895
   84TMC2    H2 1313   4.402   4.715  11.616 -1.7176 -0.8972 -2.0305
   84TMC2    C7 1314   4.489   0.016  11.364 -0.4264  0.0534 -0.2938
   84TMC2    C8 1315   4.249   0.127  11.772 -0.1019  0.2355 -0.1598
   84TMC2    O1 1316   4.477   0.049  11.247 -0.1518 -1.1103  0.5857
   84TMC2    O2 1317   4.244   0.011  11.812  0.8616  0.0414 -0.0760
   84TMC2    O5 1318   4.262   0.239  11.843  0.1457  0.8174  0.4630
   84TMC2    H5 1319   4.308   0.317  11.804 -0.4520  3.0985  4.3217
   85TMC2    C1 1320   0.927   3.754  16.148 -0.6623  0.0723 -0.3346
   85TMC2    C2 1321   1.001   3.855  16.200  0.1816  0.4692  0.9809
   85TMC2    C3 1322   1.011   3.971  16.126  0.2563  0.3544 -0.4803
   85TMC2    C4 1323   0.874   3.775  16.020  0.1403 -0.6415 -0.3527
   85TMC2    C5 1324   0.905   3.885  15.945 -0.7533  0.5988  0.3659
   85TMC2    C6 1325   0.988   3.982  15.997 -0.0743  0.0101 -0.2330
   85TMC2     C 1326   0.967   3.629  16.203 -0.1552  0.0451  0.1356
   85TMC2     O 1327   1.071   3.628  16.259  0.7899 -0.2121 -0.1296
   85TMC2     H 1328   1.045   3.850  16.299 -2.6710  1.3716  2.2788
   85TMC2    H1 1329   0.816   3.697  15.972 -0.7119 -0.5872  0.5789
   85TMC2    H2 1330   1.012   4.075  15.945  1.4076  1.3522  2.8536
   85TMC2    C7 1331   0.868   3.884  15.811  0.6696 -0.3967 -0.3529
   85TMC2    C8 1332   1.079   4.081  16.186  0.2916  0.1542 -0.3626
   85TMC2    O1 1333   0.800   3.793  15.775 -0.0188  0.0988 -0.9039
   85TMC2    O2 1334   1.041   4.195  16.167 -0.1614  0.2766 -0.2683
   85TMC2    O5 1335   1.208   4.043  16.198 -0.3328 -0.3869 -0.1850
   85TMC2    H5 1336   1.218   3.945  16.194 -1.8202 -0.5412 -0.1629
   86MPD2     C 1337   0.880   3.151  16.389  0.3251 -0.0590  0.9669
   86MPD2    C1 1338   0.776   3.186  16.306  1.1139  0.4209 -0.4413
   86MPD2    C2 1339   0.777   3.313  16.248 -0.2267  0.6756 -0.5148
   86MPD2    C3 1340   0.884   3.400  16.259 -0.0991  0.0500  0.1746
   86MPD2    C4 1341   0.987   3.365  16.346  0.0424  0.0621  0.1789
   86MPD2    C5 1342   0.983   3.238  16.401 -0.0124 -0.0374 -0.2202
   86MPD2     H 1343   0.689   3.338  16.190 -1.1044  1.6967  1.2694
   86MPD2    H1 1344   1.064   3.432  16.382 -2.3295  3.0425 -0.3490
   86MPD2    H2 1345   0.886   3.056  16.441 -1.1381 -0.0557  1.1358
   86MPD2    H3 1346   1.059   3.218  16.475  1.2185 -1.6417 -1.9029
   86MPD2     N 1347   0.878   3.525  16.193 -0.5874 -0.7187 -0.0425
   86MPD2    H5 1348   0.791   3.551  16.149 -0.5769 -0.5953  0.0089
   86MPD2    N1 1349   0.654   3.117  16.282  0.3115 -0.6163 -0.8807
   86MPD2    H7 1350   0.593   3.157  16.211  0.0999  1.0632  0.2191
   87TMC2    C1 1351   3.333   2.076   0.724  0.2487  0.3214 -0.0726
   87TMC2    C2 1352   3.434   2.132   0.808  0.4519 -0.3073  0.1337
   87TMC2    C3 1353   3.389   2.220   0.902 -0.2643  0.4354  0.0577
   87TMC2    C4 1354   3.204   2.098   0.737  0.2556 -0.4779 -0.1798
   87TMC2    C5 1355   3.167   2.177   0.840  0.3081 -0.4362 -0.1751
   87TMC2    C6 1356   3.257   2.253   0.917 -0.1434  0.1206  0.1172
   87TMC2     C 1357   3.389   2.005   0.612 -0.0154  0.2880  0.1417
   87TMC2     O 1358   3.497   1.952   0.634  0.0961 -0.2286  0.3027
   87TMC2     H 1359   3.536   2.095   0.805 -0.0943 -1.6938 -2.1765
   87TMC2    H1 1360   3.134   2.047   0.672  0.7710 -1.3029 -0.0846
   87TMC2    H2 1361   3.233   2.331   0.989  2.0829 -1.0451  2.1305
   87TMC2    C7 1362   3.022   2.219   0.835  0.3133 -0.0884 -0.2529
   87TMC2    C8 1363   3.466   2.239   1.019  0.0179 -0.0645  0.5571
   87TMC2    O1 1364   2.955   2.203   0.731  0.6689  0.0355 -0.4751
   87TMC2    O2 1365   3.413   2.255   1.126 -0.0971 -0.5273  0.1797
   87TMC2    O5 1366   3.587   2.293   0.981 -0.5011  0.1432 -0.1200
   87TMC2    H5 1367   3.599   2.274   0.885  0.3428 -2.2890  0.4585
   88MPD2     C 1368   2.800   2.303   1.123 -0.5824  0.1602 -0.5071
   88MPD2    C1 1369   2.846   2.300   0.995  0.0859  1.2491 -0.0103
   88MPD2    C2 1370   2.770   2.365   0.901 -0.1415 -0.9432  0.4175
   88MPD2    C3 1371   2.644   2.427   0.929  0.7815  0.4848 -0.1795
   88MPD2    C4 1372   2.601   2.422   1.060  0.0144 -0.4229  0.2765
   88MPD2    C5 1373   2.685   2.372   1.159 -0.0038 -0.1658 -0.5001
   88MPD2     H 1374   2.804   2.370   0.798 -0.3077  2.0809  0.5043
   88MPD2    H1 1375   2.508   2.469   1.092 -0.5429 -1.3042 -0.0347
   88MPD2    H2 1376   2.852   2.244   1.199 -1.0495 -0.3522 -0.5841
   88MPD2    H3 1377   2.655   2.377   1.263  0.4660  1.1911 -0.4166
   88MPD2     N 1378   2.558   2.483   0.834  0.1655 -0.1733  0.0689
   88MPD2    H5 1379   2.477   2.532   0.869 -2.0429 -1.6297 -2.9876
   88MPD2    N1 1380   2.972   2.243   0.962 -0.3641  0.4924 -0.2192
   88MPD2    H7 1381   3.033   2.212   1.037  0.4049  0.3515 -0.9041
   89TMC2    C1 1382   3.870   3.972   2.065 -0.2225 -0.4270  0.3087
   89TMC2    C2 1383   4.005   3.995   2.081  0.3987  0.0678  0.1392
   89TMC2    C3 1384   4.063   4.105   2.012 -0.1607 -0.2877  0.6717
   89TMC2    C4 1385   3.790   4.057   1.982 -0.9003  0.9537  0.1711
   89TMC2    C5 1386   3.855   4.156   1.918 -0.2284  0.1911 -0.2694
   89TMC2    C6 1387   3.986   4.190   1.943  0.3538  0.1509 -0.5195
   89TMC2     C 1388   3.809   3.851   2.119 -0.0962 -0.4287  0.2718
   89TMC2     O 1389   3.880   3.764   2.165  0.3936  0.1145  0.2240
   89TMC2     H 1390   4.072   3.924   2.129  0.7653 -0.3617 -1.0054
   89TMC2    H1 1391   3.696   4.028   1.936 -1.6695  0.5403  2.0318
   89TMC2    H2 1392   4.031   4.277   1.897 -0.3335  0.5185 -0.4946
   89TMC2    C7 1393   3.764   4.246   1.849  0.0523 -0.4808  0.6419
   89TMC2    C8 1394   4.211   4.091   1.981  0.6536  0.0269 -0.1480
   89TMC2    O1 1395   3.648   4.253   1.880 -0.6788 -0.4037 -1.1027
   89TMC2    O2 1396   4.287   4.042   2.065  0.8427  0.6379  0.0739
   89TMC2    O5 1397   4.225   4.079   1.842 -0.0606  0.1816 -0.7999
   89TMC2    H5 1398   4.145   4.105   1.791 -1.0946 -2.9441 -0.7877
   90MPD2     C 1399   3.409   3.560   2.242  0.5253 -0.4340  0.3029
   90MPD2    C1 1400   3.364   3.674   2.180 -0.0255  0.2130  0.0479
   90MPD2    C2 1401   3.453   3.770   2.130  0.1960  0.4847 -0.0990
   90MPD2    C3 1402   3.588   3.747   2.147 -0.0200  0.2356  0.7880
   90MPD2    C4 1403   3.636   3.633   2.202 -0.0319  0.0451  0.0815
   90MPD2    C5 1404   3.543   3.542   2.260 -0.3170  1.0502 -0.2557
   90MPD2     H 1405   3.427   3.866   2.087  2.3737  0.2096 -2.0012
   90MPD2    H1 1406   3.739   3.601   2.209 -0.0735  0.4370  2.3305
   90MPD2    H2 1407   3.343   3.484   2.283 -0.6307 -0.3864 -1.4849
   90MPD2    H3 1408   3.577   3.453   2.311  1.7436  0.6597 -2.3409
   90MPD2     N 1409   3.673   3.848   2.099 -0.3165 -0.0803 -0.5480
   90MPD2    H5 1410   3.629   3.932   2.062 -0.4030  0.3788  0.6101
   90MPD2    N1 1411   3.223   3.702   2.167  0.3874 -0.5085  0.0754
   90MPD2    H7 1412   3.191   3.778   2.108 -0.6887 -0.9799  0.0553
   91TMC2    C1 1413   0.043   4.593  16.463 -0.4779  0.3592  0.0827
   91TMC2    C2 1414   0.045   4.699  16.551 -0.1254 -0.3656  0.0791
   91TMC2    C3 1415   4.684   0.060  16.543  0.1397  0.0923 -0.2238
   91TMC2    C4 1416   4.686   4.585  16.365  0.2588 -0.0391  0.1792
   91TMC2    C5 1417   4.583   4.677  16.364  0.1922  0.5914 -0.4474
   91TMC2    C6 1418   4.582   0.046  16.457  0.5101 -0.0264  0.1732
   91TMC2     C 1419   0.154   4.502  16.446 -0.4008  0.7141  0.5314
   91TMC2     O 1420   0.170   4.449  16.336 -0.6432 -0.6824  0.1146
   91TMC2     H 1421   0.126   4.707  16.623  2.3721  0.5457 -2.8404
   91TMC2    H1 1422   4.682   4.499  16.299  0.0012 -0.3791  0.6380
   91TMC2    H2 1423   4.515   0.130  16.447  0.5688 -0.0349 -0.3193
   91TMC2    C7 1424   4.475   4.670  16.274  0.3031 -0.9097 -0.3970
   91TMC2    C8 1425   4.693   0.179  16.623  0.2924  0.0539  0.5571
   91TMC2    O1 1426   4.374   4.728  16.305 -0.3488  0.2214 -0.3271
   91TMC2    O2 1427   4.735   0.191  16.737 -0.0022  0.0790 -0.0216
   91TMC2    O5 1428   4.666   0.290  16.546 -0.2114  0.2265 -0.4207
   91TMC2    H5 1429   4.653   0.269  16.451 -2.0523 -0.1219 -0.0916
   92MPD2     C 1430   0.372   4.306  16.490 -0.4577 -0.5235  0.0102
   92MPD2    C1 1431   0.317   4.388  16.590  0.6597  0.0899  0.2948
   92MPD2    C2 1432   0.352   4.371  16.718 -0.6341 -0.1544 -0.0185
   92MPD2    C3 1433   0.447   4.271  16.751  0.5215  0.2984 -0.1721
   92MPD2    C4 1434   0.511   4.202  16.647  0.5526 -0.4573  0.7016
   92MPD2    C5 1435   0.463   4.211  16.519  0.3723 -1.1036 -0.0047
   92MPD2     H 1436   0.299   4.433  16.790 -3.3819 -0.6525 -1.6157
   92MPD2    H1 1437   0.595   4.135  16.657 -1.4790 -3.1886 -0.7627
   92MPD2    H2 1438   0.341   4.312  16.386 -0.6858  1.9140  0.2194
   92MPD2    H3 1439   0.524   4.167  16.441 -1.1755 -3.6050  0.2059
   92MPD2     N 1440   0.494   4.269  16.881 -0.1331  0.5306  0.1037
   92MPD2    H5 1441   0.466   4.340  16.948  0.1572  1.5696 -0.8794
   92MPD2    N1 1442   0.218   4.482  16.564  0.2631 -0.1823  0.0543
   92MPD2    H7 1443   0.185   4.526  16.649  2.6267  0.1708  0.7940
   93TMC2    C1 1444   2.424   4.357  14.018  0.2401 -0.1684  1.0250
   93TMC2    C2 1445   2.375   4.471  13.968 -0.0726  0.1167 -0.0545
   93TMC2    C3 1446   2.458   4.560  13.912 -0.6257  0.3242  0.9687
   93TMC2    C4 1447   2.563   4.338  14.028  0.0405 -0.0679 -0.1111
   93TMC2    C5 1448   2.643   4.428  13.970  0.0276  0.4171  0.3572
   93TMC2    C6 1449   2.595   4.545  13.923 -0.1882 -0.3488 -0.6557
   93TMC2     C 1450   2.353   4.297  14.128 -0.0952  0.1305 -0.0163
   93TMC2     O 1451   2.410   4.279  14.237  0.2947 -0.3022  0.1393
   93TMC2     H 1452   2.268   4.486  13.953  0.2207 -0.4245 -2.7422
   93TMC2    H1 1453   2.602   4.262  14.095  2.6835  0.6863 -0.8281
   93TMC2    H2 1454   2.665   4.610  13.873  0.5975  0.0349  0.9274
   93TMC2    C7 1455   2.783   4.415  13.994 -0.4901  0.1373 -1.1301
   93TMC2    C8 1456   2.401   4.673  13.849  0.3018  0.0398 -0.2372
   93TMC2    O1 1457   2.841   4.314  13.958  0.1244 -0.1381  0.2523
   93TMC2    O2 1458   2.290   4.677  13.796  0.3147  0.3923  0.2260
   93TMC2    O5 1459   2.463   0.040  13.903  0.1121 -0.0956 -0.1080
   93TMC2    H5 1460   2.549   0.012  13.941 -1.3714 -3.9228  0.4311
   94MPD2     C 1461   2.145   4.162  14.293 -0.4691  0.1898 -0.9415
   94MPD2    C1 1462   2.119   4.227  14.174  0.1377  0.5273  0.3019
   94MPD2    C2 1463   1.992   4.220  14.124 -0.1217 -0.2405  0.3775
   94MPD2    C3 1464   1.884   4.158  14.197 -0.4031  0.0005  0.1315
   94MPD2    C4 1465   1.911   4.101  14.321 -0.1629  0.3075 -0.1598
   94MPD2    C5 1466   2.040   4.108  14.363  0.0874 -0.1659 -0.1362
   94MPD2     H 1467   1.969   4.271  14.031 -0.7707 -0.5212  0.3780
   94MPD2    H1 1468   1.835   4.055  14.382  0.0967 -2.1318 -1.6899
   94MPD2    H2 1469   2.238   4.159  14.348 -0.7816 -3.0400 -0.5520
   94MPD2    H3 1470   2.072   4.067  14.458 -0.0194  0.5974  0.2274
   94MPD2     N 1471   1.751   4.169  14.146  0.0209 -0.3083  0.2999
   94MPD2    H5 1472   1.746   4.206  14.052  1.9824 -1.5922 -0.3181
   94MPD2    N1 1473   2.219   4.288  14.101 -0.1190 -0.2508 -0.0960
   94MPD2    H7 1474   2.197   4.311  14.005  1.4491  2.4030  0.1754
   95TMC2    C1 1475   2.181   1.215  15.612  0.1058  0.4643  0.5336
   95TMC2    C2 1476   2.101   1.326  15.616  0.4768 -0.2391 -0.2845
   95TMC2    C3 1477   1.972   1.296  15.627 -0.1372 -0.5810 -0.4049
   95TMC2    C4 1478   2.137   1.088  15.612  0.6136  0.0335 -0.0486
   95TMC2    C5 1479   2.005   1.066  15.635  0.2118  0.6161  0.2206
   95TMC2    C6 1480   1.919   1.172  15.632 -0.1935  0.2924  0.0340
   95TMC2     C 1481   2.327   1.237  15.596 -0.0104 -1.0154 -0.5231
   95TMC2     O 1482   2.355   1.357  15.576  0.0359 -0.6868 -0.0000
   95TMC2     H 1483   2.129   1.430  15.600  3.7642 -1.1976 -0.6456
   95TMC2    H1 1484   2.202   1.002  15.603  0.2865 -0.2761  0.5552
   95TMC2    H2 1485   1.813   1.151  15.623  0.2592 -1.6950 -0.7507
   95TMC2    C7 1486   1.959   0.927  15.644 -0.3705 -0.6718 -0.1472
   95TMC2    C8 1487   1.882   1.408  15.606 -0.1391  0.2418  0.2526
   95TMC2    O1 1488   2.045   0.842  15.662  0.0842 -0.3615  0.3034
   95TMC2    O2 1489   1.917   1.505  15.537 -0.7467  0.1483  0.0289
   95TMC2    O5 1490   1.762   1.379  15.656 -0.0963 -0.3282  0.7284
   95TMC2    H5 1491   1.774   1.308  15.722  0.3158 -1.7199 -0.8422
   96MPD2     C 1492   2.814   1.078  15.506  0.5394 -0.1170  0.4165
   96MPD2    C1 1493   2.760   1.206  15.502  0.3580 -0.2608  0.0327
   96MPD2    C2 1494   2.623   1.225  15.531 -0.1262  0.2510 -0.1469
   96MPD2    C3 1495   2.545   1.112  15.579  0.1699 -0.4193 -0.0877
   96MPD2    C4 1496   2.603   0.989  15.595 -0.2924 -0.1427  0.3294
   96MPD2    C5 1497   2.740   0.977  15.566 -0.0702 -0.1109  0.0004
   96MPD2     H 1498   2.565   1.312  15.502 -0.9600  0.2107  1.4030
   96MPD2    H1 1499   2.545   0.903  15.627  0.0219 -0.9426 -1.2595
   96MPD2    H2 1500   2.914   1.048  15.478  0.1759 -0.8500 -0.0755
   96MPD2    H3 1501   2.794   0.883  15.562 -1.0272 -0.5995 -1.4691
   96MPD2     N 1502   2.409   1.122  15.600 -0.8030 -0.2888 -0.0162
   96MPD2    H5 1503   2.355   1.040  15.624  1.7830 -1.2943  2.3710
   96MPD2    N1 1504   2.841   1.323  15.471 -0.9061 -0.2329 -0.3536
   96MPD2    H7 1505   2.935   1.297  15.441 -0.6249 -2.0356  2.1159
   97TMC2    C1 1506   0.065   4.388   1.166  0.8229  0.5352 -0.2429
   97TMC2    C2 1507   4.679   4.450   1.158  0.6157 -0.1505  1.2479
   97TMC2    C3 1508   4.673   4.564   1.075 -0.1108  0.4402 -0.0338
   97TMC2    C4 1509   0.170   4.437   1.086 -0.3521 -0.5278  0.1979
   97TMC2    C5 1510   0.159   4.553   1.013  0.3917  0.1714 -0.4079
   97TMC2    C6 1511   0.042   4.623   1.012 -0.0114  0.1530  0.1862
   97TMC2     C 1512   0.069   4.269   1.242 -0.1689  0.0560 -0.0298
   97TMC2     O 1513   4.704   4.237   1.306  0.3926 -0.1992 -0.5555
   97TMC2     H 1514   4.595   4.436   1.225 -0.3761 -0.3870 -0.0388
   97TMC2    H1 1515   0.264   4.384   1.089 -0.1134 -0.2125 -1.9329
   97TMC2    H2 1516   0.038   4.716   0.956  0.0937  0.8186  1.2857
   97TMC2    C7 1517   0.281   4.600   0.946 -0.5236  0.3668 -0.2751
   97TMC2    C8 1518   4.557   4.640   1.085 -0.2421 -0.1460  0.1458
   97TMC2    O1 1519   0.266   4.713   0.903  0.3688  0.0821 -0.5815
   97TMC2    O2 1520   4.496   4.667   1.188  0.8075  0.4469 -0.1877
   97TMC2    O5 1521   4.495   4.576   0.984 -0.0742 -0.2576 -0.3525
   97TMC2    H5 1522   4.551   4.564   0.904 -1.5098  1.4770 -1.6183
   98MPD2     C 1523   0.274   3.795   1.296 -0.0078 -0.3215 -0.8291
   98MPD2    C1 1524   0.149   3.845   1.338  0.1856  0.0248  0.1123
   98MPD2    C2 1525   0.124   3.980   1.321  0.0494 -0.1079 -0.5871
   98MPD2    C3 1526   0.216   4.065   1.265 -0.2158 -0.4883  0.4686
   98MPD2    C4 1527   0.342   4.010   1.231 -0.0939  0.0989  0.3688
   98MPD2    C5 1528   0.358   3.872   1.235 -0.3910 -0.0419 -1.3596
   98MPD2     H 1529   0.026   4.020   1.347  0.0761 -1.7776  2.0664
   98MPD2    H1 1530   0.417   4.070   1.179  0.3926 -1.1711 -0.3882
   98MPD2    H2 1531   0.301   3.692   1.318 -0.3265 -0.3245 -0.4511
   98MPD2    H3 1532   0.455   3.833   1.205  0.6835 -0.3599  2.4382
   98MPD2     N 1533   0.192   4.206   1.241  0.2837 -0.3230 -0.2729
   98MPD2    H5 1534   0.268   4.269   1.219 -0.1948 -0.5409 -2.5112
   98MPD2    N1 1535   0.059   3.750   1.385 -0.2750  0.7142 -0.4329
   98MPD2    H7 1536   0.091   3.654   1.386 -1.0282  0.4673 -0.5579
   99TMC2    C1 1537   3.355   1.848   1.440 -0.5193 -0.5189 -0.3058
   99TMC2    C2 1538   3.410   1.958   1.492  0.7756 -0.2174  0.0678
   99TMC2    C3 1539   3.380   2.079   1.430 -0.2800 -0.2293 -0.3985
   99TMC2    C4 1540   3.254   1.841   1.344 -0.3679  0.4277  0.6437
   99TMC2    C5 1541   3.224   1.963   1.291  0.2758 -0.1078  0.5770
   99TMC2    C6 1542   3.292   2.081   1.322  0.3447  0.1831  0.0095
   99TMC2     C 1543   3.408   1.726   1.505 -0.0605 -0.1963 -0.1535
   99TMC2     O 1544   3.501   1.741   1.586  0.5853 -0.3069 -0.1930
   99TMC2     H 1545   3.487   1.967   1.568 -0.0485  0.4522  0.8323
   99TMC2    H1 1546   3.237   1.748   1.291  2.3594 -0.2986  1.0413
   99TMC2    H2 1547   3.257   2.174   1.277  0.8969  0.8402  0.9544
   99TMC2    C7 1548   3.116   1.966   1.196  0.2130  0.1291 -0.3950
   99TMC2    C8 1549   3.449   2.190   1.480  0.2848  0.9599  0.2192
   99TMC2    O1 1550   3.096   2.064   1.125  0.0060 -0.5605 -0.4442
   99TMC2    O2 1551   3.463   2.217   1.598  0.2195  0.4652  0.5203
   99TMC2    O5 1552   3.450   2.283   1.382  0.0816  0.3452  0.4422
   99TMC2    H5 1553   3.447   2.248   1.290 -0.0094  1.2130  0.1158
  100MPD2     C 1554   3.527   1.464   1.543  0.1774 -0.1298 -0.2787
  100MPD2    C1 1555   3.410   1.487   1.475 -0.0717  0.1351 -0.2119
  100MPD2    C2 1556   3.345   1.383   1.411 -0.5856  0.0511 -0.9891
  100MPD2    C3 1557   3.390   1.255   1.408  0.8117 -0.4047 -0.8136
  100MPD2    C4 1558   3.500   1.228   1.488 -0.5046 -0.7736 -0.6536
  100MPD2    C5 1559   3.573   1.335   1.545  0.5058 -0.7292  0.4430
  100MPD2     H 1560   3.256   1.398   1.351 -2.3123 -1.1653  1.2538
  100MPD2    H1 1561   3.536   1.130   1.519 -0.7639 -0.7911 -0.4086
  100MPD2    H2 1562   3.590   1.542   1.583  0.9276  0.0639 -1.8220
  100MPD2    H3 1563   3.667   1.309   1.590  0.4835  0.3858  1.1480
  100MPD2     N 1564   3.313   1.152   1.338  0.2000  0.2439  0.0756
  100MPD2    H5 1565   3.221   1.179   1.304 -0.5128 -3.0360 -0.5881
  100MPD2    N1 1566   3.349   1.608   1.463 -0.8010 -0.1916 -0.1313
  100MPD2    H7 1567   3.253   1.614   1.431 -0.6936  0.2993 -0.3708
  101TMC2    C1 1568   3.797   2.154  12.586 -0.7963 -0.1427  0.2338
  101TMC2    C2 1569   3.680   2.093  12.550 -0.3399 -0.1587  0.1174
  101TMC2    C3 1570   3.635   2.132  12.429 -0.7907 -0.5108  0.4042
  101TMC2    C4 1571   3.863   2.239  12.502  0.1834 -0.3904  0.7469
  101TMC2    C5 1572   3.803   2.276  12.387 -0.1151  0.3264  0.2770
  101TMC2    C6 1573   3.689   2.224  12.349  0.8852 -0.4622 -0.0246
  101TMC2     C 1574   3.829   2.151  12.726 -0.2158  0.0234 -0.0861
  101TMC2     O 1575   3.778   2.062  12.794  0.0200 -0.6036 -0.4880
  101TMC2     H 1576   3.634   2.012  12.606  0.4431 -1.8022 -1.6155
  101TMC2    H1 1577   3.959   2.280  12.534  0.2203  0.6137 -0.6337
  101TMC2    H2 1578   3.641   2.240  12.253 -1.2685 -1.9093  0.8176
  101TMC2    C7 1579   3.876   2.363  12.300 -0.0599  0.2571  0.4902
  101TMC2    C8 1580   3.524   2.060  12.378  0.1579  0.5625 -0.1873
  101TMC2    O1 1581   3.956   2.433  12.357 -0.1636 -0.3809 -1.0961
  101TMC2    O2 1582   3.499   2.062  12.263  0.5386 -0.0905 -0.0986
  101TMC2    O5 1583   3.441   2.076  12.483 -0.0870 -0.0944  0.3357
  101TMC2    H5 1584   3.479   2.122  12.561 -0.1249  2.0514 -0.8870
  102MPD2     C 1585   4.020   2.406  12.919  0.7224 -0.0087  0.1074
  102MPD2    C1 1586   3.934   2.300  12.901  0.1316  0.4442  0.5552
  102MPD2    C2 1587   3.887   2.229  13.003 -0.7087  0.1216  0.2104
  102MPD2    C3 1588   3.929   2.252  13.132  0.4313  0.3933  0.3560
  102MPD2    C4 1589   4.020   2.356  13.150 -0.4718 -0.6170 -0.1530
  102MPD2    C5 1590   4.068   2.428  13.043 -0.2456  0.3724 -0.6932
  102MPD2     H 1591   3.802   2.162  12.996 -1.3370  0.7398  1.9087
  102MPD2    H1 1592   4.049   2.388  13.250 -0.1661 -1.2638 -0.0367
  102MPD2    H2 1593   4.058   2.456  12.830 -3.2629  2.6794 -0.0408
  102MPD2    H3 1594   4.148   2.501  13.060  1.0494 -0.7409 -2.0189
  102MPD2     N 1595   3.879   2.176  13.235 -0.8493 -0.4982 -0.3155
  102MPD2    H5 1596   3.829   2.092  13.208 -1.5787 -0.2788  0.3648
  102MPD2    N1 1597   3.892   2.264  12.772 -0.1881  0.0093 -0.0272
  102MPD2    H7 1598   3.902   2.344  12.710 -0.3844  1.2615  1.5391
  103TMC2    C1 1599   2.539   1.836  12.622 -0.1439 -0.1881  0.0549
  103TMC2    C2 1600   2.670   1.840  12.582 -0.0915 -0.3641  0.6316
  103TMC2    C3 1601   2.762   1.885  12.675 -0.0342  0.2027 -0.5794
  103TMC2    C4 1602   2.493   1.896  12.729 -0.1267 -0.1465 -0.2019
  103TMC2    C5 1603   2.584   1.956  12.814 -0.3315 -0.4636 -0.3945
  103TMC2    C6 1604   2.716   1.949  12.785 -0.5832 -0.4142 -0.0600
  103TMC2     C 1605   2.436   1.792  12.528 -1.2619  0.6829 -0.2899
  103TMC2     O 1606   2.344   1.873  12.514  0.2959 -0.0846  0.1266
  103TMC2     H 1607   2.689   1.773  12.499 -1.4037  0.8669 -0.6605
  103TMC2    H1 1608   2.384   1.895  12.737 -0.1288  1.0405 -0.0361
  103TMC2    H2 1609   2.791   1.982  12.856 -1.5911 -1.5216  1.5164
  103TMC2    C7 1610   2.541   2.042  12.925 -0.1123 -0.4783 -0.7370
  103TMC2    C8 1611   2.897   1.830  12.691 -0.1433  0.3328 -0.6161
  103TMC2    O1 1612   2.434   2.012  12.977  0.3451  0.2938  0.0405
  103TMC2    O2 1613   2.944   1.774  12.787  0.3772 -0.0695  0.1694
  103TMC2    O5 1614   2.940   1.803  12.562  0.2284  0.2101  0.2090
  103TMC2    H5 1615   2.893   1.871  12.509  0.2974  2.4279  3.0327
  104MPD2     C 1616   2.402   1.459  12.366 -0.7416 -0.5374  0.1540
  104MPD2    C1 1617   2.374   1.595  12.389 -0.0222 -0.3028 -0.3184
  104MPD2    C2 1618   2.270   1.653  12.320 -0.0758  0.7936 -0.0370
  104MPD2    C3 1619   2.201   1.581  12.225 -0.3742 -0.6846 -1.1320
  104MPD2    C4 1620   2.221   1.443  12.213 -0.0924  0.0790 -0.5458
  104MPD2    C5 1621   2.325   1.387  12.285 -0.0849  0.4327 -0.2109
  104MPD2     H 1622   2.242   1.754  12.348 -1.2238  0.4890 -0.0726
  104MPD2    H1 1623   2.174   1.378  12.139  0.3535 -0.6098 -0.2273
  104MPD2    H2 1624   2.492   1.421  12.413 -0.4190  0.8643  0.6698
  104MPD2    H3 1625   2.354   1.283  12.274  2.3328  1.2817 -1.6546
  104MPD2     N 1626   2.116   1.645  12.134  0.0017 -0.0651  0.7579
  104MPD2    H5 1627   2.064   1.580  12.075 -1.3106  2.6074 -1.0051
  104MPD2    N1 1628   2.459   1.664  12.477  0.2277 -0.0415 -0.0203
  104MPD2    H7 1629   2.539   1.609  12.506 -0.5244  0.3142  2.8138
  105TMC2    C1 1630   3.897   1.318   0.238 -0.0971  0.0603  0.8142
  105TMC2    C2 1631   3.887   1.270   0.366  0.4917  0.1545  0.3831
  105TMC2    C3 1632   3.782   1.309   0.445  0.4443 -0.2052 -1.1549
  105TMC2    C4 1633   3.789   1.392   0.192 -0.2473  0.4720 -0.0640
  105TMC2    C5 1634   3.684   1.421   0.273  0.0681 -1.0608  0.2282
  105TMC2    C6 1635   3.688   1.398   0.408 -0.2685 -0.3629  1.2641
  105TMC2     C 1636   4.035   1.353   0.213 -0.1280 -0.7544 -0.4727
  105TMC2     O 1637   4.108   1.354   0.311 -0.3335 -0.0271  0.3746
  105TMC2     H 1638   3.958   1.200   0.409  0.6128  1.3269  2.0676
  105TMC2    H1 1639   3.796   1.448   0.100 -0.0609 -0.8299 -0.8309
  105TMC2    H2 1640   3.604   1.406   0.476  0.2353  1.8115  1.6367
  105TMC2    C7 1641   3.597   1.528   0.224  0.7979 -0.1105  0.1279
  105TMC2    C8 1642   3.767   1.261   0.574 -0.5221  0.3776 -0.1630
  105TMC2    O1 1643   3.576   1.532   0.101 -0.1525  0.6138  0.3396
  105TMC2    O2 1644   3.708   1.304   0.670 -0.1662 -0.8823 -0.2422
  105TMC2    O5 1645   3.810   1.137   0.564 -0.6604 -0.6926  0.0951
  105TMC2    H5 1646   3.799   1.113   0.469 -0.4166 -2.0766  0.4239
  106MPD2     C 1647   4.358   1.654  17.698  0.9521  0.3001  0.4568
  106MPD2    C1 1648   4.250   1.623  17.617  0.0750 -0.2665  0.7677
  106MPD2    C2 1649   4.159   1.529  17.667  0.1453 -0.2911  1.0370
  106MPD2    C3 1650   4.174   1.469   0.044  0.9670  1.1203  0.7273
  106MPD2    C4 1651   4.299   1.483   0.113  0.2684 -0.2497 -0.8484
  106MPD2    C5 1652   4.387   1.569   0.066 -0.8532 -0.2399  0.7623
  106MPD2     H 1653   4.081   1.505  17.596  1.4778  0.7415 -0.7686
  106MPD2    H1 1654   4.315   1.429   0.205  1.0300 -0.1901 -0.9502
  106MPD2    H2 1655   4.429   1.727  17.660 -1.0880  1.3593 -1.3248
  106MPD2    H3 1656   4.474   1.599   0.124 -0.5536 -0.0808  0.2214
  106MPD2     N 1657   4.058   1.401   0.090  0.3010 -0.1170  0.2218
  106MPD2    H5 1658   3.977   1.399   0.029  0.4844  2.6262 -0.1350
  106MPD2    N1 1659   4.229   1.683  17.487 -0.0299  0.5324  0.3354
  106MPD2    H7 1660   4.142   1.659  17.440  0.3253  0.3210 -0.2120
  107TMC2    C1 1661   4.396   1.229  11.760 -0.0084  0.2123  0.6157
  107TMC2    C2 1662   4.478   1.341  11.755  0.1474  0.0497 -0.0826
  107TMC2    C3 1663   4.557   1.363  11.646  0.2225 -0.1590 -0.2599
  107TMC2    C4 1664   4.397   1.136  11.656  0.0263 -0.1724 -0.3541
  107TMC2    C5 1665   4.473   1.168  11.542 -0.2473  0.0539  0.4896
  107TMC2    C6 1666   4.547   1.280  11.537  0.3000  0.1628  0.0481
  107TMC2     C 1667   4.323   1.195  11.878  0.0747 -0.4089 -0.2078
  107TMC2     O 1668   4.281   1.078  11.888  0.4964 -0.3303 -0.4613
  107TMC2     H 1669   4.489   1.409  11.839  2.0323 -0.6827  0.2702
  107TMC2    H1 1670   4.334   1.050  11.673  1.4019 -0.8123  1.5282
  107TMC2    H2 1671   4.611   1.297  11.451  2.9942  0.0937  2.0113
  107TMC2    C7 1672   4.483   1.087  11.422 -0.3623 -0.6023 -0.4294
  107TMC2    C8 1673   4.654   1.473  11.664 -0.4236  0.6978 -0.3204
  107TMC2    O1 1674   4.525   1.137  11.318  0.7746  0.1433 -0.0332
  107TMC2    O2 1675   4.670   1.534  11.766  0.0218  0.4753 -0.2245
  107TMC2    O5 1676   0.008   1.485  11.566 -0.5778 -0.3752 -0.2030
  107TMC2    H5 1677   4.698   1.478  11.479  0.5970  1.2366 -0.9376
  108MPD2     C 1678   4.300   1.341  12.210 -0.1822 -0.3206  0.6812
  108MPD2    C1 1679   4.257   1.270  12.103 -0.3949 -0.7916  0.2743
  108MPD2    C2 1680   4.152   1.180  12.124 -0.4829 -0.1700  0.6601
  108MPD2    C3 1681   4.090   1.171  12.241  0.3908  0.1809 -0.0179
  108MPD2    C4 1682   4.131   1.246  12.351  0.0267  1.1275 -0.3183
  108MPD2    C5 1683   4.239   1.333  12.335  0.4220 -0.3976  0.4810
  108MPD2     H 1684   4.139   1.112  12.041 -2.2507  0.7376  0.1927
  108MPD2    H1 1685   4.082   1.240  12.447  1.7286 -1.0492  0.4207
  108MPD2    H2 1686   4.379   1.412  12.187  0.0199 -0.6813  0.2649
  108MPD2    H3 1687   4.261   1.379  12.430 -2.0778  0.0784  0.8302
  108MPD2     N 1688   3.980   1.085  12.275  0.0949  0.5415  0.1355
  108MPD2    H5 1689   3.942   1.097  12.368  0.2843  1.0730  0.1418
  108MPD2    N1 1690   4.326   1.287  11.978 -0.3569  0.1057 -0.3608
  108MPD2    H7 1691   4.379   1.374  11.972  2.4169 -1.6785 -1.6011
  109TMC2    C1 1692   4.262   3.089   0.522  0.2602  0.1996  0.2312
  109TMC2    C2 1693   4.269   3.107   0.389 -0.1552 -0.2052  0.4416
  109TMC2    C3 1694   4.394   3.133   0.336 -0.7282  1.3241 -0.2426
  109TMC2    C4 1695   4.366   3.120   0.615  0.6780  0.4054  0.2428
  109TMC2    C5 1696   4.472   3.168   0.552 -0.4829 -0.7089  0.6087
  109TMC2    C6 1697   4.491   3.176   0.413 -0.1961 -0.7554 -0.5035
  109TMC2     C 1698   4.143   3.014   0.573  0.5040 -0.3498  0.2762
  109TMC2     O 1699   4.072   2.976   0.479  0.0376 -0.0073  0.2880
  109TMC2     H 1700   4.201   3.065   0.316 -1.6521  1.0558  1.1148
  109TMC2    H1 1701   4.341   3.138   0.718  1.6567  2.7787  0.0673
  109TMC2    H2 1702   4.585   3.216   0.376 -1.1464 -0.1678 -2.2403
  109TMC2    C7 1703   4.602   3.182   0.619 -0.4166 -0.0780  0.5663
  109TMC2    C8 1704   4.420   3.122   0.195 -0.2202 -0.3696 -0.0943
  109TMC2    O1 1705   4.703   3.229   0.565  0.2621  0.3361  0.6993
  109TMC2    O2 1706   4.333   3.092   0.116 -0.0202 -0.3018 -0.7184
  109TMC2    O5 1707   4.546   3.075   0.190 -0.3477 -0.3797 -0.3761
  109TMC2    H5 1708   4.604   3.087   0.268 -0.6374 -1.8183  0.0747
  110MPD2     C 1709   3.765   2.908   0.899  0.4440  0.0961 -0.3392
  110MPD2    C1 1710   3.880   2.910   0.974  0.8485 -0.6133 -0.0760
  110MPD2    C2 1711   4.002   2.917   0.900  0.5860  0.0254 -0.0160
  110MPD2    C3 1712   4.002   2.953   0.769  0.1097 -0.0590  0.2611
  110MPD2    C4 1713   3.880   2.945   0.698  0.2530 -0.1375 -0.2506
  110MPD2    C5 1714   3.762   2.919   0.765 -0.0461 -0.4588  0.1115
  110MPD2     H 1715   4.094   2.936   0.954  1.2200  0.4079 -1.2416
  110MPD2    H1 1716   3.877   2.965   0.592  1.6314  1.6239  0.0401
  110MPD2    H2 1717   3.672   2.900   0.954 -0.4916 -1.9823 -2.2436
  110MPD2    H3 1718   3.674   2.913   0.702 -0.7364 -1.6310  1.2070
  110MPD2     N 1719   4.127   2.997   0.710 -0.1692 -0.4815  0.1952
  110MPD2    H5 1720   4.211   3.000   0.767 -1.1394 -0.3075  1.6260
  110MPD2    N1 1721   3.867   2.897   1.113  0.0583  0.2899 -0.6758
  110MPD2    H7 1722   3.783   2.866   1.160 -1.2523  3.4038 -0.9215
  111TMC2    C1 1723   0.182   3.259  11.231 -0.2596 -0.3371 -0.3355
  111TMC2    C2 1724   0.154   3.302  11.105 -0.4228 -0.0062  0.9363
  111TMC2    C3 1725   0.160   3.204  11.009  0.6398  0.7405  1.0341
  111TMC2    C4 1726   0.218   3.135  11.258  1.1932  0.1894  0.3302
  111TMC2    C5 1727   0.207   3.043  11.165 -0.0816 -0.5235 -0.0139
  111TMC2    C6 1728   0.186   3.073  11.034  0.0527  0.4244  0.2940
  111TMC2     C 1729   0.058   3.291  11.290 -0.3485  0.2912 -0.4050
  111TMC2     O 1730   4.698   3.294  11.215  0.3010  0.2550  0.3516
  111TMC2     H 1731   0.114   3.400  11.077 -2.0608 -1.0805 -0.4881
  111TMC2    H1 1732   0.246   3.107  11.358 -0.3870  0.0825  0.7521
  111TMC2    H2 1733   0.154   3.001  10.960 -0.4018  0.4099  0.5030
  111TMC2    C7 1734   0.130   2.918  11.199 -0.4149 -0.2562  0.0234
  111TMC2    C8 1735   0.089   3.237  10.881  0.1381 -0.0558 -0.0273
  111TMC2    O1 1736   0.113   2.835  11.112 -0.4257 -0.3348  0.3865
  111TMC2    O2 1737   0.057   3.160  10.795 -0.5010 -0.1260 -1.0331
  111TMC2    O5 1738   0.139   3.359  10.857  0.3853  0.4089  0.4320
  111TMC2    H5 1739   0.200   3.388  10.929  0.1149  0.2740  0.7113
  112MPD2     C 1740   4.531   3.135  11.678 -0.0935 -0.5755 -0.1358
  112MPD2    C1 1741   4.502   3.123  11.548 -0.3649 -0.7113 -0.8685
  112MPD2    C2 1742   4.590   3.178  11.463 -0.3180 -0.3639 -0.7452
  112MPD2    C3 1743   4.706   3.236  11.510  0.0407  0.2911  0.0326
  112MPD2    C4 1744   0.001   3.234  11.645 -0.5271  0.1885  0.5191
  112MPD2    C5 1745   4.642   3.200  11.725 -0.2105  0.2400 -0.2183
  112MPD2     H 1746   4.575   3.170  11.356 -0.2615 -2.1475 -0.6333
  112MPD2    H1 1747   0.093   3.273  11.689  0.2889 -0.0166 -1.0213
  112MPD2    H2 1748   4.469   3.086  11.751 -1.1118  1.0633  0.1105
  112MPD2    H3 1749   4.659   3.210  11.831 -0.6165 -1.2089 -0.0168
  112MPD2     N 1750   0.069   3.284  11.425  0.0928 -0.2837 -0.0205
  112MPD2    H5 1751   0.156   3.316  11.465 -0.3941  0.1279  0.7059
  112MPD2    N1 1752   4.394   3.051  11.488  0.1247  0.2022  0.0090
  112MPD2    H7 1753   4.400   3.065  11.387  2.0619  0.7892  0.2009
  113TMC2    C1 1754   2.142   0.596   0.227  0.5345  0.2386 -0.3612
  113TMC2    C2 1755   2.156   0.604   0.092 -0.4283  0.5928  0.1642
  113TMC2    C3 1756   2.112   0.494   0.016  0.2080 -0.7173 -0.2466
  113TMC2    C4 1757   2.080   0.491   0.287  0.0367  0.4341  0.1954
  113TMC2    C5 1758   2.033   0.387   0.209  0.0287 -0.5094 -0.0394
  113TMC2    C6 1759   2.045   0.387   0.076 -0.4511 -1.1238  0.1234
  113TMC2     C 1760   2.200   0.700   0.306 -0.0828  0.0547  0.0555
  113TMC2     O 1761   2.215   0.810   0.256 -0.0449  0.4541  0.4084
  113TMC2     H 1762   2.208   0.690   0.051 -0.9104  1.6250  1.7290
  113TMC2    H1 1763   2.052   0.499   0.392 -0.8959 -0.2564 -0.0015
  113TMC2    H2 1764   2.042   0.296   0.018  1.9916  0.2224 -2.1097
  113TMC2    C7 1765   1.974   0.265   0.274 -0.7756 -0.4229 -0.0938
  113TMC2    C8 1766   2.111   0.493  17.611  0.0221  0.2516 -0.1897
  113TMC2    O1 1767   1.940   0.164   0.207 -0.0995  0.2148 -0.2596
  113TMC2    O2 1768   2.047   0.412  17.542  0.0879  0.6463 -0.5379
  113TMC2    O5 1769   2.222   0.574  17.572  0.0784  0.5190  0.3786
  113TMC2    H5 1770   2.282   0.594  17.647  0.4394 -0.3332  0.3159
  114MPD2     C 1771   2.509   0.822   0.693  0.0390 -0.1667 -0.0359
  114MPD2    C1 1772   2.451   0.899   0.600 -0.2838 -0.2885  0.1034
  114MPD2    C2 1773   2.363   0.850   0.502  0.0781 -0.5979 -0.3489
  114MPD2    C3 1774   2.337   0.711   0.503 -0.7189  0.2038  0.7888
  114MPD2    C4 1775   2.393   0.637   0.604  0.3154  0.0540  0.0271
  114MPD2    C5 1776   2.481   0.689   0.692 -0.2315 -0.1461  0.0920
  114MPD2     H 1777   2.313   0.919   0.436  1.8984  0.8430 -0.1948
  114MPD2    H1 1778   2.366   0.532   0.598  0.8837 -0.1104  0.3938
  114MPD2    H2 1779   2.583   0.854   0.766  0.1189 -0.2104 -0.0979
  114MPD2    H3 1780   2.535   0.638   0.771 -2.6369 -0.5710  1.4693
  114MPD2     N 1781   2.254   0.645   0.421  0.4061 -0.3046 -0.4111
  114MPD2    H5 1782   2.240   0.546   0.439 -0.1685 -0.1104  0.2105
  114MPD2    N1 1783   2.454   1.035   0.606 -0.1960 -0.1746 -0.1844
  114MPD2    H7 1784   2.408   1.079   0.526 -0.1355 -0.8177 -0.5737
  115TMC2    C1 1785   3.709   3.750   0.313 -0.3535 -0.5004 -0.2352
  115TMC2    C2 1786   3.730   3.713   0.443  0.2281 -0.3708 -0.8914
  115TMC2    C3 1787   3.716   3.799   0.541 -0.1127  0.1740  0.0231
  115TMC2    C4 1788   3.677   3.878   0.282  0.5777  0.8581 -0.1036
  115TMC2    C5 1789   3.677   3.966   0.382 -0.7135 -0.2071 -0.1055
  115TMC2    C6 1790   3.708   3.927   0.508 -0.2289 -0.3902 -0.6597
  115TMC2     C 1791   3.734   3.649   0.204  0.7541 -0.3489 -0.7936
  115TMC2     O 1792   3.662   3.669   0.106 -0.3907  0.1563 -0.2439
  115TMC2     H 1793   3.734   3.608   0.470  0.0443 -0.0850  0.2445
  115TMC2    H1 1794   3.657   3.897   0.177  1.0878  1.1565 -0.1483
  115TMC2    H2 1795   3.716   4.005   0.583  0.2791 -0.8038 -0.2807
  115TMC2    C7 1796   3.628   4.100   0.369  0.4229 -0.1641  0.4740
  115TMC2    C8 1797   3.752   3.775   0.680  0.4799  0.4907 -0.2950
  115TMC2    O1 1798   3.621   4.166   0.476 -0.2869  0.0745 -0.3942
  115TMC2    O2 1799   3.713   3.851   0.768  0.5446  0.0980 -0.1990
  115TMC2    O5 1800   3.874   3.716   0.678  0.5638 -0.1608  0.1130
  115TMC2    H5 1801   3.902   3.681   0.591  3.5992  0.4401  0.8657
  116MPD2     C 1802   3.975   3.254  17.737 -0.7563 -0.0984 -0.0646
  116MPD2    C1 1803   3.853   3.306  17.708 -0.2559  0.7362  0.0027
  116MPD2    C2 1804   3.804   3.412   0.040 -0.3124 -0.4146  0.5979
  116MPD2    C3 1805   3.881   3.467   0.141  0.5031  0.3860  0.1413
  116MPD2    C4 1806   4.005   3.409   0.168 -0.3685 -0.3656 -0.4001
  116MPD2    C5 1807   4.054   3.307   0.093 -0.0350 -0.1127 -0.7542
  116MPD2     H 1808   3.700   3.443   0.029 -0.1085  0.0886  0.0770
  116MPD2    H1 1809   4.075   3.442   0.244  0.0692  0.3579 -1.1166
  116MPD2    H2 1810   4.011   3.164  17.687  1.6494  0.0931  1.3435
  116MPD2    H3 1811   4.150   3.266   0.124  0.3926  3.1826  2.3149
  116MPD2     N 1812   3.846   3.578   0.221 -0.0349  0.4701 -0.3685
  116MPD2    H5 1813   3.909   3.600   0.297  1.7891 -0.5016 -1.5936
  116MPD2    N1 1814   3.788   3.222  17.614 -0.0110 -0.3489  0.1563
  116MPD2    H7 1815   3.838   3.143  17.575  0.3780  0.9247 -1.8936
  117TMC2    C1 1816   1.905   0.120  13.936 -0.3589 -0.1155 -0.0622
  117TMC2    C2 1817   1.981   0.033  14.010  0.6355 -0.2748 -0.2997
  117TMC2    C3 1818   2.113   0.060  14.039  0.4162  0.0194 -0.6754
  117TMC2    C4 1819   1.965   0.226  13.879  0.2115 -0.0714  0.1442
  117TMC2    C5 1820   2.098   0.247  13.902  0.4736 -0.2434 -0.0042
  117TMC2    C6 1821   2.170   0.167  13.979  0.3945  0.4670 -0.1380
  117TMC2     C 1822   1.767   0.086  13.903  0.0349  0.2993 -0.7881
  117TMC2     O 1823   1.725   4.709  13.923  0.3606  0.0233  0.0597
  117TMC2     H 1824   1.931   4.683  14.055  2.3516 -2.0214 -1.6886
  117TMC2    H1 1825   1.910   0.283  13.805  0.3880 -2.5246 -1.9247
  117TMC2    H2 1826   2.272   0.195  14.001 -0.7476  2.5529  2.5233
  117TMC2    C7 1827   2.150   0.381  13.869 -1.0785 -0.1193 -0.5113
  117TMC2    C8 1828   2.197   4.717  14.139  0.1825  0.5731 -0.4778
  117TMC2    O1 1829   2.273   0.391  13.867  0.6461  0.0316 -0.4578
  117TMC2    O2 1830   2.311   0.021  14.165 -0.1746 -0.2857  0.6956
  117TMC2    O5 1831   2.145   4.595  14.160  0.2074  0.4737  0.1712
  117TMC2    H5 1832   2.050   4.581  14.140  0.6045 -0.8115 -0.8212
  118MPD2     C 1833   1.992   0.698  13.772 -0.2928 -0.3215  0.0004
  118MPD2    C1 1834   2.092   0.604  13.781 -0.4339  0.7152  0.5118
  118MPD2    C2 1835   2.211   0.633  13.724  0.3520  0.3373 -0.0416
  118MPD2    C3 1836   2.236   0.758  13.674  0.2553 -0.0029  0.3252
  118MPD2    C4 1837   2.137   0.859  13.671 -0.0035 -0.1223 -0.4538
  118MPD2    C5 1838   2.017   0.822  13.726 -0.4979  0.0369  0.4051
  118MPD2     H 1839   2.301   0.572  13.735 -0.1349 -0.7097 -1.8660
  118MPD2    H1 1840   2.145   0.942  13.602  1.2422 -0.9479 -1.2987
  118MPD2    H2 1841   1.892   0.677  13.807 -0.3439 -0.2660 -0.1128
  118MPD2    H3 1842   1.937   0.894  13.721 -0.2056  0.2232 -1.6214
  118MPD2     N 1843   2.348   0.796  13.588  0.1759  0.2879  0.9146
  118MPD2    H5 1844   2.334   0.885  13.541 -1.3966 -1.5200 -2.0316
  118MPD2    N1 1845   2.058   0.471  13.829 -0.5447 -0.5269 -0.5021
  118MPD2    H7 1846   1.962   0.439  13.844  0.0933 -2.1243  0.1524
  119TMC2    C1 1847   4.410   1.509  13.581  0.4677  0.6238 -0.6905
  119TMC2    C2 1848   4.353   1.425  13.490 -0.7791 -0.1216  0.2437
  119TMC2    C3 1849   4.254   1.345  13.530 -0.2301 -0.2056 -0.2481
  119TMC2    C4 1850   4.362   1.504  13.707  0.2624  0.1852 -0.1654
  119TMC2    C5 1851   4.273   1.406  13.750 -0.0543  0.2182 -0.1430
  119TMC2    C6 1852   4.219   1.320  13.657 -0.3785  0.1508 -0.2390
  119TMC2     C 1853   4.540   1.569  13.553 -0.4309 -0.6704 -0.4464
  119TMC2     O 1854   4.563   1.670  13.614 -0.2543 -0.0757 -0.3314
  119TMC2     H 1855   4.374   1.430  13.383  2.1613  1.5551  0.8861
  119TMC2    H1 1856   4.408   1.572  13.778 -2.7344  0.7945  1.2298
  119TMC2    H2 1857   4.140   1.251  13.685  0.8211 -0.4481  1.7090
  119TMC2    C7 1858   4.241   1.413  13.891  0.3550 -0.3270  0.4682
  119TMC2    C8 1859   4.228   1.236  13.437 -0.0522  0.0069  0.4382
  119TMC2    O1 1860   4.274   1.513  13.952 -0.1355 -0.3675  0.8851
  119TMC2    O2 1861   4.314   1.181  13.372  0.0647  0.0568  0.5074
  119TMC2    O5 1862   4.100   1.254  13.403 -0.0843 -0.6322  0.5297
  119TMC2    H5 1863   4.046   1.325  13.444  1.6613  0.9048  0.1736
  120MPD2     C 1864   0.291   1.484  13.430 -0.1028 -0.3602  0.1598
  120MPD2    C1 1865   0.232   1.588  13.496  0.8203 -0.0673 -1.0612
  120MPD2    C2 1866   0.095   1.597  13.506 -0.4317  0.0431  0.6687
  120MPD2    C3 1867   0.012   1.511  13.438  0.0987  0.0276 -0.0288
  120MPD2    C4 1868   0.068   1.404  13.368 -0.7792  0.2069 -0.2693
  120MPD2    C5 1869   0.205   1.395  13.361 -0.1350 -0.1044  0.1744
  120MPD2     H 1870   0.055   1.684  13.558 -0.0673  0.6616 -0.0884
  120MPD2    H1 1871   0.018   1.318  13.326 -1.0178  0.8995 -1.4200
  120MPD2    H2 1872   0.398   1.466  13.426  0.1209  1.3788 -1.7976
  120MPD2    H3 1873   0.252   1.311  13.312  1.2425 -0.2206  1.6933
  120MPD2     N 1874   4.615   1.496  13.468 -0.1649 -0.3183 -0.0498
  120MPD2    H5 1875   4.577   1.407  13.438  0.6252 -1.8193  3.3753
  120MPD2    N1 1876   0.328   1.675  13.553  0.9345 -1.1044  0.3374
  120MPD2    H7 1877   0.424   1.670  13.522  0.5686  2.5594 -1.4147
  121TMC2    C1 1878   1.126   2.843  13.814 -0.2142 -0.5033  0.3464
  121TMC2    C2 1879   1.108   2.761  13.708 -0.5135 -0.2922  0.7175
  121TMC2    C3 1880   1.058   2.639  13.738  0.5089  0.2764 -0.3371
  121TMC2    C4 1881   1.099   2.815  13.943  0.8883  0.0487 -0.5086
  121TMC2    C5 1882   1.051   2.688  13.969 -0.1348 -0.7386  0.6055
  121TMC2    C6 1883   1.029   2.602  13.868  0.6908 -0.0727  0.6219
  121TMC2     C 1884   1.126   2.988  13.790  0.1106 -0.3146  0.8401
  121TMC2     O 1885   1.089   3.062  13.878  0.2818 -0.1740 -0.4478
  121TMC2     H 1886   1.116   2.788  13.603 -0.6726 -0.5743  0.6334
  121TMC2    H1 1887   1.138   2.887  14.014 -0.7892  0.4232  0.0293
  121TMC2    H2 1888   0.988   2.502  13.877  0.4211 -0.1253 -1.0642
  121TMC2    C7 1889   0.936   2.695  14.061  1.1098  0.2729 -0.4938
  121TMC2    C8 1890   1.068   2.541  13.634 -0.0158  0.0823  0.8993
  121TMC2    O1 1891   0.869   2.592  14.062  0.1311 -0.4228  0.1868
  121TMC2    O2 1892   1.143   2.562  13.533 -0.5169 -0.0691  0.0935
  121TMC2    O5 1893   0.958   2.470  13.633  0.1097 -0.2347  0.3553
  121TMC2    H5 1894   0.916   2.474  13.722  0.4875  1.1713  0.4743
  122MPD2     C 1895   1.143   3.267  13.672 -0.4368 -0.8314  0.0164
  122MPD2    C1 1896   1.182   3.154  13.610  0.3328 -0.0288 -0.3911
  122MPD2    C2 1897   1.250   3.166  13.487 -0.2966 -0.3970  0.8317
  122MPD2    C3 1898   1.277   3.292  13.432 -0.6268  0.6966  0.2024
  122MPD2    C4 1899   1.224   3.401  13.496  0.1462 -0.0824 -0.1526
  122MPD2    C5 1900   1.164   3.390  13.619  0.1099  0.3554  0.1077
  122MPD2     H 1901   1.293   3.077  13.443 -2.8964 -0.5963 -1.2617
  122MPD2    H1 1902   1.247   3.501  13.462 -1.3401 -1.3229 -4.8004
  122MPD2    H2 1903   1.089   3.266  13.766  1.4275  1.0658  1.1255
  122MPD2    H3 1904   1.146   3.478  13.680  0.4264 -0.2071  1.0080
  122MPD2     N 1905   1.350   3.313  13.320  0.0845 -0.9796 -0.4308
  122MPD2    H5 1906   1.385   3.408  13.306  0.8537 -1.0118  1.2739
  122MPD2    N1 1907   1.153   3.026  13.663  0.4004 -0.4452 -0.0376
  122MPD2    H7 1908   1.197   2.951  13.610 -0.9205 -0.8669 -0.5398
  123TMC2    C1 1909   0.583   1.099   9.543 -0.0581 -0.5001 -0.3561
  123TMC2    C2 1910   0.689   1.119   9.463  0.4342  0.0164  0.2999
  123TMC2    C3 1911   0.811   1.108   9.523 -0.5656  0.4918 -0.2723
  123TMC2    C4 1912   0.591   1.052   9.673  0.1853 -0.0200 -0.2810
  123TMC2    C5 1913   0.718   1.037   9.731  0.3953  0.1473  0.3534
  123TMC2    C6 1914   0.826   1.068   9.655  0.0664 -0.0710  0.4920
  123TMC2     C 1915   0.455   1.096   9.472  0.1181  0.3796 -0.1876
  123TMC2     O 1916   0.459   1.075   9.353 -0.1333  0.4810  0.1145
  123TMC2     H 1917   0.678   1.157   9.362 -0.2141 -3.1353 -0.8189
  123TMC2    H1 1918   0.503   1.022   9.728  1.1260  2.2429  2.4430
  123TMC2    H2 1919   0.927   1.060   9.694  0.1358  0.3292  0.3882
  123TMC2    C7 1920   0.745   1.008   9.865 -0.1251 -0.4019 -0.4451
  123TMC2    C8 1921   0.928   1.118   9.441 -1.1007  0.1920 -0.1419
  123TMC2    O1 1922   0.858   1.030   9.905 -0.7444 -0.1782  0.3469
  123TMC2    O2 1923   0.925   1.101   9.319 -0.1328  0.2336  0.9497
  123TMC2    O5 1924   1.023   1.187   9.512 -0.6002 -0.1809  0.1786
  123TMC2    H5 1925   0.980   1.211   9.597  1.6505 -0.6873  1.4652
  124MPD2     C 1926   4.679   1.100   9.469  0.0540  0.5524  0.5979
  124MPD2    C1 1927   4.711   1.135   9.597  0.0902 -0.5847 -0.0441
  124MPD2    C2 1928   0.117   1.140   9.626 -0.7041  0.6416 -0.7823
  124MPD2    C3 1929   0.209   1.116   9.528  0.6078  0.1378  0.6432
  124MPD2    C4 1930   0.170   1.100   9.395 -1.0487 -0.0748  0.0358
  124MPD2    C5 1931   0.036   1.096   9.373 -1.0157 -0.1917 -0.2867
  124MPD2     H 1932   0.145   1.145   9.731 -0.5657 -0.0116 -0.7865
  124MPD2    H1 1933   0.239   1.069   9.316 -0.3102 -0.2810  0.7666
  124MPD2    H2 1934   4.576   1.102   9.436  0.0450  0.9470  0.6469
  124MPD2    H3 1935   4.728   1.075   9.275 -2.6733  0.0624  0.3807
  124MPD2     N 1936   0.349   1.104   9.564  0.0971 -0.0058 -0.1752
  124MPD2    H5 1937   0.371   1.116   9.662  0.2194 -0.8834 -0.0901
  124MPD2    N1 1938   4.616   1.171   9.699  0.4749 -0.5725 -0.4280
  124MPD2    H7 1939   4.654   1.211   9.784 -0.5768  1.5070 -0.9435
  125TMC2    C1 1940   1.259   2.061   9.687  0.6200  0.4391 -0.0231
  125TMC2    C2 1941   1.189   2.182   9.692  0.2561 -0.0981  0.4597
  125TMC2    C3 1942   1.262   2.294   9.664 -0.5995 -0.2211  0.8438
  125TMC2    C4 1943   1.393   2.047   9.654 -0.8064 -0.3040 -0.3312
  125TMC2    C5 1944   1.455   2.166   9.633 -0.8651 -0.3122  0.2426
  125TMC2    C6 1945   1.391   2.290   9.632  0.2294  0.0540  0.7731
  125TMC2     C 1946   1.204   1.944   9.749 -0.2685  0.3547  0.4115
  125TMC2     O 1947   1.268   1.844   9.735  0.5595 -0.0697 -0.3213
  125TMC2     H 1948   1.082   2.191   9.700 -0.1109 -1.0704 -3.3920
  125TMC2    H1 1949   1.443   1.951   9.651  0.8826  0.5904 -0.6957
  125TMC2    H2 1950   1.444   2.384   9.625  0.8730 -0.2275  1.8650
  125TMC2    C7 1951   1.575   2.159   9.563  0.0051  0.2152 -0.1038
  125TMC2    C8 1952   1.193   2.422   9.668  0.2283  0.3790 -0.4786
  125TMC2    O1 1953   1.624   2.047   9.551 -0.2298  0.5842  0.3507
  125TMC2    O2 1954   1.101   2.450   9.746 -0.9694  0.1938 -0.4390
  125TMC2    O5 1955   1.242   2.501   9.569 -0.0953  0.3312  0.1436
  125TMC2    H5 1956   1.313   2.462   9.513  2.4953  0.9272  3.0176
  126MPD1     C 1957   0.875   1.755  10.106  0.2279 -0.6035  0.0218
  126MPD1    C1 1958   0.821   1.876  10.063  0.2020 -0.0589 -0.1890
  126MPD1    C2 1959   0.904   1.944   9.976  0.0225  0.1671  0.0412
  126MPD1    C3 1960   1.017   1.887   9.917 -0.6519  0.3801  0.6998
  126MPD1    C4 1961   1.058   1.760   9.954 -0.3297 -0.6010 -0.2151
  126MPD1    C5 1962   0.980   1.698  10.045 -0.2287  0.1394 -0.0156
  126MPD1     H 1963   0.881   2.045   9.943  1.1534 -0.2319 -1.9858
  126MPD1    H1 1964   1.137   1.708   9.900  0.2202  0.3971 -0.3702
  126MPD1    H2 1965   0.829   1.696  10.185 -1.0539  1.0050  0.4887
  126MPD1    H3 1966   1.020   1.606  10.085  1.3264  1.1509  0.7499
  126MPD1     N 1967   1.084   1.966   9.820 -0.4292 -0.4880 -0.2479
  126MPD1    H5 1968   1.043   2.055   9.796 -3.1220 -1.5648  0.3396
  126MPD1    N1 1969   0.712   1.936  10.128  1.0493 -0.7398 -0.2070
  126MPD1    H6 1970   0.649   1.867  10.168  0.6101  0.6519  1.4867
  126MPD1    H7 1971   0.656   1.999  10.072 -0.5121 -1.1015  0.9598
  127TMC2    C1 1972   2.434   1.673  10.012  0.2796  0.4002  0.1618
  127TMC2    C2 1973   2.307   1.664  10.068  0.2257  0.6217 -0.1954
  127TMC2    C3 1974   2.264   1.541  10.096 -0.3474 -0.8233  0.5096
  127TMC2    C4 1975   2.517   1.569  10.006  0.6473 -0.4459 -0.4109
  127TMC2    C5 1976   2.456   1.448  10.017  0.1247 -0.1369 -0.0642
  127TMC2    C6 1977   2.332   1.427  10.067 -0.8580 -0.5840  0.1163
  127TMC2     C 1978   2.468   1.793   9.941 -0.0944 -0.3132 -0.1725
  127TMC2     O 1979   2.426   1.899   9.990 -0.0683 -0.2103  0.0349
  127TMC2     H 1980   2.244   1.752  10.059 -1.5793 -0.4688  1.8089
  127TMC2    H1 1981   2.613   1.576   9.956 -1.0192  4.0912 -2.9906
  127TMC2    H2 1982   2.286   1.332  10.091 -0.0097 -0.3529  2.6552
  127TMC2    C7 1983   2.534   1.337   9.967  0.3691 -0.0083  0.3237
  127TMC2    C8 1984   2.125   1.528  10.147  0.4488 -0.5606  0.7808
  127TMC2    O1 1985   2.647   1.369   9.922 -0.1370  0.0559  0.4136
  127TMC2    O2 1986   2.051   1.440  10.108 -0.0691 -0.3587 -0.4954
  127TMC2    O5 1987   2.092   1.645  10.190 -0.6734  0.7537  0.7280
  127TMC2    H5 1988   2.168   1.699  10.223  0.5837 -1.5046  1.5325
  128MPD2     C 1989   2.679   1.839   9.649 -0.1396  0.0669  0.5409
  128MPD2    C1 1990   2.603   1.875   9.759  0.2374  0.8473 -0.2336
  128MPD2    C2 1991   2.599   2.010   9.789  0.3792  0.0003  0.0039
  128MPD2    C3 1992   2.660   2.105   9.720 -0.5585 -0.2205  0.4929
  128MPD2    C4 1993   2.734   2.071   9.608 -0.3534  0.9330  0.7226
  128MPD2    C5 1994   2.738   1.937   9.567  0.3581 -0.9273 -0.1744
  128MPD2     H 1995   2.550   2.051   9.877 -1.9288 -1.0188 -0.8252
  128MPD2    H1 1996   2.813   2.133   9.566 -1.2493  2.3903  1.1866
  128MPD2    H2 1997   2.694   1.735   9.618 -0.4098  0.2147 -0.0893
  128MPD2    H3 1998   2.813   1.899   9.499  0.6721  0.8630 -0.8237
  128MPD2     N 1999   2.662   2.230   9.778 -0.6596 -0.2221  0.4646
  128MPD2    H5 2000   2.612   2.242   9.865  0.9883  2.0313  1.1062
  128MPD2    N1 2001   2.561   1.770   9.842  0.6126 -0.0373 -0.2884
  128MPD2    H7 2002   2.569   1.673   9.813 -1.4173  0.1606 -1.5335
  129TMC2    C1 2003   0.276   2.351   1.256 -0.5045 -0.4693 -0.0419
  129TMC2    C2 2004   0.352   2.265   1.178  0.7425 -0.4073 -0.2209
  129TMC2    C3 2005   0.305   2.252   1.048  0.1912  1.1365 -0.5481
  129TMC2    C4 2006   0.165   2.420   1.203  0.1541 -0.2594  0.4893
  129TMC2    C5 2007   0.129   2.392   1.077  0.4006 -0.7088 -0.3772
  129TMC2    C6 2008   0.189   2.302   0.999  0.0159 -0.2933 -0.6378
  129TMC2     C 2009   0.343   2.397   1.377  0.1894  0.1719 -0.8977
  129TMC2     O 2010   0.426   2.328   1.433  0.7453 -0.4634 -0.0707
  129TMC2     H 2011   0.440   2.211   1.210  0.1984 -0.9352  0.3731
  129TMC2    H1 2012   0.112   2.490   1.267  0.9246  0.9412 -0.1959
  129TMC2    H2 2013   0.145   2.272   0.905 -0.8795 -1.5226  0.1706
  129TMC2    C7 2014   0.029   2.484   1.022 -0.7163 -0.1381  0.0448
  129TMC2    C8 2015   0.385   2.171   0.968 -0.3503 -0.0351 -0.6233
  129TMC2    O1 2016   4.688   2.540   1.096 -0.0713  0.4253  0.6941
  129TMC2    O2 2017   0.474   2.101   1.014  0.0409  0.0499  0.1261
  129TMC2    O5 2018   0.359   2.202   0.841 -0.3776 -0.1681 -0.4920
  129TMC2    H5 2019   0.296   2.274   0.821 -0.1103  0.1157 -0.3054
  130MPD2     C 2020   0.392   2.530   1.638 -0.0905  0.4345  0.2806
  130MPD2    C1 2021   0.339   2.591   1.526  0.7047 -0.0105  0.3814
  130MPD2    C2 2022   0.297   2.727   1.533 -0.3679 -0.2396  0.6849
  130MPD2    C3 2023   0.321   2.802   1.643 -0.1550  0.2313  0.3664
  130MPD2    C4 2024   0.382   2.744   1.751 -0.7298 -0.0738 -0.5912
  130MPD2    C5 2025   0.417   2.610   1.748  0.4884  0.4200  0.0742
  130MPD2     H 2026   0.254   2.787   1.453  0.2754 -0.9945 -0.2382
  130MPD2    H1 2027   0.400   2.797   1.844  0.6758  1.5493 -1.7931
  130MPD2    H2 2028   0.427   2.428   1.643 -0.2312  0.3491 -0.5021
  130MPD2    H3 2029   0.469   2.560   1.829 -0.0822 -0.6332 -0.2037
  130MPD2     N 2030   0.283   2.936   1.645 -0.3906 -0.0964  0.6867
  130MPD2    H5 2031   0.254   2.981   1.558  2.5650  0.2540 -0.0925
  130MPD2    N1 2032   0.308   2.527   1.405 -0.3021  0.6726 -0.2356
  130MPD2    H7 2033   0.243   2.573   1.341 -2.9817 -1.1250  1.2257
  131TMC2    C1 2034   0.198   1.961  10.243  0.9477  0.3551  0.8796
  131TMC2    C2 2035   0.294   1.938  10.334 -0.2357  0.2345  0.3990
  131TMC2    C3 2036   0.399   2.021  10.326 -0.8052 -1.2231  0.3100
  131TMC2    C4 2037   0.211   2.051  10.136  0.2838  0.0261 -0.2099
  131TMC2    C5 2038   0.322   2.134  10.138  0.4245  0.0838 -0.9573
  131TMC2    C6 2039   0.421   2.120  10.232  0.0607 -0.1336 -0.3396
  131TMC2     C 2040   0.079   1.876  10.233 -0.1667 -0.4581  0.0838
  131TMC2     O 2041   0.026   1.853  10.123  0.2761  0.0368  0.0275
  131TMC2     H 2042   0.307   1.847  10.391 -1.2104 -0.3407 -0.2908
  131TMC2    H1 2043   0.130   2.058  10.064 -0.7867 -0.1156  0.9662
  131TMC2    H2 2044   0.514   2.175  10.230  0.4760 -0.8000  0.5583
  131TMC2    C7 2045   0.299   2.258  10.070  0.2828  0.0629  0.4262
  131TMC2    C8 2046   0.504   1.989  10.422  0.2912 -0.6073  0.5675
  131TMC2    O1 2047   0.201   2.262   9.995 -0.5035  0.2510  0.1905
  131TMC2    O2 2048   0.498   1.886  10.486 -0.0191  0.3327  0.0949
  131TMC2    O5 2049   0.567   2.103  10.463  0.3319 -0.5168  0.4899
  131TMC2    H5 2050   0.548   2.187  10.415 -0.8584 -1.3253 -0.4639
  132MPD2     C 2051   4.662   1.683  10.504 -0.0601 -0.5829 -0.6481
  132MPD2    C1 2052   4.699   1.709  10.373 -0.0229  0.5339 -0.5662
  132MPD2    C2 2053   4.640   1.641  10.273  0.0223  0.5593  0.0660
  132MPD2    C3 2054   4.553   1.538  10.303 -0.6308 -0.3773 -0.7405
  132MPD2    C4 2055   4.521   1.501  10.431  0.2717 -0.4734 -1.0820
  132MPD2    C5 2056   4.569   1.580  10.533  0.2809  0.2265 -0.1469
  132MPD2     H 2057   4.660   1.668  10.170 -2.3703 -3.1707 -1.3608
  132MPD2    H1 2058   4.443   1.427  10.448 -1.7086  1.3903 -1.9745
  132MPD2    H2 2059   4.710   1.737  10.585 -1.9941 -0.4329  0.3932
  132MPD2    H3 2060   4.550   1.572  10.639  0.6950 -0.7586 -0.1415
  132MPD2     N 2061   4.508   1.440  10.212 -0.0232 -0.1858 -0.2653
  132MPD2    H5 2062   4.463   1.355  10.245  1.2847 -0.9166 -0.3985
  132MPD2    N1 2063   0.062   1.808  10.349 -0.0565  0.0901  0.2968
  132MPD2    H7 2064   0.110   1.843  10.431 -0.7348  1.5149  0.0795
  133TMC2    C1 2065   0.194   3.637  10.069  0.6962 -0.1975 -0.0016
  133TMC2    C2 2066   0.323   3.621  10.103 -0.2690  0.1583  0.6667
  133TMC2    C3 2067   0.391   3.732  10.132 -0.2919 -0.9295  0.6051
  133TMC2    C4 2068   0.136   3.762  10.053  0.1294  0.5263  0.0082
  133TMC2    C5 2069   0.220   3.864  10.067 -0.9933  0.3866  0.0592
  133TMC2    C6 2070   0.351   3.853  10.102 -0.0948 -0.1265 -0.2675
  133TMC2     C 2071   0.108   3.520  10.055  0.4889  0.1382 -0.2027
  133TMC2     O 2072   0.165   3.410  10.040 -0.2508 -0.3596 -0.2031
  133TMC2     H 2073   0.365   3.521  10.110  1.2887  0.7135 -0.5514
  133TMC2    H1 2074   0.039   3.783  10.009 -1.1259 -1.0396  2.0220
  133TMC2    H2 2075   0.415   3.937  10.126 -0.3274  0.4650 -1.7272
  133TMC2    C7 2076   0.179   4.000  10.074  0.1514 -0.3297  0.4482
  133TMC2    C8 2077   0.525   3.723  10.189  0.4454  0.7297 -0.6287
  133TMC2    O1 2078   0.271   4.082  10.066 -0.2346  0.2513  0.6191
  133TMC2    O2 2079   0.554   3.636  10.271  0.2840  0.1068  0.5358
  133TMC2    O5 2080   0.616   3.772  10.103 -0.3934  0.4959  0.2342
  133TMC2    H5 2081   0.578   3.828  10.032 -0.4026 -0.2373 -0.3413
  134MPD2     C 2082   4.483   3.513  10.096  0.4744 -0.2726 -0.2740
  134MPD2    C1 2083   4.606   3.462  10.057  0.0149  0.6435  0.0172
  134MPD2    C2 2084   4.619   3.329  10.029 -0.6380  0.0217  0.1233
  134MPD2    C3 2085   4.509   3.251  10.025 -0.0607  1.2708  0.3296
  134MPD2    C4 2086   4.387   3.301  10.050  0.4960 -0.1517  0.2047
  134MPD2    C5 2087   4.369   3.432  10.089  0.2145 -0.1267  0.3018
  134MPD2     H 2088   4.716   3.280  10.028 -0.5662  0.1661 -0.2130
  134MPD2    H1 2089   4.298   3.241  10.032  1.0362 -1.2091  1.0854
  134MPD2    H2 2090   4.480   3.615  10.132  0.9623  0.3227 -1.9153
  134MPD2    H3 2091   4.269   3.465  10.113  0.2405  0.4311 -0.3428
  134MPD2     N 2092   4.511   3.112  10.001  0.5139 -0.7292  0.3884
  134MPD2    H5 2093   4.426   3.059   9.981  0.8167 -0.5237 -1.4034
  134MPD2    N1 2094   4.707   3.559  10.052  0.2826  0.5390  0.2326
  134MPD2    H7 2095   4.682   3.654  10.076 -0.2548  0.9768 -2.0856
  135TMC2    C1 2096   1.836   3.783   9.671 -0.1582  0.3899  0.0309
  135TMC2    C2 2097   1.707   3.803   9.715 -0.3261  0.0910 -0.1735
  135TMC2    C3 2098   1.668   3.727   9.818 -0.3521  0.8452  1.0211
  135TMC2    C4 2099   1.930   3.704   9.734  0.3670  0.8235 -0.4934
  135TMC2    C5 2100   1.880   3.640   9.846  0.5619 -0.1220 -0.3759
  135TMC2    C6 2101   1.751   3.649   9.894  0.5792 -0.0398  0.1493
  135TMC2     C 2102   1.851   3.814   9.527  0.3954 -0.2062 -0.7029
  135TMC2     O 2103   1.749   3.819   9.462  0.6736 -0.1256 -0.5266
  135TMC2     H 2104   1.640   3.870   9.662  0.2213  0.2082 -0.7096
  135TMC2    H1 2105   2.031   3.692   9.695  1.2177  0.5534  1.8109
  135TMC2    H2 2106   1.720   3.595   9.984 -1.4217  0.2727 -0.3527
  135TMC2    C7 2107   1.958   3.514   9.877  0.4200  0.3015 -0.6911
  135TMC2    C8 2108   1.541   3.759   9.877  0.0924  0.3224  0.0926
  135TMC2    O1 2109   2.077   3.520   9.859  0.2589 -0.0441  0.6682
  135TMC2    O2 2110   1.491   3.865   9.886 -0.1516 -1.0180  0.2337
  135TMC2    O5 2111   1.492   3.645   9.925 -0.2224  0.2647  0.8534
  135TMC2    H5 2112   1.542   3.565   9.896 -0.4261 -0.3093  2.0744
  136MPD2     C 2113   1.951   3.765   9.256  0.2275 -0.0438  0.1354
  136MPD2    C1 2114   2.029   3.802   9.356  0.0446  0.1092 -0.2973
  136MPD2    C2 2115   2.169   3.812   9.330 -0.1582  0.7172  0.1618
  136MPD2    C3 2116   2.226   3.788   9.201 -0.5567 -0.8753 -0.3065
  136MPD2    C4 2117   2.138   3.747   9.105  0.7641  0.0941  0.8130
  136MPD2    C5 2118   2.006   3.733   9.132 -0.1979 -0.2040  0.3100
  136MPD2     H 2119   2.233   3.837   9.414  0.9227  4.1796 -1.7229
  136MPD2    H1 2120   2.182   3.710   9.013  0.2502  1.0962  0.1652
  136MPD2    H2 2121   1.845   3.749   9.271 -0.0050  0.6766 -0.7220
  136MPD2    H3 2122   1.934   3.699   9.059  0.0056  2.3878 -1.0972
  136MPD2     N 2123   2.363   3.775   9.164  0.2470  0.2161 -0.1709
  136MPD2    H5 2124   2.388   3.748   9.069 -0.2339 -0.7059 -0.0335
  136MPD2    N1 2125   1.983   3.815   9.489  0.0696 -0.1321 -0.4517
  136MPD2    H7 2126   2.057   3.819   9.558  0.1216 -0.8086 -0.4697
  137TMC2    C1 2127   1.678   3.049   9.594 -0.2621 -0.7077  0.0743
  137TMC2    C2 2128   1.752   3.118   9.503 -0.3472  0.2925 -0.3381
  137TMC2    C3 2129   1.732   3.257   9.501 -0.2056 -1.0808  0.5588
  137TMC2    C4 2130   1.598   3.107   9.690  1.1418  0.0814  0.0622
  137TMC2    C5 2131   1.578   3.243   9.679 -0.4311 -0.3531 -1.0021
  137TMC2    C6 2132   1.643   3.317   9.585  0.1808  0.1259  0.3737
  137TMC2     C 2133   1.716   2.903   9.625 -0.4619  0.7620  0.0166
  137TMC2     O 2134   1.641   2.846   9.702  0.2306 -0.5768  0.1181
  137TMC2     H 2135   1.803   3.075   9.418 -0.9661  1.8299 -1.4713
  137TMC2    H1 2136   1.552   3.054   9.773 -0.6302  0.6643 -0.5567
  137TMC2    H2 2137   1.628   3.424   9.583 -2.9704 -0.3048  0.7711
  137TMC2    C7 2138   1.537   3.307   9.801  0.8039  0.8255 -0.5881
  137TMC2    C8 2139   1.798   3.324   9.390 -0.6308 -0.6260  0.7012
  137TMC2    O1 2140   1.592   3.413   9.828 -0.6509  0.9876  0.3906
  137TMC2    O2 2141   1.870   3.268   9.309  0.1667  0.8003  0.4805
  137TMC2    O5 2142   1.746   3.445   9.370 -0.3593  0.6162  0.1450
  137TMC2    H5 2143   1.690   3.478   9.444 -1.4571 -0.1662 -0.3330
  138MPD2     C 2144   2.030   2.724   9.545 -0.3723  0.3983 -0.9237
  138MPD2    C1 2145   1.907   2.744   9.605  1.0219 -0.1202 -0.6556
  138MPD2    C2 2146   1.864   2.644   9.693  0.1003  0.1249 -0.0909
  138MPD2    C3 2147   1.932   2.522   9.719  0.3828 -0.1536 -0.8866
  138MPD2    C4 2148   2.049   2.507   9.658 -0.2817  0.2977  0.0345
  138MPD2    C5 2149   2.090   2.599   9.564 -0.9000 -0.3822 -0.2132
  138MPD2     H 2150   1.765   2.658   9.736 -0.4903 -1.8995 -0.7964
  138MPD2    H1 2151   2.115   2.422   9.673 -0.5568  0.6511  3.1957
  138MPD2    H2 2152   2.066   2.796   9.473  1.0828 -0.5001 -1.0970
  138MPD2    H3 2153   2.174   2.581   9.499 -1.9009  0.9514 -1.8689
  138MPD2     N 2154   1.878   2.427   9.810  0.3176 -0.3165  0.3204
  138MPD2    H5 2155   1.790   2.444   9.858  0.1876 -2.5614  0.8423
  138MPD2    N1 2156   1.842   2.870   9.578  0.0321  0.7147  0.1548
  138MPD2    H7 2157   1.892   2.949   9.539 -0.3488  1.7882  1.8134
  139TMC2    C1 2158   1.318   0.796  13.333 -0.2288  0.7515 -0.1693
  139TMC2    C2 2159   1.433   0.856  13.371 -0.2086 -0.4675 -0.7145
  139TMC2    C3 2160   1.432   0.995  13.373  0.4942  0.2695 -0.0633
  139TMC2    C4 2161   1.204   0.859  13.284  0.3826  0.7244  1.2915
  139TMC2    C5 2162   1.203   0.991  13.304 -0.3322 -0.7337  0.0869
  139TMC2    C6 2163   1.315   1.059  13.348 -0.1238  0.3334  0.1784
  139TMC2     C 2164   1.328   0.656  13.301 -0.1718 -0.5168  0.7583
  139TMC2     O 2165   1.431   0.598  13.317 -0.4817 -0.4250  0.2899
  139TMC2     H 2166   1.516   0.792  13.399  0.6477  2.3256  3.1711
  139TMC2    H1 2167   1.117   0.806  13.247  1.4705  0.6216 -1.1129
  139TMC2    H2 2168   1.317   1.167  13.354 -0.2825  0.2778  1.1487
  139TMC2    C7 2169   1.084   1.074  13.299  0.1684  0.1117 -0.3751
  139TMC2    C8 2170   1.516   1.051  13.472  0.0205  0.8757  0.2535
  139TMC2    O1 2171   1.097   1.196  13.297 -0.2366 -0.4126  0.2885
  139TMC2    O2 2172   1.560   0.984  13.568  0.2545  0.6998  0.2070
  139TMC2    O5 2173   1.563   1.175  13.435  0.1690 -0.5087  0.2816
  139TMC2    H5 2174   1.535   1.206  13.346 -0.8080  0.0549  0.7858
  140MPD2     C 2175   1.066   0.414  13.335  1.2112 -0.0566 -0.6096
  140MPD2    C1 2176   1.185   0.457  13.302  0.0569  0.4545 -0.6356
  140MPD2    C2 2177   1.279   0.360  13.259 -0.2201  1.0619 -0.4602
  140MPD2    C3 2178   1.253   0.227  13.271 -0.0936  0.6315 -0.5927
  140MPD2    C4 2179   1.128   0.184  13.301  0.1203  1.0313  0.0135
  140MPD2    C5 2180   1.031   0.277  13.328  0.3235 -0.5087 -0.0827
  140MPD2     H 2181   1.381   0.386  13.234  0.3049 -1.0173 -0.4580
  140MPD2    H1 2182   1.110   0.078  13.311  1.8592  0.8151  0.7409
  140MPD2    H2 2183   0.986   0.480  13.368  0.5729 -1.4627  0.7174
  140MPD2    H3 2184   0.936   0.243  13.367  1.0758 -0.7859  1.5118
  140MPD2     N 2185   1.357   0.138  13.243 -0.0839  0.1732  0.0067
  140MPD2    H5 2186   1.443   0.181  13.213  0.5912 -0.8162  0.5322
  140MPD2    N1 2187   1.207   0.592  13.306  0.6816  0.0492  0.0413
  140MPD2    H7 2188   1.126   0.650  13.326 -0.1778 -0.8238 -0.8675
  141TMC2    C1 2189   1.900   2.213  14.438  0.3189  0.2816  0.0637
  141TMC2    C2 2190   1.807   2.119  14.474 -0.5270  0.3747  0.2288
  141TMC2    C3 2191   1.729   2.155  14.575 -0.0049  0.1919 -0.2318
  141TMC2    C4 2192   1.941   2.324  14.507 -0.3811 -0.0924 -0.1472
  141TMC2    C5 2193   1.863   2.352  14.618  0.6623 -0.1727 -0.2070
  141TMC2    C6 2194   1.755   2.272  14.647  0.1949  0.0166 -0.4770
  141TMC2     C 2195   1.932   2.213  14.293  0.0580  0.5890 -0.2682
  141TMC2     O 2196   1.993   2.305  14.255 -0.4428 -0.0817  0.2065
  141TMC2     H 2197   1.770   2.037  14.412  1.8713  0.0815 -0.8360
  141TMC2    H1 2198   2.016   2.393  14.469 -0.0807 -1.0146 -1.2302
  141TMC2    H2 2199   1.706   2.291  14.742  0.2489 -1.3743 -0.1736
  141TMC2    C7 2200   1.873   2.479  14.685 -0.1580 -0.1775  0.3697
  141TMC2    C8 2201   1.652   2.055  14.650  0.3017 -0.8670 -0.0101
  141TMC2    O1 2202   1.785   2.519  14.760  0.1055  0.3562  0.5230
  141TMC2    O2 2203   1.594   2.092  14.757 -0.3052  0.1126  0.0726
  141TMC2    O5 2204   1.724   1.939  14.641  0.4148  0.0926  0.0492
  141TMC2    H5 2205   1.787   1.919  14.569  0.9150  2.1699 -0.1041
  142TMC2    C1 2206   1.064   0.755  10.685  0.9997 -0.3365  0.6637
  142TMC2    C2 2207   1.193   0.808  10.696 -0.3534 -0.2327  0.4228
  142TMC2    C3 2208   1.237   0.889  10.593  0.0434  0.4253  0.0146
  142TMC2    C4 2209   0.987   0.778  10.576  0.7964 -0.0530 -0.3732
  142TMC2    C5 2210   1.036   0.859  10.476  0.3118  0.1903  0.3727
  142TMC2    C6 2211   1.164   0.915  10.480  0.4968  0.2875 -0.2343
  142TMC2     C 2212   1.013   0.681  10.803  0.8615  0.3519  0.2744
  142TMC2     O 2213   1.080   0.681  10.901 -0.5585 -0.0376 -0.1183
  142TMC2     H 2214   1.254   0.783  10.782  1.6904  3.4250  0.0635
  142TMC2    H1 2215   0.883   0.751  10.586  0.3167  2.3966  1.3232
  142TMC2    H2 2216   1.200   0.981  10.402  0.1471  1.1145  0.2988
  142TMC2    C7 2217   0.954   0.907  10.365 -0.4252 -0.0392  0.2706
  142TMC2    C8 2218   1.384   0.889  10.575 -0.1825 -0.1266 -0.1810
  142TMC2    O1 2219   0.983   0.999  10.290  0.1185 -0.3941  0.3560
  142TMC2    O2 2220   1.427   0.864  10.463  0.2797 -0.5286 -0.0550
  142TMC2    O5 2221   1.455   0.878  10.685  0.1890 -0.1264 -0.1395
  142TMC2    H5 2222   1.409   0.902  10.768  0.8989 -1.7325  0.7370
  143MPD2     C 2223   0.685   0.355  11.006 -0.9371 -0.5055 -0.4311
  143MPD2    C1 2224   0.692   0.331  10.870 -0.4514 -0.2808 -0.1473
  143MPD2    C2 2225   0.770   0.420  10.797 -0.4974  1.1694  0.3408
  143MPD2    C3 2226   0.831   0.527  10.860 -0.9568 -0.1492 -0.1361
  143MPD2    C4 2227   0.827   0.550  10.996 -0.1082 -0.2489 -0.4324
  143MPD2    C5 2228   0.758   0.457  11.061  0.2763 -0.3642 -0.1432
  143MPD2     H 2229   0.787   0.398  10.692  1.1782 -1.4821  1.1738
  143MPD2    H1 2230   0.887   0.623  11.051  1.7323 -2.4416  0.4750
  143MPD2    H2 2231   0.645   0.285  11.078 -0.0800 -0.1056  0.4440
  143MPD2    H3 2232   0.759   0.461  11.170 -0.9689 -3.1445 -0.0315
  143MPD2     N 2233   0.904   0.605  10.771  0.5254  1.0290  0.1052
  143MPD2    H5 2234   0.874   0.602  10.674  1.1388 -3.8498  0.0620
  143MPD2    N1 2235   0.626   0.218  10.821  0.0073 -0.5973 -0.4201
  143MPD2    H7 2236   0.577   0.164  10.892 -0.1319  1.6389  1.1810
  144TMC2    C1 2237   2.838   0.224   1.258  0.0295 -0.3488 -0.4214
  144TMC2    C2 2238   2.912   0.114   1.294 -0.5767  0.2349 -0.7398
  144TMC2    C3 2239   3.025   0.136   1.367  1.1245  0.1602 -0.1580
  144TMC2    C4 2240   2.890   0.350   1.273  0.2948 -1.0825 -0.7697
  144TMC2    C5 2241   3.011   0.370   1.335  0.1625 -0.4252 -0.1031
  144TMC2    C6 2242   3.086   0.261   1.373 -0.1593 -0.9424  0.3014
  144TMC2     C 2243   2.775   0.197   1.137 -0.1317 -1.2661 -0.4301
  144TMC2     O 2244   2.791   0.086   1.082  0.0964 -0.6693 -0.3043
  144TMC2     H 2245   2.886   0.012   1.268  0.9685  0.5668 -3.5520
  144TMC2    H1 2246   2.845   0.435   1.223  0.7099 -1.0995 -1.1720
  144TMC2    H2 2247   3.180   0.268   1.428 -1.0445  0.1642  1.6826
  144TMC2    C7 2248   3.054   0.498   1.381  0.1789 -1.0924 -0.3332
  144TMC2    C8 2249   3.117   0.019   1.392 -0.1054  0.6746  0.2929
  144TMC2    O1 2250   3.162   0.508   1.434  0.7830 -0.1239 -0.4100
  144TMC2    O2 2251   3.239   0.017   1.383  0.1433 -0.3913 -0.0396
  144TMC2    O5 2252   3.053   4.699   1.504 -0.1350  0.0150 -0.3823
  144TMC2    H5 2253   2.957   4.718   1.509 -0.1104 -0.3817  1.4167
  145MPD2     C 2254   2.458   0.302   0.748  0.3588  0.3653 -0.5203
  145MPD2    C1 2255   2.545   0.200   0.764 -0.3930 -0.1759  0.3339
  145MPD2    C2 2256   2.626   0.196   0.876  0.3480  0.2447  1.1385
  145MPD2    C3 2257   2.608   0.282   0.985 -0.5104  0.4828 -0.2029
  145MPD2    C4 2258   2.517   0.383   0.965  0.2133  0.3947 -0.7720
  145MPD2    C5 2259   2.443   0.394   0.846 -0.1465 -0.0327 -0.1928
  145MPD2     H 2260   2.697   0.115   0.883 -1.2902 -1.2378  0.2758
  145MPD2    H1 2261   2.500   0.457   1.043 -0.0505  0.5117 -0.9412
  145MPD2    H2 2262   2.372   0.303   0.682 -0.4350 -0.2708  0.5090
  145MPD2    H3 2263   2.366   0.470   0.841 -1.0048 -0.8780  0.1903
  145MPD2     N 2264   2.677   0.282   1.103 -0.1747 -0.3618  0.1381
  145MPD2    H5 2265   2.649   0.357   1.166  0.0066 -2.1891  2.3899
  145MPD2    N1 2266   2.562   0.096   0.671  0.7677  0.0612  0.0993
  145MPD2    H7 2267   2.622   0.019   0.697 -2.5126 -2.7434 -0.7148
  146TMC2    C1 2268   3.518   3.144  12.892 -0.5653  0.0312  0.1116
  146TMC2    C2 2269   3.399   3.106  12.834  0.2101  0.2339  0.4884
  146TMC2    C3 2270   3.397   2.978  12.782  0.8246  0.2005 -0.0630
  146TMC2    C4 2271   3.632   3.064  12.898 -0.0143 -0.7405  0.0611
  146TMC2    C5 2272   3.619   2.940  12.843  0.9448 -0.5334  0.8687
  146TMC2    C6 2273   3.503   2.892  12.786  0.7972  0.4487 -0.1969
  146TMC2     C 2274   3.512   3.273  12.971 -0.5416  0.6453  0.1171
  146TMC2     O 2275   3.449   3.369  12.929  0.5353 -0.4691 -0.0481
  146TMC2     H 2276   3.311   3.170  12.832  0.3512  0.3896 -1.0283
  146TMC2    H1 2277   3.730   3.109  12.913 -1.0271  0.7431  2.0912
  146TMC2    H2 2278   3.499   2.790  12.751  1.3939  0.1423  0.6220
  146TMC2    C7 2279   3.742   2.859  12.826 -0.0558 -0.4880 -0.2647
  146TMC2    C8 2280   3.297   2.951  12.680 -0.4675  0.4974  0.5399
  146TMC2    O1 2281   3.740   2.773  12.741  0.1946 -0.4175 -0.1634
  146TMC2    O2 2282   3.174   2.958  12.694 -0.2772  0.0575 -0.0241
  146TMC2    O5 2283   3.371   2.936  12.570  0.3006  0.3118 -0.3504
  146TMC2    H5 2284   3.466   2.950  12.587  0.4134  0.1000 -0.8186
  147MPD2     C 2285   4.239   2.758  12.915 -0.4662 -0.7766 -0.2043
  147MPD2    C1 2286   4.190   2.832  13.019  0.6408  0.2637  0.2667
  147MPD2    C2 2287   4.060   2.880  13.019  0.4607  0.5228  0.5561
  147MPD2    C3 2288   3.977   2.851  12.918  0.5801 -0.6114 -0.8203
  147MPD2    C4 2289   4.028   2.782  12.809  0.0944 -0.1517 -0.3668
  147MPD2    C5 2290   4.154   2.729  12.809  0.1408 -0.4982 -0.1516
  147MPD2     H 2291   4.028   2.942  13.101 -0.3487  1.7558 -0.6999
  147MPD2    H1 2292   3.976   2.781  12.715 -1.6781  0.6416  0.6188
  147MPD2    H2 2293   4.343   2.730  12.919 -0.8264 -2.0141  0.6772
  147MPD2    H3 2294   4.186   2.657  12.735  1.7329 -0.6888  0.7185
  147MPD2     N 2295   3.841   2.900  12.916  0.3752 -0.3205 -0.2565
  147MPD2    H5 2296   3.804   2.950  12.996 -1.2356  0.5385 -1.5387
  147MPD2    N1 2297   4.275   2.862  13.128 -0.6946 -0.4922 -0.3880
  147MPD2    H7 2298   4.366   2.817  13.121  0.2050  1.5986 -2.5176
  148TMC2    C1 2299   4.366   2.296  10.692 -0.1609 -0.6802  0.4632
  148TMC2    C2 2300   4.502   2.310  10.673 -0.1150  0.1277  0.8147
  148TMC2    C3 2301   4.584   2.214  10.738 -0.0444 -0.2179  0.7954
  148TMC2    C4 2302   4.318   2.194  10.765  0.4754 -0.3408  0.2983
  148TMC2    C5 2303   4.397   2.104  10.817  0.2098  0.2369  0.4183
  148TMC2    C6 2304   4.531   2.108  10.808  0.2885  0.1114  0.5727
  148TMC2     C 2305   4.276   2.409  10.653 -0.7301  0.9332 -0.3010
  148TMC2     O 2306   4.333   2.516  10.633 -0.1847  0.0637  0.1031
  148TMC2     H 2307   4.543   2.388  10.609  0.6002 -0.2183  0.8541
  148TMC2    H1 2308   4.212   2.174  10.762  0.6735 -0.9721 -2.2870
  148TMC2    H2 2309   4.588   2.046  10.876 -0.2057 -1.2226 -0.2370
  148TMC2    C7 2310   4.342   1.968  10.815 -0.0465 -0.0523  0.8535
  148TMC2    C8 2311   4.725   2.235  10.760 -0.7172 -0.4740  0.2382
  148TMC2    O1 2312   4.265   1.946  10.727 -0.7052 -0.6593 -0.0289
  148TMC2    O2 2313   0.065   2.155  10.803  0.3691  0.1086 -0.6084
  148TMC2    O5 2314   0.012   2.371  10.770 -0.7073  0.2588 -0.1760
  148TMC2    H5 2315   4.672   2.431  10.758  0.5974  1.7660 -0.8329
  149MPD2     C 2316   4.047   2.587  10.558 -0.0256 -0.9303  0.2243
  149MPD2    C1 2317   4.043   2.450  10.572 -0.1872 -0.4207  0.3794
  149MPD2    C2 2318   3.921   2.390  10.540  0.4511 -0.4833 -0.6710
  149MPD2    C3 2319   3.814   2.458  10.488  0.1641 -0.8147  0.3476
  149MPD2    C4 2320   3.813   2.591  10.499  0.1155  0.3094 -0.7977
  149MPD2    C5 2321   3.936   2.652  10.523 -0.1821  0.3662 -0.5355
  149MPD2     H 2322   3.918   2.281  10.536 -0.3286 -0.4367 -1.4097
  149MPD2    H1 2323   3.725   2.647  10.468  0.7035  0.8176 -1.5606
  149MPD2    H2 2324   4.128   2.648  10.594 -1.0157 -0.0869  1.0117
  149MPD2    H3 2325   3.924   2.759  10.528  0.7643  0.4882 -0.8065
  149MPD2     N 2326   3.702   2.398  10.426  0.1033 -0.0579 -0.8897
  149MPD2    H5 2327   3.618   2.455  10.425  1.1147  1.4606 -0.0811
  149MPD2    N1 2328   4.148   2.368  10.622  0.7610 -0.4635 -0.2126
  149MPD2    H7 2329   4.128   2.269  10.629  1.5104 -0.4089  2.6187
  150TMC2    C1 2330   1.477   1.075  12.171 -0.3289  0.0660  0.3183
  150TMC2    C2 2331   1.413   1.163  12.089 -0.4111  0.1169  0.9731
  150TMC2    C3 2332   1.487   1.249  12.015 -0.6712  0.8515  0.4124
  150TMC2    C4 2333   1.617   1.077  12.191 -0.1732  0.1101 -0.3762
  150TMC2    C5 2334   1.684   1.176  12.113  0.1720  0.7241 -0.0742
  150TMC2    C6 2335   1.616   1.261  12.030 -0.1872 -0.8629  0.3965
  150TMC2     C 2336   1.406   0.971  12.236 -0.7827 -0.2704  0.0889
  150TMC2     O 2337   1.454   0.931  12.341 -0.3692  0.2371 -0.4928
  150TMC2     H 2338   1.305   1.165  12.083 -0.3685  0.1589  0.2530
  150TMC2    H1 2339   1.661   0.992  12.242  0.6794 -0.2263 -1.6810
  150TMC2    H2 2340   1.665   1.331  11.963 -0.7894  1.0873  1.9686
  150TMC2    C7 2341   1.825   1.162  12.091  0.2661  0.4030 -0.2728
  150TMC2    C8 2342   1.422   1.297  11.897  0.2964 -0.2135 -0.6500
  150TMC2    O1 2343   1.870   1.202  11.982  0.4169 -0.8770  0.0443
  150TMC2    O2 2344   1.339   1.233  11.835 -0.1901 -0.0551 -0.3790
  150TMC2    O5 2345   1.439   1.434  11.877  0.1562  0.0114  0.6640
  150TMC2    H5 2346   1.507   1.475  11.935 -0.3088  0.2670  1.0283
  151MPD2     C 2347   0.992   0.671  12.272  0.1478 -0.3845  0.1529
  151MPD2    C1 2348   0.964   0.778  12.184  0.1344  0.4282  0.3469
  151MPD2    C2 2349   1.063   0.863  12.162  0.1365 -0.6481 -0.1048
  151MPD2    C3 2350   1.186   0.857  12.224  0.6318 -1.0092 -0.4465
  151MPD2    C4 2351   1.212   0.752  12.315  0.1468 -0.0198  0.3949
  151MPD2    C5 2352   1.115   0.660  12.335 -0.3519  0.9538  0.1448
  151MPD2     H 2353   1.046   0.954  12.105  2.6925  0.1449  0.4189
  151MPD2    H1 2354   1.305   0.743  12.371  0.6403 -0.1468 -0.4413
  151MPD2    H2 2355   0.924   0.589  12.292 -1.5425  1.0754  0.3466
  151MPD2    H3 2356   1.131   0.576  12.403 -0.1078  0.9674  0.1030
  151MPD2     N 2357   1.285   0.947  12.180  0.7524  0.4246  0.4206
  151MPD2    H5 2358   1.263   0.990  12.090  0.0890 -2.9072 -1.0104
  151MPD2    N1 2359   0.826   0.793  12.134  0.0488  0.4633  0.4969
  151MPD2    H7 2360   0.764   0.719  12.166  0.8957  0.4166  2.0345
  152TMC2    C1 2361   1.092   1.171  12.409 -0.3299 -0.2423 -0.2124
  152TMC2    C2 2362   1.125   1.110  12.530  0.3502 -0.4171 -0.2433
  152TMC2    C3 2363   1.254   1.102  12.568  0.2021 -0.0521  0.1561
  152TMC2    C4 2364   1.178   1.249  12.347 -0.4693 -0.0822  0.5827
  152TMC2    C5 2365   1.304   1.257  12.404  0.4347 -0.2604 -0.0519
  152TMC2    C6 2366   1.350   1.175  12.503  0.2224  0.3881  0.0767
  152TMC2     C 2367   0.963   1.151  12.351 -0.3535 -0.4763 -0.3843
  152TMC2     O 2368   0.934   1.226  12.259  0.4576 -0.2120 -0.3025
  152TMC2     H 2369   1.055   1.057  12.594  0.8189 -0.9173 -0.1447
  152TMC2    H1 2370   1.150   1.311  12.263  0.4798 -0.2768  0.1192
  152TMC2    H2 2371   1.456   1.155  12.510  0.2219  0.4059  0.1383
  152TMC2    C7 2372   1.385   1.364  12.351 -0.4302  0.2696 -0.1224
  152TMC2    C8 2373   1.291   0.972  12.625 -0.0714  0.8128 -0.4806
  152TMC2    O1 2374   1.344   1.433  12.256  0.2057  0.4218 -0.1030
  152TMC2    O2 2375   1.217   0.873  12.608  0.0842  0.0066  0.4132
  152TMC2    O5 2376   1.394   0.977  12.712  0.6269  0.0532  0.0870
  152TMC2    H5 2377   1.427   1.069  12.721 -0.4657  0.3811  0.7025
  153MPD2     C 2378   0.707   0.904  12.439  0.3601 -0.6397 -0.4285
  153MPD2    C1 2379   0.761   1.020  12.379  0.0161  1.5458 -0.1186
  153MPD2    C2 2380   0.680   1.104  12.309 -0.8666  0.4554 -0.3394
  153MPD2    C3 2381   0.542   1.090  12.316 -0.6600 -0.1434  0.0188
  153MPD2    C4 2382   0.480   0.978  12.374 -0.6442 -0.7536 -0.1047
  153MPD2    C5 2383   0.567   0.884  12.434  0.0438  0.5039 -0.6936
  153MPD2     H 2384   0.715   1.197  12.266 -1.5392  0.2913 -1.2369
  153MPD2    H1 2385   0.373   0.962  12.368 -0.9781  0.9504  1.5140
  153MPD2    H2 2386   0.775   0.838  12.493  0.1838  0.1511  0.7612
  153MPD2    H3 2387   0.528   0.799  12.489  1.2361  0.0433 -0.5635
  153MPD2     N 2388   0.472   1.210  12.283 -0.5709 -0.2572  0.0097
  153MPD2    H5 2389   0.526   1.294  12.268  0.3064 -0.5109  1.7962
  153MPD2    N1 2390   0.893   1.044  12.401 -0.3330  0.2076  0.1414
  153MPD2    H7 2391   0.947   0.982  12.461 -0.5905 -1.9116 -1.8353
  154TMC2    C1 2392   2.431   2.939  17.722 -0.6318  0.5430 -0.2210
  154TMC2    C2 2393   2.471   2.992   0.103 -0.8502 -0.0903 -0.0638
  154TMC2    C3 2394   2.421   3.111   0.143  0.3537 -0.5231 -0.2815
  154TMC2    C4 2395   2.353   3.010  17.632 -0.1332  0.1989  1.1509
  154TMC2    C5 2396   2.312   3.135  17.669  0.4976  0.0846  0.5863
  154TMC2    C6 2397   2.342   3.187   0.051 -0.1695 -0.3862 -0.5621
  154TMC2     C 2398   2.465   2.805  17.676 -0.0077  0.1349 -0.1901
  154TMC2     O 2399   2.406   2.767  17.575 -0.1097  0.5353  0.0925
  154TMC2     H 2400   2.537   2.931   0.163  0.7104  2.7052  1.0503
  154TMC2    H1 2401   2.320   2.961  17.542  2.3204  0.8788 -0.1305
  154TMC2    H2 2402   2.298   3.283   0.074  2.6832  0.9460 -0.6780
  154TMC2    C7 2403   2.206   3.194  17.593  0.0123  0.3470 -0.4046
  154TMC2    C8 2404   2.385   3.143   0.282  0.7349  0.1346 -0.2208
  154TMC2    O1 2405   2.129   3.271  17.654  0.2735  0.1052  0.1483
  154TMC2    O2 2406   2.382   3.257   0.329  0.3040 -0.1067 -0.3848
  154TMC2    O5 2407   2.290   3.049   0.303  0.1344 -0.1053  0.4904
  154TMC2    H5 2408   2.303   2.963   0.256 -0.4378 -0.0762  0.2727
  155MPD2     C 2409   2.712   2.576   0.086 -1.1350  0.0272  0.4650
  155MPD2    C1 2410   2.608   2.611   0.006  0.5350  1.1080 -0.5176
  155MPD2    C2 2411   2.557   2.516  17.658  0.0104  0.3345  1.0696
  155MPD2    C3 2412   2.598   2.385  17.664  0.6201 -0.0293  0.4812
  155MPD2    C4 2413   2.699   2.352   0.012  0.4678  0.5924 -0.0108
  155MPD2    C5 2414   2.762   2.451   0.079 -0.2377  0.2962  0.1434
  155MPD2     H 2415   2.476   2.552  17.596  0.3375 -0.4826  0.1631
  155MPD2    H1 2416   2.734   2.251   0.030 -0.8459  0.0476 -0.5054
  155MPD2    H2 2417   2.761   2.640   0.158  0.6061  0.6923 -1.3228
  155MPD2    H3 2418   2.837   2.422   0.152 -1.0080 -2.0454  0.0185
  155MPD2     N 2419   2.531   2.292  17.582  0.6956  0.7894  0.2185
  155MPD2    H5 2420   2.454   2.329  17.527  0.5667 -0.0257 -0.1437
  155MPD2    N1 2421   2.565   2.743   0.014  0.1807  0.2337 -1.0383
  155MPD2    H7 2422   2.611   2.799   0.085  0.5300 -0.8589 -0.4095
  156TMC2    C1 2423   1.518   3.178  11.696  0.4748  0.1284  0.7142
  156TMC2    C2 2424   1.655   3.187  11.695  0.0047  0.3395  0.7033
  156TMC2    C3 2425   1.712   3.217  11.576 -0.1447  0.3352  0.1073
  156TMC2    C4 2426   1.442   3.215  11.589  0.1711  0.0907  0.8807
  156TMC2    C5 2427   1.501   3.258  11.477  0.3539  0.4474 -0.1239
  156TMC2    C6 2428   1.638   3.255  11.464 -0.3143 -0.2273  0.4273
  156TMC2     C 2429   1.454   3.195  11.827 -0.1272 -0.6529  0.5843
  156TMC2     O 2430   1.366   3.280  11.830  0.5956 -0.2134 -0.2406
  156TMC2     H 2431   1.715   3.172  11.784  0.0746 -0.4966  0.5197
  156TMC2    H1 2432   1.336   3.231  11.610  0.2028  2.4382 -0.7306
  156TMC2    H2 2433   1.683   3.303  11.377  0.4615  0.1129  1.0144
  156TMC2    C7 2434   1.421   3.337  11.385  0.2403 -0.2310 -0.3552
  156TMC2    C8 2435   1.850   3.187  11.567 -0.0690  0.4798  0.4191
  156TMC2    O1 2436   1.482   3.420  11.320 -0.4038 -0.1454 -0.3690
  156TMC2    O2 2437   1.892   3.097  11.497  0.0763  0.0983  0.3162
  156TMC2    O5 2438   1.901   3.227  11.686  0.5653 -0.1059 -0.0601
  156TMC2    H5 2439   1.864   3.316  11.702 -0.4529 -0.4949 -0.1938
  157MPD2     C 2440   1.546   3.042  12.148  0.3317 -0.6499 -0.3833
  157MPD2    C1 2441   1.475   3.124  12.064  0.0382 -0.0504 -0.7216
  157MPD2    C2 2442   1.356   3.176  12.109  0.1308 -0.4156 -0.7144
  157MPD2    C3 2443   1.322   3.168  12.244 -0.6741 -0.4020 -0.6361
  157MPD2    C4 2444   1.402   3.090  12.334  0.1389  0.0482 -0.9886
  157MPD2    C5 2445   1.512   3.030  12.283 -0.8206  1.1452 -0.2740
  157MPD2     H 2446   1.288   3.228  12.042  2.2171  1.4063 -1.3925
  157MPD2    H1 2447   1.376   3.085  12.439 -2.6723  2.3221 -1.5647
  157MPD2    H2 2448   1.638   2.997  12.112 -0.1911 -0.5928 -1.7801
  157MPD2    H3 2449   1.562   2.954  12.342 -0.6221  0.4514 -1.3469
  157MPD2     N 2450   1.222   3.255  12.290 -0.1181 -0.3748 -0.0140
  157MPD2    H5 2451   1.212   3.333  12.226 -0.1674 -1.5412 -1.4238
  157MPD2    N1 2452   1.518   3.127  11.928 -0.4747  0.3934 -0.6217
  157MPD2    H7 2453   1.594   3.063  11.907  0.4919  2.6407 -3.9748
  158TMC2    C1 2454   1.327   2.424  12.914 -0.7193  0.7334 -0.1411
  158TMC2    C2 2455   1.356   2.517  12.818  0.1440  0.6653 -0.0800
  158TMC2    C3 2456   1.249   2.585  12.769  0.2841 -0.0638 -0.0494
  158TMC2    C4 2457   1.195   2.399  12.957 -0.0940 -0.5446  0.6644
  158TMC2    C5 2458   1.101   2.480  12.908 -0.1756  0.0856 -0.1917
  158TMC2    C6 2459   1.122   2.575  12.818 -1.1626 -0.5052 -0.7297
  158TMC2     C 2460   1.446   2.355  12.968 -0.4576  0.4012  0.0697
  158TMC2     O 2461   1.544   2.333  12.891 -0.2868  0.1074 -0.5663
  158TMC2     H 2462   1.459   2.529  12.787  0.7080 -1.2847  1.0522
  158TMC2    H1 2463   1.183   2.314  13.024  1.3533  1.0874  3.0020
  158TMC2    H2 2464   1.043   2.643  12.789 -0.9981 -0.3598 -0.8407
  158TMC2    C7 2465   0.965   2.442  12.920 -0.3781  0.3692  0.4138
  158TMC2    C8 2466   1.266   2.630  12.638  0.4474  0.7514  0.3562
  158TMC2    O1 2467   0.885   2.535  12.908 -0.0735 -0.6281  0.1705
  158TMC2    O2 2468   1.372   2.686  12.611  0.0920 -0.5165 -0.0606
  158TMC2    O5 2469   1.214   2.532  12.562  0.3508  0.2876 -0.3845
  158TMC2    H5 2470   1.133   2.495  12.604 -0.0108  1.2030 -0.2879
  159MPD2     C 2471   1.712   2.138  13.369 -0.2151  0.5760 -0.4339
  159MPD2    C1 2472   1.600   2.204  13.412  0.5217  0.6883  0.2121
  159MPD2    C2 2473   1.509   2.272  13.324  0.0293  0.7735 -0.3182
  159MPD2    C3 2474   1.532   2.266  13.190  0.2816 -0.2096 -0.3999
  159MPD2    C4 2475   1.648   2.207  13.140  0.3797 -0.1699  0.2762
  159MPD2    C5 2476   1.727   2.139  13.232  0.3330 -0.0435 -0.0894
  159MPD2     H 2477   1.422   2.324  13.362  0.3997 -0.8017  2.6698
  159MPD2    H1 2478   1.684   2.211  13.038 -0.1700 -1.1005  0.0431
  159MPD2    H2 2479   1.792   2.101  13.432 -0.5023  0.5546 -0.0809
  159MPD2    H3 2480   1.812   2.091  13.185 -0.1531 -0.7414 -0.2508
  159MPD2     N 2481   1.436   2.332  13.105 -0.1631  0.2178  0.4278
  159MPD2    H5 2482   1.352   2.370  13.148 -0.7058 -1.6601  1.0148
  159MPD2    N1 2483   1.561   2.214  13.550  0.6285 -0.5531  0.3425
  159MPD2    H7 2484   1.485   2.278  13.571  2.3876  1.1746  1.4587
  160TMC2    C1 2485   1.047   0.237   1.758 -0.1500  0.5706  0.4159
  160TMC2    C2 2486   1.053   0.171   1.875 -0.5424 -0.6098  0.6815
  160TMC2    C3 2487   1.173   0.103   1.896  0.4066 -0.3106  0.7243
  160TMC2    C4 2488   1.154   0.255   1.680 -0.4367  0.0494 -0.4912
  160TMC2    C5 2489   1.275   0.200   1.709 -0.2725 -0.0289 -0.7406
  160TMC2    C6 2490   1.286   0.119   1.821  0.0874 -0.1907  0.4531
  160TMC2     C 2491   0.908   0.261   1.707  0.2573 -0.5075  0.3080
  160TMC2     O 2492   0.829   0.173   1.741  0.0879 -0.5395  0.3377
  160TMC2     H 2493   0.962   0.163   1.933 -0.5091  0.1302  0.8266
  160TMC2    H1 2494   1.140   0.287   1.578  3.3810  2.1718 -0.3477
  160TMC2    H2 2495   1.373   0.057   1.843 -0.6475 -1.6047 -0.6385
  160TMC2    C7 2496   1.391   0.241   1.644 -0.0034 -1.1853  0.2807
  160TMC2    C8 2497   1.179   0.024   2.015  0.2621  0.2908 -0.4477
  160TMC2    O1 2498   1.490   0.174   1.670 -0.4214 -0.0270 -0.0565
  160TMC2    O2 2499   1.284   4.706   2.055  0.7227  0.8641 -0.0636
  160TMC2    O5 2500   1.061   4.690   2.022  1.1899 -0.3040  0.0729
  160TMC2    H5 2501   0.986   4.717   1.965  2.0774  0.0596 -0.9165
  161MPD2     C 2502   0.648   0.403   1.637 -0.6124 -0.3743  0.1866
  161MPD2    C1 2503   0.776   0.442   1.594 -0.1490 -0.1723  0.1121
  161MPD2    C2 2504   0.781   0.545   1.498 -0.1146  0.5171  0.4885
  161MPD2    C3 2505   0.669   0.625   1.469 -0.3723  0.4772 -0.0722
  161MPD2    C4 2506   0.547   0.574   1.509 -0.2689  0.5803 -0.4158
  161MPD2    C5 2507   0.535   0.470   1.600  0.1565 -0.5264 -0.0291
  161MPD2     H 2508   0.878   0.566   1.454 -0.4839 -1.3423 -1.2354
  161MPD2    H1 2509   0.456   0.614   1.466 -0.7628  1.8090  1.7562
  161MPD2    H2 2510   0.633   0.324   1.711 -0.8576 -0.4798  0.0240
  161MPD2    H3 2511   0.444   0.421   1.632 -1.5070  2.8870  0.4852
  161MPD2     N 2512   0.676   0.741   1.392  0.3623  0.0136  0.8211
  161MPD2    H5 2513   0.594   0.784   1.351 -0.0283 -2.1839 -0.7260
  161MPD2    N1 2514   0.899   0.377   1.627 -0.5384 -0.1125 -0.0971
  161MPD2    H7 2515   0.980   0.438   1.618 -1.9662  1.6381 -1.1480
  162TMC2    C1 2516   3.117   2.645   0.223 -0.4384 -0.5909 -0.4173
  162TMC2    C2 2517   3.015   2.715   0.162 -0.6676 -0.2738 -0.1090
  162TMC2    C3 2518   2.973   2.830   0.228  0.3379 -0.0523  0.1100
  162TMC2    C4 2519   3.170   2.690   0.342 -1.0211  0.2354  0.0138
  162TMC2    C5 2520   3.118   2.798   0.402 -0.7755  0.8394  0.2078
  162TMC2    C6 2521   3.016   2.864   0.355  0.2458 -0.5835  0.4946
  162TMC2     C 2522   3.168   2.521   0.159  0.3989  0.3940 -0.2180
  162TMC2     O 2523   3.094   2.454   0.092  0.1153  0.4573  0.0566
  162TMC2     H 2524   2.972   2.691   0.065 -0.3585  0.7803 -0.5037
  162TMC2    H1 2525   3.238   2.622   0.391 -1.1006 -0.4849 -0.8722
  162TMC2    H2 2526   2.979   2.953   0.404 -2.0236 -0.5621 -1.2441
  162TMC2    C7 2527   3.137   2.815   0.540  0.4524  0.4614  0.5010
  162TMC2    C8 2528   2.852   2.898   0.178 -0.4735 -0.7731 -0.2117
  162TMC2    O1 2529   3.058   2.884   0.604 -0.1905 -0.1423 -0.0599
  162TMC2    O2 2530   2.839   2.905   0.058  0.4801  0.2969 -0.8138
  162TMC2    O5 2531   2.750   2.852   0.260 -0.0375  0.3730 -0.5400
  162TMC2    H5 2532   2.777   2.804   0.341  1.1306 -0.0397 -1.1653
  163MPD2     C 2533   3.567   2.206   0.093  0.6478 -0.0763 -0.2167
  163MPD2    C1 2534   3.613   2.330   0.125 -0.1305 -1.0394 -0.6447
  163MPD2    C2 2535   3.518   2.425   0.163  0.3759 -0.5385  0.2349
  163MPD2    C3 2536   3.384   2.407   0.150  0.4392  0.2592  0.1934
  163MPD2    C4 2537   3.336   2.285   0.120 -0.0867  0.2492  0.3944
  163MPD2    C5 2538   3.432   2.181   0.096 -0.0912  0.2971  0.8484
  163MPD2     H 2539   3.554   2.520   0.199  1.6409 -0.0606 -2.3302
  163MPD2    H1 2540   3.233   2.253   0.111 -0.3484  0.9621  0.8933
  163MPD2    H2 2541   3.627   2.115   0.087  1.1681  0.1803  1.1382
  163MPD2    H3 2542   3.395   2.080   0.082  0.5284 -0.2008  2.7500
  163MPD2     N 2543   3.301   2.512   0.174 -1.1116  0.5513  0.2867
  163MPD2    H5 2544   3.333   2.596   0.220  0.0171  0.8809 -1.1285
  163MPD2    N1 2545   3.754   2.351   0.137 -0.0452  0.2016 -0.1467
  163MPD2    H7 2546   3.812   2.268   0.128 -1.3413 -0.8355  1.1270
  164TMC2    C1 2547   0.038   1.708  11.249  0.8775 -0.3348  0.4246
  164TMC2    C2 2548   0.102   1.729  11.364 -1.1552 -0.0401  0.1360
  164TMC2    C3 2549   0.121   1.852  11.403 -0.1080  0.5383 -0.8765
  164TMC2    C4 2550   4.728   1.809  11.176 -0.4690  0.8560 -0.5179
  164TMC2    C5 2551   4.730   1.935  11.230  0.0023 -0.0158  0.8521
  164TMC2    C6 2552   0.066   1.956  11.340 -0.4564 -0.0478 -0.8372
  164TMC2     C 2553   0.016   1.574  11.206 -0.9628  0.6114 -1.3149
  164TMC2     O 2554   4.726   1.499  11.299  0.0415 -0.4184 -0.6249
  164TMC2     H 2555   0.149   1.644  11.412  0.6051  1.7032  1.4749
  164TMC2    H1 2556   4.657   1.793  11.095 -1.9950 -0.0943  1.0045
  164TMC2    H2 2557   0.064   2.058  11.378 -1.9801 -1.1454  2.0301
  164TMC2    C7 2558   4.614   2.028  11.193  0.0596  0.2690  0.0600
  164TMC2    C8 2559   0.212   1.884  11.509  0.3822 -0.3808 -0.6409
  164TMC2    O1 2560   4.515   1.976  11.144 -0.2927 -0.1959 -0.3291
  164TMC2    O2 2561   0.227   1.812  11.604 -0.4322  0.2297  0.2422
  164TMC2    O5 2562   0.288   1.990  11.468 -0.0932 -0.0609  0.1528
  164TMC2    H5 2563   0.271   2.006  11.373  0.4252  0.2862  0.1167
  165TMC2    C1 2564   0.635   4.439   1.283  0.2166  0.8127  0.3019
  165TMC2    C2 2565   0.665   4.306   1.247 -0.0250 -0.4282  0.5861
  165TMC2    C3 2566   0.796   4.274   1.226 -0.3585  0.3586  0.5358
  165TMC2    C4 2567   0.732   4.526   1.322  0.0584  0.1316  0.9981
  165TMC2    C5 2568   0.864   4.493   1.312 -0.0849  0.1084 -0.7801
  165TMC2    C6 2569   0.891   4.369   1.255  0.1600  0.0632  0.1939
  165TMC2     C 2570   0.494   4.452   1.314  0.0791 -0.7362  0.5442
  165TMC2     O 2571   0.423   4.352   1.324 -0.6723 -0.0899  0.1721
  165TMC2     H 2572   0.588   4.243   1.202 -0.3340  1.0860 -0.9935
  165TMC2    H1 2573   0.709   4.623   1.364  0.5518  0.2705  0.9545
  165TMC2    H2 2574   0.993   4.333   1.248 -0.2344 -0.7131 -1.5648
  165TMC2    C7 2575   0.968   4.591   1.312  0.4406 -0.2156 -0.7248
  165TMC2    C8 2576   0.827   4.168   1.125 -0.0417  0.0328  0.4524
  165TMC2    O1 2577   1.075   4.550   1.273 -0.1407 -0.1915 -0.0484
  165TMC2    O2 2578   0.912   4.167   1.039 -0.0089 -0.3422 -0.5699
  165TMC2    O5 2579   0.763   4.057   1.173  1.2641  0.7896 -0.0089
  165TMC2    H5 2580   0.719   4.063   1.261 -0.7660  0.7259 -1.0148
  166MPD2     C 2581   0.076   4.733   1.406  0.5476  0.0378  0.3237
  166MPD2    C1 2582   0.112   4.603   1.446  0.5700 -0.2567  0.4154
  166MPD2    C2 2583   0.239   4.560   1.414 -0.0753  0.1873  0.3128
  166MPD2    C3 2584   0.332   4.638   1.354  0.0527  0.0884 -0.3216
  166MPD2    C4 2585   0.303   0.037   1.337  0.0547  1.0574 -0.1499
  166MPD2    C5 2586   0.175   0.082   1.355  0.0058 -0.2750 -0.5456
  166MPD2     H 2587   0.257   4.456   1.438  1.3652  0.0275 -1.4461
  166MPD2    H1 2588   0.368   0.105   1.283  1.3696 -2.2385 -2.7086
  166MPD2    H2 2589   4.709   0.032   1.418  0.3664 -1.8106  4.0093
  166MPD2    H3 2590   0.143   0.185   1.340 -1.2677 -0.4876  0.7528
  166MPD2     N 2591   0.458   4.585   1.324  0.0450 -0.0749 -0.4655
  166MPD2    H5 2592   0.529   4.655   1.304 -0.8301  0.8194 -0.4726
  166MPD2    N1 2593   0.011   4.524   1.497 -0.1172 -0.0360  0.2943
  166MPD2    H7 2594   4.652   4.559   1.514 -0.1430 -1.0040  2.0960
  167TMC2    C1 2595   4.421   2.204  13.080  0.3291 -0.0136  0.9776
  167TMC2    C2 2596   4.357   2.233  13.194 -0.0698  0.1322  0.4885
  167TMC2    C3 2597   4.297   2.126  13.265  0.0678  0.2807  0.4763
  167TMC2    C4 2598   4.420   2.077  13.028 -0.9904 -0.2337  0.2009
  167TMC2    C5 2599   4.376   1.974  13.112  0.0905  0.0600 -1.2253
  167TMC2    C6 2600   4.298   1.999  13.230 -0.2164  0.5861 -0.4166
  167TMC2     C 2601   4.424   2.305  12.986 -0.2431 -0.5827  0.2364
  167TMC2     O 2602   4.442   2.421  13.024 -0.7311 -0.2085 -0.1440
  167TMC2     H 2603   4.346   2.340  13.209 -0.7659  0.0388  0.6620
  167TMC2    H1 2604   4.502   2.063  12.959 -1.0652  2.0476 -0.3451
  167TMC2    H2 2605   4.250   1.920  13.287  0.6875  1.7105  1.8944
  167TMC2    C7 2606   4.423   1.836  13.107 -0.1901 -0.5482  0.9532
  167TMC2    C8 2607   4.233   2.154  13.398 -0.1507 -0.0244  0.7390
  167TMC2    O1 2608   4.428   1.777  13.209  0.1282 -0.0175 -0.6909
  167TMC2    O2 2609   4.146   2.080  13.441  0.0800 -0.5327 -0.1431
  167TMC2    O5 2610   4.310   2.242  13.467 -0.0811 -0.4399 -0.0306
  167TMC2    H5 2611   4.392   2.270  13.422 -1.5903 -1.7811 -3.6068
  168MPD2     C 2612   4.451   2.471  12.745 -0.2594  0.2165  0.0005
  168MPD2    C1 2613   4.392   2.351  12.751  0.4473  0.4021 -0.1891
  168MPD2    C2 2614   4.338   2.302  12.633  0.0431  0.3698 -0.0994
  168MPD2    C3 2615   4.340   2.369  12.515  0.1460  0.0272  0.1370
  168MPD2    C4 2616   4.419   2.483  12.506 -0.6045  0.2124 -0.5098
  168MPD2    C5 2617   4.466   2.539  12.625 -0.1567 -0.2602 -0.3960
  168MPD2     H 2618   4.286   2.207  12.640 -1.1137  1.1040  1.2030
  168MPD2    H1 2619   4.437   2.528  12.409 -2.7309 -2.4008 -2.1021
  168MPD2    H2 2620   4.472   2.523  12.837 -0.5464 -0.5047  0.4700
  168MPD2    H3 2621   4.519   2.633  12.632  2.1923 -1.4232 -2.1828
  168MPD2     N 2622   4.289   2.322  12.391  0.2221  0.1119  0.2034
  168MPD2    H5 2623   4.295   2.369  12.302  2.7277  0.5445  0.6079
  168MPD2    N1 2624   4.385   2.267  12.860 -0.7259  0.6572 -0.2577
  168MPD2    H7 2625   4.347   2.175  12.844  0.5702  0.3946 -1.8831
  169MPD1     C 2626   3.213   0.175   9.649 -0.1517 -0.2080 -0.6148
  169MPD1    C1 2627   3.238   0.314   9.639 -0.1696  0.4197 -0.2765
  169MPD1    C2 2628   3.148   0.409   9.690 -0.0140 -0.6143 -1.2993
  169MPD1    C3 2629   3.037   0.370   9.753 -0.7475 -0.5032  0.1900
  169MPD1    C4 2630   3.013   0.235   9.777  0.0765  0.2040 -1.0200
  169MPD1    C5 2631   3.105   0.143   9.728 -0.8018  0.6098 -0.2034
  169MPD1     H 2632   3.185   0.509   9.712 -1.0303 -0.6060  0.3402
  169MPD1    H1 2633   2.924   0.194   9.823 -0.6524  1.8955 -0.9298
  169MPD1    H2 2634   3.273   0.092   9.613 -1.0647 -1.4788  0.8057
  169MPD1    H3 2635   3.082   0.038   9.744 -1.7813  0.9226  0.5054
  169MPD1     N 2636   2.951   0.466   9.806 -0.1691 -0.2434  0.5417
  169MPD1    H5 2637   2.970   0.562   9.780 -1.2738 -0.0660  0.3583
  169MPD1    N1 2638   3.364   0.357   9.608 -0.3375  0.3632  0.2486
  169MPD1    H6 2639   3.425   0.286   9.567  2.5195  0.9808  3.3591
  169MPD1    H7 2640   3.374   0.445   9.559  1.1507 -0.4593 -0.9253
  170MPD1     C 2641   0.544   3.933  13.852 -0.1358 -0.5014 -0.2392
  170MPD1    C1 2642   0.597   4.014  13.951 -0.1842 -0.8093  0.0205
  170MPD1    C2 2643   0.517   4.106  14.010  0.1328  0.2399 -0.5644
  170MPD1    C3 2644   0.394   4.138  13.950  0.3213  0.4184  0.2005
  170MPD1    C4 2645   0.347   4.063  13.842  0.1997 -0.2905 -0.2012
  170MPD1    C5 2646   0.421   3.955  13.794 -0.6256 -0.0023 -0.2644
  170MPD1     H 2647   0.543   4.168  14.095 -0.6471  0.3200 -0.3818
  170MPD1    H1 2648   0.250   4.078  13.798 -1.5923 -1.9247  3.2336
  170MPD1    H2 2649   0.599   3.853  13.804  0.2419 -0.7353  0.5768
  170MPD1    H3 2650   0.387   3.891  13.713  0.3188 -0.9717  0.1044
  170MPD1     N 2651   0.316   4.237  14.011 -0.6988 -0.5699 -0.0123
  170MPD1    H5 2652   0.344   4.272  14.102 -1.2076  0.1967 -0.1555
  170MPD1    N1 2653   0.725   3.981  14.005  0.2498  0.5861  0.7854
  170MPD1    H6 2654   0.783   3.933  13.937  1.2347  1.3584  1.0795
  170MPD1    H7 2655   0.760   4.075  14.026 -2.0585  1.3097  1.4110
  171MPD1     C 2656   3.300   0.578  15.535  0.2857 -0.0991 -0.7090
  171MPD1    C1 2657   3.213   0.567  15.638  0.2368 -0.5509  0.1025
  171MPD1    C2 2658   3.264   0.500  15.752  0.2498 -0.7059 -0.2741
  171MPD1    C3 2659   3.390   0.438  15.755 -0.3894  0.2451 -0.6405
  171MPD1    C4 2660   3.462   0.445  15.639 -0.4186 -0.1831  0.6412
  171MPD1    C5 2661   3.423   0.524  15.540 -0.7907 -0.1477  0.2229
  171MPD1     H 2662   3.205   0.499  15.842  1.0186  1.3930  0.2752
  171MPD1    H1 2663   3.559   0.397  15.636 -0.0273  0.5772  1.0815
  171MPD1    H2 2664   3.277   0.633  15.444  0.2567 -0.6430 -1.0266
  171MPD1    H3 2665   3.493   0.535  15.458 -0.5155 -1.4115  0.2874
  171MPD1     N 2666   3.446   0.368  15.866 -0.0220 -0.5234 -0.7026
  171MPD1    H5 2667   3.514   0.303  15.828  1.9615  1.9354 -1.3323
  171MPD1    N1 2668   3.104   0.654  15.642  0.0988 -0.0409 -0.4289
  171MPD1    H6 2669   3.028   0.616  15.698 -1.7969 -0.2736 -3.1556
  171MPD1    H7 2670   3.070   0.682  15.551 -1.2287 -0.5789 -0.1011
  172MPD1     C 2671   3.190   4.053   1.146 -0.2673 -0.2600  0.4287
  172MPD1    C1 2672   3.077   4.120   1.109  0.0046 -0.1143  0.1742
  172MPD1    C2 2673   3.079   4.247   1.053  0.2827 -0.0884  0.1497
  172MPD1    C3 2674   3.200   4.305   1.032 -0.4999  0.1971  0.0027
  172MPD1    C4 2675   3.315   4.229   1.060 -0.1206  0.3970  0.5740
  172MPD1    C5 2676   3.316   4.107   1.123  0.2276 -0.2518  0.1049
  172MPD1     H 2677   2.986   4.296   1.027  0.5276  0.9802  1.2744
  172MPD1    H1 2678   3.405   4.284   1.036  0.4689 -1.3922 -1.3296
  172MPD1    H2 2679   3.186   3.960   1.203 -1.1336  0.8572  2.1852
  172MPD1    H3 2680   3.409   4.067   1.161 -0.2668  0.0272  1.6160
  172MPD1     N 2681   3.207   4.438   0.985  0.3874 -0.0168  0.0974
  172MPD1    H5 2682   3.300   4.462   0.953 -0.4984  4.8692  1.2629
  172MPD1    N1 2683   2.955   4.065   1.150 -0.0673 -0.0901  0.0540
  172MPD1    H6 2684   2.950   3.963   1.153 -1.7577  0.0292  1.1873
  172MPD1    H7 2685   2.884   4.092   1.083 -0.2777  0.9587  0.7069
  173MPD1     C 2686   3.862   4.059  14.340 -0.3072 -0.3862 -0.4412
  173MPD1    C1 2687   3.835   4.194  14.329  0.0722  0.3633  1.0781
  173MPD1    C2 2688   3.800   4.260  14.443  0.3281  0.1379  0.2542
  173MPD1    C3 2689   3.781   4.193  14.560 -0.6630  0.4157  0.3644
  173MPD1    C4 2690   3.782   4.059  14.566 -0.9047 -0.7607  0.2836
  173MPD1    C5 2691   3.826   3.988  14.454 -0.2511 -0.0634 -0.0645
  173MPD1     H 2692   3.783   4.367  14.441 -1.6338 -0.2000 -1.3522
  173MPD1    H1 2693   3.766   4.000  14.655 -1.8087 -0.2950  0.4271
  173MPD1    H2 2694   3.906   4.008  14.256 -0.9066  0.8453 -1.4996
  173MPD1    H3 2695   3.832   3.880  14.453 -1.8020 -0.1674  0.6591
  173MPD1     N 2696   3.764   4.271  14.671  0.3353  0.4553 -0.4974
  173MPD1    H5 2697   3.775   4.370  14.652  2.2234  0.1994 -0.7628
  173MPD1    N1 2698   3.883   4.257  14.219 -0.6541  0.0544  0.1739
  173MPD1    H6 2699   3.845   4.352  14.211 -0.3470  0.1885  0.2985
  173MPD1    H7 2700   3.858   4.209  14.133 -0.0711  1.5831 -0.8662
  174MPD1     C 2701   4.213   0.218  14.673  0.1865 -0.2779 -0.7115
  174MPD1    C1 2702   4.125   0.256  14.767  0.7160 -0.0881  0.9065
  174MPD1    C2 2703   4.053   0.149  14.829  0.1725  0.1493 -0.6327
  174MPD1    C3 2704   4.079   0.019  14.796 -0.0575 -0.3680 -0.9298
  174MPD1    C4 2705   4.171   4.725  14.704 -0.0417  0.0980  0.3205
  174MPD1    C5 2706   4.238   0.091  14.646  0.0395 -0.9065 -0.3564
  174MPD1     H 2707   3.975   0.175  14.899  1.5953 -1.3184  1.4686
  174MPD1    H1 2708   4.208   4.628  14.674  1.9848 -0.0112  3.2234
  174MPD1    H2 2709   4.263   0.304  14.628  0.2762 -0.9369 -1.8662
  174MPD1    H3 2710   4.301   0.056  14.565  0.1253 -2.6892  0.4832
  174MPD1     N 2711   4.004   4.647  14.852  1.1086  0.0139 -0.6264
  174MPD1    H5 2712   4.036   4.554  14.825  0.8593 -0.6161  1.2641
  174MPD1    N1 2713   4.088   0.390  14.781  0.2394 -0.1086 -0.4622
  174MPD1    H6 2714   4.161   0.456  14.756  0.2432  0.4493  1.0253
  174MPD1    H7 2715   4.049   0.416  14.871  0.1644  1.3298 -0.8989
  175MPD1     C 2716   2.995   0.364  16.019  0.9699 -0.2792 -0.8118
  175MPD1    C1 2717   2.910   0.472  16.018 -0.4949  0.9251  0.1733
  175MPD1    C2 2718   2.863   0.514  16.138  0.2376 -0.5058 -0.5384
  175MPD1    C3 2719   2.889   0.455  16.261  0.4034 -0.4838  0.0216
  175MPD1    C4 2720   2.980   0.354  16.256 -0.4148 -0.5556  0.1091
  175MPD1    C5 2721   3.025   0.309  16.140 -0.2855  0.2380 -0.6457
  175MPD1     H 2722   2.798   0.601  16.143  0.2701 -0.5441  0.3944
  175MPD1    H1 2723   3.010   0.298  16.344 -2.5736 -2.9113 -0.6479
  175MPD1    H2 2724   3.044   0.330  15.928 -0.1766  1.0483 -1.9140
  175MPD1    H3 2725   3.100   0.231  16.149 -1.0782 -0.4218  0.3237
  175MPD1     N 2726   2.842   0.499  16.386  0.6625  0.6278  0.6429
  175MPD1    H5 2727   2.882   0.446  16.462 -0.2224  1.2740  1.5699
  175MPD1    N1 2728   2.890   0.556  15.907 -0.4153 -0.6728 -0.0307
  175MPD1    H6 2729   2.808   0.614  15.920  0.0450 -0.2796  1.1669
  175MPD1    H7 2730   2.891   0.504  15.820 -0.0539 -1.3490  0.3710
  176MPD1     C 2731   4.320   2.640  16.458  0.6593  0.2157 -0.1686
  176MPD1    C1 2732   4.261   2.765  16.446 -0.0617  0.4498 -0.1716
  176MPD1    C2 2733   4.272   2.848  16.553  0.9684 -0.8888 -0.3270
  176MPD1    C3 2734   4.341   2.810  16.666 -0.1641  0.5416 -0.4731
  176MPD1    C4 2735   4.395   2.684  16.677 -0.7762  0.3833 -0.1842
  176MPD1    C5 2736   4.391   2.598  16.571 -0.6196  0.2933 -0.1437
  176MPD1     H 2737   4.212   2.938  16.553 -0.3204 -1.7471 -0.4554
  176MPD1    H1 2738   4.446   2.651  16.766 -0.8396  2.0011  0.4483
  176MPD1    H2 2739   4.316   2.575  16.371  0.4959  1.0579 -0.7941
  176MPD1    H3 2740   4.455   2.510  16.574  0.4876  1.0577 -0.9671
  176MPD1     N 2741   4.345   2.907  16.771  0.3119  0.4149 -0.3335
  176MPD1    H5 2742   4.331   2.999  16.731  0.3191  0.0804 -1.1051
  176MPD1    N1 2743   4.196   2.805  16.330  0.6958 -0.2516 -0.7789
  176MPD1    H6 2744   4.143   2.889  16.351 -0.9785 -0.9051 -2.2669
  176MPD1    H7 2745   4.135   2.737  16.284 -0.6099 -0.3891  1.1482
  177MPD1     C 2746   2.885   2.434  10.600  0.0383 -1.0068  0.1543
  177MPD1    C1 2747   2.829   2.327  10.540  0.4658 -0.1783  0.0422
  177MPD1    C2 2748   2.774   2.343  10.412 -0.0344  0.2472  0.0015
  177MPD1    C3 2749   2.780   2.460  10.340 -0.3914 -0.1321 -0.1547
  177MPD1    C4 2750   2.857   2.558  10.402 -0.7516  0.9206 -0.2235
  177MPD1    C5 2751   2.905   2.543  10.526 -0.2885  0.2525 -0.1592
  177MPD1     H 2752   2.724   2.265  10.355 -1.4466  0.7570  0.5296
  177MPD1    H1 2753   2.877   2.654  10.354 -1.2562  1.5678  0.8608
  177MPD1    H2 2754   2.933   2.423  10.697 -0.2766  1.7808  0.6489
  177MPD1    H3 2755   2.958   2.625  10.575  2.0349 -0.8777 -0.7737
  177MPD1     N 2756   2.738   2.467  10.203  0.6318 -0.2240 -0.3141
  177MPD1    H5 2757   2.711   2.384  10.152  1.3034 -0.6595  0.0481
  177MPD1    N1 2758   2.804   2.208  10.608  0.6377 -0.0851  0.9366
  177MPD1    H6 2759   2.783   2.125  10.554  1.1983 -0.4464  1.2812
  177MPD1    H7 2760   2.876   2.184  10.676  0.8223  1.1081  1.1798
  178MPD1     C 2761   4.678   4.406  17.147  0.2184 -0.3523  0.2203
  178MPD1    C1 2762   4.579   4.323  17.108 -0.0036  0.3425 -0.1252
  178MPD1    C2 2763   4.602   4.190  17.121 -0.1096 -0.4499 -0.4232
  178MPD1    C3 2764   4.718   4.138  17.173  0.1712  0.0995  0.2441
  178MPD1    C4 2765   0.085   4.224  17.194 -0.1067 -0.3484  0.1618
  178MPD1    C5 2766   0.064   4.358  17.194  0.1512 -0.6821  0.0700
  178MPD1     H 2767   4.525   4.123  17.083 -0.2480 -0.1562 -0.6577
  178MPD1    H1 2768   0.177   4.181  17.231 -2.6578 -2.0345  4.5615
  178MPD1    H2 2769   4.676   4.515  17.149 -0.5469 -0.3568 -0.5310
  178MPD1    H3 2770   0.147   4.424  17.215  0.0928 -0.8506  0.8427
  178MPD1     N 2771   0.003   3.995  17.197 -0.2985  1.1229  0.4076
  178MPD1    H5 2772   0.096   3.967  17.227 -1.0118  1.1273  2.5778
  178MPD1    N1 2773   4.461   4.369  17.051  0.6984 -0.3374  0.1635
  178MPD1    H6 2774   4.378   4.325  17.091 -0.2660  1.1160 -0.2263
  178MPD1    H7 2775   4.453   4.470  17.058  2.3942 -0.1297 -0.9404
  179MPD1     C 2776   4.509   2.540  15.989 -0.0744 -0.1642  0.3182
  179MPD1    C1 2777   4.587   2.442  15.940 -0.0292 -0.8747  0.5543
  179MPD1    C2 2778   4.564   2.316  15.977  0.5718  0.1626  0.1312
  179MPD1    C3 2779   4.453   2.276  16.050 -0.0294 -0.0775  0.3196
  179MPD1    C4 2780   4.376   2.377  16.093 -0.1140 -1.1594  0.2874
  179MPD1    C5 2781   4.394   2.509  16.068  0.4363 -0.4198 -0.5103
  179MPD1     H 2782   4.636   2.241  15.946  0.7819 -0.6047  2.4910
  179MPD1    H1 2783   4.276   2.365  16.133 -0.4429  0.8312  0.0515
  179MPD1    H2 2784   4.528   2.643  15.961  0.1555 -0.1741  0.4392
  179MPD1    H3 2785   4.322   2.585  16.097 -0.3614 -1.3826  0.0448
  179MPD1     N 2786   4.432   2.140  16.088 -0.6833 -0.0318  0.3845
  179MPD1    H5 2787   4.337   2.117  16.117 -0.5530 -1.6522 -0.4882
  179MPD1    N1 2788   4.688   2.456  15.843  0.0345  1.0822 -0.2238
  179MPD1    H6 2789   0.010   2.539  15.851  2.1436 -0.3268 -0.5214
  179MPD1    H7 2790   0.003   2.368  15.829  0.7130  1.6543 -1.3911
  180MPD1     C 2791   4.649   3.556  15.630  0.4397  0.3813  0.5142
  180MPD1    C1 2792   4.512   3.529  15.614 -0.1056  0.2049 -0.4634
  180MPD1    C2 2793   4.474   3.471  15.499 -0.0673  0.0017  0.9337
  180MPD1    C3 2794   4.572   3.446  15.400  0.0448 -0.5469  0.2061
  180MPD1    C4 2795   4.709   3.459  15.425 -0.1482  0.6900 -0.0225
  180MPD1    C5 2796   0.009   3.524  15.539  0.1069  0.3297 -0.2122
  180MPD1     H 2797   4.370   3.453  15.476  0.2776  2.0327 -2.2202
  180MPD1    H1 2798   0.052   3.430  15.356 -0.6941 -0.8694  0.0257
  180MPD1    H2 2799   4.679   3.615  15.716  0.4711  0.1154  0.6841
  180MPD1    H3 2800   0.109   3.554  15.569  1.0492 -2.2532 -0.7361
  180MPD1     N 2801   4.521   3.413  15.273  0.0352  0.2246 -0.0182
  180MPD1    H5 2802   4.420   3.404  15.275  0.3314 -2.8402  0.8742
  180MPD1    N1 2803   4.420   3.568  15.701  0.3332 -0.2781  0.3497
  180MPD1    H6 2804   4.460   3.563  15.794  0.2699  1.2274  0.4544
  180MPD1    H7 2805   4.334   3.513  15.705  0.1205  0.0124 -0.2249
  181MPD1     C 2806   1.519   4.532  10.086 -0.6021  0.5172 -0.0016
  181MPD1    C1 2807   1.542   4.655  10.134  0.6306  0.0101 -0.1861
  181MPD1    C2 2808   1.677   4.697  10.118 -0.4402  0.0866 -0.1974
  181MPD1    C3 2809   1.788   4.612  10.085 -0.2510 -0.0538 -0.2308
  181MPD1    C4 2810   1.758   4.484  10.056 -0.1527  0.0549 -1.1696
  181MPD1    C5 2811   1.626   4.454  10.053  0.0742 -0.4960  0.5604
  181MPD1     H 2812   1.699   0.068  10.130 -1.4465  0.4264 -1.3926
  181MPD1    H1 2813   1.826   4.404  10.029 -0.6100 -0.7599  0.0930
  181MPD1    H2 2814   1.422   4.489  10.061 -1.3014  0.4456  2.8230
  181MPD1    H3 2815   1.598   4.350  10.039  0.6140 -0.4850 -0.6488
  181MPD1     N 2816   1.919   4.653  10.081 -0.2742 -0.2912  0.2954
  181MPD1    H5 2817   1.980   4.581  10.042  0.8684  0.7380  0.1985
  181MPD1    N1 2818   1.429   0.000  10.166  0.5713  0.4773 -0.3698
  181MPD1    H6 2819   1.445   0.075  10.233 -1.7435  0.9708 -0.3917
  181MPD1    H7 2820   1.365   4.673  10.214  1.9235  0.3513  1.3056
  182MPD1     C 2821   2.875   3.762   1.352 -0.0772  0.6072 -0.9993
  182MPD1    C1 2822   2.892   3.748   1.214  1.0231 -0.3387 -0.6072
  182MPD1    C2 2823   2.769   3.759   1.141 -0.1794 -0.8151  0.7429
  182MPD1    C3 2824   2.650   3.765   1.204  0.0009  0.0479 -0.2120
  182MPD1    C4 2825   2.636   3.750   1.345  0.0096 -0.5587 -0.4913
  182MPD1    C5 2826   2.753   3.757   1.422 -0.6611  0.3139 -0.1800
  182MPD1     H 2827   2.784   3.761   1.034 -4.0051 -0.9299  0.2139
  182MPD1    H1 2828   2.539   3.745   1.394 -0.3799 -1.0833 -1.3326
  182MPD1    H2 2829   2.965   3.788   1.406  0.0090  0.1815 -0.9442
  182MPD1    H3 2830   2.733   3.775   1.527  2.5318  3.8241 -0.1841
  182MPD1     N 2831   2.532   3.786   1.128  0.1489 -0.5727 -0.2340
  182MPD1    H5 2832   2.446   3.802   1.178 -0.1145  1.0828 -1.2032
  182MPD1    N1 2833   3.014   3.769   1.162 -0.2801 -0.1111 -0.1886
  182MPD1    H6 2834   3.080   3.737   1.233  0.3070 -1.1582 -1.2091
  182MPD1    H7 2835   3.019   3.719   1.073 -2.7499  0.5794 -0.7131
  183MPD1     C 2836   1.926   3.886   8.800  0.0116 -0.5870 -0.0008
  183MPD1    C1 2837   2.053   3.923   8.818 -0.6400 -0.2545  0.0696
  183MPD1    C2 2838   2.073   4.003   8.921 -0.2833  0.4882 -0.7307
  183MPD1    C3 2839   1.975   4.049   9.003 -0.1115  0.1964  0.7753
  183MPD1    C4 2840   1.843   4.010   8.980  0.7494  0.9253 -0.6343
  183MPD1    C5 2841   1.827   3.929   8.876  0.1761 -0.5429  0.0178
  183MPD1     H 2842   2.174   4.042   8.926  0.0432 -0.5135  0.3991
  183MPD1    H1 2843   1.750   4.047   9.022 -0.6995 -2.6069 -0.7532
  183MPD1    H2 2844   1.902   3.821   8.716  0.8814 -1.6238  0.5433
  183MPD1    H3 2845   1.722   3.907   8.861 -0.0762  2.1832 -2.2419
  183MPD1     N 2846   2.012   4.124   9.120 -0.9491  0.3452  0.6159
  183MPD1    H5 2847   2.110   4.145   9.135 -0.0196 -2.1764 -1.8821
  183MPD1    N1 2848   2.157   3.876   8.730 -0.1519 -0.2334 -0.4292
  183MPD1    H6 2849   2.248   3.887   8.772 -0.4660 -0.2512  0.2529
  183MPD1    H7 2850   2.138   3.784   8.692 -1.8915  0.5885 -1.6046
  184MPD1     C 2851   1.945   1.665   9.866  0.2652 -0.7366  0.1651
  184MPD1    C1 2852   1.994   1.647   9.734 -0.5134  0.0295 -0.1698
  184MPD1    C2 2853   2.073   1.747   9.688  0.0071  0.8557  1.0768
  184MPD1    C3 2854   2.097   1.865   9.753 -0.4857 -0.1349  0.6890
  184MPD1    C4 2855   2.049   1.881   9.879 -0.5838 -0.6867  0.3892
  184MPD1    C5 2856   1.969   1.785   9.936 -0.6085  0.1394  0.1448
  184MPD1     H 2857   2.120   1.729   9.592 -3.0258  0.1213 -0.2568
  184MPD1    H1 2858   2.074   1.969   9.937  2.0267 -1.5181  0.5111
  184MPD1    H2 2859   1.892   1.588   9.920  0.0873 -1.2390 -0.7333
  184MPD1    H3 2860   1.938   1.772  10.039  1.9089 -1.0282  0.7552
  184MPD1     N 2861   2.174   1.966   9.696  0.2217 -0.2247 -0.2115
  184MPD1    H5 2862   2.199   2.049   9.748 -0.8238  1.0772 -1.8054
  184MPD1    N1 2863   1.998   1.519   9.672 -0.5435 -0.4394  0.0788
  184MPD1    H6 2864   1.930   1.455   9.714 -0.2082 -1.0432 -0.3018
  184MPD1    H7 2865   1.994   1.527   9.571 -1.3010  0.0868  0.1485
  185MPD1     C 2866   3.055   2.284   9.131 -0.0693 -0.2946  0.4265
  185MPD1    C1 2867   2.979   2.173   9.108  0.6139  0.0623 -0.6558
  185MPD1    C2 2868   2.854   2.161   9.165  0.0849  0.0250  0.0540
  185MPD1    C3 2869   2.811   2.252   9.260  0.2507 -0.1371 -0.6805
  185MPD1    C4 2870   2.902   2.352   9.296  0.0593  0.8584  0.0999
  185MPD1    C5 2871   3.019   2.369   9.233  0.3570  0.4963  0.4346
  185MPD1     H 2872   2.796   2.070   9.155  1.2513 -0.6913 -0.1851
  185MPD1    H1 2873   2.888   2.422   9.377 -2.2711  3.2796 -2.4200
  185MPD1    H2 2874   3.152   2.302   9.088 -0.2620  0.5363  0.3507
  185MPD1    H3 2875   3.089   2.448   9.261  1.1451 -0.1846  0.3790
  185MPD1     N 2876   2.685   2.245   9.335  0.1042  0.3370 -0.5517
  185MPD1    H5 2877   2.669   2.319   9.402  1.9859  1.1291 -0.9850
  185MPD1    N1 2878   3.002   2.072   9.009  0.0081 -0.7312  0.2351
  185MPD1    H6 2879   3.100   2.065   8.982 -0.0587 -2.1469  0.3690
  185MPD1    H7 2880   2.956   1.984   9.032 -0.5451 -0.8206 -1.2248
  186MPD1     C 2881   0.158   1.435  15.608  0.1018  0.4515 -1.5142
  186MPD1    C1 2882   0.283   1.436  15.657 -0.4170  0.1038 -0.3158
  186MPD1    C2 2883   0.315   1.543  15.733 -0.4181  0.8104  0.3452
  186MPD1    C3 2884   0.236   1.657  15.750 -0.3678 -0.1615  0.4188
  186MPD1    C4 2885   0.110   1.649  15.690 -0.2659 -0.0734  0.3142
  186MPD1    C5 2886   0.070   1.539  15.623 -0.1540  0.1689 -0.6498
  186MPD1     H 2887   0.417   1.551  15.769 -0.0861  1.1662 -0.6679
  186MPD1    H1 2888   0.033   1.725  15.691  0.7298  0.9122  1.3814
  186MPD1    H2 2889   0.124   1.347  15.555  0.9493 -1.1468  0.6189
  186MPD1    H3 2890   4.707   1.535  15.579 -0.6735 -0.5634  0.5683
  186MPD1     N 2891   0.258   1.770  15.829  0.3531  0.4383 -0.5112
  186MPD1    H5 2892   0.187   1.841  15.840  2.0777  1.9475  0.9154
  186MPD1    N1 2893   0.384   1.348  15.624 -0.2638 -0.2910 -0.6012
  186MPD1    H6 2894   0.349   1.273  15.565 -1.4914 -1.6237  1.8447
  186MPD1    H7 2895   0.430   1.293  15.695  2.6104  1.3300 -1.2033
  187MPD1     C 2896   0.003   3.847  17.658 -0.3134 -0.4754  0.1130
  187MPD1    C1 2897   0.002   3.968  17.592  0.5259 -0.5955  0.0715
  187MPD1    C2 2898   4.619   3.993  17.526 -0.7794  0.3202  0.3723
  187MPD1    C3 2899   4.521   3.898  17.508 -0.2036 -0.9029  0.6952
  187MPD1    C4 2900   4.528   3.773  17.565 -0.0306 -0.4392  0.2395
  187MPD1    C5 2901   4.631   3.755  17.647 -0.0238 -0.0987  0.1182
  187MPD1     H 2902   4.594   4.092  17.489 -1.0748 -0.4908 -1.5574
  187MPD1    H1 2903   4.445   3.703  17.567  0.8495 -1.4608  1.1804
  187MPD1    H2 2904   0.083   3.824  17.728 -1.6421 -0.2174  1.7296
  187MPD1    H3 2905   4.633   3.661  17.700 -2.0236  0.9033  1.9529
  187MPD1     N 2906   4.403   3.944  17.448 -0.3514  0.3879  0.1436
  187MPD1    H5 2907   4.403   4.033  17.399 -0.8238 -0.1098 -0.7665
  187MPD1    N1 2908   0.086   4.065  17.643  0.0028 -0.0661  0.2537
  187MPD1    H6 2909   0.159   4.028  17.703  0.4613 -1.4443 -1.1703
  187MPD1    H7 2910   0.122   4.128  17.571  0.7134  0.4609  1.0695
  188MPD1     C 2911   0.071   3.017  10.463 -0.2924 -0.1822  0.2075
  188MPD1    C1 2912   4.722   3.035  10.358  0.3207  0.1553 -0.4535
  188MPD1    C2 2913   4.646   2.931  10.314  0.4359  0.3412 -0.2118
  188MPD1    C3 2914   4.654   2.808  10.377  0.1270 -0.0934 -0.6949
  188MPD1    C4 2915   0.009   2.784  10.478 -0.0538 -0.5738 -0.2075
  188MPD1    C5 2916   0.077   2.893  10.528  0.2409  0.5523  0.0398
  188MPD1     H 2917   4.575   2.950  10.234 -0.6036  0.6351  0.7841
  188MPD1    H1 2918   0.005   2.694  10.539  1.4563  0.5660  1.5712
  188MPD1    H2 2919   0.114   3.104  10.512 -0.0871 -0.6096  0.7907
  188MPD1    H3 2920   0.130   2.881  10.622 -0.1997 -2.9697 -0.1592
  188MPD1     N 2921   4.567   2.699  10.348  1.0514  0.1618  0.3636
  188MPD1    H5 2922   4.591   2.615  10.399 -0.3196 -0.4555 -0.0014
  188MPD1    N1 2923   4.705   3.161  10.307  0.8956 -0.5265 -0.0398
  188MPD1    H6 2924   0.052   3.221  10.313 -0.9020  2.1539 -1.8606
  188MPD1    H7 2925   4.683   3.158  10.208 -1.2367  0.5443  0.4087
  189MPD1     C 2926   1.410   0.680   0.263  0.2506 -0.0749 -0.6374
  189MPD1    C1 2927   1.381   0.736   0.389  0.3498 -0.0568 -0.2078
  189MPD1    C2 2928   1.274   0.675   0.450 -0.4519 -0.5221  1.0034
  189MPD1    C3 2929   1.217   0.553   0.417  0.3146 -0.3443  0.5331
  189MPD1    C4 2930   1.265   0.499   0.298  0.1755 -0.1791  0.4482
  189MPD1    C5 2931   1.361   0.565   0.226  0.4411  0.6133  0.2937
  189MPD1     H 2932   1.247   0.717   0.546 -0.5038  2.4399 -0.3095
  189MPD1    H1 2933   1.230   0.403   0.260  0.2775  1.1487 -2.9446
  189MPD1    H2 2934   1.496   0.720   0.210  0.3285 -0.1883 -0.5989
  189MPD1    H3 2935   1.391   0.531   0.128 -0.4504  0.5718  0.0336
  189MPD1     N 2936   1.117   0.500   0.493 -0.1346  0.0263  0.1680
  189MPD1    H5 2937   1.084   0.558   0.569 -2.2858 -1.2125  0.1827
  189MPD1    N1 2938   1.439   0.858   0.433 -0.1576  0.4169 -0.0592
  189MPD1    H6 2939   1.427   0.874   0.533 -0.6912  0.2782 -0.1018
  189MPD1    H7 2940   1.538   0.868   0.412  0.0523 -0.7016  0.3868
  190MPD1     C 2941   4.209   3.138  15.421  0.1209  0.3350 -0.3814
  190MPD1    C1 2942   4.214   3.143  15.560 -0.4290 -0.4470 -0.4998
  190MPD1    C2 2943   4.335   3.134  15.623  0.8831 -0.0277  0.0505
  190MPD1    C3 2944   4.454   3.130  15.551  0.4066 -0.1076 -0.2275
  190MPD1    C4 2945   4.443   3.121  15.416  0.6812  0.2032 -0.3612
  190MPD1    C5 2946   4.328   3.121  15.346 -0.1677  0.5489 -0.7095
  190MPD1     H 2947   4.345   3.133  15.731 -0.2620 -1.3750  0.1324
  190MPD1    H1 2948   4.532   3.123  15.354  0.8022 -0.6972 -0.2256
  190MPD1    H2 2949   4.117   3.148  15.365 -0.7582  1.1885  1.2308
  190MPD1    H3 2950   4.325   3.121  15.238 -0.0578 -0.3472 -0.7130
  190MPD1     N 2951   4.576   3.141  15.620 -0.7431 -0.1950  0.0329
  190MPD1    H5 2952   4.575   3.161  15.720 -2.2688  0.2961 -0.0902
  190MPD1    N1 2953   4.099   3.172  15.637 -0.3013  0.5133  0.2114
  190MPD1    H6 2954   4.087   3.118  15.723 -0.7293  1.3280  0.6620
  190MPD1    H7 2955   4.021   3.170  15.571 -0.7295 -0.5268  0.7501
  191MPD1     C 2956   4.084   4.186  13.677  0.0429 -0.0899  0.4968
  191MPD1    C1 2957   4.113   4.302  13.612 -0.4758 -0.1234 -0.0641
  191MPD1    C2 2958   4.021   4.347  13.520  0.3799 -0.6671 -0.6703
  191MPD1    C3 2959   3.891   4.294  13.509  0.5261 -0.3784  0.5692
  191MPD1    C4 2960   3.867   4.186  13.588 -0.1379  0.1817  0.0847
  191MPD1    C5 2961   3.954   4.137  13.673  0.2795 -0.5374  0.2395
  191MPD1     H 2962   4.048   4.427  13.453  1.5898 -1.5326 -1.2047
  191MPD1    H1 2963   3.774   4.131  13.588 -0.0192 -0.0270 -0.9858
  191MPD1    H2 2964   4.158   4.142  13.742 -0.9354 -1.2546  0.8101
  191MPD1    H3 2965   3.922   4.046  13.723 -0.7561 -0.4499 -0.2642
  191MPD1     N 2966   3.787   4.357  13.434  0.6582 -0.0682  0.0923
  191MPD1    H5 2967   3.816   4.436  13.377  3.6906 -1.5498 -0.4313
  191MPD1    N1 2968   4.247   4.343  13.611  0.3857 -0.3324 -0.5941
  191MPD1    H6 2969   4.254   4.444  13.607 -1.8753 -0.1431  0.5831
  191MPD1    H7 2970   4.282   4.308  13.699 -0.7944 -1.5264 -0.6028
  192MPD1     C 2971   2.714   4.445  13.274 -0.7837 -0.3959  0.0535
  192MPD1    C1 2972   2.779   4.329  13.240  0.1162 -0.4522 -0.3945
  192MPD1    C2 2973   2.922   4.334  13.229  0.2101 -0.0791  0.7820
  192MPD1    C3 2974   2.989   4.457  13.239 -0.2736  0.5227  0.3663
  192MPD1    C4 2975   2.908   4.569  13.257  0.2952 -0.3609  0.0047
  192MPD1    C5 2976   2.776   4.565  13.276  0.1046  0.1608 -0.0856
  192MPD1     H 2977   2.979   4.245  13.206 -1.0779 -0.8460  0.5442
  192MPD1    H1 2978   2.939   4.672  13.272  0.9111 -0.6351  0.5896
  192MPD1    H2 2979   2.607   4.439  13.293 -0.7718 -2.1982 -0.4090
  192MPD1    H3 2980   2.727   4.657  13.305 -0.8012 -0.3858  0.1217
  192MPD1     N 2981   3.126   4.482  13.231  0.7756 -0.1093  0.3985
  192MPD1    H5 2982   3.165   4.575  13.247  0.1231  0.0848  0.8764
  192MPD1    N1 2983   2.722   4.202  13.253  0.1648  0.4113  0.0179
  192MPD1    H6 2984   2.627   4.196  13.215 -0.3019  1.6147  1.0031
  192MPD1    H7 2985   2.774   4.129  13.205  0.7301  0.9721 -0.2237
  193MPD1     C 2986   3.552   0.516  17.429 -0.0928  0.3568 -0.5920
  193MPD1    C1 2987   3.659   0.448  17.376  0.4458 -0.3158  0.1813
  193MPD1    C2 2988   3.722   0.499  17.265 -0.3695 -0.6967 -0.5513
  193MPD1    C3 2989   3.687   0.626  17.218 -0.0051  0.2721 -0.3116
  193MPD1    C4 2990   3.580   0.690  17.271  0.6005  0.1090 -0.2242
  193MPD1    C5 2991   3.517   0.641  17.380 -0.1052 -0.5346 -0.2137
  193MPD1     H 2992   3.792   0.436  17.212 -1.0397 -2.2081  0.3750
  193MPD1    H1 2993   3.554   0.791  17.240  0.6900  0.1703 -0.1001
  193MPD1    H2 2994   3.503   0.473  17.516  1.1040 -0.5000 -0.3476
  193MPD1    H3 2995   3.442   0.695  17.436  0.3950 -2.3852  2.2406
  193MPD1     N 2996   3.746   0.690  17.107  0.3145 -0.1369  0.2673
  193MPD1    H5 2997   3.715   0.783  17.082  2.0247 -0.0041 -1.3726
  193MPD1    N1 2998   3.693   0.325  17.427  0.3539  0.3649 -0.2931
  193MPD1    H6 2999   3.643   0.317  17.515 -0.0847 -1.0672 -0.6739
  193MPD1    H7 3000   3.792   0.324  17.447  0.2754  0.1555  0.0747
  194MPD1     C 3001   1.171   2.858  17.448  0.6971 -0.0557 -0.5845
  194MPD1    C1 3002   1.278   2.842  17.363 -0.0312  0.6362 -0.3457
  194MPD1    C2 3003   1.384   2.753  17.408  0.4362 -0.7088 -0.2413
  194MPD1    C3 3004   1.385   2.685  17.531  0.2145 -0.1387  0.7735
  194MPD1    C4 3005   1.270   2.696  17.607 -0.2518 -0.0533 -0.0736
  194MPD1    C5 3006   1.169   2.785  17.569 -0.0876  0.0511 -0.1042
  194MPD1     H 3007   1.472   2.749  17.345  1.1971 -1.1225  0.8433
  194MPD1    H1 3008   1.252   2.645  17.701  1.9192  0.1776  0.4483
  194MPD1    H2 3009   1.090   2.928  17.429 -0.9162 -1.8856 -0.4280
  194MPD1    H3 3010   1.079   2.782  17.629 -1.8748 -1.9222 -2.8351
  194MPD1     N 3011   1.492   2.600  17.568  0.2705 -0.2685 -0.2680
  194MPD1    H5 3012   1.486   2.550  17.656 -0.5770 -0.6006 -0.5203
  194MPD1    N1 3013   1.294   2.914  17.244 -0.2674  0.5953 -0.4944
  194MPD1    H6 3014   1.205   2.915  17.194 -0.2857  2.4228 -0.4109
  194MPD1    H7 3015   1.369   2.871  17.189 -1.7401 -1.1037 -1.1503
  195MPD1     C 3016   4.104   4.237  17.527 -0.3837  0.1185  0.2925
  195MPD1    C1 3017   4.002   4.165  17.583  0.6955  0.1190  0.1737
  195MPD1    C2 3018   4.033   4.070  17.673 -0.4113 -0.0454  0.3173
  195MPD1    C3 3019   4.165   4.043  17.702 -0.5207 -0.3512  0.0424
  195MPD1    C4 3020   4.266   4.121  17.654  0.6274  0.1880  0.6327
  195MPD1    C5 3021   4.233   4.220  17.565  0.2569 -0.3306  0.3371
  195MPD1     H 3022   3.954   4.013  17.721 -0.4327 -0.6222 -0.3925
  195MPD1    H1 3023   4.367   4.105  17.689  1.6347  1.7832 -1.5595
  195MPD1    H2 3024   4.079   4.306  17.447  1.3161 -2.9215 -2.8572
  195MPD1    H3 3025   4.311   4.286  17.527 -0.2436  0.6028  0.9266
  195MPD1     N 3026   4.202   3.938   0.048 -0.5844  0.5147  0.0667
  195MPD1    H5 3027   4.302   3.923   0.056 -0.2092  1.4884 -3.0504
  195MPD1    N1 3028   3.868   4.192  17.556 -0.9202  0.3689 -0.1832
  195MPD1    H6 3029   3.854   4.223  17.460 -0.6454 -0.0828 -0.3677
  195MPD1    H7 3030   3.804   4.117  17.582  0.8208 -0.9179  0.4184
  196MPD1     C 3031   3.084   3.444  17.602  0.2820  0.3657  0.0472
  196MPD1    C1 3032   2.976   3.512  17.652 -0.0875  0.2928 -0.4912
  196MPD1    C2 3033   2.989   3.562   0.044  0.1531 -0.2217  0.2440
  196MPD1    C3 3034   3.095   3.540   0.123  0.3493 -0.1008 -0.9143
  196MPD1    C4 3035   3.198   3.465   0.066 -1.3173 -0.2560 -0.0308
  196MPD1    C5 3036   3.189   3.417  17.675  0.1876  0.0238 -0.0528
  196MPD1     H 3037   2.902   3.618   0.077 -0.7161 -1.8742  0.7438
  196MPD1    H1 3038   3.293   3.449   0.116 -0.1578  1.6049 -1.6401
  196MPD1    H2 3039   3.083   3.413  17.498  0.6715  2.5711 -0.6210
  196MPD1    H3 3040   3.276   3.370  17.629  1.7175  2.4037  0.4180
  196MPD1     N 3041   3.122   3.594   0.250 -0.2295  0.2310  0.2827
  196MPD1    H5 3042   3.208   3.564   0.295  0.6725  1.5396 -0.5600
  196MPD1    N1 3043   2.872   3.554  17.568 -0.4911 -0.0241  0.3156
  196MPD1    H6 3044   2.789   3.571  17.625  1.2910  2.0854  2.2780
  196MPD1    H7 3045   2.841   3.485  17.500  0.2690 -0.5657  0.5262
  197MPD1     C 3046   2.768   1.256   0.207 -0.2454 -0.2969 -0.0725
  197MPD1    C1 3047   2.780   1.396   0.215 -0.0550  0.4728 -0.6574
  197MPD1    C2 3048   2.784   1.468   0.097 -0.1964 -0.5905  0.2771
  197MPD1    C3 3049   2.789   1.407  17.714  0.3825  0.0593  0.5126
  197MPD1    C4 3050   2.783   1.269  17.711  0.4725  0.0071 -0.0787
  197MPD1    C5 3051   2.785   1.192   0.087 -0.2193 -0.8294 -0.4564
  197MPD1     H 3052   2.799   1.575   0.101  0.8713 -0.7681  0.8974
  197MPD1    H1 3053   2.777   1.222  17.613 -0.6783  0.9449 -0.4471
  197MPD1    H2 3054   2.761   1.184   0.289  1.4385  0.8688  1.1091
  197MPD1    H3 3055   2.793   1.085   0.071  1.6962 -0.5281 -1.4626
  197MPD1     N 3056   2.813   1.481  17.591 -0.1990 -0.1657 -0.6291
  197MPD1    H5 3057   2.812   1.424  17.507 -2.8364 -0.6534 -0.2599
  197MPD1    N1 3058   2.764   1.463   0.335  0.7415 -0.1437 -0.2323
  197MPD1    H6 3059   2.797   1.403   0.410 -0.3648 -1.2522 -0.6361
  197MPD1    H7 3060   2.826   1.543   0.344 -0.5005  0.7926 -0.0477
  198MPD1     C 3061   4.163   4.062  14.768  0.1195  0.7187  0.3936
  198MPD1    C1 3062   4.270   4.139  14.742  0.3888  0.2339 -0.5433
  198MPD1    C2 3063   4.352   4.170  14.846  0.1153  1.5768 -0.5223
  198MPD1    C3 3064   4.336   4.121  14.974  0.3963  0.1601  0.5461
  198MPD1    C4 3065   4.237   4.025  14.995 -0.3516 -0.1387 -0.8028
  198MPD1    C5 3066   4.143   4.003  14.887  0.6004  0.4322  0.6192
  198MPD1     H 3067   4.428   4.247  14.833 -1.0061  2.3684 -2.3555
  198MPD1    H1 3068   4.212   3.971  15.085 -2.1821 -0.9023 -1.7752
  198MPD1    H2 3069   4.090   4.047  14.690 -0.9831  4.8070  0.6463
  198MPD1    H3 3070   4.058   3.937  14.905  1.8890 -1.3096  0.3329
  198MPD1     N 3071   4.415   4.170  15.082 -0.0827 -0.1572  0.0410
  198MPD1    H5 3072   4.478   4.248  15.065  1.5728 -1.6707 -0.7694
  198MPD1    N1 3073   4.271   4.218  14.623  0.3334  0.4008  0.0903
  198MPD1    H6 3074   4.220   4.185  14.542 -2.2414  0.8170  1.5425
  198MPD1    H7 3075   4.366   4.247  14.601  1.0828 -1.7865  0.3748
  199MPD1     C 3076   1.865   4.125   9.835  0.0322  0.0650 -0.1825
  199MPD1    C1 3077   1.975   4.200   9.843  0.4093  0.1677  0.3797
  199MPD1    C2 3078   1.975   4.324   9.782 -0.0789  0.4685 -0.3029
  199MPD1    C3 3079   1.852   4.386   9.745  0.3224 -0.3936 -0.4814
  199MPD1    C4 3080   1.740   4.304   9.741  0.1683  0.3590  0.7455
  199MPD1    C5 3081   1.750   4.166   9.764  0.3282 -0.3724 -0.5562
  199MPD1     H 3082   2.068   4.379   9.785  0.5960 -0.7974  2.0611
  199MPD1    H1 3083   1.643   4.346   9.717  0.9855  2.3843  0.9556
  199MPD1    H2 3084   1.862   4.031   9.890 -0.3551 -0.2118 -0.6762
  199MPD1    H3 3085   1.671   4.092   9.764  1.3299 -1.4493  1.3011
  199MPD1     N 3086   1.824   4.526   9.724 -0.3124  0.2675  0.2815
  199MPD1    H5 3087   1.725   4.548   9.720 -0.5093 -0.5129  0.9318
  199MPD1    N1 3088   2.088   4.143   9.901  0.6817  0.4942  0.3441
  199MPD1    H6 3089   2.152   4.207   9.947 -0.6983  1.0654  1.4805
  199MPD1    H7 3090   2.057   4.074   9.970  2.1496  1.2702  1.7793
  200MPD1     C 3091   0.316   0.560  14.814 -0.5939  0.2183 -0.1660
  200MPD1    C1 3092   0.351   0.470  14.715 -0.4147 -0.2561 -0.6025
  200MPD1    C2 3093   0.466   0.506  14.641 -0.3047 -0.1905 -0.3061
  200MPD1    C3 3094   0.531   0.628  14.653  0.3371  0.1424  0.3832
  200MPD1    C4 3095   0.484   0.715  14.751 -0.7289  0.0808  0.4550
  200MPD1    C5 3096   0.373   0.684  14.828 -0.8613 -0.1441 -0.0683
  200MPD1     H 3097   0.501   0.441  14.563 -2.2783 -1.0437 -0.4799
  200MPD1    H1 3098   0.536   0.806  14.776 -0.8550  0.0500  0.8451
  200MPD1    H2 3099   0.234   0.540  14.881  1.4579 -0.3701  2.1933
  200MPD1    H3 3100   0.357   0.749  14.913 -0.4704 -1.6879  1.2018
  200MPD1     N 3101   0.641   0.657  14.571 -0.1359  0.2926 -0.5651
  200MPD1    H5 3102   0.670   0.578  14.514 -1.1512  0.1535 -0.8842
  200MPD1    N1 3103   0.301   0.342  14.720 -0.0999  0.1156 -0.1628
  200MPD1    H6 3104   0.310   0.300  14.627  1.1333  1.1668 -0.5279
  200MPD1    H7 3105   0.201   0.334  14.737 -0.0097 -0.0324  0.2902
  201MPD1     C 3106   2.440   3.932  13.732  0.1197 -0.4649  0.4196
  201MPD1    C1 3107   2.440   3.834  13.633  0.8697 -0.3521 -0.9700
  201MPD1    C2 3108   2.557   3.775  13.590 -0.9646  0.2538  0.1211
  201MPD1    C3 3109   2.677   3.822  13.633  0.5156 -0.4917  0.0614
  201MPD1    C4 3110   2.677   3.923  13.726  0.2098 -0.3073 -0.1913
  201MPD1    C5 3111   2.560   3.981  13.771 -0.5056 -0.4154 -0.4465
  201MPD1     H 3112   2.542   3.708  13.507 -0.7723  0.7306 -0.3018
  201MPD1    H1 3113   2.759   3.974  13.776  1.7197 -0.6040 -2.3674
  201MPD1    H2 3114   2.352   3.971  13.782 -0.6103 -0.2195 -1.0617
  201MPD1    H3 3115   2.557   4.069  13.834 -0.5006  0.1756 -1.2715
  201MPD1     N 3116   2.793   3.760  13.583  0.4611 -0.3130 -0.6122
  201MPD1    H5 3117   2.775   3.686  13.516  0.0561  0.2942 -1.1747
  201MPD1    N1 3118   2.319   3.788  13.585  0.0225  0.0066 -0.5851
  201MPD1    H6 3119   2.238   3.849  13.582  1.1239  1.4488 -1.1228
  201MPD1    H7 3120   2.322   3.727  13.503 -0.4447  0.4436 -0.9272
  202MPD1     C 3121   3.165   3.508   8.888  0.3174 -0.1667  0.2225
  202MPD1    C1 3122   3.105   3.635   8.919 -0.5862  0.0687  0.2990
  202MPD1    C2 3123   3.075   3.648   9.053 -0.7184 -0.4873  0.0760
  202MPD1    C3 3124   3.077   3.545   9.149  0.4418  0.7093 -0.4046
  202MPD1    C4 3125   3.131   3.423   9.110 -0.2289 -0.5694 -0.2234
  202MPD1    C5 3126   3.170   3.404   8.974  0.0444 -0.2810 -0.8299
  202MPD1     H 3127   3.077   3.750   9.090 -0.8548 -0.8389  1.0518
  202MPD1    H1 3128   3.129   3.337   9.176  1.9320 -0.6948 -0.3371
  202MPD1    H2 3129   3.206   3.484   8.791 -0.2688  1.0536 -0.3318
  202MPD1    H3 3130   3.215   3.314   8.936  3.2705  0.9587  0.0716
  202MPD1     N 3131   3.030   3.560   9.277 -0.3217  0.1696 -0.6287
  202MPD1    H5 3132   3.047   3.484   9.342  0.8913  0.6235 -0.4114
  202MPD1    N1 3133   3.138   3.745   8.843  1.2638  0.0264 -0.2845
  202MPD1    H6 3134   3.073   3.821   8.859 -0.6101 -2.3365  3.2141
  202MPD1    H7 3135   3.127   3.714   8.747 -1.0018 -4.0278  1.2664
  203MPD1     C 3136   1.689   0.288  12.387 -0.0103 -0.1061  0.4524
  203MPD1    C1 3137   1.732   0.191  12.307  0.6879  0.6974  0.0635
  203MPD1    C2 3138   1.757   0.065  12.360 -0.2093  0.5801  0.1122
  203MPD1    C3 3139   1.734   0.034  12.491  0.0708  1.0579  0.9612
  203MPD1    C4 3140   1.697   0.136  12.575 -0.5603  0.4637 -0.4339
  203MPD1    C5 3141   1.670   0.265  12.523  0.3810 -0.6003  0.0768
  203MPD1     H 3142   1.789   4.713  12.304 -0.3968 -0.8833  2.2499
  203MPD1    H1 3143   1.671   0.112  12.677 -0.1468  2.3762  0.1263
  203MPD1    H2 3144   1.662   0.389  12.356 -2.2430 -0.4315  1.2996
  203MPD1    H3 3145   1.643   0.344  12.592  0.9260 -1.4526  1.2702
  203MPD1     N 3146   1.759   4.633  12.531  0.4695  0.0528 -0.2888
  203MPD1    H5 3147   1.800   4.582  12.453  0.4422 -1.0222  0.3980
  203MPD1    N1 3148   1.768   0.209  12.174 -0.6685  0.4107  0.1352
  203MPD1    H6 3149   1.761   0.120  12.126 -3.0634  0.1247  0.9932
  203MPD1    H7 3150   1.709   0.279  12.130  0.0039  0.6860 -0.3281
  204MPD1     C 3151   0.949   1.379   0.133 -0.0956 -0.5765  0.4680
  204MPD1    C1 3152   1.076   1.437   0.114  0.5575 -0.9623 -0.1430
  204MPD1    C2 3153   1.177   1.358   0.068  0.2314 -0.2284  0.7214
  204MPD1    C3 3154   1.162   1.218   0.063 -0.2530  0.0345 -0.1828
  204MPD1    C4 3155   1.043   1.162   0.103  0.5480 -0.2232 -0.5663
  204MPD1    C5 3156   0.943   1.247   0.132  0.0464  0.5712  0.1371
  204MPD1     H 3157   1.276   1.402   0.054  0.3510 -0.5907  0.4242
  204MPD1    H1 3158   1.015   1.058   0.097  2.1477 -0.8372  2.5217
  204MPD1    H2 3159   0.855   1.430   0.150 -0.0205 -0.1380 -0.4420
  204MPD1    H3 3160   0.847   1.203   0.158  1.3284 -1.2397  1.7553
  204MPD1     N 3161   1.265   1.140   0.006  0.4973 -0.3138 -0.0849
  204MPD1    H5 3162   1.348   1.179  17.701  0.4201  0.2442  0.2577
  204MPD1    N1 3163   1.098   1.578   0.128 -0.1813  0.0671 -0.6379
  204MPD1    H6 3164   1.171   1.587   0.199 -0.4369  0.4169 -0.4144
  204MPD1    H7 3165   1.015   1.614   0.174  0.2858  1.0424 -0.5495
  205MPD1     C 3166   0.587   4.663   0.276 -0.1474  0.3538  0.1532
  205MPD1    C1 3167   0.545   4.597   0.163 -0.4386 -0.0458 -0.3140
  205MPD1    C2 3168   0.631   4.597   0.053  1.4103  0.1124 -0.3213
  205MPD1    C3 3169   0.756   4.660   0.054  0.1633  0.0630 -0.7753
  205MPD1    C4 3170   0.783   4.734   0.158  0.0958 -1.0501 -0.4205
  205MPD1    C5 3171   0.701   0.005   0.269  0.4645  0.0736 -0.1704
  205MPD1     H 3172   0.597   4.538  17.710  1.3465 -0.1631 -0.0995
  205MPD1    H1 3173   0.874   0.058   0.154 -1.6092  1.5016 -1.1618
  205MPD1    H2 3174   0.530   4.665   0.368  1.9491 -0.6969  1.4567
  205MPD1    H3 3175   0.724   0.076   0.348  0.0847  0.5784 -0.5131
  205MPD1     N 3176   0.853   4.639  17.698 -0.1191 -0.1248  0.0630
  205MPD1    H5 3177   0.942   4.689  17.698 -0.5348  0.6344 -2.2565
  205MPD1    N1 3178   0.432   4.512   0.165 -0.3783  0.2243  0.4762
  205MPD1    H6 3179   0.353   4.564   0.202 -1.6706 -1.4998  0.1232
  205MPD1    H7 3180   0.407   4.493   0.069  3.6488 -1.3216 -0.2704
  206MPD1     C 3181   1.327   2.347  17.393 -0.1460  0.0804 -0.2608
  206MPD1    C1 3182   1.400   2.248  17.326  0.2688 -0.1228  0.2396
  206MPD1    C2 3183   1.441   2.271  17.197  0.0722 -0.0299 -0.1155
  206MPD1    C3 3184   1.406   2.382  17.135 -0.6257  0.0451 -0.6267
  206MPD1    C4 3185   1.331   2.481  17.199  0.1259  0.0917 -0.5908
  206MPD1    C5 3186   1.288   2.456  17.325  0.2779 -0.0023  0.1822
  206MPD1     H 3187   1.499   2.196  17.145  0.0429  1.2566 -2.0228
  206MPD1    H1 3188   1.299   2.574  17.153  0.8276  0.0361 -1.1745
  206MPD1    H2 3189   1.306   2.341  17.499  1.8654  0.4202  0.1456
  206MPD1    H3 3190   1.237   2.534  17.381 -2.1203 -1.5008  0.0832
  206MPD1     N 3191   1.431   2.403  16.994 -0.0329  0.8090 -0.4047
  206MPD1    H5 3192   1.390   2.485  16.950  3.4191  1.6967 -1.9061
  206MPD1    N1 3193   1.452   2.140  17.403 -0.3991 -0.3068 -0.1419
  206MPD1    H6 3194   1.399   2.095  17.478 -0.4077 -0.3171 -0.1541
  206MPD1    H7 3195   1.473   2.066  17.337 -0.9806 -0.8622  0.2845
  207MPD1     C 3196   0.681   4.018  10.315  0.7506 -0.1056 -0.6044
  207MPD1    C1 3197   0.689   4.137  10.248  0.0836  0.6176 -0.4674
  207MPD1    C2 3198   0.650   4.249  10.316  0.2065 -0.0378  0.6424
  207MPD1    C3 3199   0.594   4.246  10.441  0.0784 -0.5035  0.1367
  207MPD1    C4 3200   0.578   4.123  10.508 -0.2441 -0.2680  0.2943
  207MPD1    C5 3201   0.635   4.011  10.448 -0.1279 -0.3409  0.4841
  207MPD1     H 3202   0.673   4.347  10.275 -1.9142 -0.9050 -2.5655
  207MPD1    H1 3203   0.541   4.111  10.610  1.2996  2.0063  1.1327
  207MPD1    H2 3204   0.714   3.925  10.269  0.2536 -1.1614  1.1780
  207MPD1    H3 3205   0.640   3.917  10.501  0.3325 -1.2317 -1.1479
  207MPD1     N 3206   0.554   4.359  10.515  0.5362  0.5577 -0.8448
  207MPD1    H5 3207   0.522   4.353  10.611  0.9088 -0.8262 -0.8052
  207MPD1    N1 3208   0.759   4.144  10.127  0.0005 -0.1112 -0.0003
  207MPD1    H6 3209   0.717   4.202  10.055  1.8635  0.8029 -0.3743
  207MPD1    H7 3210   0.770   4.054  10.082 -0.8576  1.0668 -2.5723
  208MPD1     C 3211   2.247   4.648  17.239 -0.0628 -0.3392 -0.1953
  208MPD1    C1 3212   2.112   4.634  17.272  0.6345 -0.0450  0.4881
  208MPD1    C2 3213   2.066   4.524  17.345  0.2734  0.0973 -0.3390
  208MPD1    C3 3214   2.161   4.431  17.383  0.4439  0.6066  0.9496
  208MPD1    C4 3215   2.296   4.436  17.356 -0.0322 -0.1350 -0.6123
  208MPD1    C5 3216   2.330   4.548  17.286 -0.1040  0.1422 -0.0185
  208MPD1     H 3217   1.960   4.510  17.361  0.9963 -0.5908  3.7940
  208MPD1    H1 3218   2.375   4.375  17.398  1.2421  1.6227 -0.4773
  208MPD1    H2 3219   2.300   4.733  17.198 -2.3357  1.1369 -0.0819
  208MPD1    H3 3220   2.437   4.558  17.273  0.0957  0.2803  1.7449
  208MPD1     N 3221   2.113   4.319  17.454  0.0004  0.0840  0.3114
  208MPD1    H5 3222   2.016   4.335  17.476  0.0454 -0.0395  0.5930
  208MPD1    N1 3223   2.017   4.722  17.231  0.0045  0.0890 -0.0946
  208MPD1    H6 3224   1.954   0.012  17.307 -2.2887  0.1382 -1.9972
  208MPD1    H7 3225   2.061   0.073  17.200 -1.1518  0.4722 -0.6770
  209MPD1     C 3226   3.513   4.461  10.532 -0.1141 -0.7197  0.5247
  209MPD1    C1 3227   3.516   4.418  10.662  0.2499  0.3098  0.2386
  209MPD1    C2 3228   3.634   4.438  10.735  0.4660 -0.0917 -0.3464
  209MPD1    C3 3229   3.743   4.497  10.672  0.7316  0.7054 -0.4864
  209MPD1    C4 3230   3.736   4.538  10.537  0.2869 -0.0326  0.0888
  209MPD1    C5 3231   3.621   4.521  10.465 -0.0365 -0.3439  0.5775
  209MPD1     H 3232   3.635   4.409  10.840  0.7399  0.2630 -0.2533
  209MPD1    H1 3233   3.812   4.602  10.493 -1.2449  3.2937  2.2608
  209MPD1    H2 3234   3.426   4.452  10.468  1.2786  0.3770 -1.5231
  209MPD1    H3 3235   3.603   4.563  10.367  0.8317 -0.8213  0.2118
  209MPD1     N 3236   3.862   4.503  10.750  0.7125  0.0654  0.3951
  209MPD1    H5 3237   3.864   4.438  10.828 -0.3850  0.4066  0.7026
  209MPD1    N1 3238   3.410   4.336  10.715 -0.0149 -0.0760  0.1878
  209MPD1    H6 3239   3.330   4.330  10.653 -0.2546 -1.6272  0.6527
  209MPD1    H7 3240   3.388   4.345  10.814 -0.6954  1.8626 -0.1449
  210MPD1     C 3241   4.237   4.311  11.636  0.1790  0.4602 -0.0781
  210MPD1    C1 3242   4.176   4.228  11.546 -0.9142 -1.0884 -0.0694
  210MPD1    C2 3243   4.183   4.270  11.414 -0.6204 -0.5047  0.5111
  210MPD1    C3 3244   4.212   4.401  11.386 -0.4418 -0.6275 -0.7662
  210MPD1    C4 3245   4.260   4.487  11.485  0.1466  0.4504 -0.3772
  210MPD1    C5 3246   4.277   4.439  11.611  0.1803  0.0568 -0.4585
  210MPD1     H 3247   4.155   4.202  11.335 -2.3967  0.8903 -0.0554
  210MPD1    H1 3248   4.298   4.587  11.466  0.7528  0.3798  0.4923
  210MPD1    H2 3249   4.241   4.285  11.741  1.2343 -0.1008 -0.2605
  210MPD1    H3 3250   4.308   4.495  11.698 -1.1531 -0.7640  0.5457
  210MPD1     N 3251   4.205   4.459  11.250  0.4917  0.4430  0.3045
  210MPD1    H5 3252   4.249   4.550  11.243  1.9984 -0.1978  1.3617
  210MPD1    N1 3253   4.155   4.091  11.581  0.5543  0.5116  0.7494
  210MPD1    H6 3254   4.121   4.092  11.677 -4.1951 -0.1691 -0.9775
  210MPD1    H7 3255   4.083   4.047  11.525  0.3652  0.5647  0.9483
  211MPD1     C 3256   0.306   0.022  17.638  0.6588 -0.4612  0.3627
  211MPD1    C1 3257   0.406   0.078  17.566 -0.0367  0.5150 -0.1314
  211MPD1    C2 3258   0.470   0.013  17.473  0.0537  0.4517 -0.2500
  211MPD1    C3 3259   0.449   4.614  17.449 -0.3422  0.4364  0.1247
  211MPD1    C4 3260   0.356   4.549  17.526 -0.1479  0.0221 -0.0535
  211MPD1    C5 3261   0.291   4.622  17.623 -0.2650 -0.3622 -0.4407
  211MPD1     H 3262   0.552   0.067  17.427  0.0337 -0.2773 -1.1273
  211MPD1    H1 3263   0.333   4.443  17.522  2.9327 -0.5814 -1.8617
  211MPD1    H2 3264   0.234   0.069  17.704  1.1540 -0.6868  1.0605
  211MPD1    H3 3265   0.206   4.573  17.667 -0.2466  0.3917  0.4278
  211MPD1     N 3266   0.526   4.553  17.346 -0.4745  0.2827  0.0677
  211MPD1    H5 3267   0.609   4.599  17.311 -0.5937  0.8724  0.5556
  211MPD1    N1 3268   0.417   0.218  17.584 -0.3934  0.1117 -0.3567
  211MPD1    H6 3269   0.514   0.244  17.570 -0.5862  0.9649 -0.0911
  211MPD1    H7 3270   0.381   0.233  17.679 -3.6839  0.9289 -1.7320
  212MPD1     C 3271   1.266   2.664  16.307 -0.0535 -0.0659  0.6770
  212MPD1    C1 3272   1.184   2.736  16.394  0.4200 -0.2101  0.0607
  212MPD1    C2 3273   1.097   2.673  16.479  0.0568 -0.1949  0.4567
  212MPD1    C3 3274   1.101   2.531  16.488  0.5782  0.1443  0.7294
  212MPD1    C4 3275   1.188   2.462  16.409  0.8355  0.5442  0.6314
  212MPD1    C5 3276   1.273   2.530  16.328 -0.2531 -0.4156  0.3101
  212MPD1     H 3277   1.018   2.734  16.522 -1.4301 -1.2706 -0.7402
  212MPD1    H1 3278   1.194   2.355  16.422 -3.2459  0.4507  1.8940
  212MPD1    H2 3279   1.343   2.707  16.244 -1.0217 -2.1280 -1.9532
  212MPD1    H3 3280   1.336   2.479  16.257 -0.6312 -1.3742  0.6646
  212MPD1     N 3281   1.019   2.464  16.580 -0.3195 -0.2075  0.1133
  212MPD1    H5 3282   1.011   2.364  16.564  0.3951 -0.4132  1.0468
  212MPD1    N1 3283   1.161   2.879  16.374 -0.3608 -1.0140 -0.6883
  212MPD1    H6 3284   1.137   2.928  16.460 -0.9604 -3.2488  0.4138
  212MPD1    H7 3285   1.243   2.925  16.334 -1.4119  1.3608 -0.1094
  213MPD1     C 3286   3.721   3.594  16.327 -0.5467 -0.0488 -0.0415
  213MPD1    C1 3287   3.732   3.460  16.276 -0.3462  0.0942 -0.0558
  213MPD1    C2 3288   3.677   3.455  16.145  0.1734 -0.1104 -0.4269
  213MPD1    C3 3289   3.664   3.566  16.056  0.9780 -0.4436  0.0903
  213MPD1    C4 3290   3.694   3.687  16.108  0.3092 -0.0548  0.1771
  213MPD1    C5 3291   3.707   3.702  16.241 -0.9915  0.1063  0.1515
  213MPD1     H 3292   3.652   3.355  16.113  2.1527 -0.8250  0.3016
  213MPD1    H1 3293   3.680   3.778  16.052  0.9066 -0.6699 -0.9734
  213MPD1    H2 3294   3.752   3.605  16.430 -1.9227 -0.8053  0.4605
  213MPD1    H3 3295   3.727   3.799  16.285 -0.6545  1.0153 -1.9625
  213MPD1     N 3296   3.625   3.552  15.921 -0.0764 -0.1475 -0.0271
  213MPD1    H5 3297   3.607   3.455  15.896 -1.8604  0.0458  0.5231
  213MPD1    N1 3298   3.717   3.348  16.364 -0.1964  0.3841 -0.4951
  213MPD1    H6 3299   3.736   3.261  16.314  0.0591  0.5551 -0.7009
  213MPD1    H7 3300   3.758   3.352  16.457 -2.2311 -0.4223  0.4315
  214MPD1     C 3301   3.355   2.785  15.668 -0.2649 -0.1796  0.0883
  214MPD1    C1 3302   3.406   2.832  15.542 -0.0425 -0.3087  0.0832
  214MPD1    C2 3303   3.441   2.970  15.536  0.1536 -0.2538  0.2963
  214MPD1    C3 3304   3.414   3.056  15.639 -0.0920 -0.2185 -0.1491
  214MPD1    C4 3305   3.347   3.009  15.752 -0.1204 -0.5472 -0.2617
  214MPD1    C5 3306   3.318   2.880  15.763  0.2307  0.6766 -0.2333
  214MPD1     H 3307   3.486   3.001  15.442  1.6444  2.2565  1.8455
  214MPD1    H1 3308   3.314   3.072  15.834 -0.0787  2.1349 -2.2967
  214MPD1    H2 3309   3.325   2.682  15.687  1.4956  0.2892  5.4888
  214MPD1    H3 3310   3.258   2.847  15.846  0.8140 -1.3658 -0.6253
  214MPD1     N 3311   3.438   3.199  15.645 -0.1306  0.1792  0.3562
  214MPD1    H5 3312   3.415   3.242  15.734 -0.9951 -1.9162  1.1401
  214MPD1    N1 3313   3.441   2.744  15.443  0.5579 -0.4366  0.5817
  214MPD1    H6 3314   3.385   2.659  15.448  0.0953 -0.2105 -1.0221
  214MPD1    H7 3315   3.431   2.782  15.350 -0.4567  0.0604  0.8947
  215MPD1     C 3316   3.888   3.706  11.430  0.0743 -0.5597 -0.0594
  215MPD1    C1 3317   3.868   3.746  11.559  0.0885 -0.4078  0.5057
  215MPD1    C2 3318   3.850   3.881  11.586  0.5438 -0.2308  0.0888
  215MPD1    C3 3319   3.868   3.977  11.486  0.6966  0.3754 -0.1141
  215MPD1    C4 3320   3.876   3.934  11.354 -0.2009 -0.2466  0.7130
  215MPD1    C5 3321   3.892   3.797  11.330  0.5680 -0.3053 -0.6438
  215MPD1     H 3322   3.833   3.912  11.689  0.4103  3.7964 -1.1486
  215MPD1    H1 3323   3.889   4.005  11.273  0.9567  0.2757  1.3525
  215MPD1    H2 3324   3.883   3.600  11.404 -1.2405 -0.4709 -0.1886
  215MPD1    H3 3325   3.900   3.761  11.228  0.4692  0.0831 -0.7882
  215MPD1     N 3326   3.854   4.116  11.518  0.2303 -0.3810 -0.0137
  215MPD1    H5 3327   3.852   4.144  11.616  0.4208  1.5346 -0.5599
  215MPD1    N1 3328   3.842   3.648  11.651 -0.0052  0.3521  0.6442
  215MPD1    H6 3329   3.897   3.567  11.624 -2.5332 -0.3716 -2.2760
  215MPD1    H7 3330   3.866   3.685  11.743  0.2247 -2.4666  1.7092
  216MPD1     C 3331   1.138   2.133  16.678  0.1738  0.2903  0.3365
  216MPD1    C1 3332   1.060   2.019  16.658 -0.1236 -0.1038  0.6968
  216MPD1    C2 3333   1.021   1.945  16.772 -0.2591  0.2447  0.0325
  216MPD1    C3 3334   1.036   1.999  16.899  1.0138  0.5687  0.0910
  216MPD1    C4 3335   1.095   2.122  16.911  0.5645 -0.2414 -0.0926
  216MPD1    C5 3336   1.150   2.185  16.805 -0.8769 -0.0536  0.1811
  216MPD1     H 3337   0.970   1.850  16.760 -2.7449  1.4046  1.3959
  216MPD1    H1 3338   1.121   2.173  17.003  0.4320 -0.7746  0.2432
  216MPD1    H2 3339   1.177   2.192  16.595 -0.5752 -0.7799 -0.7828
  216MPD1    H3 3340   1.190   2.286  16.810 -0.3970 -0.1288 -2.0414
  216MPD1     N 3341   0.990   1.916  17.006 -0.5850  0.2943  0.9917
  216MPD1    H5 3342   0.944   1.833  16.971 -0.7668  0.6348  0.4183
  216MPD1    N1 3343   1.067   1.959  16.538 -0.1626  0.2096  0.6863
  216MPD1    H6 3344   0.984   1.900  16.526  1.3160 -1.4980 -1.1452
  216MPD1    H7 3345   1.067   2.024  16.460  1.7685  1.2027  1.5412
  217MPD1     C 3346   2.890   3.523   8.424 -0.4715 -0.4289  0.2559
  217MPD1    C1 3347   2.879   3.652   8.482  0.7525  0.1701 -0.1349
  217MPD1    C2 3348   2.826   3.656   8.608  0.6600 -0.2284 -0.0375
  217MPD1    C3 3349   2.805   3.539   8.682 -0.2075 -0.0125 -0.7593
  217MPD1    C4 3350   2.840   3.417   8.624 -0.0835  0.7011  0.1909
  217MPD1    C5 3351   2.866   3.411   8.493 -0.7415 -0.3757  0.1094
  217MPD1     H 3352   2.802   3.756   8.643 -0.4827 -0.2874 -0.6446
  217MPD1    H1 3353   2.828   3.321   8.673 -2.6620  1.1370  0.3948
  217MPD1    H2 3354   2.900   3.508   8.317  1.6055 -1.0886  0.5538
  217MPD1    H3 3355   2.874   3.314   8.445 -0.8343 -0.2188 -0.2237
  217MPD1     N 3356   2.763   3.547   8.819 -0.2007  0.3336  0.3837
  217MPD1    H5 3357   2.733   3.461   8.862  0.2098  0.2133  0.4315
  217MPD1    N1 3358   2.907   3.772   8.411  0.1677 -0.2069 -0.0445
  217MPD1    H6 3359   2.946   3.844   8.472  0.0497  1.1150 -1.5292
  217MPD1    H7 3360   2.974   3.760   8.334  1.1552 -0.8434  0.9088
  218MPD1     C 3361   3.131   0.341  12.944  1.2127  0.0111  0.3589
  218MPD1    C1 3362   3.140   0.212  12.973  0.5331  0.3972  0.5219
  218MPD1    C2 3363   3.255   0.145  12.925  0.0229 -0.2349 -0.0635
  218MPD1    C3 3364   3.347   0.214  12.847 -0.2302  0.4430 -0.0099
  218MPD1    C4 3365   3.336   0.350  12.827  0.5376  0.0809  0.2783
  218MPD1    C5 3366   3.223   0.406  12.870 -1.0489  0.0618 -0.0308
  218MPD1     H 3367   3.273   0.040  12.942  3.1281  0.2532 -0.2840
  218MPD1    H1 3368   3.411   0.409  12.775  0.4185  0.1175  0.1502
  218MPD1    H2 3369   3.044   0.401  12.971  1.1871  0.1530 -0.0480
  218MPD1    H3 3370   3.212   0.512  12.848 -0.3359 -0.2059 -1.6860
  218MPD1     N 3371   3.465   0.143  12.816  0.8133 -0.2335 -0.2190
  218MPD1    H5 3372   3.468   0.054  12.864 -2.0184  0.3482  1.0415
  218MPD1    N1 3373   3.047   0.143  13.053  0.0348 -0.4821  0.8213
  218MPD1    H6 3374   2.955   0.186  13.053 -0.1916 -0.9650  1.3745
  218MPD1    H7 3375   3.043   0.047  13.021 -0.2762 -0.0106 -0.5679
  219MPD1     C 3376   4.538   0.164  12.612 -0.3519 -0.6760  0.2504
  219MPD1    C1 3377   4.440   0.238  12.551 -0.0378 -0.5537  0.6185
  219MPD1    C2 3378   4.310   0.188  12.565  0.0324  0.7597 -1.0219
  219MPD1    C3 3379   4.277   0.095  12.658  0.0781  0.2075 -0.0589
  219MPD1    C4 3380   4.382   0.041  12.731  0.5107  0.3367  0.0585
  219MPD1    C5 3381   4.507   0.074  12.705 -0.3374  0.2897  0.1529
  219MPD1     H 3382   4.241   0.232  12.494 -0.6674 -0.9345 -1.3955
  219MPD1    H1 3383   4.370   4.705  12.812  1.4755 -2.9619 -2.7137
  219MPD1    H2 3384   4.643   0.175  12.586 -0.2231  0.6763  1.3510
  219MPD1    H3 3385   4.582   0.012  12.753  0.3314  1.1845  0.2662
  219MPD1     N 3386   4.143   0.056  12.688 -0.5136  0.4985 -0.0390
  219MPD1    H5 3387   4.121   4.724  12.760  0.7273 -0.5366 -0.6363
  219MPD1    N1 3388   4.479   0.327  12.446  0.4946 -0.0621  0.1367
  219MPD1    H6 3389   4.566   0.373  12.468  1.1660 -0.3385 -1.9644
  219MPD1    H7 3390   4.411   0.400  12.425  1.5016  1.4649  2.2052
  220MPD1     C 3391   3.351   0.794  10.145  0.7439  0.0312 -0.4849
  220MPD1    C1 3392   3.302   0.667  10.107 -0.4416  0.7241  0.6216
  220MPD1    C2 3393   3.370   0.562  10.162  0.2072  0.1890 -0.0151
  220MPD1    C3 3394   3.467   0.572  10.263 -0.4993 -0.4858 -0.2391
  220MPD1    C4 3395   3.505   0.697  10.302  0.2427  0.0230 -0.0559
  220MPD1    C5 3396   3.456   0.804  10.242  0.0683  0.1900  0.1509
  220MPD1     H 3397   3.349   0.459  10.133  0.0798  0.4216 -0.7349
  220MPD1    H1 3398   3.580   0.713  10.379 -1.1811 -1.2256  1.5885
  220MPD1    H2 3399   3.291   0.877  10.112 -0.5610  0.5746  3.2125
  220MPD1    H3 3400   3.504   0.897  10.269  0.9934 -0.1654 -0.2768
  220MPD1     N 3401   3.516   0.462  10.334  0.9790 -0.4525  0.0928
  220MPD1    H5 3402   3.469   0.376  10.307  0.1603 -0.1725  0.6216
  220MPD1    N1 3403   3.211   0.648  10.002  0.1180  0.2975  0.3815
  220MPD1    H6 3404   3.139   0.718  10.017 -0.7970 -0.4092 -0.6718
  220MPD1    H7 3405   3.174   0.555   9.981  0.6274 -0.5952  3.4445
  221MPD1     C 3406   1.335   0.092  15.126 -0.0859  0.3764 -0.1741
  221MPD1    C1 3407   1.359   4.691  15.113  0.1370  1.0083 -0.5058
  221MPD1    C2 3408   1.383   4.618  15.223 -0.3930 -0.7148 -0.0170
  221MPD1    C3 3409   1.361   4.671  15.347 -0.3897 -0.4340  0.0655
  221MPD1    C4 3410   1.324   0.064  15.357 -0.4607 -0.0377 -0.5909
  221MPD1    C5 3411   1.314   0.145  15.255  0.0086 -0.2398 -0.9602
  221MPD1     H 3412   1.419   4.516  15.216 -0.5134 -0.8178  0.8278
  221MPD1    H1 3413   1.285   0.095  15.453  1.7426 -2.3257  1.0704
  221MPD1    H2 3414   1.337   0.151  15.035 -2.5643  1.0025  0.1698
  221MPD1    H3 3415   1.277   0.246  15.267 -0.7189 -0.6802  0.4840
  221MPD1     N 3416   1.389   4.597  15.463  0.1900  0.8478 -0.6010
  221MPD1    H5 3417   1.388   4.647  15.551  0.4094  2.0488 -1.2676
  221MPD1    N1 3418   1.365   4.645  14.977  0.2698  0.1662 -0.2169
  221MPD1    H6 3419   1.280   4.681  14.935 -0.0121 -0.6542 -0.3365
  221MPD1    H7 3420   1.367   4.544  14.987 -1.0349 -0.0250 -1.8542
  222MPD1     C 3421   1.007   2.637  17.122  0.3005  0.0197  0.7687
  222MPD1    C1 3422   0.978   2.771  17.135 -0.5983  0.8191  0.3839
  222MPD1    C2 3423   0.886   2.807  17.224  0.5278 -0.4338  0.3709
  222MPD1    C3 3424   0.833   2.719  17.316  0.4400  0.0121  0.1748
  222MPD1    C4 3425   0.863   2.588  17.298  0.1754 -0.3682 -0.0498
  222MPD1    C5 3426   0.955   2.543  17.206 -0.2822 -0.0096  0.2619
  222MPD1     H 3427   0.850   2.908  17.238 -1.8885 -1.3451  0.6480
  222MPD1    H1 3428   0.828   2.513  17.369 -0.1809  0.3610  0.5382
  222MPD1    H2 3429   1.097   2.610  17.067  0.8028  0.3046  1.4497
  222MPD1    H3 3430   0.989   2.440  17.205  1.0231  0.4076  1.3745
  222MPD1     N 3431   0.754   2.747  17.430  0.1847 -0.0932  0.3199
  222MPD1    H5 3432   0.706   2.670  17.475  0.5211 -0.4899  0.0050
  222MPD1    N1 3433   1.025   2.872  17.045  0.0494  0.2602 -0.3798
  222MPD1    H6 3434   1.109   2.840  16.997  1.1331  1.3676  0.7983
  222MPD1    H7 3435   1.018   2.968  17.076  0.9611 -0.2749  1.5044
  223MPD1     C 3436   0.565   2.463   0.613  0.1844  0.6291  0.2981
  223MPD1    C1 3437   0.520   2.594   0.612  0.4024  0.0543 -1.0511
  223MPD1    C2 3438   0.521   2.659   0.489 -0.2276  0.1235 -0.1255
  223MPD1    C3 3439   0.577   2.598   0.377 -0.3600 -0.2045 -0.1827
  223MPD1    C4 3440   0.625   2.471   0.385  0.4775 -0.3677  0.3371
  223MPD1    C5 3441   0.612   2.404   0.504  0.2224  0.6670 -0.4737
  223MPD1     H 3442   0.479   2.760   0.487  1.4733  0.8363  0.0732
  223MPD1    H1 3443   0.643   2.420   0.291 -2.6937 -0.4121 -0.2470
  223MPD1    H2 3444   0.562   2.404   0.703  0.2350 -0.6180 -0.5169
  223MPD1    H3 3445   0.649   2.302   0.508 -0.5011  0.4248 -0.0334
  223MPD1     N 3446   0.563   2.668   0.257  0.1986  0.0709 -0.1719
  223MPD1    H5 3447   0.518   2.759   0.264 -0.8137 -0.4065 -0.4679
  223MPD1    N1 3448   0.452   2.659   0.717 -0.1559 -0.0938 -0.7045
  223MPD1    H6 3449   0.448   2.759   0.701  3.9453  0.1874  0.1411
  223MPD1    H7 3450   0.480   2.632   0.811 -1.9995  0.2839 -0.0455
  224MPD1     C 3451   2.314   3.344   9.466  0.3437 -0.3818  0.5356
  224MPD1    C1 3452   2.251   3.463   9.462 -0.7537  0.2669  0.1763
  224MPD1    C2 3453   2.269   3.554   9.564  0.4981 -0.7025  0.5136
  224MPD1    C3 3454   2.362   3.525   9.663  0.1977 -0.3720 -0.0167
  224MPD1    C4 3455   2.437   3.413   9.660  0.1720  0.1270 -0.6199
  224MPD1    C5 3456   2.414   3.323   9.557 -0.4038 -0.1862 -0.0332
  224MPD1     H 3457   2.212   3.646   9.570  0.3791 -0.7998  0.8323
  224MPD1    H1 3458   2.510   3.390   9.737 -0.6133  1.2381  0.4500
  224MPD1    H2 3459   2.284   3.259   9.405 -0.3253  1.2026 -1.3578
  224MPD1    H3 3460   2.475   3.235   9.540  0.0979  0.1930 -0.1812
  224MPD1     N 3461   2.394   3.613   9.768  0.3789  0.5506 -0.6817
  224MPD1    H5 3462   2.470   3.586   9.830  0.8037  0.5246 -1.2161
  224MPD1    N1 3463   2.143   3.480   9.372 -0.4257 -0.9141 -0.0606
  224MPD1    H6 3464   2.157   3.428   9.286  1.5495  0.4696 -0.5640
  224MPD1    H7 3465   2.124   3.575   9.341 -1.8089 -1.1260  0.1474
  225MPD1     C 3466   3.763   0.728  11.842 -0.1940 -0.7491  0.4144
  225MPD1    C1 3467   3.686   0.649  11.760  0.1902 -0.2711  0.4043
  225MPD1    C2 3468   3.580   0.576  11.812 -0.1004 -0.1479  0.1609
  225MPD1    C3 3469   3.557   0.570  11.948  0.6526  0.0826 -0.2285
  225MPD1    C4 3470   3.640   0.641  12.022  0.7830 -0.3240 -0.4908
  225MPD1    C5 3471   3.741   0.716  11.974  0.2039  1.1197 -0.7613
  225MPD1     H 3472   3.526   0.530  11.731 -2.1143 -0.3988  1.6511
  225MPD1    H1 3473   3.620   0.638  12.129 -0.2564  1.7894 -0.6350
  225MPD1    H2 3474   3.832   0.803  11.805 -2.1656  0.5313 -0.6304
  225MPD1    H3 3475   3.798   0.783  12.037  0.0695  0.2224  0.3161
  225MPD1     N 3476   3.445   0.506  12.008  0.8009 -0.0516  0.0718
  225MPD1    H5 3477   3.438   0.524  12.108  3.1422  2.4079 -0.2169
  225MPD1    N1 3478   3.702   0.650  11.624  0.3667  0.3464  0.0149
  225MPD1    H6 3479   3.800   0.671  11.606  0.9492 -0.6039  2.1629
  225MPD1    H7 3480   3.676   0.566  11.571  2.7433 -0.3568 -0.0308
  226MPD1     C 3481   0.173   0.003   9.666 -0.3929 -0.1145 -0.3656
  226MPD1    C1 3482   0.242   4.667   9.767 -0.0284 -0.2586 -0.2303
  226MPD1    C2 3483   0.378   4.677   9.775  0.2798 -0.4802 -0.1907
  226MPD1    C3 3484   0.449   0.002   9.670 -0.0550  0.4954 -0.1296
  226MPD1    C4 3485   0.380   0.069   9.572 -0.0594  0.1313 -0.5385
  226MPD1    C5 3486   0.240   0.064   9.565  0.0338 -0.7680 -0.0788
  226MPD1     H 3487   0.439   4.634   9.854  0.6246  1.7673  0.7632
  226MPD1    H1 3488   0.432   0.126   9.496 -0.4755  1.5881  0.2575
  226MPD1    H2 3489   0.065   0.003   9.653 -0.4769 -0.3461  0.3683
  226MPD1    H3 3490   0.185   0.102   9.480  0.8669 -1.3204 -0.8646
  226MPD1     N 3491   0.590   4.716   9.673  0.6337 -0.0972 -0.1722
  226MPD1    H5 3492   0.625   4.663   9.752  0.6601 -0.8609 -0.6972
  226MPD1    N1 3493   0.165   4.602   9.861  0.2365 -0.0689  0.3903
  226MPD1    H6 3494   0.067   4.585   9.841  0.2781  0.0196  0.1176
  226MPD1    H7 3495   0.208   4.524   9.910  1.3970 -0.1420 -0.7395
  227MPD1     C 3496   0.823   3.922   9.865  0.1139  0.8472 -0.4913
  227MPD1    C1 3497   0.703   3.993   9.849  0.0736 -0.8532 -0.1342
  227MPD1    C2 3498   0.713   4.132   9.813 -0.4696  1.1485 -0.0529
  227MPD1    C3 3499   0.841   4.188   9.789 -0.1634 -0.5477 -1.0915
  227MPD1    C4 3500   0.954   4.105   9.810  0.0183 -0.2698  0.1879
  227MPD1    C5 3501   0.942   3.970   9.829  0.0513  0.0542 -0.3768
  227MPD1     H 3502   0.626   4.194   9.797 -2.1398 -1.1568  0.1233
  227MPD1    H1 3503   1.056   4.137   9.798 -0.4104  0.7823 -0.6187
  227MPD1    H2 3504   0.825   3.815   9.880  0.9377  1.0297  0.7328
  227MPD1    H3 3505   1.035   3.915   9.837 -0.0197 -0.0646 -0.3763
  227MPD1     N 3506   0.842   4.324   9.753 -0.1879 -0.3547  0.9749
  227MPD1    H5 3507   0.756   4.371   9.723  0.6288 -0.2937 -1.2899
  227MPD1    N1 3508   0.583   3.928   9.884 -0.3195  0.1458 -0.0286
  227MPD1    H6 3509   0.588   3.829   9.859  3.5263 -0.0141  1.4357
  227MPD1    H7 3510   0.507   3.968   9.829 -0.2520  2.0386  1.2507
  228MPD1     C 3511   0.491   3.059  13.421 -0.0385  0.0397  0.4486
  228MPD1    C1 3512   0.413   3.115  13.520 -0.1690 -0.2509 -0.3235
  228MPD1    C2 3513   0.280   3.095  13.515  0.5578 -0.5647  0.1782
  228MPD1    C3 3514   0.215   3.034  13.415  0.2634  0.2462 -0.0080
  228MPD1    C4 3515   0.291   2.991  13.305 -0.4019  0.0126 -0.0774
  228MPD1    C5 3516   0.427   3.005  13.309 -0.1991  0.3279  0.8711
  228MPD1     H 3517   0.220   3.140  13.593 -0.6449 -0.6399 -0.7082
  228MPD1    H1 3518   0.253   2.950  13.212 -1.9847 -0.6734  0.8631
  228MPD1    H2 3519   0.599   3.057  13.423 -0.0047 -0.3294 -1.9629
  228MPD1    H3 3520   0.494   2.967  13.232  0.1165 -0.5236  1.5822
  228MPD1     N 3521   0.080   3.036  13.418  0.0786 -0.1326 -0.6514
  228MPD1    H5 3522   0.036   3.094  13.490  0.7559  0.8241 -1.0124
  228MPD1    N1 3523   0.473   3.174  13.637 -0.0984  0.3657 -0.1296
  228MPD1    H6 3524   0.568   3.207  13.625 -0.4000  0.7978 -1.2703
  228MPD1    H7 3525   0.412   3.231  13.696  1.2554  0.3617  1.2715
  229MPD1     C 3526   4.378   2.167  15.088  0.0045  0.0934  0.1772
  229MPD1    C1 3527   4.331   2.039  15.080  1.1736 -0.5371 -0.7303
  229MPD1    C2 3528   4.401   1.945  15.010  0.0075 -0.2856  0.2002
  229MPD1    C3 3529   4.499   1.985  14.918 -0.0736  0.4058  0.5193
  229MPD1    C4 3530   4.528   2.119  14.905  0.2352  0.4151 -0.3824
  229MPD1    C5 3531   4.466   2.205  14.988  0.2420 -0.7650 -0.2819
  229MPD1     H 3532   4.374   1.840  15.017 -0.5734 -0.1302  0.2417
  229MPD1    H1 3533   4.613   2.145  14.844  1.4578 -0.7524  0.8106
  229MPD1    H2 3534   4.337   2.245  15.151 -0.4219  0.7727 -0.9410
  229MPD1    H3 3535   4.496   2.309  14.993 -1.1059 -0.5174  2.5757
  229MPD1     N 3536   4.578   1.900  14.840 -0.0811 -0.3806 -0.3647
  229MPD1    H5 3537   4.623   1.939  14.758  0.7795  0.4350  0.5057
  229MPD1    N1 3538   4.228   1.995  15.168  0.1176  0.2366 -0.2576
  229MPD1    H6 3539   4.181   1.908  15.146 -0.4204  0.3588  0.4406
  229MPD1    H7 3540   4.157   2.067  15.177  0.7423  0.8995 -0.5531
  230MPD1     C 3541   4.617   0.886  14.866 -0.6159 -1.1031 -0.0362
  230MPD1    C1 3542   4.614   0.972  14.969  0.1448 -0.0350  0.1984
  230MPD1    C2 3543   4.629   1.108  14.946  0.2173 -0.1544 -0.1012
  230MPD1    C3 3544   4.663   1.153  14.822 -0.6538  0.3222 -0.1261
  230MPD1    C4 3545   4.675   1.065  14.713  0.7610 -0.2229 -0.0209
  230MPD1    C5 3546   4.652   0.932  14.739 -0.5569  0.3221  0.7728
  230MPD1     H 3547   4.628   1.179  15.028  0.0990  0.7984 -0.9247
  230MPD1    H1 3548   4.685   1.093  14.608  0.9313 -1.0856 -0.2349
  230MPD1    H2 3549   4.607   0.780  14.886 -1.9783 -0.6559  1.7222
  230MPD1    H3 3550   4.664   0.868  14.653  0.5482  1.9474 -0.2996
  230MPD1     N 3551   4.682   1.297  14.800  0.1598  0.1096 -0.4764
  230MPD1    H5 3552   4.660   1.362  14.875  2.0734  0.7801 -0.4946
  230MPD1    N1 3553   4.573   0.922  15.098  0.7942 -0.5043 -0.0312
  230MPD1    H6 3554   4.597   0.824  15.110 -2.0107 -1.5718 -3.3147
  230MPD1    H7 3555   4.616   0.963  15.181  3.1421 -2.0496 -0.4755
  231MPD1     C 3556   2.394   3.996  15.921  0.3213 -0.3383  0.7985
  231MPD1    C1 3557   2.458   4.078  15.835 -0.2205 -0.4334 -0.0378
  231MPD1    C2 3558   2.586   4.046  15.792  0.4422 -0.4346 -0.7190
  231MPD1    C3 3559   2.643   3.928  15.838 -0.5710 -0.3255  0.1498
  231MPD1    C4 3560   2.572   3.843  15.919  0.4432  0.1472  0.2281
  231MPD1    C5 3561   2.445   3.879  15.968 -0.3590 -0.3737 -0.1924
  231MPD1     H 3562   2.640   4.115  15.729 -0.6101 -0.0251 -1.1602
  231MPD1    H1 3563   2.611   3.751  15.963  1.5309  0.8009  0.6290
  231MPD1    H2 3564   2.298   4.021  15.964  1.0601  1.1054  1.6228
  231MPD1    H3 3565   2.380   3.827  16.038 -0.0733 -1.8157 -1.0069
  231MPD1     N 3566   2.782   3.903  15.801 -0.1450  0.2377 -0.7632
  231MPD1    H5 3567   2.830   3.979  15.755  1.1465  0.8818  1.6696
  231MPD1    N1 3568   2.389   4.197  15.799  0.5724 -0.2946 -0.9055
  231MPD1    H6 3569   2.297   4.196  15.843  0.8328 -0.5779 -0.3681
  231MPD1    H7 3570   2.438   4.269  15.851  1.0164 -1.2288 -0.0226
  232MPD1     C 3571   0.244   0.886   0.315 -0.4209  0.2825  0.5267
  232MPD1    C1 3572   0.164   0.975   0.252  0.4233 -0.4711 -0.1540
  232MPD1    C2 3573   0.026   0.946   0.250  0.5473  0.3635 -0.5487
  232MPD1    C3 3574   4.708   0.837   0.322 -0.4743 -0.2852 -0.1956
  232MPD1    C4 3575   0.055   0.746   0.386  0.1576  0.4414 -0.3265
  232MPD1    C5 3576   0.186   0.781   0.387 -0.0241 -0.6321  0.4341
  232MPD1     H 3577   4.693   1.016   0.203  0.4705  1.1054  0.6753
  232MPD1    H1 3578   0.016   0.658   0.435  2.2908  1.8827  3.9494
  232MPD1    H2 3579   0.352   0.893   0.317 -0.4644  0.4887  2.0616
  232MPD1    H3 3580   0.256   0.716   0.439 -0.4037 -0.6795  0.8903
  232MPD1     N 3581   4.574   0.811   0.303 -0.3684  0.3797 -0.9283
  232MPD1    H5 3582   4.533   0.861   0.224  1.5400 -0.3592 -2.3786
  232MPD1    N1 3583   0.211   1.082   0.179 -0.1858  0.1180  0.8514
  232MPD1    H6 3584   0.143   1.158   0.175  1.5551  1.5651 -0.9115
  232MPD1    H7 3585   0.298   1.118   0.217  0.8752 -0.6326 -0.8592
  233MPD1     C 3586   1.088   4.564   1.657 -0.0281  0.2076 -0.3086
  233MPD1    C1 3587   1.068   4.456   1.738  0.2808  0.2054  0.2230
  233MPD1    C2 3588   1.161   4.348   1.723 -0.4097  0.0985 -0.0062
  233MPD1    C3 3589   1.265   4.365   1.641  0.6742  0.5876  0.1342
  233MPD1    C4 3590   1.283   4.481   1.562 -0.2098 -0.2004 -0.0753
  233MPD1    C5 3591   1.195   4.580   1.572 -1.3243  0.0766 -0.4619
  233MPD1     H 3592   1.142   4.257   1.779 -0.5398 -0.2312 -0.5917
  233MPD1    H1 3593   1.355   4.481   1.482  0.3979  1.6741  0.4790
  233MPD1    H2 3594   1.011   4.640   1.663 -0.8413 -0.7498  1.2602
  233MPD1    H3 3595   1.191   4.666   1.506 -0.0767 -0.5598 -1.3814
  233MPD1     N 3596   1.359   4.265   1.617  0.3132  0.4176 -0.2969
  233MPD1    H5 3597   1.427   4.282   1.543  0.2066  3.4491  0.2989
  233MPD1    N1 3598   0.943   4.438   1.802 -0.1829  0.6380 -0.4437
  233MPD1    H6 3599   0.944   4.368   1.876  0.1284  1.0373 -0.0713
  233MPD1    H7 3600   0.894   4.524   1.823 -1.3721 -0.5149  1.4964
  234MPD1     C 3601   3.145   2.230  10.195  0.3795 -0.3771  0.3878
  234MPD1    C1 3602   3.133   2.326  10.292 -0.2568  0.0107 -0.1476
  234MPD1    C2 3603   3.119   2.460  10.247 -0.2348 -0.2182  0.0401
  234MPD1    C3 3604   3.102   2.488  10.114  0.5829  0.0088  0.6052
  234MPD1    C4 3605   3.090   2.385  10.021 -0.1773 -0.0611 -0.9083
  234MPD1    C5 3606   3.108   2.257  10.064 -0.6725  0.1837 -0.0091
  234MPD1     H 3607   3.119   2.534  10.327 -1.0999 -1.0754  0.8310
  234MPD1    H1 3608   3.055   2.393   9.919 -0.5379  0.6092 -0.7343
  234MPD1    H2 3609   3.144   2.125  10.222  0.7645  0.4050  3.4196
  234MPD1    H3 3610   3.093   2.167  10.005  0.6862  0.4485 -0.7690
  234MPD1     N 3611   3.075   2.630  10.078 -0.0329 -0.6003 -0.1568
  234MPD1    H5 3612   3.086   2.698  10.153 -1.5406  0.4883 -0.9338
  234MPD1    N1 3613   3.152   2.287  10.423 -0.4955  0.7510  0.2120
  234MPD1    H6 3614   3.093   2.335  10.491 -1.1550  1.9017 -1.1653
  234MPD1    H7 3615   3.132   2.189  10.438  0.3163  0.3207 -1.4924
  235MPD1     C 3616   3.718   0.831  10.024  0.2940 -0.1585 -0.2513
  235MPD1    C1 3617   3.763   0.850   9.895  0.4501  0.4151  0.2674
  235MPD1    C2 3618   3.891   0.906   9.876  0.8903 -0.3427 -0.2536
  235MPD1    C3 3619   3.960   0.961   9.979 -0.0547 -0.7152 -0.2570
  235MPD1    C4 3620   3.905   0.951  10.105  0.1241  0.3096  0.9077
  235MPD1    C5 3621   3.792   0.880  10.126 -0.3442 -0.5031 -0.2891
  235MPD1     H 3622   3.941   0.903   9.780  1.8539 -1.3603  0.2807
  235MPD1    H1 3623   3.962   0.987  10.190 -0.5800  2.5897  0.3973
  235MPD1    H2 3624   3.624   0.778  10.036  0.6425 -1.4646 -3.2498
  235MPD1    H3 3625   3.763   0.858  10.228  0.6676 -0.4356  0.0147
  235MPD1     N 3626   4.083   1.039   9.950 -0.0067  0.0910  0.1025
  235MPD1    H5 3627   4.109   1.046   9.852  1.3585  1.4461  0.5577
  235MPD1    N1 3628   3.695   0.786   9.790 -0.3971 -0.3310  0.1895
  235MPD1    H6 3629   3.711   0.836   9.703  0.9378 -0.5251  0.3197
  235MPD1    H7 3630   3.599   0.761   9.812 -0.1125 -1.4712  0.1467
  236MPD1     C 3631   3.377   2.938   9.832  0.6192 -0.1238  0.1304
  236MPD1    C1 3632   3.408   2.823   9.761  0.1459 -0.2818  0.2504
  236MPD1    C2 3633   3.427   2.704   9.829 -0.6116  0.1067  0.8639
  236MPD1    C3 3634   3.423   2.700   9.970 -0.4635  0.2028 -1.2076
  236MPD1    C4 3635   3.416   2.815  10.035  0.0444  0.2703 -0.3391
  236MPD1    C5 3636   3.383   2.932   9.970 -0.2259  0.1951 -0.4660
  236MPD1     H 3637   3.447   2.620   9.763 -0.0479 -1.5395  3.1141
  236MPD1    H1 3638   3.418   2.808  10.143  0.5128  0.6353 -0.3289
  236MPD1    H2 3639   3.343   3.028   9.782  3.6510  0.5523 -0.6973
  236MPD1    H3 3640   3.357   3.022  10.025 -0.5176 -0.3258  0.2405
  236MPD1     N 3641   3.442   2.583  10.047 -0.5048 -0.3086 -0.0279
  236MPD1    H5 3642   3.467   2.604  10.143 -1.5421  0.8266 -0.0025
  236MPD1    N1 3643   3.409   2.823   9.618 -0.3200 -0.5333 -0.0426
  236MPD1    H6 3644   3.429   2.730   9.582  1.8106 -0.5278  1.1313
  236MPD1    H7 3645   3.319   2.861   9.587 -0.2462  0.0970  0.5338
  237MPD1     C 3646   3.532   4.719  15.508  0.0108 -0.4818  0.2354
  237MPD1    C1 3647   3.514   0.011  15.377 -0.2851 -0.1560  0.0169
  237MPD1    C2 3648   3.410   0.096  15.344  0.1563 -0.5744 -0.1001
  237MPD1    C3 3649   3.311   0.132  15.433 -0.2557 -0.4049  0.6243
  237MPD1    C4 3650   3.326   0.097  15.560  0.0171  0.5282  0.1205
  237MPD1    C5 3651   3.446   0.036  15.600 -0.6331  0.2793 -0.1042
  237MPD1     H 3652   3.397   0.125  15.240  1.6877 -0.4850 -0.2651
  237MPD1    H1 3653   3.258   0.119  15.642  0.8755 -0.1724  1.0305
  237MPD1    H2 3654   3.608   4.656  15.553 -0.1637  0.9907  2.6155
  237MPD1    H3 3655   3.470   0.011  15.703 -1.0425 -0.0122 -0.0786
  237MPD1     N 3656   3.206   0.213  15.403 -0.6560 -0.0252  0.5956
  237MPD1    H5 3657   3.147   0.230  15.484 -1.7113 -0.5709 -0.0645
  237MPD1    N1 3658   3.621   4.713  15.287  0.4299  0.6559  0.1714
  237MPD1    H6 3659   3.572   4.695  15.199  1.0841 -2.7636  0.5273
  237MPD1    H7 3660   3.647   4.622  15.324  3.7408  1.1720 -0.8631
  238MPD1     C 3661   4.637   4.052  15.894 -0.7004  0.0992  0.3547
  238MPD1    C1 3662   4.697   4.068  15.771  0.6040  0.0961 -0.0741
  238MPD1    C2 3663   4.645   4.021  15.658  0.4967  0.4020  0.1716
  238MPD1    C3 3664   4.533   3.937  15.667 -0.0939  0.3754  0.4633
  238MPD1    C4 3665   4.474   3.921  15.788  0.1000 -0.0600  0.3398
  238MPD1    C5 3666   4.527   3.970  15.897 -0.7431 -0.1563  0.0197
  238MPD1     H 3667   4.694   4.041  15.563  0.6337 -1.0890 -0.0683
  238MPD1    H1 3668   4.385   3.860  15.790  0.8036 -1.0392  1.4541
  238MPD1    H2 3669   4.668   4.103  15.985  0.1391  2.3500 -1.1808
  238MPD1    H3 3670   4.462   3.960  15.984 -1.8082 -1.2367 -0.8844
  238MPD1     N 3671   4.491   3.856  15.561 -0.3865  0.6429 -0.4518
  238MPD1    H5 3672   4.412   3.795  15.578 -1.0992  0.9764 -2.5324
  238MPD1    N1 3673   0.075   4.149  15.762 -0.0051 -0.4373  0.1631
  238MPD1    H6 3674   0.131   4.120  15.683  0.3504 -1.0511  0.6403
  238MPD1    H7 3675   0.137   4.134  15.841  2.5468 -0.6032 -1.8841
  239MPD1     C 3676   0.944   0.137  15.174 -0.6818 -0.4272  0.4560
  239MPD1    C1 3677   0.821   0.178  15.221 -0.6491  0.1573 -0.0128
  239MPD1    C2 3678   0.716   0.143  15.148 -0.1867  0.5422 -0.4289
  239MPD1    C3 3679   0.725   0.052  15.039  0.5502 -0.6328  0.2627
  239MPD1    C4 3680   0.849   4.728  15.006  0.3493 -0.0853  0.8037
  239MPD1    C5 3681   0.957   0.050  15.068 -0.7639 -0.8211  0.2019
  239MPD1     H 3682   0.621   0.179  15.186 -0.5393 -1.4132  0.5769
  239MPD1    H1 3683   0.869   4.669  14.918 -0.1387  1.9044 -0.6424
  239MPD1    H2 3684   1.030   0.175  15.227 -0.9172 -0.4365  0.8506
  239MPD1    H3 3685   1.057   0.023  15.035  0.2306  1.0252  1.6592
  239MPD1     N 3686   0.613   0.006  14.963  0.5922  0.4301  0.1807
  239MPD1    H5 3687   0.632   4.681  14.883 -1.6698 -1.1249  0.7955
  239MPD1    N1 3688   0.802   0.260  15.330 -0.2159  1.3064  0.0168
  239MPD1    H6 3689   0.718   0.318  15.320 -0.5600  0.6553 -0.8521
  239MPD1    H7 3690   0.881   0.309  15.371 -0.0135  0.9943 -0.0030
  240MPD1     C 3691   4.319   4.488  13.889  0.1867 -0.1955  0.4112
  240MPD1    C1 3692   4.221   4.464  13.981  0.3501 -0.5857  0.0776
  240MPD1    C2 3693   4.256   4.385  14.090 -0.0575 -0.0453  0.3155
  240MPD1    C3 3694   4.375   4.316  14.102  0.1406 -0.2872  0.1384
  240MPD1    C4 3695   4.468   4.347  14.009  0.2382  0.4827  1.1306
  240MPD1    C5 3696   4.441   4.435  13.909  1.1201  0.9674  0.1444
  240MPD1     H 3697   4.193   4.385  14.178 -0.0849 -4.0164  0.3032
  240MPD1    H1 3698   4.563   4.295  13.999  0.0289 -0.1076  2.1430
  240MPD1    H2 3699   4.299   4.541  13.796  0.4294 -0.1731  0.3731
  240MPD1    H3 3700   4.508   4.448  13.825  0.3130 -0.1667 -0.6653
  240MPD1     N 3701   4.402   4.230  14.211  0.7089  0.3744 -0.5184
  240MPD1    H5 3702   4.321   4.209  14.269 -1.2046  0.5048 -3.1098
  240MPD1    N1 3703   4.090   4.534  13.973  0.0247  0.2254 -0.0246
  240MPD1    H6 3704   4.052   4.539  13.879  0.7730  0.9796 -0.2865
  240MPD1    H7 3705   4.014   4.491  14.023  0.2345  0.1115  0.1958
  241MPD1     C 3706   0.185   3.992  15.100 -0.1501 -0.6096 -0.5602
  241MPD1    C1 3707   0.255   3.979  14.979 -0.1348  0.1483 -0.0082
  241MPD1    C2 3708   0.182   3.973  14.860 -0.0814 -0.1609 -0.5509
  241MPD1    C3 3709   0.040   3.989  14.864 -0.4587  0.3554  0.3097
  241MPD1    C4 3710   4.717   4.011  14.986  0.2938 -0.0194  0.1389
  241MPD1    C5 3711   0.052   4.010  15.102  0.0948 -0.2179  0.1260
  241MPD1     H 3712   0.238   3.932  14.776  0.2769  0.2614 -0.5163
  241MPD1    H1 3713   4.610   4.021  14.995  0.6926  3.2890  1.0703
  241MPD1    H2 3714   0.229   3.979  15.199 -0.2990 -0.2635 -0.4502
  241MPD1    H3 3715   0.009   4.014  15.201  0.4333  1.6308  0.1930
  241MPD1     N 3716   4.682   3.975  14.754  0.7143 -0.3083 -0.1001
  241MPD1    H5 3717   4.584   3.978  14.781  0.8640 -3.2427  0.7998
  241MPD1    N1 3718   0.386   3.942  14.972  0.2114 -0.6630 -0.0046
  241MPD1    H6 3719   0.434   4.002  14.905 -0.9900  1.1617  0.7627
  241MPD1    H7 3720   0.427   3.946  15.065  1.0992  0.3383 -0.4476
  242MPD1     C 3721   4.174   2.888  15.961  0.3966  0.0351 -0.6674
  242MPD1    C1 3722   4.312   2.869  15.950 -0.2061 -0.2613 -0.5489
  242MPD1    C2 3723   4.368   2.856  15.828  0.3754 -0.0828 -0.7320
  242MPD1    C3 3724   4.294   2.838  15.711  0.0384  0.0828 -0.6910
  242MPD1    C4 3725   4.154   2.854  15.720 -0.4812 -0.1365 -0.6173
  242MPD1    C5 3726   4.094   2.878  15.845  0.2223 -0.1253  0.3257
  242MPD1     H 3727   4.473   2.830  15.822  0.4029  0.6060 -3.1770
  242MPD1    H1 3728   4.089   2.857  15.633 -0.3528 -0.1681 -0.7157
  242MPD1    H2 3729   4.126   2.896  16.058  2.5714  0.8825  0.3296
  242MPD1    H3 3730   3.988   2.901  15.848  0.3752  0.2857  2.1837
  242MPD1     N 3731   4.347   2.810  15.585  0.6788  0.0077  0.0319
  242MPD1    H5 3732   4.285   2.817  15.506  0.5803 -1.3066  0.0054
  242MPD1    N1 3733   4.390   2.897  16.058 -0.0240  0.3961  0.7723
  242MPD1    H6 3734   4.483   2.855  16.055 -1.6676 -3.3591  1.3206
  242MPD1    H7 3735   4.345   2.864  16.144 -3.0726  2.0325 -0.2081
  243MPD1     C 3736   1.120   1.026  17.402  0.0788 -0.5876  0.6748
  243MPD1    C1 3737   1.191   1.135  17.340 -0.5661 -0.0434 -0.1133
  243MPD1    C2 3738   1.285   1.100  17.242  0.3725  0.3845  0.5333
  243MPD1    C3 3739   1.322   0.971  17.213 -0.5684  0.2219  0.5287
  243MPD1    C4 3740   1.268   0.865  17.285  0.3474  0.1281  0.3240
  243MPD1    C5 3741   1.160   0.895  17.369  0.0315 -0.8690 -0.3930
  243MPD1     H 3742   1.326   1.186  17.190  1.6028  0.2105  1.1983
  243MPD1    H1 3743   1.284   0.759  17.270 -2.1224 -0.1932 -0.0785
  243MPD1    H2 3744   1.053   1.034  17.487  0.5300 -1.3304  1.0986
  243MPD1    H3 3745   1.116   0.816  17.428  0.0409 -1.4748 -1.2030
  243MPD1     N 3746   1.420   0.943  17.121 -0.5478 -0.2719  0.0562
  243MPD1    H5 3747   1.437   1.008  17.044  3.5472 -1.9643 -0.4761
  243MPD1    N1 3748   1.168   1.265  17.388 -0.8192  0.3529 -0.1938
  243MPD1    H6 3749   1.076   1.270  17.432 -1.1818 -1.1836 -0.7867
  243MPD1    H7 3750   1.169   1.334  17.313 -2.0944 -1.4193 -1.8158
  244MPD1     C 3751   2.176   0.221  17.071  0.1227  0.1401  0.4570
  244MPD1    C1 3752   2.154   0.308  17.174  0.3250  0.1830 -0.2862
  244MPD1    C2 3753   2.053   0.406  17.163  0.0280 -0.0288 -0.2969
  244MPD1    C3 3754   1.982   0.430  17.040 -0.6738  0.1087 -0.4018
  244MPD1    C4 3755   2.005   0.337  16.938  0.1912 -0.6697  0.3130
  244MPD1    C5 3756   2.100   0.240  16.958  0.3929 -0.0441 -0.6331
  244MPD1     H 3757   2.036   0.467  17.250  1.1096 -1.3625  0.8562
  244MPD1    H1 3758   1.953   0.339  16.843 -0.8741  3.2065  0.9569
  244MPD1    H2 3759   2.254   0.146  17.072 -2.4158 -2.4742  1.6947
  244MPD1    H3 3760   2.119   0.179  16.871  0.0243 -1.1335  0.0474
  244MPD1     N 3761   1.882   0.532  17.030  0.5962 -0.5389  0.0405
  244MPD1    H5 3762   1.873   0.593  17.111  1.0110  2.7152 -2.3365
  244MPD1    N1 3763   2.218   0.284  17.296 -0.4291 -0.2950 -0.2528
  244MPD1    H6 3764   2.217   0.363  17.360  1.4205  2.4762 -3.6027
  244MPD1    H7 3765   2.315   0.257  17.281 -0.9035 -1.8408 -0.5095
  245MPD1     C 3766   3.013   1.379  13.015  0.3359 -0.5815 -0.4383
  245MPD1    C1 3767   3.149   1.395  13.039  0.4211 -0.1956  0.0335
  245MPD1    C2 3768   3.188   1.506  13.112 -0.5623 -0.2851 -0.0467
  245MPD1    C3 3769   3.102   1.604  13.154 -0.1406 -0.3859  0.3879
  245MPD1    C4 3770   2.962   1.596  13.117 -0.0329 -0.4700 -0.3385
  245MPD1    C5 3771   2.924   1.486  13.045  0.1767  0.2078  0.4963
  245MPD1     H 3772   3.294   1.513  13.134 -0.3629  0.1068 -1.1202
  245MPD1    H1 3773   2.880   1.661  13.147  1.8221  1.5047  0.5183
  245MPD1    H2 3774   2.967   1.292  12.969  1.1623 -0.9248 -0.6109
  245MPD1    H3 3775   2.826   1.470  13.002  0.9277  3.2800 -2.3118
  245MPD1     N 3776   3.159   1.702  13.236  0.1701  0.0242 -0.0359
  245MPD1    H5 3777   3.260   1.697  13.237  0.1228 -0.9523 -0.0664
  245MPD1    N1 3778   3.243   1.294  13.016 -0.0805 -0.7779  0.6016
  245MPD1    H6 3779   3.230   1.238  12.932  1.4718 -0.9675  0.4778
  245MPD1    H7 3780   3.335   1.337  13.006 -1.1977  1.3273 -0.7073
  246MPD1     C 3781   4.549   4.359  10.137 -0.1668 -1.1537  1.1424
  246MPD1    C1 3782   4.478   4.237  10.136  0.4036 -0.1438  0.6637
  246MPD1    C2 3783   4.574   4.130  10.139 -0.2994 -1.0111  0.1248
  246MPD1    C3 3784   4.705   4.136  10.099  0.3467  0.1999  0.7547
  246MPD1    C4 3785   0.027   4.262  10.086 -0.5975  0.3775 -0.1952
  246MPD1    C5 3786   4.687   4.367  10.116  0.0312  0.3708 -0.0498
  246MPD1     H 3787   4.533   4.031  10.156  0.7566 -1.6539 -1.1282
  246MPD1    H1 3788   0.132   4.285  10.090  0.1773 -2.6755 -2.6213
  246MPD1    H2 3789   4.500   4.454  10.157  0.9124 -0.3156 -0.2213
  246MPD1    H3 3790   0.005   4.462  10.110  0.7911  0.0361  1.3104
  246MPD1     N 3791   0.046   4.022  10.088  0.0007  0.8070 -0.0834
  246MPD1    H5 3792   4.731   3.935  10.096  0.3930  0.7096  1.2299
  246MPD1    N1 3793   4.341   4.225  10.178  0.0495  0.3759 -0.1264
  246MPD1    H6 3794   4.281   4.302  10.149 -0.6508 -0.3585 -0.6241
  246MPD1    H7 3795   4.305   4.132  10.161  1.4306 -0.6277  2.4811
  247MPD1     C 3796   1.603   0.564  15.724  0.0675 -0.6240  0.0981
  247MPD1    C1 3797   1.731   0.550  15.676  0.1223  0.0803 -0.1989
  247MPD1    C2 3798   1.810   0.668  15.669 -0.4232 -0.5378 -0.0378
  247MPD1    C3 3799   1.746   0.789  15.681  0.6008  0.7902 -0.1478
  247MPD1    C4 3800   1.616   0.801  15.718 -0.2396  0.0418  0.0093
  247MPD1    C5 3801   1.544   0.687  15.752  0.1409 -0.3927  0.0748
  247MPD1     H 3802   1.913   0.658  15.637  0.2350  0.7494  1.6405
  247MPD1    H1 3803   1.564   0.896  15.733 -1.0674 -0.2028 -1.3197
  247MPD1    H2 3804   1.552   0.470  15.744  1.0214 -0.9820  0.8224
  247MPD1    H3 3805   1.443   0.691  15.789  0.3567  0.0268  0.6202
  247MPD1     N 3806   1.816   0.912  15.660 -0.0009  0.1314 -0.4891
  247MPD1    H5 3807   1.754   0.992  15.662 -0.6654 -0.3333 -2.8149
  247MPD1    N1 3808   1.791   0.423  15.657 -0.8529 -0.6916  0.2310
  247MPD1    H6 3809   1.721   0.351  15.645  0.8037 -2.2813  0.1282
  247MPD1    H7 3810   1.863   0.414  15.586  0.6186  0.8837  1.5010
  248MPD1     C 3811   1.955   3.285  17.145  1.1151 -0.3887  0.2300
  248MPD1    C1 3812   2.077   3.230  17.119  1.3518  0.4844  0.3638
  248MPD1    C2 3813   2.156   3.181  17.218 -0.5144  0.3017  1.0089
  248MPD1    C3 3814   2.128   3.207  17.353 -0.2497  0.7355  0.5364
  248MPD1    C4 3815   2.007   3.268  17.383  0.3752  0.2813  0.2724
  248MPD1    C5 3816   1.920   3.296  17.279  0.5064  0.1588  0.1625
  248MPD1     H 3817   2.247   3.127  17.195  0.5727  1.3653  2.8361
  248MPD1    H1 3818   1.970   3.276  17.485 -0.8419  0.7819 -0.2193
  248MPD1    H2 3819   1.892   3.318  17.063  0.2366 -1.5546  0.4294
  248MPD1    H3 3820   1.817   3.327  17.293  1.2516  1.9692  1.7662
  248MPD1     N 3821   2.219   3.168  17.455 -0.8268  0.1353 -0.0942
  248MPD1    H5 3822   2.298   3.109  17.432 -0.4958 -0.4184  2.5120
  248MPD1    N1 3823   2.105   3.209  16.982 -0.2921 -0.4474 -0.6332
  248MPD1    H6 3824   2.202   3.194  16.957  0.3708  0.9068  1.0832
  248MPD1    H7 3825   2.061   3.276  16.919 -0.5469 -0.8429 -0.8746
  249MPD1     C 3826   4.026   4.571  10.226 -0.0968  0.2536  0.4903
  249MPD1    C1 3827   4.135   4.655  10.213  0.1904 -0.2448  0.2608
  249MPD1    C2 3828   4.254   4.619  10.271 -0.5295 -0.1181  0.9090
  249MPD1    C3 3829   4.262   4.518  10.370 -0.1218 -0.2087  0.6140
  249MPD1    C4 3830   4.149   4.455  10.397  0.2683  0.0789  0.3007
  249MPD1    C5 3831   4.033   4.475  10.323  0.6095  0.3808  0.1265
  249MPD1     H 3832   4.340   4.684  10.254 -1.6079  0.3727 -2.7358
  249MPD1    H1 3833   4.141   4.372  10.467  0.2082  0.6722  0.9989
  249MPD1    H2 3834   3.937   4.586  10.165  0.8300 -0.0977 -0.9559
  249MPD1    H3 3835   3.949   4.411  10.346  0.1286  0.3665 -1.6650
  249MPD1     N 3836   4.384   4.495  10.440 -0.1058  0.3305  0.3478
  249MPD1    H5 3837   4.469   4.538  10.404 -0.1898 -0.2604 -0.5523
  249MPD1    N1 3838   4.137   0.010  10.101  0.4982  0.7621 -0.0239
  249MPD1    H6 3839   4.204   0.086  10.111  2.0102 -0.6826  0.8994
  249MPD1    H7 3840   4.045   0.041  10.072  0.5077  2.6595  1.9133
  250MPD2     C 3841   0.661   4.374  13.147 -0.4732  0.3559 -0.0443
  250MPD2    C1 3842   0.702   4.428  13.029  0.6265  0.1421 -0.0994
  250MPD2    C2 3843   0.681   4.357  12.910  0.8953 -0.5836 -0.0706
  250MPD2    C3 3844   0.599   4.243  12.915  0.4757  1.4117  0.3035
  250MPD2    C4 3845   0.561   4.198  13.038  0.4741 -0.7254  0.2188
  250MPD2    C5 3846   0.590   4.260  13.156  0.2520  0.6020  0.0612
  250MPD2     H 3847   0.709   4.401  12.815 -0.5158  1.0917  0.2813
  250MPD2    H1 3848   0.489   4.117  13.045 -0.8621  0.3914 -0.5715
  250MPD2    H2 3849   0.690   4.412  13.245  0.8920  1.7992 -1.0066
  250MPD2    H3 3850   0.565   4.215  13.251 -0.9868  1.0347 -0.0522
  250MPD2     N 3851   0.556   4.179  12.796  0.1737  0.0217  0.6091
  250MPD2    H5 3852   0.502   4.096  12.820  0.7630 -1.2604 -2.4881
  250MPD2    N1 3853   0.775   4.548  13.028 -0.2183  0.3301 -0.1143
  250MPD2    H7 3854   0.770   4.602  13.113  1.3296  1.5756 -0.8150
  251TMC3    C1 3855   0.932   4.707  12.945  0.0952 -0.0662 -0.0181
  251TMC3    C2 3856   0.871   0.087  12.998 -0.1308  1.0516 -0.2032
  251TMC3    C3 3857   0.935   0.206  13.001  0.1188 -0.7578 -0.2601
  251TMC3    C4 3858   1.061   4.715  12.898 -0.2528 -0.4019 -0.3381
  251TMC3    C5 3859   1.122   0.106  12.906  0.2175 -0.3028  0.1726
  251TMC3    C6 3860   1.065   0.218  12.966 -0.5336  0.7866 -0.2883
  251TMC3     C 3861   0.859   4.582  12.923 -0.1490 -0.1528  0.0565
  251TMC3     O 3862   0.900   4.511  12.832  0.0852  0.3596 -0.5608
  251TMC3     H 3863   0.770   0.082  13.036 -0.5113  1.3817 -1.1534
  251TMC3    H1 3864   1.106   4.636  12.840 -1.5012 -1.3996  0.0524
  251TMC3    H2 3865   1.125   0.307  12.979  0.1217  0.1674  0.9067
  251TMC3    C7 3866   1.267   0.109  12.879 -0.0526  0.2357 -0.1256
  251TMC3    C8 3867   0.853   0.328  13.016  0.1056 -0.0502 -0.1941
  251TMC3    O1 3868   1.327   0.003  12.881  0.1190  0.0175  0.0009
  251TMC3    O2 3869   0.729   0.327  13.024  0.5014 -0.8109  0.4905
  252TMC3    C1 3870   2.782   0.575   9.943 -0.3289 -0.0864  0.4324
  252TMC3    C2 3871   2.860   0.686   9.936 -0.5766 -0.3352  0.3159
  252TMC3    C3 3872   2.797   0.798   9.978  0.6365  0.6566 -0.3409
  252TMC3    C4 3873   2.659   0.563   9.999 -0.3320  0.4298 -0.5032
  252TMC3    C5 3874   2.608   0.681  10.042 -0.3534  0.5120 -0.5602
  252TMC3    C6 3875   2.676   0.802  10.038  0.7679 -0.5133  0.2974
  252TMC3     C 3876   2.838   0.448   9.894  0.1756  0.1939 -0.7061
  252TMC3     O 3877   2.799   0.344   9.944  0.2066  0.3610  0.4151
  252TMC3     H 3878   2.955   0.692   9.885  0.3970 -1.9286  1.9402
  252TMC3    H1 3879   2.622   0.462  10.010  0.7908  0.1011  0.2861
  252TMC3    H2 3880   2.617   0.891  10.056  0.1159 -1.1205  1.1592
  252TMC3    C7 3881   2.478   0.690  10.099  0.0804 -0.0321 -0.5187
  252TMC3    C8 3882   2.883   0.914  10.003 -0.3641 -0.8025 -0.3298
  252TMC3    O1 3883   2.460   0.778  10.181 -0.1002 -0.0008  0.2773
  252TMC3    O2 3884   3.000   0.897   9.969 -0.5065 -0.0741  0.9608
  253MPD2     C 3885   2.642   0.616  15.545  0.2711  0.4961  0.0207
  253MPD2    C1 3886   2.518   0.577  15.497 -0.0991  0.2937  0.1365
  253MPD2    C2 3887   2.421   0.539  15.587  0.3137  0.0224  0.0563
  253MPD2    C3 3888   2.438   0.545  15.724 -0.4590 -0.4162  0.5679
  253MPD2    C4 3889   2.560   0.595  15.770 -0.2083 -0.9571  0.5143
  253MPD2    C5 3890   2.664   0.622  15.683 -0.2406  0.1535 -0.6139
  253MPD2     H 3891   2.325   0.513  15.545  0.7758 -0.1567 -0.8952
  253MPD2    H1 3892   2.583   0.585  15.876 -0.4084  0.3419  0.6903
  253MPD2    H2 3893   2.718   0.651  15.477 -0.7263 -0.8983 -1.8030
  253MPD2    H3 3894   2.765   0.652  15.707 -0.3914  0.8253 -0.8350
  253MPD2     N 3895   2.336   0.519  15.822  0.2487  0.7714  0.4896
  253MPD2    H5 3896   2.369   0.519  15.918  0.3842  4.1588  0.4595
  253MPD2    N1 3897   2.475   0.577  15.357 -0.4607 -0.2237  0.6030
  253MPD2    H7 3898   2.381   0.545  15.336 -0.3084 -0.9703  1.0522
  254TMC3    C1 3899   2.140   0.418  15.906 -0.3403  0.2524 -0.0271
  254TMC3    C2 3900   2.001   0.438  15.920 -0.1998  0.0215  0.4688
  254TMC3    C3 3901   1.937   0.396  16.033 -0.3098 -0.4003  0.7157
  254TMC3    C4 3902   2.210   0.348  16.008  0.5192 -0.2440 -0.1763
  254TMC3    C5 3903   2.129   0.290  16.107 -0.3340 -0.2929 -0.6577
  254TMC3    C6 3904   2.000   0.317  16.125 -0.2347 -0.4103 -0.1854
  254TMC3     C 3905   2.212   0.471  15.789  0.7471  0.7617 -0.3425
  254TMC3     O 3906   2.149   0.473  15.686 -0.1651 -0.5870 -0.0191
  254TMC3     H 3907   1.950   0.500  15.848  2.2121  1.3389 -0.1193
  254TMC3    H1 3908   2.310   0.313  15.986  0.7081  0.3011 -0.1945
  254TMC3    H2 3909   1.956   0.287  16.219 -0.4732 -2.0591 -0.8229
  254TMC3    C7 3910   2.196   0.225  16.216 -0.1794 -0.4498  0.5492
  254TMC3    C8 3911   1.865   0.494  16.108 -0.0090 -0.0991  1.0230
  254TMC3    O1 3912   2.133   0.141  16.278 -0.6012  0.3867 -0.8316
  254TMC3    O2 3913   1.833   0.476  16.222  0.4341 -0.2514 -0.5232
  255MPD2     C 3914   1.210   2.235  10.086 -0.0967  0.1101 -1.0587
  255MPD2    C1 3915   1.322   2.267  10.014 -0.1133 -0.0931 -0.6213
  255MPD2    C2 3916   1.419   2.174   9.977 -0.0705 -0.1550  0.0655
  255MPD2    C3 3917   1.403   2.043  10.019 -0.4506  0.6897  0.3022
  255MPD2    C4 3918   1.284   2.008  10.088  0.8726  0.9920  0.0650
  255MPD2    C5 3919   1.193   2.103  10.110 -0.4870  0.0319 -0.2762
  255MPD2     H 3920   1.508   2.201   9.920  0.7643  2.0105  2.3925
  255MPD2    H1 3921   1.261   1.909  10.124 -1.4235  1.1822 -0.9060
  255MPD2    H2 3922   1.133   2.306  10.115 -0.9803 -0.4809 -1.9411
  255MPD2    H3 3923   1.103   2.071  10.162 -0.5949  0.8164  0.0151
  255MPD2     N 3924   1.499   1.941   9.989  0.8613  0.2712  0.2815
  255MPD2    H5 3925   1.464   1.847  10.005 -0.7643  0.5833 -1.4139
  255MPD2    N1 3926   1.340   2.406   9.994  0.1920 -0.0807  0.5120
  255MPD2    H7 3927   1.274   2.469  10.038 -1.3219  0.0201 -1.9224
  256TMC3    C1 3928   1.456   2.611   9.994 -0.0114 -0.4003  0.1839
  256TMC3    C2 3929   1.574   2.668   9.983 -0.0678 -0.4013 -0.2977
  256TMC3    C3 3930   1.589   2.797  10.018 -0.6602  0.4027  0.0388
  256TMC3    C4 3931   1.350   2.669  10.054  0.0155  0.3219  1.6388
  256TMC3    C5 3932   1.370   2.797  10.108 -0.2112  0.2920 -0.2292
  256TMC3    C6 3933   1.492   2.861  10.089 -0.2457  0.1867  0.0263
  256TMC3     C 3934   1.454   2.466   9.962 -0.0731  0.5720 -0.1665
  256TMC3     O 3935   1.552   2.409   9.913 -0.8542 -0.4425 -0.2658
  256TMC3     H 3936   1.653   2.611   9.937  0.6182  1.0640 -0.9291
  256TMC3    H1 3937   1.251   2.625  10.065 -0.1857  0.7269  1.4281
  256TMC3    H2 3938   1.510   2.958  10.134 -0.7640 -0.0873  0.8151
  256TMC3    C7 3939   1.268   2.850  10.204  0.5945 -0.2554  0.4523
  256TMC3    C8 3940   1.718   2.855  10.009  0.5782  0.5420 -0.0816
  256TMC3    O1 3941   1.160   2.797  10.183 -0.5567 -0.4343 -0.3622
  256TMC3    O2 3942   1.803   2.778   9.977  0.0547  0.1678 -0.7488
  257MPD2     C 3943   4.613   0.339  13.679  0.0791  0.1046  0.2799
  257MPD2    C1 3944   4.606   0.215  13.620  0.1699 -0.1681 -0.1184
  257MPD2    C2 3945   4.629   0.101  13.696  0.8012 -0.4394 -0.5609
  257MPD2    C3 3946   4.663   0.112  13.829 -0.1849  0.6697  0.4919
  257MPD2    C4 3947   4.658   0.238  13.889 -0.1882 -0.2680 -0.0498
  257MPD2    C5 3948   4.633   0.351  13.814 -0.8393  0.3820  0.3918
  257MPD2     H 3949   4.619   0.001  13.655  2.3717  0.6017 -3.5200
  257MPD2    H1 3950   4.670   0.252  13.996 -1.1962  1.1491 -0.1074
  257MPD2    H2 3951   4.586   0.427  13.621 -1.7261  1.3102  2.9857
  257MPD2    H3 3952   4.620   0.450  13.855  1.0386  0.1977  1.4160
  257MPD2     N 3953   4.691   4.726  13.901  0.0005  0.3860 -0.0424
  257MPD2    H5 3954   4.720   4.648  13.842  2.9131  2.1224 -0.9210
  257MPD2    N1 3955   4.572   0.218  13.485 -0.3633  0.3942  0.2147
  257MPD2    H7 3956   4.565   0.307  13.437  0.5428  0.4807  0.2417
  258TMC3    C1 3957   0.012   4.588  14.086  0.3568 -0.7959 -0.1249
  258TMC3    C2 3958   0.086   4.502  14.010 -0.0588 -0.5416 -0.3630
  258TMC3    C3 3959   0.137   4.388  14.068 -0.1317  0.2222 -0.0153
  258TMC3    C4 3960   4.728   4.561  14.220 -0.2654 -0.4551  0.2005
  258TMC3    C5 3961   0.076   4.469  14.276  0.6738  0.3406  0.4855
  258TMC3    C6 3962   0.142   4.376  14.202 -0.1385  0.2726  0.2482
  258TMC3     C 3963   4.695   4.709  14.037 -0.4044  0.5962 -0.1489
  258TMC3     O 3964   4.662   0.061  14.118  0.2362 -0.2041 -0.7675
  258TMC3     H 3965   0.078   4.514  13.902 -1.8064  0.6327 -0.1072
  258TMC3    H1 3966   4.682   4.631  14.288  0.3744  2.1379 -2.0534
  258TMC3    H2 3967   0.202   4.295  14.240 -0.3808  1.7318  3.7852
  258TMC3    C7 3968   0.063   4.455  14.424  0.1537 -0.7011  0.0740
  258TMC3    C8 3969   0.195   4.285  13.968  0.2377 -0.2607  0.0394
  258TMC3    O1 3970   4.711   4.519  14.483 -0.3969 -0.0689  0.1653
  258TMC3    O2 3971   0.139   4.277  13.856  0.7166  0.5230  0.4450
  259MPD2     C 3972   3.935   1.350   1.391  0.0932  0.2612 -0.1020
  259MPD2    C1 3973   3.861   1.329   1.279  0.2040  0.0153  0.4801
  259MPD2    C2 3974   3.907   1.247   1.172  0.7722 -0.6625 -0.0084
  259MPD2    C3 3975   4.027   1.184   1.195 -0.1836  0.3686  0.2280
  259MPD2    C4 3976   4.105   1.206   1.308  0.3473  0.1807 -0.8759
  259MPD2    C5 3977   4.063   1.296   1.401 -0.3875  0.5420  0.0694
  259MPD2     H 3978   3.858   1.235   1.076 -0.9295  0.5618  0.7093
  259MPD2    H1 3979   4.200   1.159   1.329 -0.0079  0.0080  0.3147
  259MPD2    H2 3980   3.895   1.416   1.467  0.7525  0.3483  0.1673
  259MPD2    H3 3981   4.115   1.307   1.496 -0.1735  0.9135 -0.0912
  259MPD2     N 3982   4.083   1.110   1.088 -0.2467  0.6179  0.1809
  259MPD2    H5 3983   4.024   1.074   1.014  0.8435 -0.5203 -0.1404
  259MPD2    N1 3984   3.742   1.399   1.276 -1.1579  0.2662  0.3042
  259MPD2    H7 3985   3.720   1.449   1.361  0.4384 -0.7535  1.3093
  260TMC3    C1 3986   4.243   0.998   0.964  0.0003 -0.2586  0.0505
  260TMC3    C2 3987   4.369   1.008   0.910 -0.0285 -0.2121  0.2681
  260TMC3    C3 3988   4.406   0.943   0.801 -0.2679 -0.3546 -0.4891
  260TMC3    C4 3989   4.151   0.912   0.922  0.1859  0.2697 -0.6207
  260TMC3    C5 3990   4.198   0.837   0.823 -0.1539 -0.0726  0.1336
  260TMC3    C6 3991   4.317   0.853   0.753  0.5708 -0.2914  0.3303
  260TMC3     C 3992   4.220   1.087   1.071 -0.2722 -0.6818  0.0927
  260TMC3     O 3993   4.313   1.139   1.131  0.0729 -0.0378  0.0702
  260TMC3     H 3994   4.439   1.079   0.952 -0.1476  0.4661 -0.6924
  260TMC3    H1 3995   4.055   0.907   0.971  1.1104 -0.2735  1.1382
  260TMC3    H2 3996   4.333   0.789   0.667  0.0930 -0.1933  0.1669
  260TMC3    C7 3997   4.091   0.809   0.725 -0.2370 -0.1167  0.1416
  260TMC3    C8 3998   4.449   1.021   0.689 -0.4665 -0.3842  0.0234
  260TMC3    O1 3999   4.111   0.846   0.610 -0.3796  0.6566 -0.4548
  260TMC3    O2 4000   4.553   1.084   0.686 -0.9079 -0.5412 -0.1673
  261MPD2     C 4001   0.714   4.055  11.956  0.3453  0.4479  0.0622
  261MPD2    C1 4002   0.701   4.154  12.045 -0.1595 -0.4310  0.5268
  261MPD2    C2 4003   0.745   4.279  12.000 -0.3305  0.3219  0.0739
  261MPD2    C3 4004   0.802   4.304  11.875 -0.0750 -0.0728  0.1816
  261MPD2    C4 4005   0.811   4.193  11.787 -0.0984  0.1924 -0.0270
  261MPD2    C5 4006   0.765   4.071  11.829 -0.1824 -0.0911 -0.3155
  261MPD2     H 4007   0.714   4.361  12.062 -0.4305  2.0334 -2.2472
  261MPD2    H1 4008   0.846   4.209  11.686  1.1525 -0.6931  0.2654
  261MPD2    H2 4009   0.677   3.956  11.980  1.6918 -0.4896 -1.7630
  261MPD2    H3 4010   0.789   3.984  11.770 -0.3117 -0.8218  0.7149
  261MPD2     N 4011   0.840   4.434  11.840 -0.4213 -0.7372  0.3528
  261MPD2    H5 4012   0.828   4.510  11.906  1.8187  0.3709 -0.5403
  261MPD2    N1 4013   0.647   4.137  12.172 -0.5411  0.1395  0.3818
  261MPD2    H7 4014   0.643   4.207  12.245 -0.9263  0.0820  0.4168
  262TMC3    C1 4015   0.924   4.616  11.729 -0.3689 -0.1674  0.2922
  262TMC3    C2 4016   0.842   4.702  11.796 -0.3355  0.3941  0.8546
  262TMC3    C3 4017   0.835   0.099  11.757 -0.1894 -0.7709 -0.8094
  262TMC3    C4 4018   1.004   4.656  11.627 -0.3269 -0.5392  0.5902
  262TMC3    C5 4019   1.007   0.051  11.602  0.0667 -0.4991 -0.1664
  262TMC3    C6 4020   0.927   0.143  11.664  0.3490 -0.2085 -0.8068
  262TMC3     C 4021   0.920   4.472  11.736  0.7925  0.0470  0.9238
  262TMC3     O 4022   0.980   4.395  11.666 -0.0800 -0.1269  0.6147
  262TMC3     H 4023   0.761   4.666  11.858 -0.3926 -1.5836 -0.3772
  262TMC3    H1 4024   1.067   4.586  11.572 -0.0819  0.8837 -0.9325
  262TMC3    H2 4025   0.924   0.249  11.640 -0.6972 -0.4505 -1.7474
  262TMC3    C7 4026   1.060   0.083  11.471 -0.1169  0.5184 -0.1600
  262TMC3    C8 4027   0.734   0.193  11.803 -0.1498  0.0001 -0.5468
  262TMC3    O1 4028   1.091   4.722  11.399 -0.7459  0.7881 -0.6972
  262TMC3    O2 4029   0.757   0.307  11.767 -0.1471 -0.4831  0.8975
  263MPD2     C 4030   1.738   4.187  11.679  0.0821 -0.3379 -0.0698
  263MPD2    C1 4031   1.811   4.086  11.624  0.5996  0.0069  0.2299
  263MPD2    C2 4032   1.799   4.062  11.490  0.0724 -0.2081  0.3854
  263MPD2    C3 4033   1.723   4.144  11.411  0.6405  0.4058  0.1891
  263MPD2    C4 4034   1.665   4.256  11.464  0.5329  0.5837  0.0165
  263MPD2    C5 4035   1.666   4.272  11.596 -0.2438 -0.0504  0.0872
  263MPD2     H 4036   1.840   3.969  11.451  2.5420  0.8583  0.4299
  263MPD2    H1 4037   1.622   4.336  11.405 -2.2045 -0.8259  0.0913
  263MPD2    H2 4038   1.731   4.199  11.786 -2.1782  1.3948 -0.4259
  263MPD2    H3 4039   1.619   4.361  11.635  0.4229  1.0939 -1.7130
  263MPD2     N 4040   1.723   4.114  11.271 -0.2570 -0.5198 -0.4300
  263MPD2    H5 4041   1.780   4.041  11.228 -0.5800 -0.5851 -0.7446
  263MPD2    N1 4042   1.886   4.002  11.710  0.8127  0.7904  0.3283
  263MPD2    H7 4043   1.894   4.026  11.808  0.1481  0.8710  0.3593
  264TMC3    C1 4044   1.681   4.132  11.042 -0.5719 -0.2299  0.3085
  264TMC3    C2 4045   1.605   4.194  10.953  0.6379 -0.8067 -0.0091
  264TMC3    C3 4046   1.668   4.236  10.833  0.2438 -0.4122 -0.1836
  264TMC3    C4 4047   1.806   4.090  11.022 -0.3820 -0.2239 -0.2663
  264TMC3    C5 4048   1.858   4.110  10.896 -0.3999 -0.4203 -0.4861
  264TMC3    C6 4049   1.791   4.181  10.802  0.7062 -0.0976  0.2597
  264TMC3     C 4050   1.646   4.175  11.179  0.0419  0.6974  0.0289
  264TMC3     O 4051   1.573   4.272  11.190  0.1310 -0.1548  0.2594
  264TMC3     H 4052   1.505   4.221  10.984  0.9793  0.4392 -0.0060
  264TMC3    H1 4053   1.853   4.022  11.092 -0.7168 -0.0909  0.0886
  264TMC3    H2 4054   1.847   4.228  10.723  0.1956  1.2961  0.7338
  264TMC3    C7 4055   2.002   4.103  10.868  0.0103  0.3462 -0.0932
  264TMC3    C8 4056   1.669   4.377  10.813 -0.0345 -0.3149 -0.0481
  264TMC3    O1 4057   2.033   4.105  10.751 -0.3472 -0.1916  0.2317
  264TMC3    O2 4058   1.752   4.424  10.734  0.6330  0.6058 -0.4866
  265MPD2     C 4059   3.765   4.468  15.975 -0.1693  0.1266  0.2979
  265MPD2    C1 4060   3.768   4.586  15.906 -0.0025  0.3542 -0.2441
  265MPD2    C2 4061   3.833   4.587  15.785  0.5115  0.2253 -0.8676
  265MPD2    C3 4062   3.891   4.474  15.732  0.2701 -0.0372 -0.2603
  265MPD2    C4 4063   3.894   4.360  15.814 -0.7411  0.4867  0.0175
  265MPD2    C5 4064   3.841   4.366  15.939  0.3386 -0.4856 -0.2803
  265MPD2     H 4065   3.836   4.684  15.736 -1.6303  0.7242  0.0063
  265MPD2    H1 4066   3.959   4.280  15.780 -2.1674 -0.3048 -0.8332
  265MPD2    H2 4067   3.716   4.448  16.070 -1.6994  0.2759 -0.4595
  265MPD2    H3 4068   3.858   4.279  16.002  0.9827  1.0637  1.6858
  265MPD2     N 4069   3.968   4.474  15.618 -0.3995  0.8761 -0.2258
  265MPD2    H5 4070   3.995   4.382  15.586 -0.9531  0.1445  1.3782
  265MPD2    N1 4071   3.710   4.703  15.961  0.0326 -0.0008 -0.0002
  265MPD2    H7 4072   3.708   0.053  15.906  0.0493  0.6480  0.9985
  266TMC3    C1 4073   3.602   0.103  16.123  0.3460  0.6758  0.3488
  266TMC3    C2 4074   3.582   0.122  16.258 -0.9120 -0.3526  0.3237
  266TMC3    C3 4075   3.513   0.231  16.307  0.0526  0.6676  0.3470
  266TMC3    C4 4076   3.542   0.181  16.026  0.4002  0.0677 -0.1422
  266TMC3    C5 4077   3.461   0.281  16.078 -0.0594 -0.3445 -0.1161
  266TMC3    C6 4078   3.460   0.318  16.212  0.5665  0.0844  0.0351
  266TMC3     C 4079   3.663   4.708  16.088  0.4827  0.3344  0.1359
  266TMC3     O 4080   3.669   4.629  16.179  0.0522  0.3781  0.5502
  266TMC3     H 4081   3.641   0.062  16.327 -1.3476 -1.5770 -0.3590
  266TMC3    H1 4082   3.542   0.154  15.921 -2.5763  1.3430 -0.4812
  266TMC3    H2 4083   3.391   0.396  16.240  1.2549  0.7152 -0.0151
  266TMC3    C7 4084   3.394   0.371  15.990  0.0395 -0.4202 -0.2300
  266TMC3    C8 4085   3.538   0.269  16.442  0.5481  0.0703 -0.7500
  266TMC3    O1 4086   3.313   0.453  16.036 -0.7124 -0.0570 -0.2498
  266TMC3    O2 4087   3.564   0.178  16.521 -0.2575  0.0700  0.1745
  267MPD2     C 4088   0.607   1.601   0.259 -0.6115 -0.7157  0.2985
  267MPD2    C1 4089   0.724   1.677   0.248 -0.0157 -0.1987  0.0144
  267MPD2    C2 4090   0.761   1.705   0.118  0.7474  0.3117 -0.0315
  267MPD2    C3 4091   0.688   1.666   0.004  0.4829 -1.0008  0.4169
  267MPD2    C4 4092   0.568   1.602   0.024 -0.3601  0.1778 -0.5071
  267MPD2    C5 4093   0.525   1.567   0.152 -0.2272 -0.1815 -0.6972
  267MPD2     H 4094   0.853   1.760   0.102  0.5812  0.4606 -0.4725
  267MPD2    H1 4095   0.509   1.576  17.677  0.6138 -3.0570 -0.2022
  267MPD2    H2 4096   0.570   1.568   0.356  0.4106 -1.4348  0.4424
  267MPD2    H3 4097   0.426   1.526   0.167  0.0240 -1.4008 -2.3628
  267MPD2     N 4098   0.744   1.681  17.611 -0.3119  0.2333  0.4325
  267MPD2    H5 4099   0.704   1.626  17.535 -0.7119  0.2035  0.6648
  267MPD2    N1 4100   0.794   1.724   0.361  0.3116  0.3626  0.3882
  267MPD2    H7 4101   0.743   1.707   0.448  0.3776  1.9487  0.7561
  268TMC3    C1 4102   0.966   1.814   0.494  0.6391 -0.3552  0.0496
  268TMC3    C2 4103   1.076   1.902   0.492 -0.5647  0.3169  0.0307
  268TMC3    C3 4104   1.148   1.901   0.603  0.2132 -0.5721  0.1449
  268TMC3    C4 4105   0.946   1.708   0.584  0.2336 -0.9531 -0.7363
  268TMC3    C5 4106   1.036   1.706   0.689 -0.1412 -0.0266 -0.0997
  268TMC3    C6 4107   1.127   1.810   0.708  0.2961  0.2694 -0.0646
  268TMC3     C 4108   0.904   1.802   0.360 -0.4912  0.0929  0.3245
  268TMC3     O 4109   0.959   1.863   0.270  0.6944 -0.1702 -0.1685
  268TMC3     H 4110   1.089   1.977   0.415 -1.3633  0.2625 -0.1571
  268TMC3    H1 4111   0.866   1.634   0.577  1.1357 -1.7900 -2.1340
  268TMC3    H2 4112   1.199   1.819   0.789  0.3031 -1.3166  0.1107
  268TMC3    C7 4113   1.048   1.596   0.782 -0.1883  0.5429  0.4372
  268TMC3    C8 4114   1.262   1.988   0.618 -0.0355 -0.3502  0.3166
  268TMC3    O1 4115   1.131   1.608   0.872 -0.3044  0.3081 -0.1674
  268TMC3    O2 4116   1.301   2.023   0.726 -0.3071 -0.0931 -0.4310
  269MPD2     C 4117   2.114   0.934  15.309  0.1548  0.4819  0.1552
  269MPD2    C1 4118   1.974   0.930  15.295 -0.0822 -0.7144  0.5174
  269MPD2    C2 4119   1.907   1.051  15.275  0.2311 -0.2162 -0.0957
  269MPD2    C3 4120   1.977   1.172  15.265 -0.1401 -0.0568 -0.6348
  269MPD2    C4 4121   2.110   1.173  15.270  0.0708 -0.1844 -0.0862
  269MPD2    C5 4122   2.171   1.052  15.297 -0.5418 -0.3064  0.2740
  269MPD2     H 4123   1.799   1.053  15.265 -0.0343 -0.1713  2.6827
  269MPD2    H1 4124   2.172   1.262  15.266  0.2667 -0.1740  3.5609
  269MPD2    H2 4125   2.177   0.849  15.333  1.8021  2.3899  2.5589
  269MPD2    H3 4126   2.278   1.060  15.308 -0.8521  0.5612  2.5656
  269MPD2     N 4127   1.900   1.297  15.255  0.2379  0.2823  0.3864
  269MPD2    H5 4128   1.799   1.285  15.259  0.1742  1.4994  2.3838
  269MPD2    N1 4129   1.905   0.809  15.305 -0.2049  0.3975 -0.0590
  269MPD2    H7 4130   1.958   0.723  15.314  0.4933  0.9977  1.5849
  270TMC3    C1 4131   1.730   0.663  15.265  0.4681 -0.2723  1.1731
  270TMC3    C2 4132   1.629   0.655  15.178 -0.5141  0.2570  0.1032
  270TMC3    C3 4133   1.600   0.529  15.127 -0.5546 -0.4383  0.2478
  270TMC3    C4 4134   1.806   0.555  15.308  0.8534  0.3840  0.3847
  270TMC3    C5 4135   1.776   0.436  15.248  0.7362 -0.2044  0.1214
  270TMC3    C6 4136   1.676   0.424  15.159  0.1679  0.2300  0.1098
  270TMC3     C 4137   1.772   0.796  15.285 -0.1013  0.0652 -0.6660
  270TMC3     O 4138   1.683   0.877  15.287 -0.4292 -0.9546 -0.3329
  270TMC3     H 4139   1.565   0.740  15.158  0.0322  0.3573 -1.2529
  270TMC3    H1 4140   1.885   0.569  15.381 -1.3673 -2.6287  3.3378
  270TMC3    H2 4141   1.628   0.332  15.127  2.2402 -0.3363 -1.4242
  270TMC3    C7 4142   1.811   0.315  15.325 -0.2889  0.1778  0.3454
  270TMC3    C8 4143   1.484   0.532  15.044  0.5848  0.3866  0.5679
  270TMC3    O1 4144   1.900   0.336  15.411 -0.3842 -0.5941  0.3450
  270TMC3    O2 4145   1.384   0.590  15.088  0.3021  0.2891  0.1963
  271MPD2     C 4146   0.705   0.010  13.941  0.0593 -0.5788  0.0155
  271MPD2    C1 4147   0.702   0.055  14.071 -0.0207  0.4966 -0.2949
  271MPD2    C2 4148   0.657   0.183  14.093 -0.4871 -0.8512 -0.3951
  271MPD2    C3 4149   0.604   0.263  13.995 -0.8211  0.5119 -0.3530
  271MPD2    C4 4150   0.628   0.227  13.863  0.1069 -0.5198 -0.4916
  271MPD2    C5 4151   0.677   0.099  13.837  0.6055 -1.0876  0.3029
  271MPD2     H 4152   0.656   0.214  14.197  0.2180 -1.7170 -0.1298
  271MPD2    H1 4153   0.585   0.283  13.781 -1.1997  1.3927  1.4991
  271MPD2    H2 4154   0.746   4.650  13.911  2.6442  0.4420  0.3477
  271MPD2    H3 4155   0.685   0.077  13.731 -1.2533 -3.8328  0.7257
  271MPD2     N 4156   0.529   0.380  14.021 -0.0030 -0.4401 -0.0095
  271MPD2    H5 4157   0.507   0.434  13.938  0.4385 -1.2515 -0.6594
  271MPD2    N1 4158   0.754   4.719  14.182  0.5233 -0.2529 -0.0471
  271MPD2    H7 4159   0.727   0.020  14.273 -2.2315  1.6749 -1.6273
  272TMC3    C1 4160   0.861   4.565  14.316 -0.0245 -0.2059 -0.0227
  272TMC3    C2 4161   0.973   4.486  14.335 -0.0329 -0.7779 -0.4161
  272TMC3    C3 4162   1.035   4.487  14.457  0.3332 -0.5068 -0.2041
  272TMC3    C4 4163   0.789   4.608  14.422  0.3685  0.2619 -1.1111
  272TMC3    C5 4164   0.842   4.592  14.547  0.0854  0.0785  0.0460
  272TMC3    C6 4165   0.963   4.537  14.568  0.0409  0.4042  0.0355
  272TMC3     C 4166   0.833   4.605  14.184  0.0923 -0.2150 -0.2372
  272TMC3     O 4167   0.895   4.552  14.092  0.4153 -0.4635  0.0414
  272TMC3     H 4168   1.022   4.442  14.248 -0.4835  2.0533 -2.1278
  272TMC3    H1 4169   0.685   4.630  14.402  0.1481  0.0845 -0.1653
  272TMC3    H2 4170   1.005   4.543  14.667  0.4770  1.5813 -0.2193
  272TMC3    C7 4171   0.819   4.701  14.636 -0.2087  0.6690  0.9541
  272TMC3    C8 4172   1.178   4.470  14.458 -0.6515  0.1107 -0.2577
  272TMC3    O1 4173   0.737   4.692  14.721 -0.7077  0.0667 -0.0706
  272TMC3    O2 4174   1.225   4.467  14.345  0.2726  0.0081  0.3654
  273MPD2     C 4175   2.145   2.314  11.965 -0.6073 -1.3066 -0.7656
  273MPD2    C1 4176   2.283   2.338  11.965 -0.0112 -0.1134 -0.1037
  273MPD2    C2 4177   2.337   2.408  11.861  0.4787  0.5982  0.6572
  273MPD2    C3 4178   2.255   2.470  11.768  0.3081 -0.0156 -0.3157
  273MPD2    C4 4179   2.117   2.452  11.769  0.4651 -0.2901 -0.2456
  273MPD2    C5 4180   2.065   2.365  11.865  0.0078  0.5900  0.2183
  273MPD2     H 4181   2.445   2.409  11.851  0.2262  1.6090 -2.0206
  273MPD2    H1 4182   2.050   2.499  11.699 -1.3405 -0.6784  1.2293
  273MPD2    H2 4183   2.099   2.248  12.038 -2.4344 -0.3223 -1.0284
  273MPD2    H3 4184   1.960   2.337  11.864  0.1211  0.1169  2.4251
  273MPD2     N 4185   2.302   2.568  11.681  0.0291  0.0644 -0.0485
  273MPD2    H5 4186   2.235   2.611  11.619  1.8154 -0.5764 -2.4099
  273MPD2    N1 4187   2.361   2.296  12.077 -0.0462 -0.5420  0.0776
  273MPD2    H7 4188   2.313   2.261  12.159 -1.5098 -0.3547 -0.6916
  274TMC3    C1 4189   2.442   2.732  11.590  0.1255 -0.2965  1.2611
  274TMC3    C2 4190   2.352   2.752  11.485  0.4440  0.0735 -0.2468
  274TMC3    C3 4191   2.358   2.877  11.423 -0.3397 -0.3132 -0.1854
  274TMC3    C4 4192   2.536   2.829  11.636  0.3017 -0.0009  0.2046
  274TMC3    C5 4193   2.525   2.947  11.570 -0.8476  0.3136 -0.1233
  274TMC3    C6 4194   2.440   2.980  11.472 -0.2168 -0.1743  0.1947
  274TMC3     C 4195   2.431   2.622  11.687 -0.2300 -0.7290 -0.1600
  274TMC3     O 4196   2.513   2.620  11.781 -0.3089 -0.0557  0.3120
  274TMC3     H 4197   2.301   2.667  11.442  0.0701 -0.1037  0.5474
  274TMC3    H1 4198   2.607   2.814  11.717 -1.3007 -3.5673  0.9698
  274TMC3    H2 4199   2.446   3.071  11.412  1.8841 -0.6683 -0.3363
  274TMC3    C7 4200   2.611   3.053  11.625  0.7750  0.3715  0.5071
  274TMC3    C8 4201   2.286   2.915  11.302 -0.3102 -0.5220  0.2065
  274TMC3    O1 4202   2.723   3.017  11.669 -0.1340 -0.2738  0.4354
  274TMC3    O2 4203   2.324   3.007  11.230 -0.2913 -0.1494  0.4126
  275MPD2     C 4204   2.520   1.049  14.119  0.0065  0.1364  0.3288
  275MPD2    C1 4205   2.435   1.125  14.195  1.0618  0.4898  0.6019
  275MPD2    C2 4206   2.304   1.098  14.177 -0.3718 -0.5513 -0.5296
  275MPD2    C3 4207   2.248   0.998  14.087  0.0226  0.3975  0.2537
  275MPD2    C4 4208   2.342   0.914  14.027  0.9163  0.0054  0.2307
  275MPD2    C5 4209   2.466   0.954  14.034 -0.3084 -0.1794  0.1088
  275MPD2     H 4210   2.244   1.166  14.236  0.7644  0.4621 -0.5601
  275MPD2    H1 4211   2.321   0.823  13.973 -2.7482  1.4381 -0.7647
  275MPD2    H2 4212   2.627   1.066  14.124 -0.2219  1.3260  1.3739
  275MPD2    H3 4213   2.544   0.898  13.983  0.1945 -0.1412  0.8369
  275MPD2     N 4214   2.112   0.979  14.060 -0.4398 -0.1717 -0.5580
  275MPD2    H5 4215   2.084   0.908  13.994 -0.5059 -1.6162  1.0267
  275MPD2    N1 4216   2.478   1.223  14.285  0.0009  0.1840 -0.0510
  275MPD2    H7 4217   2.407   1.263  14.347 -1.4975  0.9846 -2.2884
  276TMC3    C1 4218   2.595   1.377  14.401 -0.2602  0.2413  0.3000
  276TMC3    C2 4219   2.473   1.438  14.421 -0.2789 -0.0015  0.4935
  276TMC3    C3 4220   2.454   1.496  14.542  0.0327 -0.1241  0.1838
  276TMC3    C4 4221   2.701   1.388  14.489  0.1179  0.2124 -0.2117
  276TMC3    C5 4222   2.678   1.442  14.612  0.3797  0.3178  0.3258
  276TMC3    C6 4223   2.555   1.499  14.631 -0.5631  0.4739  0.1318
  276TMC3     C 4224   2.604   1.271  14.306  0.0375  0.5697  0.0141
  276TMC3     O 4225   2.713   1.227  14.268  0.0720  0.2116 -0.0807
  276TMC3     H 4226   2.387   1.443  14.356  1.0358 -2.7434 -1.4280
  276TMC3    H1 4227   2.794   1.334  14.474 -0.7519 -0.4787 -2.9920
  276TMC3    H2 4228   2.536   1.549  14.725 -0.4954  1.5800 -0.4450
  276TMC3    C7 4229   2.785   1.495  14.697  0.5758 -0.3793 -0.0546
  276TMC3    C8 4230   2.325   1.476  14.592  0.4347 -0.1397  0.0563
  276TMC3    O1 4231   2.740   1.577  14.777 -0.9472  0.0439 -0.5699
  276TMC3    O2 4232   2.232   1.513  14.519  0.4173 -0.1965  0.2611
  277MPD2     C 4233   3.848   0.224  13.387  0.4993 -0.5708  0.0279
  277MPD2    C1 4234   3.720   0.215  13.423 -0.0191 -0.0421  0.3575
  277MPD2    C2 4235   3.690   0.107  13.498 -0.2079 -0.4499 -0.2060
  277MPD2    C3 4236   3.787   0.022  13.550  0.4794 -0.3418 -0.0908
  277MPD2    C4 4237   3.919   0.043  13.523  0.7388  0.4627 -0.3685
  277MPD2    C5 4238   3.947   0.136  13.433  0.5008  0.1089  0.0510
  277MPD2     H 4239   3.587   0.095  13.530 -0.3199  1.7136  0.2557
  277MPD2    H1 4240   3.991   4.706  13.560  0.9457  1.1108  0.4869
  277MPD2    H2 4241   3.874   0.300  13.314 -1.8310  0.4135  0.2567
  277MPD2    H3 4242   4.043   0.151  13.385  0.0744 -0.2355 -0.9179
  277MPD2     N 4243   3.737   4.663  13.636 -0.1651  0.2843  0.0018
  277MPD2    H5 4244   3.638   4.646  13.648 -0.2312  0.0207 -0.9765
  277MPD2    N1 4245   3.631   0.303  13.359  0.4350 -0.3524 -0.1616
  277MPD2    H7 4246   3.669   0.389  13.318  0.6973  0.0377  0.9036
  278TMC3    C1 4247   3.733   4.522  13.819  0.2383 -0.5246  0.3448
  278TMC3    C2 4248   3.768   4.395  13.846  1.1054  0.6737  0.2802
  278TMC3    C3 4249   3.677   4.326  13.922 -0.5035  0.6430  1.2132
  278TMC3    C4 4250   3.625   4.582  13.876  0.3461 -0.1230  0.5338
  278TMC3    C5 4251   3.535   4.504  13.938 -0.1771  0.2778 -0.4653
  278TMC3    C6 4252   3.565   4.371  13.962 -0.0392 -0.4206  0.0129
  278TMC3     C 4253   3.814   4.585  13.721  0.1947 -0.2132 -0.0850
  278TMC3     O 4254   3.932   4.555  13.723 -0.1986 -0.0479  0.0884
  278TMC3     H 4255   3.866   4.356  13.822  0.9816 -0.0687  0.9727
  278TMC3    H1 4256   3.620   4.690  13.870 -1.0617 -0.1629  0.9359
  278TMC3    H2 4257   3.485   4.310  14.001 -0.9937  1.5895  1.2088
  278TMC3    C7 4258   3.441   4.569  14.021 -0.5401  0.5734 -0.3129
  278TMC3    C8 4259   3.709   4.188  13.934 -0.2716 -0.1241  0.2873
  278TMC3    O1 4260   3.482   4.670  14.077 -0.3990  0.5375 -0.2634
  278TMC3    O2 4261   3.821   4.157  13.978 -0.3817  0.5390 -0.5078
  279MPD2     C 4262   3.252   4.363   0.399 -0.1300  0.4026  0.3568
  279MPD2    C1 4263   3.196   4.487   0.404 -0.0363 -0.3007  0.5182
  279MPD2    C2 4264   3.161   4.545   0.284  0.1446  0.1209  0.1204
  279MPD2    C3 4265   3.194   4.491   0.161 -0.5697 -0.3791 -0.1801
  279MPD2    C4 4266   3.252   4.367   0.157 -0.1854 -0.6350  0.3583
  279MPD2    C5 4267   3.279   4.303   0.277 -0.2160  0.3080  0.1145
  279MPD2     H 4268   3.121   4.646   0.280  1.6844  0.7180 -0.0900
  279MPD2    H1 4269   3.289   4.319   0.068 -0.8853 -1.3606  0.4637
  279MPD2    H2 4270   3.295   4.314   0.486 -1.6970  0.9284  1.4386
  279MPD2    H3 4271   3.333   4.209   0.278 -1.3566 -0.3368  0.3375
  279MPD2     N 4272   3.168   4.553   0.034  0.1080  0.3870  0.2948
  279MPD2    H5 4273   3.213   4.504  17.698  2.5106  1.3767  1.0603
  279MPD2    N1 4274   3.208   4.552   0.530  0.2525 -0.2298  0.2301
  279MPD2    H7 4275   3.226   4.497   0.613  0.2694 -1.1909 -0.4074
  280TMC3    C1 4276   3.185   4.716   0.688 -0.9826 -0.4427 -0.2212
  280TMC3    C2 4277   3.178   4.612   0.779 -0.2304  0.0616 -0.0702
  280TMC3    C3 4278   3.130   4.639   0.902 -0.0937 -0.3150  0.5544
  280TMC3    C4 4279   3.125   0.100   0.712  0.7853 -0.0664  0.2803
  280TMC3    C5 4280   3.062   0.115   0.831  0.0140 -0.2738  0.5273
  280TMC3    C6 4281   3.075   0.025   0.936 -0.1054 -0.3636  0.0715
  280TMC3     C 4282   3.193   4.685   0.547  0.6983  0.0838 -0.2443
  280TMC3     O 4283   3.185   0.036   0.462  0.7349 -0.3257 -0.6722
  280TMC3     H 4284   3.225   4.515   0.765 -0.4150 -0.0972  0.3955
  280TMC3    H1 4285   3.109   0.168   0.629 -0.8864  2.6477  2.8289
  280TMC3    H2 4286   3.042   0.047   1.036 -0.1279  0.5660 -0.1376
  280TMC3    C7 4287   3.017   0.243   0.864 -0.3817 -0.5837 -0.2162
  280TMC3    C8 4288   3.108   4.532   0.991 -0.2007 -0.4334 -0.3465
  280TMC3    O1 4289   3.051   0.293   0.974  0.0804 -0.0872  0.1182
  280TMC3    O2 4290   3.010   4.529   1.063 -0.1676 -0.1722 -0.0229
  281TMC3    C1 4291   1.493   4.687  13.191 -0.6421 -0.0306  0.3191
  281TMC3    C2 4292   1.588   0.027  13.127  0.1201  0.0206  0.3287
  281TMC3    C3 4293   1.690   4.695  13.056 -0.6794 -0.3092  0.5478
  281TMC3    C4 4294   1.505   4.553  13.195  0.7667  0.7851 -0.7022
  281TMC3    C5 4295   1.611   4.491  13.128 -0.0704  0.1030  0.0529
  281TMC3    C6 4296   1.708   4.563  13.063 -0.0248 -0.4185 -1.2120
  281TMC3     C 4297   1.372   0.002  13.243  0.0296  0.2016 -0.5235
  281TMC3     O 4298   1.284   4.655  13.267 -0.3489  0.7972 -0.0859
  281TMC3     H 4299   1.590   0.135  13.137 -1.5520 -0.0599  1.5667
  281TMC3    H1 4300   1.429   4.490  13.239  0.2811 -0.6536 -3.5381
  281TMC3    H2 4301   1.797   4.514  13.025  0.8900 -0.0071  0.4105
  281TMC3    C7 4302   1.640   4.357  13.162 -0.2112  0.4079  0.5260
  281TMC3    C8 4303   1.806   0.029  13.008  0.0403 -0.0522  0.4212
  281TMC3    O1 4304   1.734   4.301  13.109 -0.1373 -0.1223  0.1310
  281TMC3    O2 4305   1.907   4.697  13.039  0.0827  0.5711 -0.0555
  282MPD2     C 4306   3.674   1.797  15.005 -1.2939  0.0760 -0.2528
  282MPD2    C1 4307   3.537   1.797  15.030  0.4307  0.0284 -0.4099
  282MPD2    C2 4308   3.452   1.785  14.924  0.0335 -0.4588  0.4444
  282MPD2    C3 4309   3.496   1.766  14.796 -0.3802 -0.9220 -0.3145
  282MPD2    C4 4310   3.631   1.758  14.775 -0.4792 -0.0663 -0.4125
  282MPD2    C5 4311   3.717   1.764  14.878  0.0035  0.7123 -0.0239
  282MPD2     H 4312   3.345   1.789  14.939 -0.3152 -1.1191 -1.9060
  282MPD2    H1 4313   3.677   1.747  14.678 -0.6470 -1.4640 -0.3251
  282MPD2    H2 4314   3.750   1.808  15.081 -0.5394 -0.7976 -0.8796
  282MPD2    H3 4315   3.823   1.762  14.854  0.5151 -0.1016  2.3420
  282MPD2     N 4316   3.405   1.765  14.688  0.3444  0.3693 -0.4875
  282MPD2    H5 4317   3.306   1.775  14.708  0.3875 -1.1058  0.4930
  282MPD2    N1 4318   3.487   1.818  15.159 -0.0362  0.1296  0.4800
  282MPD2    H7 4319   3.395   1.781  15.181 -0.0828  1.1685  1.9487
  283TMC3    C1 4320   3.499   1.908  15.376  1.0289 -0.2102  0.3037
  283TMC3    C2 4321   3.562   2.007  15.456  0.0359 -0.0724 -0.5563
  283TMC3    C3 4322   3.556   1.983  15.593  0.3330  0.3603  0.0061
  283TMC3    C4 4323   3.423   1.812  15.432  0.0125  0.0253  0.1439
  283TMC3    C5 4324   3.437   1.784  15.567  0.0337 -0.1092 -0.5391
  283TMC3    C6 4325   3.495   1.874  15.647  0.4449  0.6515 -0.3325
  283TMC3     C 4326   3.551   1.898  15.245  0.4673  0.5133  0.5494
  283TMC3     O 4327   3.657   1.959  15.233 -0.4559 -0.0965  0.4181
  283TMC3     H 4328   3.633   2.079  15.416 -1.0169  0.9336 -0.5931
  283TMC3    H1 4329   3.367   1.741  15.372 -2.7129  1.7017  0.6859
  283TMC3    H2 4330   3.505   1.852  15.753  1.6714  1.6399 -0.2440
  283TMC3    C7 4331   3.345   1.697  15.639 -0.7345 -0.4439 -0.3472
  283TMC3    C8 4332   3.610   2.083  15.681  0.5010 -0.3900 -0.6198
  283TMC3    O1 4333   3.321   1.738  15.749  0.1375  0.2984  0.0005
  283TMC3    O2 4334   3.662   2.044  15.784  0.0770 -0.2532  0.5375
  284MPD2     C 4335   1.590   0.770  12.026  1.0859  0.7478  0.0155
  284MPD2    C1 4336   1.706   0.784  11.962  0.1385 -0.6113 -0.5874
  284MPD2    C2 4337   1.819   0.735  12.017 -0.3473  0.3598 -0.8328
  284MPD2    C3 4338   1.814   0.667  12.138 -0.5714 -0.3620  0.0566
  284MPD2    C4 4339   1.695   0.651  12.204 -0.1536 -0.3588 -0.1877
  284MPD2    C5 4340   1.584   0.696  12.146  0.3850 -0.1893 -0.2674
  284MPD2     H 4341   1.904   0.760  11.955 -0.4354  4.0309  0.5386
  284MPD2    H1 4342   1.695   0.601  12.300  0.7854 -0.6257 -0.3232
  284MPD2    H2 4343   1.496   0.812  11.994 -0.5638 -4.2917 -1.7760
  284MPD2    H3 4344   1.492   0.673  12.199  1.5580  1.0960  2.3840
  284MPD2     N 4345   1.931   0.601  12.184 -0.5286 -0.5700 -0.2829
  284MPD2    H5 4346   1.924   0.562  12.277 -1.6312 -0.2426 -0.2341
  284MPD2    N1 4347   1.716   0.832  11.830  0.3306 -0.2062 -0.6373
  284MPD2    H7 4348   1.805   0.829  11.781  1.1454  0.8290  0.7751
  285TMC3    C1 4349   1.674   0.975  11.638 -0.6250  0.5036 -0.6314
  285TMC3    C2 4350   1.736   0.889  11.545 -0.4735 -0.3008 -0.4068
  285TMC3    C3 4351   1.822   0.954  11.454  0.1717 -0.0202  0.3508
  285TMC3    C4 4352   1.700   1.106  11.643  0.2208  0.4247  0.3880
  285TMC3    C5 4353   1.763   1.163  11.536  0.2426  0.1974 -0.0518
  285TMC3    C6 4354   1.830   1.088  11.448 -0.7457 -0.1389  0.4369
  285TMC3     C 4355   1.632   0.923  11.774 -0.7756  0.6366  0.3183
  285TMC3     O 4356   1.546   0.988  11.839  0.2415  0.6158  0.2266
  285TMC3     H 4357   1.721   0.781  11.543  0.4055 -0.4192 -0.6375
  285TMC3    H1 4358   1.660   1.161  11.727  1.4534  0.4181  0.9786
  285TMC3    H2 4359   1.883   1.140  11.369 -0.2184  0.4410  1.1718
  285TMC3    C7 4360   1.803   1.305  11.541 -0.9131 -0.3933 -0.4504
  285TMC3    C8 4361   1.911   0.870  11.374  0.2164 -0.3008 -0.1467
  285TMC3    O1 4362   1.910   1.342  11.499  0.1024 -0.4224 -0.3122
  285TMC3    O2 4363   1.869   0.758  11.358 -0.3057 -0.6409  0.0301
  286MPD2     C 4364   1.975   4.712   1.502 -0.0668  0.2053 -0.7658
  286MPD2    C1 4365   1.977   4.676   1.367 -0.3361  0.7855 -0.0601
  286MPD2    C2 4366   2.069   4.588   1.330  0.0937 -0.4147 -0.0759
  286MPD2    C3 4367   2.146   4.511   1.428 -0.4207 -0.4248  0.2345
  286MPD2    C4 4368   2.117   4.527   1.560 -0.1984  0.2899  0.4023
  286MPD2    C5 4369   2.032   4.630   1.602 -0.2491 -0.2075  0.5147
  286MPD2     H 4370   2.075   4.561   1.225  0.8566  1.0330 -0.4043
  286MPD2    H1 4371   2.180   4.479   1.634  0.4267 -1.4956 -1.2857
  286MPD2    H2 4372   1.914   0.057   1.542 -2.2236 -1.1277 -1.3569
  286MPD2    H3 4373   2.011   4.642   1.708  0.0761  2.3523  0.2904
  286MPD2     N 4374   2.233   4.406   1.395 -0.2917  0.2095  0.4100
  286MPD2    H5 4375   2.263   4.344   1.470  0.7104  0.7484  0.4528
  286MPD2    N1 4376   1.890   0.001   1.275  0.1432  0.0980  0.2392
  286MPD2    H7 4377   1.909   4.715   1.178 -0.6583 -0.6270  0.2397
  287TMC3    C1 4378   2.394   4.279   1.273 -0.8459 -0.1212 -0.2536
  287TMC3    C2 4379   2.446   4.255   1.148  0.1100 -0.5868 -0.0427
  287TMC3    C3 4380   2.559   4.186   1.134  0.2955  0.6531  0.0165
  287TMC3    C4 4381   2.449   4.236   1.387  0.5521 -0.4130  0.2078
  287TMC3    C5 4382   2.571   4.176   1.368  0.2474 -0.4445 -0.1019
  287TMC3    C6 4383   2.621   4.139   1.245 -0.3520  0.7030 -0.5902
  287TMC3     C 4384   2.289   4.382   1.272  0.0418 -0.2054  0.5985
  287TMC3     O 4385   2.264   4.439   1.165 -0.8320 -0.0546  0.0580
  287TMC3     H 4386   2.387   4.284   1.062  0.1648 -1.4316 -0.3647
  287TMC3    H1 4387   2.431   4.268   1.489  0.3886 -0.2659  0.1318
  287TMC3    H2 4388   2.701   4.067   1.233 -0.2040  1.0108 -1.4407
  287TMC3    C7 4389   2.633   4.108   1.479  0.3248  0.5023 -0.6425
  287TMC3    C8 4390   2.611   4.165   1.005  0.1548  0.1370 -0.4912
  287TMC3    O1 4391   2.580   4.115   1.589  0.3297  0.2379 -0.8257
  287TMC3    O2 4392   2.717   4.108   1.007 -0.8597  0.4255  0.5406
  288TMC3    C1 4393   3.836   4.539  14.967  0.0569  0.5222  0.3501
  288TMC3    C2 4394   3.793   4.510  15.094 -0.7594  0.1495  0.3381
  288TMC3    C3 4395   3.733   4.392  15.122 -0.3926 -0.0832  0.0872
  288TMC3    C4 4396   3.807   4.460  14.863 -0.7695  0.5298  0.7704
  288TMC3    C5 4397   3.740   4.344  14.890  0.5503  0.7050 -0.4476
  288TMC3    C6 4398   3.702   4.304  15.021 -0.5696 -0.3306  0.1433
  288TMC3     C 4399   3.908   4.661  14.951 -1.0290 -0.5631 -0.0029
  288TMC3     O 4400   3.882   0.023  15.026  0.2773  0.4044 -0.0162
  288TMC3     H 4401   3.801   4.587  15.171  2.8737 -1.1217  1.2264
  288TMC3    H1 4402   3.846   4.480  14.764 -0.5463 -1.6137  0.4421
  288TMC3    H2 4403   3.670   4.204  15.045 -1.1831  0.1118  1.1558
  288TMC3    C7 4404   3.722   4.238  14.794  0.1989  0.2171 -0.5579
  288TMC3    C8 4405   3.717   4.364  15.264 -0.2607  0.2887 -0.5502
  288TMC3    O1 4406   3.672   4.128  14.831  0.3411  0.2820 -0.2367
  288TMC3    O2 4407   3.726   4.459  15.338  0.2645  0.6316  0.2042
  289MPD2     C 4408   4.144   3.598  14.735  0.1814  0.3135 -0.1822
  289MPD2    C1 4409   4.147   3.661  14.619 -0.2211  0.1983 -0.0145
  289MPD2    C2 4410   4.041   3.641  14.533 -0.4874 -0.4714  0.1271
  289MPD2    C3 4411   3.927   3.564  14.568 -0.2685  0.0980  0.7622
  289MPD2    C4 4412   3.937   3.498  14.692  0.0275 -0.2798 -0.6649
  289MPD2    C5 4413   4.049   3.509  14.775  0.0547 -0.7428  0.5257
  289MPD2     H 4414   4.036   3.689  14.436  0.7024 -1.6225 -0.5052
  289MPD2    H1 4415   3.855   3.438  14.729 -0.1991  2.3707  3.1048
  289MPD2    H2 4416   4.217   3.622  14.812 -0.6281  2.1698  0.0122
  289MPD2    H3 4417   4.061   3.469  14.875 -1.5509 -0.6014  0.7720
  289MPD2     N 4418   3.808   3.552  14.487 -0.4402  0.1872 -0.4362
  289MPD2    H5 4419   3.733   3.495  14.524  0.6903 -1.6552 -0.9865
  289MPD2    N1 4420   4.253   3.753  14.599  0.7132 -1.0460 -0.1911
  289MPD2    H7 4421   4.314   3.763  14.679  1.0431 -0.4951 -0.5116
  290TMC3    C1 4422   3.657   3.584  14.319 -0.2712 -0.1591  0.5271
  290TMC3    C2 4423   3.624   3.705  14.260  0.6634 -0.1126  0.6422
  290TMC3    C3 4424   3.496   3.699  14.213  0.2870  0.0428  0.4596
  290TMC3    C4 4425   3.593   3.466  14.321  0.5128 -0.5181  0.1911
  290TMC3    C5 4426   3.461   3.471  14.274 -0.5406  0.2923  0.0058
  290TMC3    C6 4427   3.414   3.590  14.215  0.3876 -0.3653 -0.2241
  290TMC3     C 4428   3.793   3.595  14.359 -0.5606  0.2761  0.1702
  290TMC3     O 4429   3.864   3.663  14.290 -0.9703 -0.1924  0.0629
  290TMC3     H 4430   3.698   3.784  14.257  1.1123 -0.5081  1.2851
  290TMC3    H1 4431   3.635   3.378  14.369 -1.5123  0.0687  3.0408
  290TMC3    H2 4432   3.307   3.602  14.197  0.1076 -2.6693 -0.1189
  290TMC3    C7 4433   3.377   3.355  14.234 -0.1835  0.1266 -0.1262
  290TMC3    C8 4434   3.438   3.821  14.153 -0.3888  0.2924 -0.1085
  290TMC3    O1 4435   3.291   3.374  14.151  0.7542  0.9260 -0.7076
  290TMC3    O2 4436   3.357   3.795  14.066 -0.2507 -0.0466 -0.0465
  291MPD2     C 4437   3.918   3.281   0.848  0.2386  0.4628 -0.7587
  291MPD2    C1 4438   3.857   3.323   0.729 -0.0393  0.5709 -0.5087
  291MPD2    C2 4439   3.936   3.386   0.637  0.6948 -0.6513  0.4657
  291MPD2    C3 4440   4.070   3.410   0.658 -0.8575  0.0979 -0.3557
  291MPD2    C4 4441   4.134   3.353   0.776  0.3127  0.2562  0.1506
  291MPD2    C5 4442   4.057   3.295   0.873  0.0458  0.0248  0.1267
  291MPD2     H 4443   3.902   3.410   0.536  0.7125 -1.4434  0.2684
  291MPD2    H1 4444   4.242   3.355   0.783  0.3835  3.1903 -1.5854
  291MPD2    H2 4445   3.865   3.224   0.923  0.8084  0.4238 -0.3848
  291MPD2    H3 4446   4.101   3.254   0.963  2.4187 -0.5912 -1.3167
  291MPD2     N 4447   4.156   3.477   0.572 -0.1376  0.4461 -0.2346
  291MPD2    H5 4448   4.251   3.489   0.606 -0.2690 -1.1345  0.6800
  291MPD2    N1 4449   3.723   3.295   0.697 -0.8656  0.4019 -0.0756
  291MPD2    H7 4450   3.690   3.317   0.603  0.6858  0.9643 -0.4923
  292TMC3    C1 4451   3.502   3.234   0.732  0.4519  0.1196  0.4053
  292TMC3    C2 4452   3.395   3.264   0.803  0.3584 -0.4446 -0.8449
  292TMC3    C3 4453   3.270   3.237   0.745 -0.0250  0.3061  0.1724
  292TMC3    C4 4454   3.493   3.184   0.608  0.1315 -0.2580  0.7870
  292TMC3    C5 4455   3.364   3.163   0.558 -0.6523  0.4653 -0.5109
  292TMC3    C6 4456   3.248   3.180   0.627  0.8483 -0.2571 -0.8195
  292TMC3     C 4457   3.632   3.258   0.793  0.4058 -0.4629 -0.4445
  292TMC3     O 4458   3.638   3.250   0.917 -0.4307 -0.2829 -0.2252
  292TMC3     H 4459   3.410   3.323   0.892 -1.2339 -1.8718  0.3511
  292TMC3    H1 4460   3.581   3.159   0.549  0.0208  0.0307  0.5004
  292TMC3    H2 4461   3.152   3.153   0.585 -0.1049 -1.1731  1.9629
  292TMC3    C7 4462   3.357   3.104   0.425 -0.9912  0.1540 -0.4422
  292TMC3    C8 4463   3.160   3.246   0.831 -0.5505  0.1537 -0.7354
  292TMC3    O1 4464   3.464   3.055   0.390 -0.7171 -0.2402  0.1350
  292TMC3    O2 4465   3.168   3.321   0.929  0.2122 -0.2273  0.5036
  293MPD2     C 4466   4.649   4.627  13.027  0.2509  0.0322  0.5931
  293MPD2    C1 4467   4.626   4.553  13.143  0.5782 -0.0627 -0.0575
  293MPD2    C2 4468   4.694   4.585  13.256 -0.8574  0.7842  0.3191
  293MPD2    C3 4469   0.053   4.689  13.263 -0.0566  0.1404  0.0698
  293MPD2    C4 4470   0.068   0.030  13.147  0.4220  0.1788 -0.5584
  293MPD2    C5 4471   0.006   4.729  13.028 -0.0294 -0.5343 -0.0549
  293MPD2     H 4472   4.678   4.524  13.344  1.2073  0.0276  0.1736
  293MPD2    H1 4473   0.141   0.109  13.133 -1.3498  2.1553  1.2958
  293MPD2    H2 4474   4.586   4.613  12.940 -1.8264 -2.6148  2.4962
  293MPD2    H3 4475   0.014   0.059  12.941 -1.4759  0.8311  0.8405
  293MPD2     N 4476   0.116   4.729  13.381 -0.2256  0.3304 -0.1507
  293MPD2    H5 4477   0.102   4.663  13.457  0.6245 -0.5502 -0.7512
  293MPD2    N1 4478   4.522   4.460  13.148 -0.5950 -0.1327  0.1990
  293MPD2    H7 4479   4.466   4.453  13.064  0.7011 -1.8482 -0.5121
  294TMC3    C1 4480   4.350   4.320  13.194 -0.4827 -0.1604  0.2733
  294TMC3    C2 4481   4.372   4.189  13.174 -0.0517 -0.6475  0.2779
  294TMC3    C3 4482   4.328   4.137  13.055 -0.3741  0.4844 -0.3717
  294TMC3    C4 4483   4.282   4.397  13.097 -0.7027 -0.0904  0.2763
  294TMC3    C5 4484   4.225   4.340  12.990 -0.7286 -0.4430 -0.4194
  294TMC3    C6 4485   4.249   4.210  12.965  0.1617 -0.3343  0.0245
  294TMC3     C 4486   4.475   4.380  13.244  0.6552 -0.1587 -0.2855
  294TMC3     O 4487   4.546   4.326  13.330  0.3423 -0.1877 -0.1659
  294TMC3     H 4488   4.434   4.134  13.244  1.6178  2.0935  0.9592
  294TMC3    H1 4489   4.270   4.504  13.113  1.0430  0.0089  0.9738
  294TMC3    H2 4490   4.191   4.165  12.885  1.8951 -3.7100  0.6698
  294TMC3    C7 4491   4.266   4.415  12.876 -1.4010 -0.1389  0.4100
  294TMC3    C8 4492   4.326   3.991  13.049 -0.1467 -0.2420  0.5051
  294TMC3    O1 4493   4.374   4.474  12.899  0.2117 -0.0832  0.0350
  294TMC3    O2 4494   4.374   3.918  13.139 -0.0550 -0.0858 -0.0263
  295MPD2     C 4495   0.659   3.526   1.135 -0.0126  0.2387 -0.3812
  295MPD2    C1 4496   0.521   3.523   1.120 -0.4493 -0.4182  0.1979
  295MPD2    C2 4497   0.433   3.477   1.217 -0.2837 -0.4012 -0.3360
  295MPD2    C3 4498   0.490   3.430   1.336  0.7285 -1.0384 -0.0805
  295MPD2    C4 4499   0.624   3.423   1.350  0.6943 -0.1649  0.6971
  295MPD2    C5 4500   0.710   3.469   1.254 -0.0813  0.3345 -0.7887
  295MPD2     H 4501   0.327   3.483   1.199  0.0190 -0.6393 -2.2880
  295MPD2    H1 4502   0.666   3.379   1.439 -0.5038 -0.9679  0.8656
  295MPD2    H2 4503   0.724   3.572   1.062  0.6971 -0.0410  0.0806
  295MPD2    H3 4504   0.817   3.462   1.269 -0.2250  1.2702  0.7078
  295MPD2     N 4505   0.405   3.376   1.438 -0.2188 -0.3775  0.2150
  295MPD2    H5 4506   0.451   3.340   1.521 -0.1242 -0.3715  0.1639
  295MPD2    N1 4507   0.465   3.577   1.006 -0.0225 -0.6235  0.3247
  295MPD2    H7 4508   0.366   3.597   1.017  0.1216  0.8304 -1.0136
  296TMC3    C1 4509   0.213   3.336   1.571  0.0446 -0.4724 -0.0150
  296TMC3    C2 4510   0.120   3.401   1.648  0.5952 -0.2914 -0.3673
  296TMC3    C3 4511   0.080   3.342   1.763  0.2616 -0.5918  0.4759
  296TMC3    C4 4512   0.260   3.218   1.605 -0.0914 -0.1827  0.0911
  296TMC3    C5 4513   0.218   3.160   1.722  0.5076  0.6279 -0.1582
  296TMC3    C6 4514   0.138   3.229   1.806  0.2637  0.5342  0.2451
  296TMC3     C 4515   0.265   3.388   1.449  0.0410  0.0119  0.1114
  296TMC3     O 4516   0.180   3.442   1.380 -0.2925  0.7140  0.0852
  296TMC3     H 4517   0.073   3.490   1.607  1.0834 -0.4963 -1.3961
  296TMC3    H1 4518   0.317   3.162   1.531  0.7370  1.8279 -0.7916
  296TMC3    H2 4519   0.112   3.176   1.898  0.9830  3.3304  2.0517
  296TMC3    C7 4520   0.265   3.015   1.755  0.8165  0.4872  0.1284
  296TMC3    C8 4521   4.693   3.397   1.829  0.1404 -0.3487  0.3014
  296TMC3    O1 4522   0.239   2.979   1.866 -0.3900 -0.2162 -0.0017
  296TMC3    O2 4523   4.622   3.332   1.905  0.0989 -0.2163  0.3682
  297MPD2     C 4524   3.118   0.658  17.007  0.3316 -0.1294 -0.1218
  297MPD2    C1 4525   3.085   0.702  16.879 -0.3732 -0.2402 -0.4024
  297MPD2    C2 4526   3.146   0.812  16.827  0.0757  0.2982 -0.0097
  297MPD2    C3 4527   3.248   0.875  16.895 -0.1402 -0.2732 -0.0370
  297MPD2    C4 4528   3.277   0.832  17.028  0.1311 -0.9290 -0.4861
  297MPD2    C5 4529   3.217   0.723  17.079  0.1725 -0.4776  0.7565
  297MPD2     H 4530   3.117   0.862  16.736  1.6443 -2.0088 -1.7685
  297MPD2    H1 4531   3.344   0.877  17.100  1.0844 -1.4161 -1.0691
  297MPD2    H2 4532   3.079   0.568  17.053 -0.5409 -0.1661 -0.9161
  297MPD2    H3 4533   3.254   0.682  17.172  1.3778 -1.4117 -0.1297
  297MPD2     N 4534   3.314   0.982  16.824 -0.3233  0.0978  0.0803
  297MPD2    H5 4535   3.296   0.993  16.725 -1.9002 -0.0712  0.3475
  297MPD2    N1 4536   2.971   0.654  16.814 -0.0467 -0.4119  0.0535
  297MPD2    H7 4537   2.956   0.698  16.724  0.2696 -0.8464 -0.2150
  298TMC3    C1 4538   2.761   0.556  16.772  0.0890  0.2739 -1.1560
  298TMC3    C2 4539   2.792   0.538  16.641 -0.1015 -0.3191 -0.0424
  298TMC3    C3 4540   2.714   0.604  16.551 -0.4107 -0.8941  0.4106
  298TMC3    C4 4541   2.666   0.652  16.807 -0.0492 -0.3842  0.0893
  298TMC3    C5 4542   2.601   0.723  16.709  0.7934  0.3053  0.0190
  298TMC3    C6 4543   2.610   0.695  16.574 -0.3348 -0.7062  0.4620
  298TMC3     C 4544   2.877   0.568  16.858  0.3674 -0.4378  0.2604
  298TMC3     O 4545   2.872   0.512  16.963 -0.2360  0.3381 -0.4155
  298TMC3     H 4546   2.874   0.475  16.610 -0.9313 -0.4973 -1.8863
  298TMC3    H1 4547   2.672   0.694  16.907 -1.2694 -1.2553  0.5263
  298TMC3    H2 4548   2.574   0.761  16.495 -0.7852 -0.9706  0.4425
  298TMC3    C7 4549   2.506   0.823  16.753  1.1610  0.2858 -0.3017
  298TMC3    C8 4550   2.729   0.577  16.410 -0.4982  0.7161  0.1766
  298TMC3    O1 4551   2.505   0.849  16.872 -0.1013 -0.1620  0.1123
  298TMC3    O2 4552   2.662   0.634  16.327  0.0528  0.1668 -0.5970
  299MPD2     C 4553   3.272   0.303  11.110  0.0725  0.3224 -0.1987
  299MPD2    C1 4554   3.366   0.355  11.023  0.3060  0.1815 -0.8212
  299MPD2    C2 4555   3.329   0.352  10.886 -0.0553  0.0219  0.2834
  299MPD2    C3 4556   3.209   0.297  10.844 -0.5298 -0.4547 -0.5402
  299MPD2    C4 4557   3.125   0.241  10.934 -0.3971  0.2686 -0.4685
  299MPD2    C5 4558   3.157   0.248  11.068  0.5958  0.5768 -0.5837
  299MPD2     H 4559   3.404   0.381  10.814  0.8450 -0.3988  1.0558
  299MPD2    H1 4560   3.037   0.187  10.903  0.1407 -0.9342  0.1136
  299MPD2    H2 4561   3.292   0.306  11.217  0.4710  2.0747 -0.3280
  299MPD2    H3 4562   3.090   0.203  11.140 -0.0264 -1.4038 -2.4154
  299MPD2     N 4563   3.167   0.292  10.712 -0.2371  0.4678  0.1458
  299MPD2    H5 4564   3.073   0.256  10.719 -0.0353  0.1081  1.0792
  299MPD2    N1 4565   3.497   0.385  11.065 -0.1647 -0.2590  0.3392
  299MPD2    H7 4566   3.516   0.351  11.159 -0.4533 -0.1998  0.4179
  300TMC3    C1 4567   3.143   0.336  10.481  0.5919 -0.0547 -0.2066
  300TMC3    C2 4568   3.119   0.438  10.393  0.0551  0.1517 -0.5948
  300TMC3    C3 4569   3.040   0.422  10.289  0.0990  0.3432 -0.2076
  300TMC3    C4 4570   3.083   0.219  10.462 -0.2555  0.2763 -0.0781
  300TMC3    C5 4571   3.020   0.194  10.347  0.0308 -0.4671  0.1752
  300TMC3    C6 4572   2.998   0.296  10.255  0.1371  0.7394  0.0934
  300TMC3     C 4573   3.214   0.369  10.610  0.2178  0.2880  0.0477
  300TMC3     O 4574   3.292   0.463  10.606 -0.1460 -0.1840 -0.0597
  300TMC3     H 4575   3.152   0.534  10.432 -0.9153 -0.5483  1.9390
  300TMC3    H1 4576   3.102   0.140  10.533 -0.3734 -0.0721 -0.4380
  300TMC3    H2 4577   2.915   0.282  10.187 -0.3107 -0.1652  0.8185
  300TMC3    C7 4578   2.917   0.091  10.357  0.1772  0.4054 -0.3661
  300TMC3    C8 4579   2.956   0.534  10.254  0.3860  0.3628 -0.2435
  300TMC3    O1 4580   2.895   0.030  10.250  0.3257 -0.0234 -0.1512
  300TMC3    O2 4581   2.845   0.502  10.212 -0.0770  0.3599  0.1400
  301MPD2     C 4582   1.077   1.689   1.395 -0.6387  0.5808 -0.4038
  301MPD2    C1 4583   1.001   1.669   1.278 -0.1368 -0.5423 -0.0235
  301MPD2    C2 4584   0.960   1.540   1.248  0.1551 -0.2751 -0.3569
  301MPD2    C3 4585   0.986   1.427   1.326  0.3732 -0.4066  0.0383
  301MPD2    C4 4586   1.061   1.454   1.441  0.2457 -0.5311 -0.3429
  301MPD2    C5 4587   1.106   1.583   1.477  0.0098 -0.3167 -0.2267
  301MPD2     H 4588   0.905   1.543   1.155  1.2122  1.2279 -0.9415
  301MPD2    H1 4589   1.066   1.381   1.522 -2.2233 -0.0002  0.3030
  301MPD2    H2 4590   1.092   1.790   1.430  0.7770  0.2995 -0.2229
  301MPD2    H3 4591   1.159   1.604   1.569  0.1705  2.8455 -1.0611
  301MPD2     N 4592   0.942   1.296   1.292  1.0326  0.0096 -0.6454
  301MPD2    H5 4593   0.953   1.227   1.366  0.2270  0.9053  0.3079
  301MPD2    N1 4594   0.961   1.772   1.191 -0.1512  0.2894 -0.2801
  301MPD2    H7 4595   0.893   1.736   1.125 -1.7040  2.4111  0.1620
  302TMC3    C1 4596   0.813   1.127   1.188  0.2211  0.1521  0.3229
  302TMC3    C2 4597   0.842   1.029   1.281 -0.1122  0.1589  0.6620
  302TMC3    C3 4598   0.776   0.905   1.267 -0.4413 -0.0737  0.3101
  302TMC3    C4 4599   0.721   1.103   1.094 -0.0753  0.0352 -0.3461
  302TMC3    C5 4600   0.654   0.983   1.082 -0.6654  0.6028 -0.7484
  302TMC3    C6 4601   0.685   0.880   1.164  0.1690 -0.2574 -0.1285
  302TMC3     C 4602   0.846   1.270   1.201 -0.0946  0.1091 -0.3379
  302TMC3     O 4603   0.780   1.351   1.137 -0.3433 -0.5216  0.2175
  302TMC3     H 4604   0.918   1.055   1.354  0.6683  0.1852 -0.1522
  302TMC3    H1 4605   0.691   1.182   1.026 -1.5950 -0.5675 -0.3844
  302TMC3    H2 4606   0.627   0.790   1.150 -0.1474 -0.3686  1.8159
  302TMC3    C7 4607   0.578   0.948   0.963  0.8549  0.1864  0.2073
  302TMC3    C8 4608   0.790   0.809   1.368  0.0208 -0.6135 -0.0125
  302TMC3    O1 4609   0.580   0.832   0.926 -0.1137  0.7031 -0.6840
  302TMC3    O2 4610   0.899   0.806   1.428 -0.2020 -0.3352 -0.0122
  303MPD2     C 4611   0.764   4.623  10.937  0.2405  0.1347 -0.3704
  303MPD2    C1 4612   0.729   4.502  10.883  0.7463  0.6387  0.4449
  303MPD2    C2 4613   0.782   4.462  10.764  0.0778 -0.2398  0.5470
  303MPD2    C3 4614   0.867   4.543  10.694 -0.2516 -0.8904 -0.8500
  303MPD2    C4 4615   0.898   4.668  10.746  0.3355 -0.2282  0.6535
  303MPD2    C5 4616   0.853   4.702  10.873 -0.0628  0.5418  0.0674
  303MPD2     H 4617   0.757   4.368  10.716 -2.2880  0.2016  0.9067
  303MPD2    H1 4618   0.957   0.003  10.688 -2.8199  1.4584 -0.5076
  303MPD2    H2 4619   0.726   4.645  11.036  0.5520 -0.9620 -0.0078
  303MPD2    H3 4620   0.898   0.055  10.916  2.4073  0.3182 -2.0234
  303MPD2     N 4621   0.903   4.515  10.558  0.0904  0.1430  0.3342
  303MPD2    H5 4622   0.958   4.585  10.509 -0.6266  1.5925  1.6275
  303MPD2    N1 4623   0.654   4.415  10.965  0.8061  0.4414 -0.0663
  303MPD2    H7 4624   0.622   4.440  11.058 -0.3641  1.5228 -0.7570
  304TMC3    C1 4625   0.518   4.232  11.017  0.1588 -0.6671  0.5128
  304TMC3    C2 4626   0.407   4.154  10.981 -0.6365 -0.8653  0.4934
  304TMC3    C3 4627   0.383   4.039  11.049  0.4105  0.1248  0.3461
  304TMC3    C4 4628   0.596   4.207  11.122 -0.3748 -0.2576  0.2793
  304TMC3    C5 4629   0.582   4.086  11.185 -0.4336 -0.5392  0.9253
  304TMC3    C6 4630   0.480   4.005  11.149  0.8235  0.3129 -0.3806
  304TMC3     C 4631   0.576   4.311  10.912 -0.1038 -0.4739 -0.7230
  304TMC3     O 4632   0.551   4.285  10.796  0.1375  0.6108 -0.6840
  304TMC3     H 4633   0.350   4.179  10.892  1.1448  0.2376 -0.3518
  304TMC3    H1 4634   0.689   4.261  11.136 -1.0346  0.1413  3.2927
  304TMC3    H2 4635   0.470   3.914  11.207 -0.0583  0.4543 -0.3169
  304TMC3    C7 4636   0.700   4.008  11.183  0.6434  0.3892  0.5158
  304TMC3    C8 4637   0.364   3.926  10.963 -0.5582  0.2498 -0.5939
  304TMC3    O1 4638   0.800   4.043  11.244  0.1241  0.0760 -0.3607
  304TMC3    O2 4639   0.430   3.824  10.981  0.1525 -0.2602 -0.3710
  305MPD2     C 4640   3.815   2.399  14.182 -0.9515  0.4185 -0.7459
  305MPD2    C1 4641   3.838   2.268  14.178 -0.1122 -0.7159  0.2003
  305MPD2    C2 4642   3.815   2.189  14.066  0.3061 -0.2111 -0.1077
  305MPD2    C3 4643   3.762   2.249  13.957  0.1129  0.0213  0.1142
  305MPD2    C4 4644   3.718   2.383  13.963 -0.1520  0.0365 -0.4612
  305MPD2    C5 4645   3.762   2.460  14.070 -0.5643  0.1216 -0.4194
  305MPD2     H 4646   3.834   2.082  14.063 -1.5255 -0.5101 -0.9003
  305MPD2    H1 4647   3.668   2.424  13.876  0.8766  1.9220 -0.1659
  305MPD2    H2 4648   3.846   2.457  14.268 -1.0710  0.6933 -0.8886
  305MPD2    H3 4649   3.750   2.568  14.073 -1.3837  0.0655 -1.7607
  305MPD2     N 4650   3.726   2.183  13.841 -0.0226  0.3770 -0.2325
  305MPD2    H5 4651   3.676   2.238  13.773  0.3677  1.0539  0.0350
  305MPD2    N1 4652   3.880   2.208  14.299  0.1038  0.0058  0.0745
  305MPD2    H7 4653   3.889   2.275  14.375 -0.5547  0.2170 -0.0363
  306TMC3    C1 4654   3.987   2.045  14.442  0.2237 -0.5891 -1.0103
  306TMC3    C2 4655   4.111   1.987  14.442 -0.1566  0.0841  0.4697
  306TMC3    C3 4656   4.192   2.007  14.551 -0.1037 -0.3293 -0.6149
  306TMC3    C4 4657   3.941   2.118  14.550  0.0796 -0.1826  0.7611
  306TMC3    C5 4658   4.025   2.125  14.658  0.0031  0.4622 -0.0899
  306TMC3    C6 4659   4.153   2.073  14.661  0.2243  0.7935  0.5911
  306TMC3     C 4660   3.933   2.076  14.308 -0.2579 -0.2659 -0.1243
  306TMC3     O 4661   3.914   1.978  14.238 -0.2398  0.1856  0.2433
  306TMC3     H 4662   4.133   1.919  14.361  0.1117  1.3904 -0.5709
  306TMC3    H1 4663   3.850   2.177  14.555 -1.3361 -2.2780 -0.2324
  306TMC3    H2 4664   4.203   2.057  14.756  2.0002 -1.5010 -0.7318
  306TMC3    C7 4665   3.981   2.215  14.764  0.4588  0.1420 -0.4436
  306TMC3    C8 4666   4.303   1.919  14.562 -0.1953 -0.0420  0.4961
  306TMC3    O1 4667   3.856   2.218  14.774  0.1038  0.2690 -0.5400
  306TMC3    O2 4668   4.365   1.897  14.458  0.5432  0.2151  0.2212
  307MPD2     C 4669   1.777   0.526  17.697  0.2347  0.2771  0.0309
  307MPD2    C1 4670   1.804   0.621   0.052 -0.0672 -1.8298 -0.1341
  307MPD2    C2 4671   1.769   0.588   0.184  0.1329  0.0565 -0.0383
  307MPD2    C3 4672   1.691   0.477   0.219  0.7540 -0.2637  0.1354
  307MPD2    C4 4673   1.669   0.380   0.117 -0.0842 -0.0836  0.4100
  307MPD2    C5 4674   1.715   0.415  17.735 -0.1896 -0.4888 -0.1822
  307MPD2     H 4675   1.780   0.662   0.263 -2.1383  1.0708 -0.6792
  307MPD2    H1 4676   1.619   0.284   0.114 -2.0718  0.9818 -0.0844
  307MPD2    H2 4677   1.799   0.538  17.592 -2.7837  1.7801 -0.4510
  307MPD2    H3 4678   1.680   0.354  17.653  1.5533  2.3297 -3.0048
  307MPD2     N 4679   1.663   0.458   0.358  0.1136  0.2805  0.6914
  307MPD2    H5 4680   1.713   0.517   0.423 -1.3279  0.5984  1.5280
  307MPD2    N1 4681   1.873   0.741   0.022  0.0257 -0.4091 -0.3407
  307MPD2    H7 4682   1.888   0.811   0.093  0.4918 -0.8070 -0.0526
  308TMC3    C1 4683   1.380   0.329   0.709 -0.1664  0.1112 -0.1588
  308TMC3    C2 4684   1.409   0.443   0.770  0.7880  0.1506  0.1104
  308TMC3    C3 4685   1.516   0.520   0.725 -0.6963 -0.3163 -0.1010
  308TMC3    C4 4686   1.447   0.281   0.596  0.2029 -0.4109 -0.5770
  308TMC3    C5 4687   1.540   0.372   0.542 -0.4674 -0.1591  0.3942
  308TMC3    C6 4688   1.569   0.492   0.604 -0.1354 -0.4841  0.7056
  308TMC3     C 4689   1.264   0.256   0.744  0.3938 -0.5111 -0.6472
  308TMC3     O 4690   1.249   0.144   0.693 -0.0131  0.4212 -0.4538
  308TMC3     H 4691   1.361   0.466   0.865  2.5148  1.3424  0.6821
  308TMC3    H1 4692   1.412   0.197   0.536 -0.4873  0.8115 -1.8909
  308TMC3    H2 4693   1.627   0.572   0.560 -0.3398 -0.7859 -0.1170
  308TMC3    C7 4694   1.592   0.353   0.407 -0.1197 -0.0030 -0.0859
  308TMC3    C8 4695   1.513   0.663   0.752 -0.4580  0.0606 -0.3469
  308TMC3    O1 4696   1.550   0.251   0.346  0.5200 -0.8883  0.4230
  308TMC3    O2 4697   1.406   0.718   0.777  0.2025 -0.8188  0.5502
  309MPD2     C 4698   0.148   0.459  16.957 -0.2869 -0.1438  0.1389
  309MPD2    C1 4699   0.269   0.469  17.023 -0.4502  0.5182 -0.4735
  309MPD2    C2 4700   0.273   0.514  17.152 -0.2337  0.1503 -0.0260
  309MPD2    C3 4701   0.152   0.538  17.221  1.2208 -0.6812 -0.5285
  309MPD2    C4 4702   0.034   0.522  17.159  0.2018 -0.2058  0.2789
  309MPD2    C5 4703   0.036   0.485  17.026 -0.4353 -0.1792 -0.2485
  309MPD2     H 4704   0.372   0.536  17.191  0.1291 -1.7415  0.1198
  309MPD2    H1 4705   4.672   0.546  17.200  0.4471  0.8423  0.2427
  309MPD2    H2 4706   0.149   0.442  16.850 -0.9275  1.5512 -0.1439
  309MPD2    H3 4707   4.677   0.490  16.973 -0.3596  1.3003 -0.2343
  309MPD2     N 4708   0.146   0.578  17.351  0.4939 -0.1821 -0.0846
  309MPD2    H5 4709   0.054   0.603  17.384  0.7153 -0.0532  0.4344
  309MPD2    N1 4710   0.394   0.443  16.962 -0.9673  0.1021 -0.1559
  309MPD2    H7 4711   0.470   0.471  17.024 -0.8542 -2.1983  0.7679
  310TMC3    C1 4712   0.558   0.416  16.808 -0.2533 -0.3613 -0.1525
  310TMC3    C2 4713   0.598   0.435  16.684  0.1273  0.6587 -0.1154
  310TMC3    C3 4714   0.733   0.456  16.664  1.0247 -0.0515 -0.3803
  310TMC3    C4 4715   0.642   0.384  16.910 -0.8387 -0.1104  0.0891
  310TMC3    C5 4716   0.773   0.397  16.885 -0.2121  0.0058  0.1136
  310TMC3    C6 4717   0.823   0.419  16.757  0.4247 -0.6529  0.4081
  310TMC3     C 4718   0.416   0.403  16.834 -0.3976 -0.2351 -0.6760
  310TMC3     O 4719   0.343   0.384  16.740  0.9759  0.0213  0.3285
  310TMC3     H 4720   0.528   0.472  16.610  2.2632  1.7786 -1.5726
  310TMC3    H1 4721   0.613   0.350  17.009  0.1350 -2.6740 -0.4955
  310TMC3    H2 4722   0.929   0.439  16.747  0.1344 -1.5015 -4.0929
  310TMC3    C7 4723   0.859   0.327  16.982  0.8098  0.4698 -0.0365
  310TMC3    C8 4724   0.774   0.500  16.528  0.4137 -0.5248 -0.3034
  310TMC3    O1 4725   0.808   0.292  17.088  0.1680  0.0727 -0.4578
  310TMC3    O2 4726   0.690   0.500  16.442  0.4470 -0.2162 -0.1059
  311MPD2     C 4727   2.932   1.320  12.550 -0.0933  1.0321  0.7709
  311MPD2    C1 4728   2.918   1.435  12.624 -0.4671  0.2802 -0.2155
  311MPD2    C2 4729   2.793   1.477  12.674 -0.5370 -0.2599  0.6791
  311MPD2    C3 4730   2.684   1.387  12.659  0.0853  0.0429 -0.1385
  311MPD2    C4 4731   2.694   1.276  12.572  0.5693 -0.2879 -0.0897
  311MPD2    C5 4732   2.817   1.237  12.528 -0.2095  0.3489 -0.2706
  311MPD2     H 4733   2.771   1.559  12.742  0.4281 -0.9480  1.8300
  311MPD2    H1 4734   2.604   1.222  12.546 -0.0625  0.5322  0.3887
  311MPD2    H2 4735   3.025   1.281  12.509 -1.2600 -0.2881 -0.6415
  311MPD2    H3 4736   2.836   1.137  12.490  0.1358 -0.1899  1.3381
  311MPD2     N 4737   2.557   1.425  12.716  0.1340 -0.3743 -0.9460
  311MPD2    H5 4738   2.551   1.519  12.754  0.2976 -0.6600 -0.2010
  311MPD2    N1 4739   3.034   1.501  12.669 -0.5461  0.4415 -0.1324
  311MPD2    H7 4740   3.021   1.596  12.702  0.0966  0.5746 -0.2629
  312TMC3    C1 4741   2.323   1.432  12.712 -0.3868  0.0023 -0.1543
  312TMC3    C2 4742   2.220   1.406  12.632  0.3843  0.1722 -0.2369
  312TMC3    C3 4743   2.119   1.497  12.624 -0.5480  0.3439  0.6561
  312TMC3    C4 4744   2.322   1.542  12.795  0.4862 -0.0807 -0.3046
  312TMC3    C5 4745   2.220   1.635  12.786  0.6613  0.3285 -0.0374
  312TMC3    C6 4746   2.119   1.604  12.697  0.1422  0.0187 -0.1150
  312TMC3     C 4747   2.442   1.350  12.691 -0.4529 -0.5634  0.4472
  312TMC3     O 4748   2.425   1.235  12.654  0.3949 -0.1402 -0.2129
  312TMC3     H 4749   2.217   1.323  12.562  0.1130  0.6209 -0.7573
  312TMC3    H1 4750   2.406   1.564  12.861 -0.3268  0.2674  0.6156
  312TMC3    H2 4751   2.039   1.676  12.688 -0.3904 -0.2897  2.2190
  312TMC3    C7 4752   2.167   1.691  12.904  0.1925 -0.3189  0.3805
  312TMC3    C8 4753   1.993   1.454  12.580  0.1669 -0.2241 -1.3837
  312TMC3    O1 4754   2.086   1.786  12.890 -0.1747  0.0378 -0.1098
  312TMC3    O2 4755   1.961   1.333  12.595  0.0923  0.6585 -0.9304
  313MPD2     C 4756   1.547   1.220  11.275 -0.4416 -0.5973 -0.5262
  313MPD2    C1 4757   1.661   1.245  11.205 -0.0577 -0.1159  0.3487
  313MPD2    C2 4758   1.714   1.144  11.125  0.6184  0.2747  0.3704
  313MPD2    C3 4759   1.659   1.021  11.119 -0.7614  0.5669 -0.2854
  313MPD2    C4 4760   1.552   0.992  11.195  0.4229  0.4572 -0.4403
  313MPD2    C5 4761   1.495   1.090  11.272  0.4832  0.0842 -0.2256
  313MPD2     H 4762   1.797   1.173  11.061 -0.9601  1.6891 -1.0561
  313MPD2    H1 4763   1.498   0.898  11.195 -1.2333  1.4100  2.3728
  313MPD2    H2 4764   1.511   1.284  11.355  0.1120  0.8031 -1.4101
  313MPD2    H3 4765   1.411   1.071  11.338  0.7430 -1.8825 -0.4833
  313MPD2     N 4766   1.714   0.930  11.025 -0.6306 -0.2981 -0.3304
  313MPD2    H5 4767   1.794   0.960  10.971 -2.5051  2.0181 -1.8216
  313MPD2    N1 4768   1.716   1.377  11.215 -0.2186  0.6374  0.3757
  313MPD2    H7 4769   1.810   1.383  11.177 -0.9598 -0.3969 -1.6052
  314TMC3    C1 4770   1.731   1.601  11.227 -0.3107  0.2326 -0.5347
  314TMC3    C2 4771   1.854   1.612  11.286  0.5665  0.1734 -0.8178
  314TMC3    C3 4772   1.942   1.701  11.233 -0.3033 -0.1705 -0.2532
  314TMC3    C4 4773   1.686   1.684  11.130  0.1148  0.4149 -0.2244
  314TMC3    C5 4774   1.770   1.787  11.095  0.9881 -0.7010  0.1090
  314TMC3    C6 4775   1.898   1.799  11.148  1.4012  0.3369  0.5035
  314TMC3     C 4776   1.648   1.489  11.249  0.2324  0.1660  0.3912
  314TMC3     O 4777   1.527   1.509  11.258 -0.2714  0.7662 -0.4248
  314TMC3     H 4778   1.879   1.542  11.364  1.3557  0.1923 -1.0509
  314TMC3    H1 4779   1.589   1.673  11.083 -0.1650  0.8241  0.2607
  314TMC3    H2 4780   1.973   1.869  11.113  1.8332  0.5910  1.9445
  314TMC3    C7 4781   1.769   1.796  10.949  0.1755 -0.5100  0.0361
  314TMC3    C8 4782   2.081   1.669  11.237  0.0285  0.3751 -0.1944
  314TMC3    O1 4783   1.658   1.790  10.896 -0.1969  0.1816 -0.5240
  314TMC3    O2 4784   2.140   1.704  11.132  0.0240  0.4010  0.7401
  315MPD2     C 4785   2.312   0.140   0.028 -0.6169 -0.4931 -0.2685
  315MPD2    C1 4786   2.330   0.154   0.165 -0.0457  0.3752 -0.1963
  315MPD2    C2 4787   2.372   0.279   0.205 -0.1563  0.2638 -0.4594
  315MPD2    C3 4788   2.413   0.378   0.123 -0.5035 -0.4479 -0.2704
  315MPD2    C4 4789   2.416   0.346  17.728  0.0175  0.0297  0.5174
  315MPD2    C5 4790   2.356   0.230  17.677 -0.2118 -0.1671 -0.5369
  315MPD2     H 4791   2.387   0.301   0.310  0.9390  0.9490 -0.7621
  315MPD2    H1 4792   2.451   0.411  17.649 -2.2760 -1.8845 -2.1089
  315MPD2    H2 4793   2.280   0.046  17.725 -1.0320 -0.5331  0.1380
  315MPD2    H3 4794   2.350   0.228  17.569  1.4189 -3.1329 -0.5916
  315MPD2     N 4795   2.452   0.501   0.183  0.4523  0.2494  0.2694
  315MPD2    H5 4796   2.485   0.511   0.278 -2.2358  2.3219  0.9761
  315MPD2    N1 4797   2.303   0.058   0.265  0.0634 -0.5104 -0.3290
  315MPD2    H7 4798   2.332   0.077   0.360 -0.5309  0.1091 -0.2674
  316TMC3    C1 4799   2.541   0.717   0.172 -0.0003 -0.2861 -0.6009
  316TMC3    C2 4800   2.624   0.694   0.278  0.1643  0.0098  0.4499
  316TMC3    C3 4801   2.660   0.801   0.356 -0.2238  0.3536  0.3911
  316TMC3    C4 4802   2.511   0.845   0.127  0.0382  0.2509  0.1332
  316TMC3    C5 4803   2.547   0.945   0.213 -0.3482  0.3175  1.1313
  316TMC3    C6 4804   2.620   0.928   0.323  0.6551  0.1866 -0.0427
  316TMC3     C 4805   2.464   0.614   0.105  0.4913 -0.6715  0.0996
  316TMC3     O 4806   2.439   0.632  17.726 -0.8270 -0.1994 -0.1489
  316TMC3     H 4807   2.663   0.598   0.311 -2.4316 -0.8963  0.9172
  316TMC3    H1 4808   2.439   0.858   0.047 -0.2110  0.8511  0.4506
  316TMC3    H2 4809   2.638   1.007   0.395  0.6785  1.2849 -1.2484
  316TMC3    C7 4810   2.465   1.069   0.218 -0.1875  0.1200 -0.4324
  316TMC3    C8 4811   2.747   0.789   0.468  0.1559  0.3706 -0.1485
  316TMC3    O1 4812   2.438   1.116   0.328 -0.4490  0.4805  0.6669
  316TMC3    O2 4813   2.785   0.894   0.520 -0.4063  0.0118  0.1052
  317MPD2     C 4814   3.544   3.472  13.191 -0.5029 -0.4511 -0.1768
  317MPD2    C1 4815   3.608   3.352  13.184  0.1485  0.7846 -0.2032
  317MPD2    C2 4816   3.705   3.319  13.281 -0.6971 -0.3704  0.6227
  317MPD2    C3 4817   3.727   3.400  13.391  0.2094  0.0264 -0.5984
  317MPD2    C4 4818   3.668   3.527  13.399 -0.1075 -0.3405  0.1653
  317MPD2    C5 4819   3.571   3.550  13.305 -0.8507 -0.0869  0.4735
  317MPD2     H 4820   3.749   3.220  13.284  1.8579  0.6913 -1.2595
  317MPD2    H1 4821   3.678   3.596  13.483  0.7293  0.2509 -0.4148
  317MPD2    H2 4822   3.477   3.516  13.117  1.1826  0.3618 -1.2156
  317MPD2    H3 4823   3.520   3.646  13.312 -3.2694 -1.4771  1.6913
  317MPD2     N 4824   3.814   3.355  13.491  0.2354 -0.1044 -0.6828
  317MPD2    H5 4825   3.853   3.261  13.490 -3.2321 -1.5139 -1.4217
  317MPD2    N1 4826   3.590   3.259  13.085  0.5087  0.1057 -0.4363
  317MPD2    H7 4827   3.636   3.170  13.095  0.7855  0.5500  2.1323
  318TMC3    C1 4828   3.933   3.348  13.688 -0.5712 -0.6167 -0.7001
  318TMC3    C2 4829   3.904   3.213  13.700 -0.3497 -0.4046 -0.7037
  318TMC3    C3 4830   3.991   3.139  13.777 -0.7049  0.2378 -0.5029
  318TMC3    C4 4831   4.045   3.398  13.742  0.2952  0.4317 -0.1162
  318TMC3    C5 4832   4.140   3.314  13.794 -0.9715 -0.4850  0.0287
  318TMC3    C6 4833   4.105   3.181  13.825 -0.1609 -0.5889 -0.7254
  318TMC3     C 4834   3.865   3.432  13.593 -0.3336  0.5328 -0.0665
  318TMC3     O 4835   3.867   3.557  13.612 -0.2803 -0.1813  0.4675
  318TMC3     H 4836   3.810   3.177  13.662  0.0858 -0.6976 -1.4975
  318TMC3    H1 4837   4.063   3.505  13.735 -0.4446  0.6715  1.7351
  318TMC3    H2 4838   4.157   3.117  13.896  0.1868  1.7809  1.1431
  318TMC3    C7 4839   4.274   3.358  13.824 -0.5050 -0.4526 -0.6557
  318TMC3    C8 4840   3.976   2.994  13.784 -0.0730  0.3625  0.2186
  318TMC3    O1 4841   4.289   3.476  13.828 -0.0856  0.5181  0.1967
  318TMC3    O2 4842   4.016   2.930  13.883 -0.2621 -0.4482  0.1931
  319MPD2     C 4843   4.358   0.602  17.111  0.6529 -0.0134  0.0756
  319MPD2    C1 4844   4.401   0.467  17.109 -0.0995 -0.2643 -0.7322
  319MPD2    C2 4845   4.372   0.386  17.005  0.3682 -0.2038 -0.1940
  319MPD2    C3 4846   4.304   0.434  16.897 -0.1132  0.1970 -0.4683
  319MPD2    C4 4847   4.251   0.563  16.908 -0.3496 -0.2239 -0.1598
  319MPD2    C5 4848   4.284   0.650  17.011 -0.2967 -0.4958  0.1652
  319MPD2     H 4849   4.416   0.287  17.010 -0.8226 -0.7401 -0.2821
  319MPD2    H1 4850   4.190   0.607  16.830  0.0900  2.9826  1.3184
  319MPD2    H2 4851   4.389   0.660  17.198  2.3141  0.1940 -0.6603
  319MPD2    H3 4852   4.238   0.746  17.033 -0.3966 -0.2549 -1.1061
  319MPD2     N 4853   4.263   0.347  16.792  0.5703  0.0366  0.0984
  319MPD2    H5 4854   4.200   0.380  16.720  0.9493  0.8068  0.1195
  319MPD2    N1 4855   4.457   0.401  17.221 -0.2708  0.1865  0.4788
  319MPD2    H7 4856   4.483   0.303  17.213  0.2020  0.2601  1.1111
  320TMC3    C1 4857   4.233   0.150  16.673  0.0334 -0.0909  0.7748
  320TMC3    C2 4858   4.118   0.206  16.615 -0.2892  0.0204  1.2802
  320TMC3    C3 4859   4.048   0.124  16.524  0.8672  1.0162 -0.1598
  320TMC3    C4 4860   4.269   0.023  16.648  0.1139 -0.1360 -1.0582
  320TMC3    C5 4861   4.198   4.678  16.565  0.3516  0.4005  0.0195
  320TMC3    C6 4862   4.092   0.002  16.499 -0.1098  0.2943 -0.1584
  320TMC3     C 4863   4.318   0.224  16.769 -0.3617  0.2887  0.4435
  320TMC3     O 4864   4.403   0.166  16.833 -0.1252  0.2325 -0.2835
  320TMC3     H 4865   4.099   0.312  16.602 -2.2973 -0.1159  3.0051
  320TMC3    H1 4866   4.355   4.718  16.700  0.4088 -1.2328 -2.3792
  320TMC3    H2 4867   4.045   4.669  16.429 -0.4976  0.6503 -0.2404
  320TMC3    C7 4868   4.238   4.541  16.531 -0.9298 -0.6216  0.7243
  320TMC3    C8 4869   3.951   0.182  16.431  0.1021 -0.1243  0.1586
  320TMC3    O1 4870   4.172   4.473  16.456  0.0939 -0.4369 -0.0907
  320TMC3    O2 4871   3.895   0.286  16.463  0.4346 -0.6169 -0.5929
  321TMC3    C1 4872   4.546   0.374  17.437  0.2358  0.7406 -0.2762
  321TMC3    C2 4873   4.647   0.295  17.390 -0.4375  0.5942 -0.8703
  321TMC3    C3 4874   4.726   0.238  17.486 -0.7746 -0.4046  0.2123
  321TMC3    C4 4875   4.525   0.397  17.568 -0.8147  0.2145  0.4906
  321TMC3    C5 4876   4.603   0.329  17.661  0.0831 -0.1035  0.4809
  321TMC3    C6 4877   4.712   0.271  17.625 -0.2845 -0.2284 -0.4453
  321TMC3     C 4878   4.467   0.459  17.346 -0.1242 -0.5230  0.6113
  321TMC3     O 4879   4.414   0.561  17.396  0.0363 -0.5874  0.4454
  321TMC3     H 4880   4.653   0.286  17.283  2.3306 -0.8373 -0.5967
  321TMC3    H1 4881   4.432   0.446  17.594 -1.8467 -1.5249  0.0549
  321TMC3    H2 4882   0.050   0.235  17.695 -2.4381 -1.1166  1.3399
  321TMC3    C7 4883   4.560   0.300   0.060 -0.4207  0.0023  0.3030
  321TMC3    C8 4884   0.000   0.091  17.466  0.3464 -0.5719  0.3444
  321TMC3    O1 4885   4.619   0.207   0.115  0.1561  0.7137 -0.0493
  321TMC3    O2 4886   0.032   0.054  17.352 -0.1493 -0.3972  0.2182
  322MPD2     C 4887   3.773   1.245  13.633 -0.2728  0.5582 -0.6584
  322MPD2    C1 4888   3.864   1.215  13.732 -0.0494 -0.1743  0.9512
  322MPD2    C2 4889   3.940   1.100  13.712  0.5027 -0.5391 -0.6694
  322MPD2    C3 4890   3.927   1.018  13.599 -0.7751  0.1169  0.1909
  322MPD2    C4 4891   3.841   1.064  13.499 -0.8538 -0.1426 -0.0836
  322MPD2    C5 4892   3.764   1.176  13.517 -0.3749  0.2043 -0.2866
  322MPD2     H 4893   3.998   1.062  13.794  1.7024 -0.1581 -1.3441
  322MPD2    H1 4894   3.828   1.010  13.406  3.3134 -0.0496 -0.7258
  322MPD2    H2 4895   3.701   1.324  13.650 -2.1288 -1.1506 -0.4031
  322MPD2    H3 4896   3.690   1.200  13.442 -0.8470  1.2691  0.5290
  322MPD2     N 4897   4.011   0.901  13.588 -0.4568 -0.3439 -1.2750
  322MPD2    H5 4898   4.062   0.868  13.670 -0.9922  2.7524  0.2925
  322MPD2    N1 4899   3.880   1.309  13.844  0.4235 -0.2055  0.1798
  322MPD2    H7 4900   3.927   1.271  13.926 -0.7669 -1.6374  0.1922
  323TMC3    C1 4901   3.842   1.520  13.960 -0.5831  0.4796  0.1669
  323TMC3    C2 4902   3.907   1.643  13.955  0.1159 -0.4916 -0.4293
  323TMC3    C3 4903   3.957   1.693  14.069 -0.4190 -0.3044 -0.4005
  323TMC3    C4 4904   3.823   1.447  14.076  0.1791 -0.7683 -0.0688
  323TMC3    C5 4905   3.857   1.510  14.193 -0.2213 -1.1785  0.5894
  323TMC3    C6 4906   3.932   1.625  14.189 -0.7015  0.3786  0.0298
  323TMC3     C 4907   3.852   1.439  13.835 -0.4859 -0.6287  0.6445
  323TMC3     O 4908   3.866   1.506  13.733  0.2993 -0.3559  0.1075
  323TMC3     H 4909   3.943   1.684  13.861  1.6617 -1.2257 -0.1606
  323TMC3    H1 4910   3.779   1.348  14.071 -0.7887 -0.4268  1.6777
  323TMC3    H2 4911   3.976   1.651  14.285  0.4442 -1.3373 -0.0262
  323TMC3    C7 4912   3.846   1.433  14.316 -0.7162 -0.1202 -0.3884
  323TMC3    C8 4913   4.073   1.782  14.073  0.0740 -0.2210  0.6738
  323TMC3    O1 4914   3.795   1.323  14.315 -0.2398  0.0230  0.1900
  323TMC3    O2 4915   4.149   1.764  14.164  0.0830  0.2041 -1.3406
  324MPD2     C 4916   0.929   2.167  14.337  0.3349  0.3299  0.2537
  324MPD2    C1 4917   0.906   2.301  14.343 -0.5141  0.1712 -0.0758
  324MPD2    C2 4918   0.776   2.344  14.362 -0.5378 -0.1028 -0.3013
  324MPD2    C3 4919   0.666   2.256  14.372  0.1570 -0.0046 -0.0592
  324MPD2    C4 4920   0.695   2.120  14.373 -0.1522  0.6560 -0.8100
  324MPD2    C5 4921   0.827   2.079  14.359  0.1829 -0.0595 -0.4603
  324MPD2     H 4922   0.760   2.448  14.386  0.2210 -0.6656  2.6382
  324MPD2    H1 4923   0.622   2.040  14.375  0.1964  0.3401 -0.7070
  324MPD2    H2 4924   1.028   2.123  14.334  0.3647  0.5373 -1.4659
  324MPD2    H3 4925   0.845   1.973  14.344 -1.6855 -0.6632  1.5654
  324MPD2     N 4926   0.533   2.299  14.391  0.3912  0.1326 -0.8149
  324MPD2    H5 4927   0.466   2.228  14.419 -0.0215  1.0138  0.4532
  324MPD2    N1 4928   1.012   2.399  14.343 -0.6909 -0.7433  0.0303
  324MPD2    H7 4929   0.990   2.497  14.361 -0.9530 -0.8013  0.0276
  325TMC3    C1 4930   0.350   2.460  14.415  0.2862 -0.3299 -0.4564
  325TMC3    C2 4931   0.302   2.402  14.528 -0.7658 -1.1343 -0.5599
  325TMC3    C3 4932   0.178   2.440  14.562 -0.8525  0.0751 -0.1127
  325TMC3    C4 4933   0.282   2.565  14.340  0.1408 -0.0957  0.2829
  325TMC3    C5 4934   0.159   2.599  14.389 -0.2737 -0.6578  0.5233
  325TMC3    C6 4935   0.112   2.547  14.506 -0.1380 -0.9751  0.3454
  325TMC3     C 4936   0.481   2.425  14.366 -0.2855  0.3580 -0.5618
  325TMC3     O 4937   0.531   2.507  14.290  0.2666  0.6143 -0.1674
  325TMC3     H 4938   0.353   2.319  14.574  2.2676  0.9590 -0.0790
  325TMC3    H1 4939   0.327   2.607  14.251 -1.5308  1.5527  0.2217
  325TMC3    H2 4940   0.023   2.582  14.557  1.1971  2.0710  0.5562
  325TMC3    C7 4941   0.102   2.723  14.340 -0.4961  0.7086  0.4087
  325TMC3    C8 4942   0.090   2.327  14.599 -0.3899 -0.0437 -0.2580
  325TMC3    O1 4943   0.144   2.756  14.230 -0.6948 -0.2111  0.2243
  325TMC3    O2 4944   0.099   2.219  14.541 -0.4352  0.1934 -0.2211
  326MPD2     C 4945   2.215   3.693  10.896 -0.0639 -0.1405  0.7632
  326MPD2    C1 4946   2.288   3.579  10.883  0.4153 -0.6683 -0.1712
  326MPD2    C2 4947   2.403   3.561  10.957  0.1653  0.0116 -0.1262
  326MPD2    C3 4948   2.453   3.673  11.015 -0.1495  0.0185 -0.4152
  326MPD2    C4 4949   2.393   3.796  11.013 -0.2443  0.9087  0.1784
  326MPD2    C5 4950   2.273   3.801  10.957 -0.2790  0.5744  0.2131
  326MPD2     H 4951   2.452   3.465  10.966 -1.0623 -0.6676 -0.6536
  326MPD2    H1 4952   2.437   3.885  11.058  3.3748  0.0828 -1.6740
  326MPD2    H2 4953   2.120   3.708  10.846 -0.8347 -1.7795  1.7024
  326MPD2    H3 4954   2.227   3.898  10.941  1.2090  1.5791  1.9504
  326MPD2     N 4955   2.584   3.683  11.063  0.3366  0.7222 -0.5934
  326MPD2    H5 4956   2.622   3.772  11.093  1.7883 -0.1297  0.1156
  326MPD2    N1 4957   2.231   3.463  10.819  1.0418  0.1043 -0.0274
  326MPD2    H7 4958   2.269   3.372  10.843  0.7017 -0.2661 -0.8831
  327TMC3    C1 4959   2.028   3.384  10.715  0.3469  0.5425 -0.0596
  327TMC3    C2 4960   1.916   3.444  10.668 -0.3301 -0.1634  0.1958
  327TMC3    C3 4961   1.806   3.367  10.637 -0.0122 -0.3324  0.0898
  327TMC3    C4 4962   2.045   3.255  10.754  0.3975  0.4907 -0.0819
  327TMC3    C5 4963   1.929   3.187  10.727 -0.4459  0.5987  0.0640
  327TMC3    C6 4964   1.815   3.232  10.665  0.7462 -0.6160  0.1112
  327TMC3     C 4965   2.138   3.480  10.721 -0.1258  0.1710 -0.2841
  327TMC3     O 4966   2.135   3.572  10.638  0.4388  0.1608 -0.4044
  327TMC3     H 4967   1.913   3.543  10.625  0.3579 -0.4118 -0.4336
  327TMC3    H1 4968   2.138   3.219  10.796 -0.8078 -2.0217  0.4360
  327TMC3    H2 4969   1.733   3.167  10.638 -0.2184  0.5316  0.2790
  327TMC3    C7 4970   1.919   3.054  10.784 -0.2134  0.5262 -0.2641
  327TMC3    C8 4971   1.695   3.425  10.563 -0.4883 -0.4219  0.0835
  327TMC3    O1 4972   1.856   2.978  10.715  0.2223 -0.1325  0.2771
  327TMC3    O2 4973   1.729   3.521  10.503  0.1851 -0.2285 -0.2078
  328MPD2     C 4974   4.255   3.690  16.973 -0.2991  0.6927 -0.9830
  328MPD2    C1 4975   4.193   3.571  16.974  0.6975 -0.4181  0.4035
  328MPD2    C2 4976   4.057   3.569  17.005 -0.3004  0.5018  0.3260
  328MPD2    C3 4977   3.983   3.685  17.023  0.4672 -0.8727  0.2239
  328MPD2    C4 4978   4.052   3.805  17.015 -0.6350 -0.6698  0.0860
  328MPD2    C5 4979   4.185   3.806  16.980 -0.8641  0.2112 -0.1739
  328MPD2     H 4980   4.002   3.475  17.002  1.1846 -0.3193 -1.0357
  328MPD2    H1 4981   3.993   3.894  16.993  1.7354  0.6939 -0.7547
  328MPD2    H2 4982   4.364   3.687  16.973 -0.2973  0.9704  1.1327
  328MPD2    H3 4983   4.244   3.897  16.974  0.0751 -0.3905 -0.1794
  328MPD2     N 4984   3.844   3.694  17.041  0.2305 -0.1939  0.1591
  328MPD2    H5 4985   3.805   3.787  17.054  3.6396  1.6780 -2.7725
  328MPD2    N1 4986   4.276   3.455  16.984  0.6207 -0.1312 -0.7390
  328MPD2    H7 4987   4.376   3.470  16.994  0.7704 -1.3820 -0.3710
  329TMC3    C1 4988   4.333   3.226  16.991  0.1438  0.3751  0.6725
  329TMC3    C2 4989   4.381   3.238  17.120  0.7440  0.2849  0.6007
  329TMC3    C3 4990   4.451   3.128  17.162  0.2939  0.3343 -0.7248
  329TMC3    C4 4991   4.331   3.109  16.923  0.2761 -0.3487 -0.4287
  329TMC3    C5 4992   4.403   3.011  16.968 -0.1651 -0.1789  0.0574
  329TMC3    C6 4993   4.471   3.012  17.086 -0.6906  0.1011 -0.2098
  329TMC3     C 4994   4.235   3.329  16.950 -0.6337 -0.7396 -0.8481
  329TMC3     O 4995   4.128   3.286  16.901 -1.1309  0.5836  0.9495
  329TMC3     H 4996   4.370   3.325  17.184 -0.2678  1.4273 -1.1112
  329TMC3    H1 4997   4.285   3.115  16.825  2.0015  0.2978 -1.1926
  329TMC3    H2 4998   4.542   2.937  17.119 -1.1290 -0.2292 -0.0210
  329TMC3    C7 4999   4.399   2.891  16.897 -0.2640 -0.0161  0.4516
  329TMC3    C8 5000   4.515   3.130  17.295  0.4085  0.4163  0.5170
  329TMC3    O1 5001   4.459   2.798  16.951  0.3475 -0.6362 -0.1499
  329TMC3    O2 5002   4.611   3.055  17.307  0.6889  0.2985  0.4095
  330TMC3    C1 5003   2.665   2.684   9.804  0.3005 -0.5160 -0.2917
  330TMC3    C2 5004   2.691   2.566   9.737  0.4882  0.5469 -0.3321
  330TMC3    C3 5005   2.702   2.450   9.806 -0.0685 -0.1501 -0.6627
  330TMC3    C4 5006   2.664   2.692   9.938 -0.1969  0.3385 -0.6566
  330TMC3    C5 5007   2.693   2.571  10.002 -0.6170 -0.6227 -0.0877
  330TMC3    C6 5008   2.697   2.446   9.941 -0.1566 -0.4689  0.6961
  330TMC3     C 5009   2.639   2.803   9.722 -0.1306 -0.9889  0.3145
  330TMC3     O 5010   2.681   2.911   9.766 -0.1122 -0.0238 -0.3756
  330TMC3     H 5011   2.675   2.566   9.630  1.6940  1.3750 -0.5155
  330TMC3    H1 5012   2.667   2.787   9.991  0.3337  0.1851 -0.4163
  330TMC3    H2 5013   2.743   2.363   9.993 -0.5324 -0.4848  0.9988
  330TMC3    C7 5014   2.726   2.587  10.137  0.3129 -0.1790 -0.0213
  330TMC3    C8 5015   2.706   2.341   9.723  0.3984 -0.2296 -0.2988
  330TMC3    O1 5016   2.722   2.701  10.180  0.1519 -0.1704 -0.2336
  330TMC3    O2 5017   2.732   2.358   9.603  0.1930 -0.0514 -0.0781
  331MPD2     C 5018   0.001   2.036  12.752 -0.2575  0.5488  0.0811
  331MPD2    C1 5019   0.014   2.056  12.616 -0.4089 -0.6858 -0.5718
  331MPD2    C2 5020   0.054   1.951  12.541  0.2136  0.0181  0.0860
  331MPD2    C3 5021   0.091   1.833  12.596  0.3577 -0.1512 -0.0105
  331MPD2    C4 5022   0.068   1.809  12.733 -0.4530 -0.3736 -0.1006
  331MPD2    C5 5023   0.026   1.916  12.808 -0.2003 -0.9739  0.3590
  331MPD2     H 5024   0.079   1.974  12.438  0.4330 -0.8961 -0.0638
  331MPD2    H1 5025   0.094   1.717  12.784  1.0939 -0.2451 -0.6314
  331MPD2    H2 5026   4.693   2.106  12.822 -0.8250 -0.4113  0.6823
  331MPD2    H3 5027   0.015   1.907  12.916 -2.8310  1.5858  0.3094
  331MPD2     N 5028   0.147   1.738  12.510  0.0051  0.2685  0.4190
  331MPD2    H5 5029   0.152   1.768  12.413 -0.4403 -0.4120  0.1806
  331MPD2    N1 5030   4.722   2.185  12.568  0.0215  0.5173 -0.0916
  331MPD2    H7 5031   0.001   2.266  12.627 -1.1205  0.3269  0.4449
  332TMC3    C1 5032   0.253   1.548  12.422 -0.0559  0.3220 -0.1538
  332TMC3    C2 5033   0.305   1.629  12.326 -0.3942 -0.2253 -0.3847
  332TMC3    C3 5034   0.357   1.574  12.215 -0.7200 -0.4331  0.0880
  332TMC3    C4 5035   0.244   1.415  12.412  0.1229 -0.4974 -0.1277
  332TMC3    C5 5036   0.297   1.361  12.297  0.7136  0.5325  0.4868
  332TMC3    C6 5037   0.364   1.439  12.200 -0.3363  0.2620 -0.6775
  332TMC3     C 5038   0.190   1.607  12.537  0.4389  0.3383 -0.4171
  332TMC3     O 5039   0.180   1.542  12.638  0.3039 -0.2112 -0.1779
  332TMC3     H 5040   0.309   1.737  12.333  0.5108 -0.2862  0.1617
  332TMC3    H1 5041   0.185   1.354  12.480 -0.2225  1.1865  1.0671
  332TMC3    H2 5042   0.401   1.394  12.109  2.1699 -0.3673  0.6489
  332TMC3    C7 5043   0.337   1.226  12.310 -0.7015  0.4127 -0.0042
  332TMC3    C8 5044   0.417   1.668  12.115 -0.1362 -0.3412 -0.4963
  332TMC3    O1 5045   0.261   1.148  12.370 -0.4787  0.0741  0.1975
  332TMC3    O2 5046   0.397   1.787  12.136  0.9368  0.4389  0.1398
  333MPD2     C 5047   0.597   1.874  11.152  0.5003  0.5625 -0.0987
  333MPD2    C1 5048   0.598   1.795  11.041  0.4781  0.1585 -0.2462
  333MPD2    C2 5049   0.532   1.668  11.045  0.0545  0.4143  0.1165
  333MPD2    C3 5050   0.455   1.644  11.156  0.4165 -0.0932 -0.0651
  333MPD2    C4 5051   0.454   1.724  11.269  0.4580  0.3490 -0.5113
  333MPD2    C5 5052   0.534   1.832  11.267 -0.4316  1.2172 -0.1754
  333MPD2     H 5053   0.525   1.601  10.960 -3.0897  0.5123  0.2869
  333MPD2    H1 5054   0.403   1.706  11.363  1.3282  0.6011  0.0151
  333MPD2    H2 5055   0.647   1.970  11.146 -1.9721  1.8326 -0.2119
  333MPD2    H3 5056   0.530   1.901  11.350 -2.4995  1.6606 -0.6534
  333MPD2     N 5057   0.388   1.518  11.157 -0.2376  0.6494 -0.3895
  333MPD2    H5 5058   0.385   1.477  11.064  0.6840  0.2248 -0.2326
  333MPD2    N1 5059   0.673   1.834  10.928 -0.2802 -0.1537 -0.1132
  333MPD2    H7 5060   0.727   1.916  10.951 -2.9762  0.5776  3.7386
  334TMC3    C1 5061   0.779   1.826  10.716  0.1112  0.5474 -0.5014
  334TMC3    C2 5062   0.841   1.751  10.626  0.3701 -0.3350  0.0492
  334TMC3    C3 5063   0.921   1.821  10.540 -0.0869 -0.7284  0.3282
  334TMC3    C4 5064   0.785   1.965  10.717 -0.7953  0.9054 -0.1785
  334TMC3    C5 5065   0.850   2.035  10.617  0.5569 -0.4303 -0.2950
  334TMC3    C6 5066   0.931   1.959  10.531  0.0445  0.5718 -0.9183
  334TMC3     C 5067   0.692   1.767  10.808 -0.1779 -0.3288  0.3079
  334TMC3     O 5068   0.648   1.656  10.773  0.0950 -0.1792 -1.0463
  334TMC3     H 5069   0.839   1.643  10.634 -0.7339 -0.2877  0.3270
  334TMC3    H1 5070   0.734   2.020  10.795 -1.4343 -0.8589  0.6386
  334TMC3    H2 5071   1.000   2.014  10.468  0.1950  0.6953 -0.6465
  334TMC3    C7 5072   0.877   2.179  10.634 -0.5587  0.1938 -0.7535
  334TMC3    C8 5073   1.021   1.747  10.464 -0.2226  0.1302  0.6913
  334TMC3    O1 5074   0.853   2.219  10.744 -0.5716 -0.2458 -0.1081
  334TMC3    O2 5075   0.989   1.632  10.448  1.0524  0.4239 -0.0966
  335TMC3    C1 5076   4.682   3.767  17.230 -0.1841  0.4592 -0.0554
  335TMC3    C2 5077   4.611   3.667  17.171  0.0627 -0.2593 -0.0264
  335TMC3    C3 5078   4.673   3.544  17.165  0.3503 -0.4284 -0.2703
  335TMC3    C4 5079   0.063   3.747  17.304 -0.1140  0.7789 -0.2509
  335TMC3    C5 5080   0.118   3.620  17.306  0.9472  0.6385 -0.1798
  335TMC3    C6 5081   0.055   3.523  17.234 -0.4413  0.0827  0.1511
  335TMC3     C 5082   4.635   3.904  17.203 -0.5587 -0.3916 -0.6241
  335TMC3     O 5083   4.519   3.913  17.178  0.0729 -0.1219  0.4929
  335TMC3     H 5084   4.518   3.687  17.119  0.7152  1.2610 -0.5991
  335TMC3    H1 5085   0.093   3.825  17.373 -0.2894 -0.3915  1.1619
  335TMC3    H2 5086   0.114   3.433  17.235 -1.4382 -0.5736 -0.4292
  335TMC3    C7 5087   0.260   3.594  17.342  0.0736  0.1460 -0.5507
  335TMC3    C8 5088   4.646   3.453  17.046 -0.6513  0.1752  0.6048
  335TMC3    O1 5089   0.315   3.494  17.302 -0.4665  0.7304 -0.0071
  335TMC3    O2 5090   4.566   3.498  16.966  0.0806  0.2480 -0.3022
  336MPD2     C 5091   4.729   1.521  16.392 -0.4912 -0.5251 -0.6039
  336MPD2    C1 5092   4.681   1.476  16.275  0.1257  0.4279  1.0228
  336MPD2    C2 5093   4.713   1.349  16.228 -0.1658  0.1851 -0.1135
  336MPD2    C3 5094   0.050   1.261  16.306  0.0812 -0.3873  0.4627
  336MPD2    C4 5095   0.100   1.306  16.430  0.1264 -0.3470 -0.2975
  336MPD2    C5 5096   0.063   1.437  16.473 -0.2580 -0.1110  0.5174
  336MPD2     H 5097   4.681   1.317  16.130 -0.8399 -0.0780  0.1938
  336MPD2    H1 5098   0.156   1.242  16.496 -0.2527  1.2792  1.6062
  336MPD2    H2 5099   4.690   1.615  16.430  0.9554  0.2961 -1.1257
  336MPD2    H3 5100   0.082   1.459  16.578 -0.6639  0.5496  0.4559
  336MPD2     N 5101   0.077   1.124  16.277  0.4754  0.2135  0.5268
  336MPD2    H5 5102   0.138   1.074  16.340 -1.4747 -1.5526  1.0032
  336MPD2    N1 5103   4.610   1.574  16.208 -0.3904 -0.6963  0.1229
  336MPD2    H7 5104   4.604   1.661  16.261  3.4637 -1.2869  1.5146
  337TMC3    C1 5105   4.497   1.673  16.042  0.5217  0.1352  0.4018
  337TMC3    C2 5106   4.380   1.654  15.976 -0.4421  0.1725 -0.4071
  337TMC3    C3 5107   4.307   1.763  15.952  0.2562 -0.1301  0.4597
  337TMC3    C4 5108   4.542   1.792  16.086 -1.0695  0.2182 -0.4450
  337TMC3    C5 5109   4.463   1.900  16.063  0.1083 -0.2571 -0.0227
  337TMC3    C6 5110   4.343   1.885  15.994 -0.3430  0.2953 -0.3536
  337TMC3     C 5111   4.550   1.548  16.092  0.4378 -0.0262 -0.3588
  337TMC3     O 5112   4.520   1.445  16.033  0.2392 -0.0370  0.2752
  337TMC3     H 5113   4.347   1.559  15.938 -1.1805  0.4232 -0.4024
  337TMC3    H1 5114   4.634   1.807  16.141 -1.9100 -1.7032  1.4956
  337TMC3    H2 5115   4.278   1.972  15.997  0.6208  0.9455  1.7793
  337TMC3    C7 5116   4.519   2.036  16.059  0.0751  0.5266  0.6165
  337TMC3    C8 5117   4.169   1.762  15.911  0.2945 -0.3449 -0.1617
  337TMC3    O1 5118   4.640   2.035  16.039  0.3553 -0.0297  0.4238
  337TMC3    O2 5119   4.095   1.851  15.955  0.0014 -0.0085 -0.1701
  338MPD2     C 5120   0.065   0.448   1.454  0.8607  0.0393  0.4941
  338MPD2    C1 5121   0.045   0.430   1.319 -0.6609  0.3831 -0.0311
  338MPD2    C2 5122   4.675   0.359   1.275  0.0113  0.0961 -0.2631
  338MPD2    C3 5123   4.590   0.300   1.361 -0.7210 -0.6619  0.5023
  338MPD2    C4 5124   4.606   0.323   1.500  0.4341  0.7582  0.2508
  338MPD2    C5 5125   4.715   0.391   1.547  1.3841 -0.2666 -0.0167
  338MPD2     H 5126   4.667   0.351   1.168  0.0148 -0.0934 -0.2494
  338MPD2    H1 5127   4.540   0.286   1.578  0.4083 -0.5605 -0.4077
  338MPD2    H2 5128   0.140   0.514   1.495  1.4385  1.4601 -2.8366
  338MPD2    H3 5129   4.735   0.392   1.653 -1.9657 -0.5071  0.5962
  338MPD2     N 5130   4.478   0.225   1.308  0.2866 -0.0117 -0.3140
  338MPD2    H5 5131   4.449   0.227   1.211 -1.1701 -3.0639  0.0455
  338MPD2    N1 5132   0.118   0.496   1.212 -0.3164 -0.2318  0.1748
  338MPD2    H7 5133   0.097   0.475   1.115  1.2513 -0.5152 -0.0987
  339TMC3    C1 5134   4.270   0.126   1.309 -0.7992 -0.2956 -0.4649
  339TMC3    C2 5135   4.155   0.098   1.379 -0.1971 -0.1467  0.5250
  339TMC3    C3 5136   4.032   0.089   1.311  0.2031 -0.1299  0.4403
  339TMC3    C4 5137   4.264   0.137   1.172  0.5729 -0.1610 -0.6949
  339TMC3    C5 5138   4.140   0.137   1.110 -0.1753  0.2837  0.3239
  339TMC3    C6 5139   4.026   0.095   1.175 -0.3084 -1.2089  0.3870
  339TMC3     C 5140   4.387   0.164   1.385  0.0280  0.1468 -0.9498
  339TMC3     O 5141   4.392   0.126   1.501 -0.2140 -0.1692 -0.7369
  339TMC3     H 5142   4.164   0.087   1.486  0.4515 -0.0722  0.4804
  339TMC3    H1 5143   4.352   0.159   1.112 -0.7975  0.8795 -2.3250
  339TMC3    H2 5144   3.929   0.089   1.128 -0.8832  0.0692  1.4344
  339TMC3    C7 5145   4.126   0.204   0.979 -0.9510  0.6163  0.5868
  339TMC3    C8 5146   3.916   0.053   1.384 -1.0012  0.3766 -0.3076
  339TMC3    O1 5147   4.224   0.260   0.944  0.2314 -0.0453  0.6138
  339TMC3    O2 5148   3.810   0.093   1.338  0.4675 -0.0404 -0.1085
  340MPD2     C 5149   1.144   3.083  10.649  0.8411  0.2113  0.7143
  340MPD2    C1 5150   1.059   3.019  10.559  0.4462 -0.0964  0.2301
  340MPD2    C2 5151   1.118   2.964  10.440  1.0962 -0.5651  0.3863
  340MPD2    C3 5152   1.253   2.981  10.416  0.1217 -0.0238 -0.3864
  340MPD2    C4 5153   1.332   3.050  10.502 -0.7131 -0.0005 -0.9131
  340MPD2    C5 5154   1.280   3.086  10.619  0.8486 -0.3062  0.1887
  340MPD2     H 5155   1.056   2.900  10.377  0.8266 -0.1882  0.2665
  340MPD2    H1 5156   1.437   3.072  10.490 -0.6984 -0.3552 -1.4294
  340MPD2    H2 5157   1.111   3.115  10.747  0.4956 -0.3136  0.7718
  340MPD2    H3 5158   1.344   3.138  10.690 -0.6176  1.9622 -0.1328
  340MPD2     N 5159   1.321   2.931  10.304 -0.0657 -0.1358 -0.4646
  340MPD2    H5 5160   1.421   2.946  10.311 -0.4017  1.6190  0.6257
  340MPD2    N1 5161   0.920   3.006  10.582 -0.6887 -0.6638  0.5027
  340MPD2    H7 5162   0.894   3.006  10.680 -1.8492 -1.1782  0.1849
  341TMC3    C1 5163   0.822   2.998  10.354  0.1057 -0.3800  0.7726
  341TMC3    C2 5164   0.734   2.925  10.274 -0.1024  0.1949 -0.2286
  341TMC3    C3 5165   0.706   2.974  10.149 -0.0338 -0.4436 -0.4613
  341TMC3    C4 5166   0.881   3.106  10.310  0.1366 -0.6349 -0.3934
  341TMC3    C5 5167   0.862   3.139  10.177 -0.3385  0.4397  0.3229
  341TMC3    C6 5168   0.778   3.074  10.091 -0.1446  0.7341  0.4946
  341TMC3     C 5169   0.817   2.967  10.493  0.4258  1.0361 -0.3161
  341TMC3     O 5170   0.713   2.919  10.533  0.2484 -0.3657 -0.2376
  341TMC3     H 5171   0.670   2.849  10.318  0.3543 -0.5046 -0.7644
  341TMC3    H1 5172   0.953   3.157  10.374  0.1307 -2.5212  1.1193
  341TMC3    H2 5173   0.746   3.114   9.995  3.4998  2.7773  0.1418
  341TMC3    C7 5174   0.982   3.172  10.102  0.2819 -0.1142 -0.1097
  341TMC3    C8 5175   0.603   2.919  10.065 -0.1997 -0.3966 -0.4722
  341TMC3    O1 5176   0.997   3.137   9.985 -0.1740  0.1233 -0.3949
  341TMC3    O2 5177   0.569   2.980   9.968 -0.4311 -0.1281  0.3211
  342MPD2     C 5178   3.014   1.927  17.700 -0.4243 -0.6102 -0.1741
  342MPD2    C1 5179   3.106   1.905  17.599  0.5591  0.3315  0.2139
  342MPD2    C2 5180   3.159   2.022  17.545 -0.0844 -0.3461  0.3061
  342MPD2    C3 5181   3.122   2.147  17.598 -0.3423  0.2811 -0.9703
  342MPD2    C4 5182   3.024   2.160  17.693 -0.3629 -0.3270 -0.0859
  342MPD2    C5 5183   2.969   2.048   0.001 -0.3238  0.8343  0.1853
  342MPD2     H 5184   3.234   2.011  17.468  0.4228 -0.8146  0.8672
  342MPD2    H1 5185   3.001   2.257  17.734 -2.7004 -0.7693 -0.3718
  342MPD2    H2 5186   2.958   1.849   0.010 -1.0786  0.0287  0.1030
  342MPD2    H3 5187   2.887   2.048   0.072 -1.4763  0.8393 -1.1302
  342MPD2     N 5188   3.185   2.272  17.565 -0.0354  1.0605  0.1673
  342MPD2    H5 5189   3.150   2.354  17.614 -1.7316 -0.5442  1.6231
  342MPD2    N1 5190   3.154   1.776  17.564  0.2469  0.1288  0.0104
  342MPD2    H7 5191   3.218   1.780  17.485 -0.0693 -1.7224 -0.3384
  343TMC3    C1 5192   3.200   1.542  17.581 -0.0465 -0.1136 -0.4531
  343TMC3    C2 5193   3.320   1.561  17.511 -0.2763 -0.1346  0.1242
  343TMC3    C3 5194   3.393   1.446  17.484 -0.4439  0.0077 -0.8651
  343TMC3    C4 5195   3.168   1.425  17.638 -0.1520  0.6253 -0.3478
  343TMC3    C5 5196   3.252   1.319  17.610 -0.6571 -1.2015 -0.1688
  343TMC3    C6 5197   3.360   1.321  17.530 -0.6921 -0.3694  0.1404
  343TMC3     C 5198   3.121   1.656  17.622  0.6374 -0.4768 -0.2727
  343TMC3     O 5199   3.058   1.637  17.722 -0.1888 -0.1172  0.1378
  343TMC3     H 5200   3.340   1.648  17.449 -0.8589  0.3079  0.5518
  343TMC3    H1 5201   3.082   1.417  17.703 -0.7493 -2.0272 -1.4584
  343TMC3    H2 5202   3.426   1.237  17.515 -1.1065 -1.2345  3.0770
  343TMC3    C7 5203   3.227   1.186  17.669 -0.0451 -0.8683  0.0823
  343TMC3    C8 5204   3.515   1.476  17.406  0.4796  0.1675  0.2328
  343TMC3    O1 5205   3.248   1.091  17.594  0.4905  0.7357 -0.1903
  343TMC3    O2 5206   3.542   1.595  17.380  0.6322  0.4287 -0.2485
  344MPD2     C 5207   4.263   0.669  10.833  0.3890 -0.4628  0.2533
  344MPD2    C1 5208   4.130   0.699  10.841 -0.7611 -0.7973 -0.0162
  344MPD2    C2 5209   4.078   0.814  10.784 -0.3253 -0.2628  0.8010
  344MPD2    C3 5210   4.161   0.907  10.722 -0.3652  0.0154 -0.6668
  344MPD2    C4 5211   4.296   0.882  10.722  0.3428  0.5510  0.4563
  344MPD2    C5 5212   4.344   0.764  10.776 -0.0626 -0.6553 -0.7668
  344MPD2     H 5213   3.972   0.838  10.791 -0.6582 -1.2974 -0.6607
  344MPD2    H1 5214   4.362   0.953  10.672 -0.8092  0.3046 -1.3962
  344MPD2    H2 5215   4.299   0.573  10.865  1.0246 -1.7485 -4.3014
  344MPD2    H3 5216   4.452   0.754  10.786  0.1376  2.4252  0.3068
  344MPD2     N 5217   4.121   1.019  10.656  0.1670 -0.3752 -0.2422
  344MPD2    H5 5218   4.196   1.081  10.628 -1.2403  2.2923  1.9697
  344MPD2    N1 5219   4.044   0.600  10.889  0.2299  0.3243  0.3903
  344MPD2    H7 5220   3.947   0.604  10.859  0.3265  0.6190  0.1159
  345TMC3    C1 5221   3.992   1.173  10.545  0.0182 -0.4699 -0.1712
  345TMC3    C2 5222   4.054   1.271  10.619 -0.0077  0.6996 -0.9509
  345TMC3    C3 5223   4.082   1.386  10.552 -0.1592 -0.0984 -0.7160
  345TMC3    C4 5224   3.936   1.189  10.422 -0.7592  0.0786 -0.2187
  345TMC3    C5 5225   3.949   1.319  10.373 -0.0826  0.2197  0.3705
  345TMC3    C6 5226   4.021   1.419  10.430  0.0303 -0.0096  0.0856
  345TMC3     C 5227   4.003   1.034  10.589 -0.5658 -0.3938  0.1733
  345TMC3     O 5228   3.919   0.952  10.553 -0.9432  0.1202 -0.8219
  345TMC3     H 5229   4.064   1.251  10.725  0.4571 -0.0318 -1.1359
  345TMC3    H1 5230   3.888   1.107  10.371 -0.1278 -1.4759  1.6797
  345TMC3    H2 5231   4.043   1.512  10.379 -1.3688 -0.3487 -1.1309
  345TMC3    C7 5232   3.921   1.341  10.233 -0.3755 -0.2955  0.2952
  345TMC3    C8 5233   4.157   1.500  10.610 -0.0438 -0.4148  0.4266
  345TMC3    O1 5234   3.983   1.427  10.177  0.3868 -0.4542  0.0161
  345TMC3    O2 5235   4.124   1.611  10.575 -0.4579  0.2229 -0.3515
  346MPD2     C 5236   3.759   3.028  14.756 -0.1902  0.4243  0.5963
  346MPD2    C1 5237   3.862   2.999  14.670  0.2624 -0.0551 -0.5721
  346MPD2    C2 5238   3.985   3.056  14.698  0.0644 -0.2241  0.2878
  346MPD2    C3 5239   4.006   3.133  14.812  0.0592  0.5288  0.3467
  346MPD2    C4 5240   3.900   3.161  14.897  0.2511  0.0423  0.5015
  346MPD2    C5 5241   3.773   3.110  14.870 -0.2840  0.0953  0.1564
  346MPD2     H 5242   4.065   3.032  14.630 -0.0389  1.4500 -0.4377
  346MPD2    H1 5243   3.910   3.218  14.989 -1.2409 -2.8838  2.4675
  346MPD2    H2 5244   3.661   2.995  14.724 -0.8697  2.0918  0.9179
  346MPD2    H3 5245   3.691   3.137  14.936  1.1644  1.9783  1.1543
  346MPD2     N 5246   4.137   3.180  14.833  0.2957 -0.1035 -0.0912
  346MPD2    H5 5247   4.207   3.144  14.770 -1.4508  0.6320 -2.4474
  346MPD2    N1 5248   3.850   2.922  14.554 -0.2127  0.5452  0.3363
  346MPD2    H7 5249   3.938   2.908  14.505 -0.1062 -1.3967  1.0904
  347TMC3    C1 5250   4.329   3.281  14.943 -0.4017  0.1532 -0.4851
  347TMC3    C2 5251   4.399   3.270  14.821  0.1513 -0.6768  0.3086
  347TMC3    C3 5252   4.537   3.290  14.828  0.0645 -0.1265  0.8777
  347TMC3    C4 5253   4.389   3.325  15.057 -0.2338 -0.4302  0.1743
  347TMC3    C5 5254   4.526   3.328  15.056  0.6284 -0.2982  0.1423
  347TMC3    C6 5255   4.602   3.311  14.943  0.5587  0.7554  0.4367
  347TMC3     C 5256   4.182   3.250  14.948 -0.2070 -0.1772  0.3365
  347TMC3     O 5257   4.127   3.266  15.054  0.1738  0.3494 -0.6179
  347TMC3     H 5258   4.349   3.244  14.728  2.6255 -2.2477 -0.5898
  347TMC3    H1 5259   4.338   3.326  15.153 -1.7967  3.2074 -0.7116
  347TMC3    H2 5260   4.710   3.307  14.941  0.5455  0.7816 -0.8584
  347TMC3    C7 5261   4.602   3.388  15.168 -0.2936  0.1974 -0.0332
  347TMC3    C8 5262   4.603   3.196  14.746 -0.0731 -0.6185 -0.6233
  347TMC3    O1 5263   4.717   3.415  15.141 -0.1438 -0.0295  0.3710
  347TMC3    O2 5264   4.651   3.098  14.800  0.7767 -0.5423  0.1485
  348MPD2     C 5265   2.598   1.768  12.161 -0.3214 -0.2547 -0.4993
  348MPD2    C1 5266   2.728   1.759  12.113 -0.2757  0.4494  0.6076
  348MPD2    C2 5267   2.768   1.838  12.003  0.9122 -1.3527 -0.0226
  348MPD2    C3 5268   2.676   1.925  11.952  0.5180 -0.0788  0.0058
  348MPD2    C4 5269   2.552   1.939  12.006  0.1162  0.0639 -0.1912
  348MPD2    C5 5270   2.512   1.859  12.113 -0.1961 -0.3267  1.0087
  348MPD2     H 5271   2.870   1.830  11.967  1.9136  0.5319  2.3540
  348MPD2    H1 5272   2.478   2.007  11.965  0.6773  1.7526  1.5861
  348MPD2    H2 5273   2.551   1.705  12.235 -2.4532  3.3774  1.2614
  348MPD2    H3 5274   2.413   1.870  12.157 -0.6264 -1.1725  0.2582
  348MPD2     N 5275   2.691   2.002  11.836 -0.5202  0.1429 -0.3546
  348MPD2    H5 5276   2.620   2.069  11.810 -0.0313 -0.0109 -2.0740
  348MPD2    N1 5277   2.820   1.662  12.161 -0.3327  0.3995  0.8337
  348MPD2    H7 5278   2.906   1.664  12.108  0.5032  1.7411  2.2338
  349TMC3    C1 5279   2.896   1.474  12.254  0.8205  0.5520  0.3010
  349TMC3    C2 5280   3.025   1.509  12.255  0.4119 -0.3350  0.4507
  349TMC3    C3 5281   3.113   1.461  12.167  0.1499 -0.5365  0.1883
  349TMC3    C4 5282   2.840   1.400  12.156 -0.5893  0.3458 -0.3276
  349TMC3    C5 5283   2.923   1.369  12.056 -0.4850  0.3818 -0.2867
  349TMC3    C6 5284   3.058   1.384  12.067 -0.0918 -0.2822 -0.5634
  349TMC3     C 5285   2.808   1.586  12.273 -1.0234  0.3270  0.0664
  349TMC3     O 5286   2.726   1.592  12.364  0.4705 -0.3590 -0.4360
  349TMC3     H 5287   3.052   1.570  12.340 -0.4997 -2.9605  2.6394
  349TMC3    H1 5288   2.735   1.421  12.145 -0.4022  0.2284 -2.3517
  349TMC3    H2 5289   3.116   1.362  11.978 -0.3603  1.8517 -1.2847
  349TMC3    C7 5290   2.846   1.399  11.938 -0.1964  0.3579 -0.3318
  349TMC3    C8 5291   3.242   1.434  12.221 -0.4449 -0.2343  0.2020
  349TMC3    O1 5292   2.724   1.385  11.938 -1.0518 -0.5889 -0.4307
  349TMC3    O2 5293   3.267   1.490  12.328  0.0236  0.4215  0.1909
  350MPD2     C 5294   2.405   0.522  10.415  0.6396  0.0327 -0.2673
  350MPD2    C1 5295   2.307   0.433  10.435  0.2734  0.3603 -0.0501
  350MPD2    C2 5296   2.201   0.454  10.516  0.0799 -0.1382  0.3723
  350MPD2    C3 5297   2.190   0.573  10.583  0.1291  0.4305 -0.2709
  350MPD2    C4 5298   2.300   0.661  10.578 -0.2369  0.2184 -0.1616
  350MPD2    C5 5299   2.397   0.637  10.488 -0.8364  0.5930  1.1605
  350MPD2     H 5300   2.113   0.391  10.515  0.3338 -0.4706 -3.1855
  350MPD2    H1 5301   2.294   0.759  10.624  3.7064 -0.6740  2.2197
  350MPD2    H2 5302   2.487   0.501  10.349  0.2233  3.8550 -2.0288
  350MPD2    H3 5303   2.475   0.710  10.469  1.7673 -2.0399  1.6851
  350MPD2     N 5304   2.064   0.597  10.644  0.4989  0.1027 -0.2995
  350MPD2    H5 5305   1.994   0.525  10.629  0.2837 -0.1421  1.8797
  350MPD2    N1 5306   2.296   0.316  10.345 -0.2013 -0.3713  0.1427
  350MPD2    H7 5307   2.210   0.264  10.353 -1.3849  1.7830  1.4161
  351TMC3    C1 5308   2.311   0.189  10.153 -0.1839 -0.2917 -0.5625
  351TMC3    C2 5309   2.390   0.089  10.120 -0.5553 -0.3219  0.0598
  351TMC3    C3 5310   2.332   4.714  10.058 -0.0746  0.4749 -0.3539
  351TMC3    C4 5311   2.178   0.170  10.162  0.5492  0.2007  0.3142
  351TMC3    C5 5312   2.118   0.064  10.100  0.1197 -1.1058 -0.0425
  351TMC3    C6 5313   2.195   4.707  10.037  0.0972 -0.4322 -0.5153
  351TMC3     C 5314   2.378   0.286  10.238  0.2352 -0.3165 -0.6356
  351TMC3     O 5315   2.485   0.334  10.201  0.6424 -0.2333 -0.0091
  351TMC3     H 5316   2.484   0.088  10.173 -1.3578 -3.0110  1.4247
  351TMC3    H1 5317   2.119   0.256  10.192 -0.5049  0.1060 -1.4780
  351TMC3    H2 5318   2.150   4.617   9.998  1.8470 -1.7382  0.4860
  351TMC3    C7 5319   1.973   0.045  10.100  0.3978 -0.5557  0.4400
  351TMC3    C8 5320   2.407   4.596  10.061  0.7422  0.1586  0.1958
  351TMC3    O1 5321   1.903   0.143  10.131 -0.2544  0.0105 -0.5369
  351TMC3    O2 5322   2.334   4.504  10.086  0.0240 -0.0135 -1.1651
  352MPD2     C 5323   0.639   2.712   1.332 -0.2522 -0.3248 -1.3131
  352MPD2    C1 5324   0.579   2.669   1.217 -0.3440 -0.5137 -0.0778
  352MPD2    C2 5325   0.622   2.548   1.172 -0.5372 -0.7206 -0.7334
  352MPD2    C3 5326   0.717   2.470   1.233 -0.2598 -0.7684 -0.1845
  352MPD2    C4 5327   0.756   2.513   1.358  0.1419 -0.7421  0.8951
  352MPD2    C5 5328   0.723   2.634   1.402  0.7172  0.5186  0.0638
  352MPD2     H 5329   0.576   2.515   1.080 -1.8395 -1.9503  0.3579
  352MPD2    H1 5330   0.819   2.451   1.421  0.6992  0.9144  1.9675
  352MPD2    H2 5331   0.627   2.810   1.377  1.8034  0.6050 -2.7750
  352MPD2    H3 5332   0.744   2.666   1.504  3.3371 -1.4066  0.1246
  352MPD2     N 5333   0.759   2.343   1.187 -0.0959 -0.3091  0.4890
  352MPD2    H5 5334   0.790   2.282   1.262 -2.9036 -1.3125  0.8367
  352MPD2    N1 5335   0.491   2.755   1.152 -0.6775 -0.3632 -0.1745
  352MPD2    H7 5336   0.492   2.851   1.184  1.1240 -0.2669 -0.5090
  353TMC3    C1 5337   0.833   2.184   1.021  0.1235  0.2772 -0.0026
  353TMC3    C2 5338   0.890   2.104   1.120 -0.0647 -0.3955  0.6529
  353TMC3    C3 5339   0.940   1.975   1.084  0.0378 -0.5648 -0.3780
  353TMC3    C4 5340   0.807   2.137   0.897 -0.2458 -0.1676  0.6100
  353TMC3    C5 5341   0.831   1.997   0.881  0.0537 -0.6822 -1.1218
  353TMC3    C6 5342   0.905   1.917   0.971  0.7117 -0.3604  0.2434
  353TMC3     C 5343   0.765   2.309   1.052  0.0591 -0.8797  0.5617
  353TMC3     O 5344   0.749   2.388   0.960 -0.3011 -0.3944  0.2754
  353TMC3     H 5345   0.908   2.138   1.221  2.6999  1.5940 -0.5018
  353TMC3    H1 5346   0.753   2.201   0.828 -1.0722  0.1442  1.5564
  353TMC3    H2 5347   0.951   1.820   0.957 -0.4584 -0.5067 -2.5820
  353TMC3    C7 5348   0.743   1.927   0.784 -0.2523  0.2275  0.5949
  353TMC3    C8 5349   1.000   1.903   1.197  0.2539 -0.0530 -0.5088
  353TMC3    O1 5350   0.715   1.812   0.809  0.5297 -0.0078  0.0898
  353TMC3    O2 5351   1.051   1.970   1.284  0.3628  0.2236  0.1573
  354TMC3    C1 5352   1.450   3.267  13.110 -0.2031 -0.1464  0.1502
  354TMC3    C2 5353   1.466   3.405  13.088  0.1010  0.4499  0.1375
  354TMC3    C3 5354   1.569   3.447  13.007 -0.5674  0.3383  0.2274
  354TMC3    C4 5355   1.543   3.179  13.062  0.3097 -0.6958 -0.2994
  354TMC3    C5 5356   1.650   3.225  12.991 -0.2832 -0.4013 -0.6146
  354TMC3    C6 5357   1.667   3.355  12.971  0.8696 -0.1247 -0.0560
  354TMC3     C 5358   1.369   3.223  13.219  0.1605  0.2711  0.0904
  354TMC3     O 5359   1.318   3.114  13.203 -0.3378 -0.2463 -0.2108
  354TMC3     H 5360   1.385   3.475  13.105  2.1107  3.0131 -0.9871
  354TMC3    H1 5361   1.546   3.079  13.103 -0.5985 -1.1792 -1.4251
  354TMC3    H2 5362   1.748   3.382  12.903 -0.0613  2.1189 -0.2854
  354TMC3    C7 5363   1.764   3.126  12.957  0.9982 -0.2731 -0.1303
  354TMC3    C8 5364   1.591   3.584  12.959  0.3786 -0.3007 -0.2159
  354TMC3    O1 5365   1.736   3.010  12.946  0.2793  0.3259  0.7498
  354TMC3    O2 5366   1.703   3.600  12.912 -0.3196  0.0819 -0.1686
  355MPD2     C 5367   1.949   4.463  11.138  0.0236  0.6099 -0.2081
  355MPD2    C1 5368   2.082   4.462  11.104 -1.0125 -0.0613 -0.4109
  355MPD2    C2 5369   2.174   4.427  11.201  0.4552 -0.1251  0.1132
  355MPD2    C3 5370   2.137   4.410  11.337  0.4118 -0.0578  0.7752
  355MPD2    C4 5371   2.007   4.426  11.373 -0.0462 -0.0776 -0.0480
  355MPD2    C5 5372   1.914   4.460  11.273 -0.1488  0.1585 -0.3168
  355MPD2     H 5373   2.278   4.423  11.171  0.1351 -0.3858 -0.9648
  355MPD2    H1 5374   1.980   4.426  11.477  1.6962 -2.0890  0.4077
  355MPD2    H2 5375   1.881   4.490  11.058  0.0821  0.6177 -0.2549
  355MPD2    H3 5376   1.812   4.458  11.310  0.0585 -4.0778 -0.0347
  355MPD2     N 5377   2.233   4.390  11.434  0.3437 -0.4893  0.2319
  355MPD2    H5 5378   2.201   4.391  11.530  0.1184 -0.4105  0.1545
  355MPD2    N1 5379   2.118   4.496  10.971 -0.3788  0.2760 -0.0385
  355MPD2    H7 5380   2.049   4.488  10.897 -0.7016  0.3052  0.2631
  356TMC3    C1 5381   2.437   4.388  11.538  0.1587  0.2281 -0.0606
  356TMC3    C2 5382   2.568   4.349  11.534  0.1402  0.1786  0.0708
  356TMC3    C3 5383   2.652   4.399  11.636  0.8053 -0.3855  0.0407
  356TMC3    C4 5384   2.392   4.478  11.628 -0.0054  0.2162  0.3875
  356TMC3    C5 5385   2.481   4.535  11.714 -0.1201 -0.2350  0.6763
  356TMC3    C6 5386   2.610   4.501  11.718 -0.1592 -0.6490 -0.4876
  356TMC3     C 5387   2.368   4.373  11.413  0.1326 -0.4941  0.0331
  356TMC3     O 5388   2.434   4.355  11.313 -0.8564 -0.3262  0.2287
  356TMC3     H 5389   2.614   4.298  11.450  1.8528  0.1074  1.0478
  356TMC3    H1 5390   2.290   4.514  11.621  0.0565  0.6612  1.7810
  356TMC3    H2 5391   2.670   4.546  11.796 -1.0882  0.6216 -0.5056
  356TMC3    C7 5392   2.430   4.642  11.806  0.1791  0.1508 -0.5023
  356TMC3    C8 5393   2.799   4.393  11.624  0.0183 -0.4200 -0.1084
  356TMC3    O1 5394   2.312   4.644  11.845 -0.4036 -0.9542 -0.1899
  356TMC3    O2 5395   2.853   4.282  11.622 -0.0696  0.0504  0.2165
  357MPD2     C 5396   1.965   4.405   1.047 -0.0191 -0.0375 -0.0666
  357MPD2    C1 5397   1.999   4.277   1.080 -0.9363  0.5009  0.6565
  357MPD2    C2 5398   1.926   4.215   1.184 -0.2001 -0.7633  0.4460
  357MPD2    C3 5399   1.818   4.263   1.253  0.0627 -0.4184  0.1853
  357MPD2    C4 5400   1.792   4.395   1.214  0.5892  0.4373  0.5617
  357MPD2    C5 5401   1.858   4.461   1.111 -0.3501 -0.8622  0.1215
  357MPD2     H 5402   1.943   4.108   1.196 -0.8818 -0.7770  1.2885
  357MPD2    H1 5403   1.706   4.432   1.268 -0.5239 -0.1185 -0.8171
  357MPD2    H2 5404   2.041   4.457   0.989  0.4680  1.9152  2.3212
  357MPD2    H3 5405   1.818   4.558   1.086  1.6665  0.8674  3.6108
  357MPD2     N 5406   1.738   4.202   1.357 -0.1569  0.0963 -0.9689
  357MPD2    H5 5407   1.657   4.252   1.392  1.2752  1.8717 -0.1851
  357MPD2    N1 5408   2.102   4.215   1.012  0.6679  0.0094  0.9007
  357MPD2    H7 5409   2.124   4.250   0.920  0.1974 -0.6093  0.5580
  358TMC3    C1 5410   2.255   4.028   0.964 -0.2322  0.1497 -0.2098
  358TMC3    C2 5411   2.226   4.024   0.833 -0.2250  0.2484 -0.8234
  358TMC3    C3 5412   2.275   3.920   0.761 -0.2406  0.4857  0.1694
  358TMC3    C4 5413   2.337   3.935   1.028  0.7255  0.3083 -0.2628
  358TMC3    C5 5414   2.389   3.830   0.954 -0.3141 -0.1123  0.1956
  358TMC3    C6 5415   2.345   3.811   0.824 -0.8630  0.4904  0.5334
  358TMC3     C 5416   2.167   4.099   1.060 -0.3263  0.4156  0.1274
  358TMC3     O 5417   2.156   4.038   1.163  0.8339  0.4498  0.4822
  358TMC3     H 5418   2.148   4.078   0.780 -0.4932  0.1568 -0.5194
  358TMC3    H1 5419   2.375   3.961   1.126  2.1298 -2.0022 -0.2103
  358TMC3    H2 5420   2.390   3.732   0.766  2.0951  1.7080  1.1762
  358TMC3    C7 5421   2.522   3.783   0.995 -0.1476 -0.4628 -0.4459
  358TMC3    C8 5422   2.212   3.899   0.631 -0.4186  0.5824  0.3347
  358TMC3    O1 5423   2.590   3.738   0.906 -0.3382  0.2116  0.5935
  358TMC3    O2 5424   2.168   3.992   0.561 -0.0659 -0.3075  0.2397
  359MPD2     C 5425   2.286   2.195  12.761  0.7193  0.1279 -0.2891
  359MPD2    C1 5426   2.258   2.194  12.629  0.1143 -0.3947  0.4988
  359MPD2    C2 5427   2.132   2.167  12.584  0.2363  0.3191  0.5406
  359MPD2    C3 5428   2.033   2.120  12.666  1.4346  0.3164 -0.4355
  359MPD2    C4 5429   2.068   2.103  12.800 -0.7211 -0.0253  0.1609
  359MPD2    C5 5430   2.199   2.129  12.843  0.5389  0.3996 -0.0359
  359MPD2     H 5431   2.113   2.194  12.481 -1.1188 -0.2299  0.6626
  359MPD2    H1 5432   1.990   2.074  12.870  0.3292 -1.6950  0.6419
  359MPD2    H2 5433   2.384   2.218  12.800  0.2216  0.8398  0.5389
  359MPD2    H3 5434   2.221   2.106  12.947  1.7199 -2.0377 -0.8255
  359MPD2     N 5435   1.901   2.098  12.619  0.9021  0.7104 -0.0641
  359MPD2    H5 5436   1.828   2.079  12.686  1.0003 -0.0782 -0.1720
  359MPD2    N1 5437   2.352   2.228  12.525 -0.1955  0.1799  0.0032
  359MPD2    H7 5438   2.313   2.209  12.433 -2.3497 -1.3674  1.2271
  360TMC3    C1 5439   2.557   2.264  12.432  0.0245  0.4132  0.4030
  360TMC3    C2 5440   2.657   2.165  12.435  0.5336  0.1535  0.0966
  360TMC3    C3 5441   2.710   2.130  12.314  0.1807  0.0139  0.5334
  360TMC3    C4 5442   2.496   2.300  12.314 -0.5302 -0.1502 -0.0988
  360TMC3    C5 5443   2.554   2.258  12.199  0.3097  0.8135 -0.4920
  360TMC3    C6 5444   2.663   2.170  12.188  0.3549 -0.5366 -0.0133
  360TMC3     C 5445   2.477   2.265  12.549  0.9889 -0.5845  0.7005
  360TMC3     O 5446   2.542   2.256  12.652 -0.7747  0.2650 -0.0562
  360TMC3     H 5447   2.703   2.157  12.532  2.2625 -0.7591 -0.7984
  360TMC3    H1 5448   2.414   2.371  12.316 -0.5340 -0.1842  1.0315
  360TMC3    H2 5449   2.691   2.122  12.095  0.8781 -0.2302 -0.0110
  360TMC3    C7 5450   2.495   2.294  12.068  0.9984  0.1471 -0.1468
  360TMC3    C8 5451   2.834   2.061  12.308  0.2036 -0.2109 -0.6566
  360TMC3    O1 5452   2.559   2.263  11.971  0.9087  0.0285  0.6551
  360TMC3    O2 5453   2.859   2.002  12.415 -0.3247  0.2079 -0.1915
  361MPD2     C 5454   4.260   1.822  16.697  0.3922 -0.3151 -0.5339
  361MPD2    C1 5455   4.304   1.907  16.794  0.2859  0.5354  0.1196
  361MPD2    C2 5456   4.378   1.856  16.900  0.4553 -0.5092  0.0501
  361MPD2    C3 5457   4.415   1.722  16.911  0.4689  0.1985 -0.2886
  361MPD2    C4 5458   4.360   1.641  16.816  1.0886  0.6549 -0.5442
  361MPD2    C5 5459   4.281   1.686  16.717 -0.1839  0.3547 -0.1575
  361MPD2     H 5460   4.406   1.924  16.979 -0.1845 -1.9698  1.5237
  361MPD2    H1 5461   4.383   1.535  16.811  1.0334  0.6431 -0.5478
  361MPD2    H2 5462   4.209   1.860  16.609 -1.2848 -0.7714  0.2483
  361MPD2    H3 5463   4.248   1.618  16.639  1.4713 -0.4798 -0.1251
  361MPD2     N 5464   4.484   1.670  17.017  0.5277 -0.0403  0.4777
  361MPD2    H5 5465   4.475   1.569  17.028  1.4490 -0.5267 -3.2645
  361MPD2    N1 5466   4.277   2.047  16.802 -0.2587  0.2831 -0.1253
  361MPD2    H7 5467   4.332   2.097  16.871 -0.6886 -1.6555  1.6208
  362TMC3    C1 5468   4.188   2.255  16.730  0.5474  1.2545 -0.1844
  362TMC3    C2 5469   4.235   2.319  16.843 -0.2505  0.4009  0.1771
  362TMC3    C3 5470   4.199   2.446  16.874 -0.4847  0.9477 -0.8291
  362TMC3    C4 5471   4.104   2.326  16.646  0.3620 -1.5136  0.1367
  362TMC3    C5 5472   4.078   2.462  16.672 -0.3474  0.2876  0.9263
  362TMC3    C6 5473   4.121   2.523  16.790 -0.4968  0.1817  0.4648
  362TMC3     C 5474   4.196   2.113  16.712 -0.2942  0.0708 -0.3083
  362TMC3     O 5475   4.123   2.068  16.628 -0.2874 -0.2009  0.0047
  362TMC3     H 5476   4.299   2.275  16.919 -1.2719 -0.7594  0.3751
  362TMC3    H1 5477   4.051   2.277  16.565 -0.8161 -1.5490  0.9250
  362TMC3    H2 5478   4.111   2.630  16.802  2.2047  0.4215  0.7465
  362TMC3    C7 5479   3.988   2.536  16.592  0.0322  0.2474 -0.0782
  362TMC3    C8 5480   4.235   2.510  16.995 -1.2867  0.0590 -0.1848
  362TMC3    O1 5481   3.925   2.623  16.650 -0.4914 -0.6580  0.0267
  362TMC3    O2 5482   4.347   2.496  17.042  0.1557  0.0729  0.1884
  363TMC3    C1 5483   1.963   4.276   9.285 -0.1927  0.5922  0.5495
  363TMC3    C2 5484   2.085   4.265   9.344 -0.1305  0.0383  0.1083
  363TMC3    C3 5485   2.136   4.372   9.412  0.6962 -0.0811 -0.2039
  363TMC3    C4 5486   1.877   4.380   9.300  0.0102  0.3072  0.5202
  363TMC3    C5 5487   1.938   4.492   9.354  0.3927  0.1570  0.3525
  363TMC3    C6 5488   2.063   4.489   9.405  0.4013  0.4578 -0.3449
  363TMC3     C 5489   1.915   4.179   9.198  0.3969 -0.3735  0.1228
  363TMC3     O 5490   1.795   4.185   9.187 -0.7258 -0.8480 -0.2370
  363TMC3     H 5491   2.142   4.172   9.336 -1.0581 -0.4611 -0.6328
  363TMC3    H1 5492   1.779   4.384   9.255  0.7723 -0.3658 -1.1901
  363TMC3    H2 5493   2.096   4.578   9.457  0.4223  0.9878 -1.2611
  363TMC3    C7 5494   1.864   4.615   9.356  0.5274  0.4379  0.6023
  363TMC3    C8 5495   2.267   4.366   9.483  0.2718  0.6680 -0.5177
  363TMC3    O1 5496   1.920   4.724   9.356 -0.0329  0.1304  0.3564
  363TMC3    O2 5497   2.320   4.467   9.524 -0.2415 -0.0672  0.5095
  364MPD2     C 5498   1.243   3.643  10.616 -0.2628  0.1166 -0.1004
  364MPD2    C1 5499   1.345   3.674  10.525 -0.3386 -0.0408 -0.2508
  364MPD2    C2 5500   1.453   3.588  10.523 -0.1976 -0.9932 -0.3212
  364MPD2    C3 5501   1.456   3.476  10.602 -0.0679  0.0557  0.2306
  364MPD2    C4 5502   1.351   3.436  10.675 -0.9443 -0.1283 -0.5917
  364MPD2    C5 5503   1.253   3.525  10.691  0.5748 -0.5395  0.0388
  364MPD2     H 5504   1.534   3.613  10.456  2.4621 -1.0359  2.8616
  364MPD2    H1 5505   1.360   3.342  10.730  0.2490  0.3631  0.0583
  364MPD2    H2 5506   1.152   3.700  10.623 -0.8146 -0.7742 -0.0035
  364MPD2    H3 5507   1.175   3.493  10.758 -1.0438  1.0713 -1.0825
  364MPD2     N 5508   1.572   3.396  10.615 -0.3760  0.0006 -0.3509
  364MPD2    H5 5509   1.566   3.324  10.687 -1.4309 -0.6688 -1.1128
  364MPD2    N1 5510   1.329   3.787  10.443  0.2802 -0.1909  0.4207
  364MPD2    H7 5511   1.242   3.837  10.455  0.0189 -0.2444 -1.1924
  365TMC3    C1 5512   1.398   3.971  10.312 -0.1317 -0.2193 -0.0139
  365TMC3    C2 5513   1.487   4.004  10.209  0.1213  0.3745 -0.0133
  365TMC3    C3 5514   1.565   4.114  10.225 -0.0160  0.9047 -0.5920
  365TMC3    C4 5515   1.385   4.050  10.421  0.3434 -0.2430  0.5296
  365TMC3    C5 5516   1.466   4.158  10.434 -0.3436 -0.3460  0.0040
  365TMC3    C6 5517   1.547   4.197  10.333  0.2838  0.0110  0.8024
  365TMC3     C 5518   1.416   3.824  10.341 -0.1170 -0.6341  0.2249
  365TMC3     O 5519   1.524   3.779  10.301 -0.1437 -0.2680 -0.0960
  365TMC3     H 5520   1.501   3.936  10.126 -0.5256  0.6954 -0.3852
  365TMC3    H1 5521   1.313   4.037  10.501 -0.6650  0.5315 -0.2500
  365TMC3    H2 5522   1.596   4.293  10.340  0.8622 -0.1734 -0.6310
  365TMC3    C7 5523   1.399   4.264  10.501 -1.0130  0.1196  0.3350
  365TMC3    C8 5524   1.702   4.096  10.172  0.2188 -0.4918  0.6501
  365TMC3    O1 5525   1.411   4.377  10.454  0.2102 -0.0203 -0.2533
  365TMC3    O2 5526   1.768   4.197  10.161  0.5694  0.1908 -0.0879
  366MPD2     C 5527   4.441   0.072  15.588  0.5629  0.9215 -0.3031
  366MPD2    C1 5528   4.527   0.167  15.639 -0.1576 -0.6224  0.8770
  366MPD2    C2 5529   4.659   0.173  15.591  0.1684  0.1112  0.1253
  366MPD2    C3 5530   4.696   0.102  15.482 -0.2474 -0.1010  0.9846
  366MPD2    C4 5531   4.609   0.008  15.428 -0.0856  0.1493  0.2328
  366MPD2    C5 5532   4.486   4.727  15.485 -0.6875 -0.2869  0.7193
  366MPD2     H 5533   4.727   0.246  15.634  1.2933 -2.0546  2.0024
  366MPD2    H1 5534   4.637   4.676  15.347  0.3368 -1.0645  1.3870
  366MPD2    H2 5535   4.344   0.054  15.632 -1.0396  2.2089 -3.2865
  366MPD2    H3 5536   4.423   4.654  15.435 -0.3115  2.0775 -3.2257
  366MPD2     N 5537   0.076   0.145  15.414 -0.5775 -0.0426  0.9029
  366MPD2    H5 5538   0.142   0.202  15.467  1.1122 -1.2797  0.1044
  366MPD2    N1 5539   4.497   0.273  15.724  0.3648  0.0313  0.2446
  366MPD2    H7 5540   4.561   0.352  15.721  0.3037  0.1617  2.2098
  367TMC3    C1 5541   4.366   0.417  15.841 -0.2307  1.6004 -0.1511
  367TMC3    C2 5542   4.485   0.484  15.838 -0.1701 -0.5185  0.6024
  367TMC3    C3 5543   4.486   0.623  15.814 -0.0687 -0.1185 -0.1078
  367TMC3    C4 5544   4.247   0.478  15.806 -0.0804  0.3772  0.4043
  367TMC3    C5 5545   4.249   0.609  15.776  0.1978  1.0997  0.0657
  367TMC3    C6 5546   4.365   0.680  15.778 -0.1009 -0.1811 -0.2829
  367TMC3     C 5547   4.383   0.282  15.795 -0.1754 -0.0495 -0.1148
  367TMC3     O 5548   4.290   0.202  15.814 -0.3588 -0.3923 -0.0770
  367TMC3     H 5549   4.573   0.431  15.871 -0.9266 -3.0494 -1.4463
  367TMC3    H1 5550   4.153   0.423  15.803  0.1247 -0.0709  2.1536
  367TMC3    H2 5551   4.361   0.783  15.744  1.7273 -0.1685 -0.4698
  367TMC3    C7 5552   4.146   0.676  15.697  0.6929 -0.7816  0.3470
  367TMC3    C8 5553   4.608   0.693  15.805 -0.2071  0.5926 -0.7939
  367TMC3    O1 5554   4.159   0.791  15.670  0.4227  0.0367  0.2656
  367TMC3    O2 5555   4.706   0.626  15.833 -0.8165 -0.5674  0.0633
  368MPD2     C 5556   0.117   1.839  13.178  0.1887 -0.5019 -0.2879
  368MPD2    C1 5557   0.183   1.940  13.106 -0.4902 -0.4213 -0.5761
  368MPD2    C2 5558   0.290   1.895  13.026 -0.6961 -0.6329  0.1379
  368MPD2    C3 5559   0.330   1.762  13.022 -0.6346  0.4358 -0.0012
  368MPD2    C4 5560   0.263   1.662  13.087 -0.0783  0.6271  0.1046
  368MPD2    C5 5561   0.157   1.705  13.169 -0.0680  0.0025  0.6068
  368MPD2     H 5562   0.344   1.972  12.972  0.9947 -1.1005  1.1653
  368MPD2    H1 5563   0.279   1.555  13.078  2.9206  1.1106 -0.2031
  368MPD2    H2 5564   0.023   1.868  13.224 -0.3795 -0.8117 -1.2269
  368MPD2    H3 5565   0.093   1.627  13.210 -1.3383 -0.4928 -2.3206
  368MPD2     N 5566   0.448   1.722  12.943  0.1406  0.3922  0.4495
  368MPD2    H5 5567   0.479   1.627  12.962  1.9871  0.8356 -0.4031
  368MPD2    N1 5568   0.133   2.075  13.113  0.1415  0.1060  0.1301
  368MPD2    H7 5569   0.081   2.102  13.196  1.2267  0.1840  0.7726
  369TMC3    C1 5570   0.129   2.303  13.104  0.1494  0.0587 -0.2465
  369TMC3    C2 5571   0.209   2.415  13.092  0.0956  0.9923  0.2062
  369TMC3    C3 5572   0.162   2.533  13.133 -0.5604  0.0249  0.3357
  369TMC3    C4 5573   0.006   2.301  13.162 -0.6623 -0.0727  0.9319
  369TMC3    C5 5574   4.702   2.423  13.215  0.6041 -0.2006 -0.2224
  369TMC3    C6 5575   0.037   2.541  13.200  0.1255 -0.3709 -0.8870
  369TMC3     C 5576   0.185   2.186  13.048 -0.0998  0.1271 -0.5887
  369TMC3     O 5577   0.265   2.193  12.959 -0.0056  0.2414  0.4415
  369TMC3     H 5578   0.298   2.409  13.030  0.6654  3.0929  0.8381
  369TMC3    H1 5579   4.685   2.211  13.183 -2.0428  0.2931 -1.2600
  369TMC3    H2 5580   0.004   2.633  13.246  3.2095 -0.5881  1.7568
  369TMC3    C7 5581   4.600   2.407  13.321 -0.0111  0.5501 -0.0144
  369TMC3    C8 5582   0.240   2.652  13.106  0.0987  0.5311 -0.3050
  369TMC3    O1 5583   4.590   2.303  13.382  0.5495  0.1645 -0.1136
  369TMC3    O2 5584   0.186   2.743  13.043  0.1906 -0.1593  0.1663
  370TMC3    C1 5585   0.488   2.950  16.296 -0.0401 -0.5544  0.1297
  370TMC3    C2 5586   0.452   2.850  16.378  0.4018 -0.3458  0.0612
  370TMC3    C3 5587   0.432   2.727  16.324 -0.1082  0.2608 -0.6353
  370TMC3    C4 5588   0.499   2.933  16.159  0.3905 -0.0867 -0.0989
  370TMC3    C5 5589   0.459   2.814  16.113 -0.2862  0.3278 -0.3312
  370TMC3    C6 5590   0.417   2.709  16.191  0.9821 -0.5196  0.2936
  370TMC3     C 5591   0.612   3.004  16.350  0.5505 -0.5505  0.9007
  370TMC3     O 5592   0.658   2.964  16.458  0.1984  0.2474 -0.3583
  370TMC3     H 5593   0.455   2.877  16.483  0.6195 -1.3586  0.3161
  370TMC3    H1 5594   0.543   3.005  16.091 -1.2419  0.2152 -0.8514
  370TMC3    H2 5595   0.361   2.625  16.151  2.2355 -1.1630 -0.1220
  370TMC3    C7 5596   0.497   2.782  15.981  0.2879  0.2681 -0.4955
  370TMC3    C8 5597   0.373   2.624  16.405  0.5367  0.4878  0.6428
  370TMC3    O1 5598   0.495   2.873  15.896 -0.1086 -0.7955 -0.0309
  370TMC3    O2 5599   0.341   2.515  16.355  0.1288  0.3481  0.8881
  371TMC3    C1 5600   1.842   1.512  15.226  0.2627 -0.7154  0.1371
  371TMC3    C2 5601   1.720   1.481  15.285 -0.1766 -0.0723 -0.4032
  371TMC3    C3 5602   1.617   1.568  15.275  0.0508 -0.1978  0.5316
  371TMC3    C4 5603   1.853   1.627  15.154  0.0256  0.9079 -0.6147
  371TMC3    C5 5604   1.744   1.712  15.146 -0.0204  0.7136  0.6236
  371TMC3    C6 5605   1.625   1.679  15.201 -0.1050 -0.0034 -0.1253
  371TMC3     C 5606   1.949   1.417  15.221  0.1119 -0.2021 -0.6872
  371TMC3     O 5607   2.064   1.448  15.195  0.3464 -0.4421  0.4226
  371TMC3     H 5608   1.700   1.395  15.347  1.1458  0.4813  0.7828
  371TMC3    H1 5609   1.953   1.640  15.113  0.6655 -0.6952  0.3963
  371TMC3    H2 5610   1.542   1.749  15.193 -3.3551 -3.6008  2.2583
  371TMC3    C7 5611   1.754   1.836  15.069 -0.2582  0.5103 -1.1001
  371TMC3    C8 5612   1.483   1.512  15.306  0.3351  0.5059 -0.0479
  371TMC3    O1 5613   1.658   1.915  15.081 -0.0065 -0.1050 -0.3482
  371TMC3    O2 5614   1.475   1.392  15.288 -0.3996 -0.6811 -0.6697
  372MPD2     C 5615   0.704   2.315  12.969  0.7162 -0.3745  0.1033
  372MPD2    C1 5616   0.827   2.247  12.992 -0.2039 -0.6931  0.3340
  372MPD2    C2 5617   0.824   2.125  13.062 -0.0777  0.7139 -0.4972
  372MPD2    C3 5618   0.707   2.062  13.104 -0.0857 -0.4084 -0.3322
  372MPD2    C4 5619   0.594   2.123  13.057  0.3979  0.3092 -0.0005
  372MPD2    C5 5620   0.584   2.251  13.000 -0.2244  0.3214 -0.7565
  372MPD2     H 5621   0.921   2.077  13.065 -1.0687 -1.2969 -0.5797
  372MPD2    H1 5622   0.507   2.059  13.058  0.6885 -0.0838  0.1939
  372MPD2    H2 5623   0.695   2.410  12.918 -0.9989 -1.8292 -2.3280
  372MPD2    H3 5624   0.492   2.299  12.968 -0.8759  0.1166  0.7953
  372MPD2     N 5625   0.710   1.944  13.178 -0.0388 -0.1180 -0.0548
  372MPD2    H5 5626   0.798   1.898  13.200 -0.6462 -0.6194  1.2942
  372MPD2    N1 5627   0.947   2.309  12.952 -0.8762  0.1680 -0.1127
  372MPD2    H7 5628   1.028   2.250  12.969 -1.5461 -0.0431  2.3807
  373TMC3    C1 5629   0.641   1.801  13.338  0.2197  0.2153 -0.1083
  373TMC3    C2 5630   0.647   1.843  13.467  0.5285  1.1274 -0.0760
  373TMC3    C3 5631   0.711   1.756  13.548 -1.2900 -0.1136  0.1033
  373TMC3    C4 5632   0.664   1.676  13.295  0.7664  0.1564  0.1750
  373TMC3    C5 5633   0.716   1.587  13.384  1.0314 -0.0156  0.6884
  373TMC3    C6 5634   0.745   1.629  13.509  0.0407 -0.1621  0.2786
  373TMC3     C 5635   0.602   1.903  13.247 -0.6772 -0.1029 -0.4364
  373TMC3     O 5636   0.503   1.967  13.279 -0.0601  0.2754 -0.1095
  373TMC3     H 5637   0.625   1.944  13.501 -1.3142  1.2795 -1.6423
  373TMC3    H1 5638   0.633   1.641  13.197 -0.7155  0.6208  0.4751
  373TMC3    H2 5639   0.802   1.556  13.565  4.8762  2.4109 -1.2714
  373TMC3    C7 5640   0.743   1.451  13.346  0.3766 -0.1567 -0.0676
  373TMC3    C8 5641   0.786   1.811  13.657  1.1578  0.3103  0.2002
  373TMC3    O1 5642   0.806   1.430  13.241 -0.5292  0.4458 -0.1082
  373TMC3    O2 5643   0.904   1.778  13.665 -0.0167 -1.0236  0.2649
  374TMC3    C1 5644   2.309   2.093   9.537  0.8364  0.0453  0.4706
  374TMC3    C2 5645   2.301   2.209   9.612  0.4599 -0.2654  0.8038
  374TMC3    C3 5646   2.373   2.312   9.570  0.0153  0.6036 -0.2963
  374TMC3    C4 5647   2.391   2.082   9.428  0.0510 -0.4304 -0.1130
  374TMC3    C5 5648   2.461   2.190   9.386  0.2715 -0.3214  0.2352
  374TMC3    C6 5649   2.456   2.304   9.460  0.3946 -1.0216  0.0279
  374TMC3     C 5650   2.219   1.980   9.563  0.5242  0.0486  0.2872
  374TMC3     O 5651   2.198   1.897   9.471 -0.0388  0.1760 -0.6407
  374TMC3     H 5652   2.216   2.227   9.676 -0.0388  0.4381 -0.0566
  374TMC3    H1 5653   2.421   1.991   9.375  2.0138 -0.8342  1.6743
  374TMC3    H2 5654   2.504   2.392   9.417  2.5583 -1.5358  1.3937
  374TMC3    C7 5655   2.581   2.161   9.305  0.4648  0.5995  0.1952
  374TMC3    C8 5656   2.373   2.431   9.651 -0.8291  0.2397 -0.1377
  374TMC3    O1 5657   2.579   2.066   9.226  0.0075 -0.3194  0.6047
  374TMC3    O2 5658   2.404   2.532   9.592  0.2167  0.5903 -0.0533
  375MPD2     C 5659   1.549   3.111  17.593  0.0260 -0.1579  0.4426
  375MPD2    C1 5660   1.484   3.111  17.472  0.6308  0.0427 -0.0957
  375MPD2    C2 5661   1.553   3.076  17.359  0.0634 -0.5754 -0.3852
  375MPD2    C3 5662   1.689   3.038  17.364  0.1437  0.1335  0.6342
  375MPD2    C4 5663   1.750   3.042  17.486  0.8554 -0.0965 -0.2608
  375MPD2    C5 5664   1.683   3.086  17.593  0.5925 -0.0247  0.5355
  375MPD2     H 5665   1.498   3.078  17.266 -1.1781 -0.2504  0.3530
  375MPD2    H1 5666   1.855   3.021  17.494  0.6405 -2.0562 -2.7754
  375MPD2    H2 5667   1.495   3.144  17.682  1.4680 -0.9875  1.6138
  375MPD2    H3 5668   1.735   3.104  17.686  1.5127  2.0554 -0.3838
  375MPD2     N 5669   1.764   2.995  17.254  0.2041 -0.1772  0.1063
  375MPD2    H5 5670   1.842   2.935  17.278  1.1930  1.5908  1.3068
  375MPD2    N1 5671   1.352   3.160  17.448  0.2465 -0.3507 -0.4913
  375MPD2    H7 5672   1.317   3.136  17.356 -2.0074 -0.1353  0.3102
  376TMC3    C1 5673   1.812   2.961  17.030  0.0171  0.2177 -0.2867
  376TMC3    C2 5674   1.935   2.909  17.068 -0.4392  0.1509  0.4325
  376TMC3    C3 5675   2.023   2.877  16.961 -0.2224 -0.6417 -0.4156
  376TMC3    C4 5676   1.781   2.985  16.898  0.0341 -0.4667 -0.0913
  376TMC3    C5 5677   1.869   2.935  16.801  0.1273  0.6017 -0.0795
  376TMC3    C6 5678   1.993   2.895  16.827  0.3875 -0.7946 -0.3427
  376TMC3     C 5679   1.736   3.033  17.128 -0.3183 -0.0522 -0.6829
  376TMC3     O 5680   1.655   3.117  17.088 -0.2351 -0.4408 -0.3928
  376TMC3     H 5681   1.963   2.886  17.171  3.2262  0.2918 -0.5367
  376TMC3    H1 5682   1.685   3.025  16.866 -0.6877 -1.6156  0.6670
  376TMC3    H2 5683   2.050   2.857  16.743  0.9660  0.8664 -0.7096
  376TMC3    C7 5684   1.830   2.963  16.668  0.5247  0.8208 -0.2496
  376TMC3    C8 5685   2.156   2.835  16.995 -0.2535  0.3314 -0.7447
  376TMC3    O1 5686   1.788   3.075  16.648 -0.1303 -0.6345  0.0256
  376TMC3    O2 5687   2.183   2.786  17.104  0.8905  0.3738 -0.3283
  377MPD2     C 5688   3.968   2.555  11.832  0.1952  0.0936 -0.1184
  377MPD2    C1 5689   4.043   2.565  11.950  0.8828  0.2300 -0.5218
  377MPD2    C2 5690   3.989   2.500  12.069 -0.3999  0.3050 -0.0083
  377MPD2    C3 5691   3.878   2.428  12.062  0.1154  0.1244  0.0185
  377MPD2    C4 5692   3.814   2.418  11.941 -0.0947  0.0717 -0.7943
  377MPD2    C5 5693   3.854   2.482  11.827  0.5717 -0.2200 -0.1941
  377MPD2     H 5694   4.031   2.528  12.165 -1.3971  1.5266  0.0653
  377MPD2    H1 5695   3.727   2.353  11.933  0.8089 -1.0067 -1.7103
  377MPD2    H2 5696   4.010   2.584  11.736  1.0790 -0.9076 -0.0234
  377MPD2    H3 5697   3.800   2.479  11.733 -0.5532 -0.4341  0.4731
  377MPD2     N 5698   3.828   2.363  12.173  0.2300  0.0439 -0.2863
  377MPD2    H5 5699   3.744   2.309  12.155 -0.4273  0.5321  1.2579
  377MPD2    N1 5700   4.168   2.623  11.956 -0.4579  0.2300  0.0094
  377MPD2    H7 5701   4.199   2.673  11.873 -3.7599 -0.8671 -1.8862
  378TMC3    C1 5702   4.524   2.812  11.931  0.0681  0.2913 -0.3283
  378TMC3    C2 5703   4.413   2.744  11.931 -0.0724 -0.0748  0.2489
  378TMC3    C3 5704   4.368   2.696  12.049 -0.5518 -0.3846  0.0738
  378TMC3    C4 5705   4.591   2.847  12.042 -0.0700  0.2569 -0.3005
  378TMC3    C5 5706   4.546   2.790  12.161  0.1438 -0.6095  0.5726
  378TMC3    C6 5707   4.433   2.710  12.169 -0.1131 -0.0960  0.3392
  378TMC3     C 5708   4.603   2.825  11.802 -0.0073 -0.3898 -0.4871
  378TMC3     O 5709   4.704   2.890  11.810 -0.0910  0.7250  0.1697
  378TMC3     H 5710   4.353   2.736  11.841  0.9448 -2.0753 -0.2522
  378TMC3    H1 5711   4.685   2.901  12.036  0.1648  0.0374  1.5392
  378TMC3    H2 5712   4.398   2.668  12.262 -1.4695  0.3026  0.0198
  378TMC3    C7 5713   4.616   2.820  12.281  0.2530  0.7560  0.3170
  378TMC3    C8 5714   4.258   2.602  12.056 -0.0739  0.5766  0.4701
  378TMC3    O1 5715   4.544   2.831  12.375 -0.1157 -0.9328  0.0598
  378TMC3    O2 5716   4.252   2.532  12.158  0.3627 -0.5158  0.6707
  379MPD2     C 5717   1.095   0.761  16.214  0.4011 -0.2166 -0.0102
  379MPD2    C1 5718   0.966   0.707  16.191  0.7592 -0.0789  0.0443
  379MPD2    C2 5719   0.908   0.634  16.293 -0.1476  0.0220  0.5449
  379MPD2    C3 5720   0.967   0.616  16.417  0.1919 -0.1202 -0.2773
  379MPD2    C4 5721   1.088   0.667  16.438 -0.4658 -0.2904  0.3384
  379MPD2    C5 5722   1.150   0.728  16.343  0.0581 -0.4132  0.7374
  379MPD2     H 5723   0.808   0.596  16.274 -0.4172  0.4960  1.0165
  379MPD2    H1 5724   1.138   0.652  16.533 -0.1027 -3.0141 -0.2819
  379MPD2    H2 5725   1.145   0.816  16.135  0.9870 -0.8828 -0.1076
  379MPD2    H3 5726   1.250   0.766  16.363 -0.1194  0.0833  0.6868
  379MPD2     N 5727   0.902   0.567  16.529  0.5870  0.7487  0.1804
  379MPD2    H5 5728   0.945   0.566  16.621  1.0875  0.8105 -0.0529
  379MPD2    N1 5729   0.904   0.746  16.066 -0.1039 -0.8101  0.0733
  379MPD2    H7 5730   0.957   0.801  15.999 -0.5341  0.6573  0.9473
  380TMC3    C1 5731   0.740   0.803  15.921 -0.4940 -0.4740  0.8607
  380TMC3    C2 5732   0.837   0.829  15.828 -0.6844  0.1386 -0.0511
  380TMC3    C3 5733   0.797   0.918  15.725  0.2519 -0.0504 -0.6631
  380TMC3    C4 5734   0.613   0.848  15.915 -0.7399 -0.8046 -0.4290
  380TMC3    C5 5735   0.575   0.918  15.802 -0.2632 -1.1984  0.1936
  380TMC3    C6 5736   0.667   0.961  15.708 -0.7732 -0.0496  0.0133
  380TMC3     C 5737   0.775   0.728  16.040  0.5350 -0.5195 -0.4149
  380TMC3     O 5738   0.691   0.660  16.103  0.0688 -0.0789 -0.5692
  380TMC3     H 5739   0.935   0.783  15.836 -0.0581  1.5844  0.5790
  380TMC3    H1 5740   0.544   0.820  15.995  0.3446 -0.1821  0.7177
  380TMC3    H2 5741   0.649   1.034  15.631  0.8393  0.0190 -0.2844
  380TMC3    C7 5742   0.453   0.999  15.798 -1.3002  0.5984  0.1121
  380TMC3    C8 5743   0.890   0.962  15.619 -0.6151  0.1956  0.0401
  380TMC3    O1 5744   0.466   1.118  15.786  0.1554 -0.2398 -0.7056
  380TMC3    O2 5745   0.858   1.063  15.557  0.7227 -0.3654  0.2226
  381TMC3    C1 5746   0.349   1.918  15.980  0.0112 -0.4063 -0.0948
  381TMC3    C2 5747   0.457   2.003  16.005  0.9320  0.5136 -0.4603
  381TMC3    C3 5748   0.446   2.091  16.113 -0.0847  0.1480  0.0334
  381TMC3    C4 5749   0.235   1.921  16.047  0.2813  0.5491  0.3139
  381TMC3    C5 5750   0.226   2.016  16.149  0.4101  0.6047 -0.5946
  381TMC3    C6 5751   0.327   2.108  16.182 -0.0514  0.6097  0.1954
  381TMC3     C 5752   0.374   1.800  15.897  0.1400  0.1132  0.3426
  381TMC3     O 5753   0.487   1.758  15.877 -0.2150  0.4054 -0.0028
  381TMC3     H 5754   0.554   1.973  15.968  1.4557  0.8112  0.6661
  381TMC3    H1 5755   0.173   1.832  16.048  1.4100 -0.2305  0.1948
  381TMC3    H2 5756   0.319   2.174  16.268  1.3426 -0.8406  1.4199
  381TMC3    C7 5757   0.153   1.975  16.263 -0.6476 -0.2828 -0.7367
  381TMC3    C8 5758   0.556   2.186  16.131  0.5819 -0.2112 -0.2243
  381TMC3    O1 5759   0.141   1.857  16.275 -0.4074 -0.1788  0.3793
  381TMC3    O2 5760   0.637   2.184  16.039 -0.2230 -0.3090  0.2741
  382MPD2     C 5761   4.052   4.637  16.864 -0.6385  0.0986  0.2079
  382MPD2    C1 5762   4.115   4.616  16.984  0.9654 -0.8603  0.3771
  382MPD2    C2 5763   4.134   4.489  17.032 -0.2200 -0.7557  0.6606
  382MPD2    C3 5764   4.082   4.377  16.963  0.1852 -0.0829  0.5232
  382MPD2    C4 5765   4.003   4.404  16.854 -0.4229 -0.0642  0.3829
  382MPD2    C5 5766   3.979   4.531  16.811 -0.4465 -0.6218 -0.0812
  382MPD2     H 5767   4.191   4.479  17.123 -0.9273 -0.5782  1.1208
  382MPD2    H1 5768   3.955   4.320  16.805  1.3586 -1.9523  1.9003
  382MPD2    H2 5769   4.016   4.735  16.832 -1.3778  0.0077  0.7548
  382MPD2    H3 5770   3.908   4.550  16.732 -0.3869  0.6080  0.1541
  382MPD2     N 5771   4.093   4.247  17.012 -0.5531 -0.3058 -0.3647
  382MPD2    H5 5772   4.036   4.172  16.972 -0.7942 -1.3315  1.9149
  382MPD2    N1 5773   4.168   4.725  17.067 -0.2400  0.0900 -0.2284
  382MPD2    H7 5774   4.222   4.691  17.146 -0.5789  0.4431  0.1533
  383TMC3    C1 5775   4.134   4.091  17.182 -0.0944  0.3159  0.7058
  383TMC3    C2 5776   4.004   4.050  17.183  1.0265  0.1035  0.6516
  383TMC3    C3 5777   3.976   3.951  17.272  0.2546  0.2189 -0.1445
  383TMC3    C4 5778   4.228   4.036  17.267  0.0360  0.7290 -0.6836
  383TMC3    C5 5779   4.189   3.942  17.362  0.7122  0.8749 -0.2528
  383TMC3    C6 5780   4.060   3.894  17.366  0.1665  0.7063  0.5230
  383TMC3     C 5781   4.168   4.215  17.125  0.0995 -0.4827 -0.2751
  383TMC3     O 5782   4.250   4.284  17.186 -0.1288 -0.1108  0.3766
  383TMC3     H 5783   3.921   4.105  17.139 -1.3642 -3.8952  0.1702
  383TMC3    H1 5784   4.331   4.064  17.248  0.4333 -0.6982 -0.6468
  383TMC3    H2 5785   4.029   3.825  17.444  2.2586  1.5946  2.1333
  383TMC3    C7 5786   4.287   3.865  17.434  0.9335 -0.1999 -0.2453
  383TMC3    C8 5787   3.834   3.908  17.272  1.1857 -0.1419 -0.5179
  383TMC3    O1 5788   4.251   3.753  17.474 -0.4884 -0.5947 -0.1791
  383TMC3    O2 5789   3.757   3.938  17.181  0.1953  0.3807 -0.4833
  384MPD2     C 5790   0.604   0.101  12.264  0.8934  0.0791 -0.4355
  384MPD2    C1 5791   0.649   0.228  12.255 -0.0076  0.3301  0.1315
  384MPD2    C2 5792   0.775   0.253  12.201 -0.7091  0.3366  0.0311
  384MPD2    C3 5793   0.844   0.155  12.137  0.5460  0.2830 -0.4748
  384MPD2    C4 5794   0.790   0.025  12.142  0.2760 -0.2599 -0.1095
  384MPD2    C5 5795   0.673   4.732  12.208  0.6014 -0.4582 -0.8138
  384MPD2     H 5796   0.819   0.351  12.215 -0.0058  0.1905 -1.1933
  384MPD2    H1 5797   0.837   4.683  12.082 -1.9847 -0.7437 -1.2469
  384MPD2    H2 5798   0.518   0.081  12.327  0.3914  2.4066 -0.3729
  384MPD2    H3 5799   0.639   4.633  12.235  0.9124 -0.3349  0.0322
  384MPD2     N 5800   0.973   0.172  12.088  0.6624 -0.6751  0.0281
  384MPD2    H5 5801   1.027   0.086  12.086  2.3395  0.3241  1.4685
  384MPD2    N1 5802   0.580   0.333  12.323 -0.2761  0.2288  0.4240
  384MPD2    H7 5803   0.519   0.303  12.398 -0.9400 -3.5191 -1.6746
  385TMC3    C1 5804   1.196   0.235  12.109 -1.0824  0.2682  0.1436
  385TMC3    C2 5805   1.231   0.109  12.083  0.2065 -0.0775 -0.2680
  385TMC3    C3 5806   1.324   0.049  12.166 -0.1262  0.8133 -0.5420
  385TMC3    C4 5807   1.242   0.303  12.219 -0.0664 -0.1727  0.2757
  385TMC3    C5 5808   1.316   0.239  12.316 -0.1539  0.0841 -0.9675
  385TMC3    C6 5809   1.354   0.108  12.290  0.2488 -0.5660 -0.5028
  385TMC3     C 5810   1.054   0.280  12.084 -0.2618 -0.1482 -0.3841
  385TMC3     O 5811   1.027   0.400  12.091  0.0186 -0.2025 -0.6172
  385TMC3     H 5812   1.207   0.058  11.990  2.5437 -1.2025 -0.2650
  385TMC3    H1 5813   1.193   0.396  12.244 -3.4430 -1.2959 -2.0697
  385TMC3    H2 5814   1.422   0.056  12.357  0.8369 -0.9688 -1.4166
  385TMC3    C7 5815   1.243   0.257  12.445 -0.1884  0.7762  0.8251
  385TMC3    C8 5816   1.397   4.670  12.132 -0.6170  0.6824  0.1147
  385TMC3    O1 5817   1.238   0.368  12.498  0.4427 -0.2636  0.3686
  385TMC3    O2 5818   1.501   4.662  12.195  0.5713  0.0531  0.3330
  386TMC3    C1 5819   1.399   2.764  12.085  0.6869 -0.5250 -1.1366
  386TMC3    C2 5820   1.424   2.783  11.953 -0.5807  0.6313 -0.2399
  386TMC3    C3 5821   1.335   2.856  11.883 -0.2161 -0.5638  0.7287
  386TMC3    C4 5822   1.293   2.819  12.147  0.2895 -0.0084  0.5132
  386TMC3    C5 5823   1.199   2.877  12.071  0.4390  0.5274 -0.4000
  386TMC3    C6 5824   1.221   2.911  11.940 -0.2075 -0.0438  0.0491
  386TMC3     C 5825   1.500   2.700  12.169 -0.0254 -0.5360  0.0507
  386TMC3     O 5826   1.500   2.731  12.286  0.3682  0.5034  0.2119
  386TMC3     H 5827   1.516   2.740  11.914  0.8785  1.4328  2.3699
  386TMC3    H1 5828   1.286   2.811  12.255 -1.0808  1.0491  0.4923
  386TMC3    H2 5829   1.147   2.973  11.892 -2.2004 -0.9427  1.9277
  386TMC3    C7 5830   1.075   2.919  12.141  0.8809 -0.2806  0.1528
  386TMC3    C8 5831   1.331   2.857  11.737 -0.3373  0.7909  0.3624
  386TMC3    O1 5832   1.071   2.947  12.260  0.1720 -0.0047  0.1060
  386TMC3    O2 5833   1.223   2.887  11.686 -0.2725 -0.0753 -0.2534
  387MPD2     C 5834   3.818   2.489   9.961  0.1933  0.0903  0.4450
  387MPD2    C1 5835   3.870   2.386  10.034 -0.2553 -0.1437  0.4244
  387MPD2    C2 5836   3.834   2.256  10.003  0.1003 -0.7340 -0.3789
  387MPD2    C3 5837   3.767   2.221   9.888 -0.1550 -0.4576 -0.2191
  387MPD2    C4 5838   3.716   2.325   9.812 -0.5789  0.3605 -0.3667
  387MPD2    C5 5839   3.747   2.457   9.844  0.3342 -0.1212 -0.2404
  387MPD2     H 5840   3.888   2.181  10.059  0.3179 -0.1301  0.2217
  387MPD2    H1 5841   3.651   2.296   9.730  0.9156 -1.3872 -0.9485
  387MPD2    H2 5842   3.841   2.593   9.982  0.2193 -0.4883  3.2813
  387MPD2    H3 5843   3.705   2.535   9.781  0.1282  0.8333  1.0886
  387MPD2     N 5844   3.762   2.081   9.857 -0.1814 -0.6024  0.1008
  387MPD2    H5 5845   3.787   2.015   9.929 -1.4677 -1.9028 -0.6220
  387MPD2    N1 5846   3.963   2.407  10.131 -0.1292  0.2937 -0.1746
  387MPD2    H7 5847   4.010   2.324  10.165 -1.3924  0.2790  1.5715
  388TMC3    C1 5848   4.151   2.501  10.234  0.7095  0.5738  0.6801
  388TMC3    C2 5849   4.235   2.608  10.231 -0.4615 -0.0474 -0.5579
  388TMC3    C3 5850   4.363   2.589  10.272 -0.4700 -0.2259  0.3136
  388TMC3    C4 5851   4.193   2.373  10.277  0.0987 -0.2462  0.3215
  388TMC3    C5 5852   4.326   2.354  10.301  0.8351  0.0188  0.7084
  388TMC3    C6 5853   4.415   2.460  10.292 -0.1181  0.3164  0.5939
  388TMC3     C 5854   4.019   2.526  10.173 -0.7756  0.5777  0.6463
  388TMC3     O 5855   3.984   2.639  10.167  0.2125 -0.2259 -0.1193
  388TMC3     H 5856   4.201   2.710  10.216 -2.0663 -0.6792 -1.1767
  388TMC3    H1 5857   4.124   2.290  10.288 -0.1334  0.0770  1.2513
  388TMC3    H2 5858   4.521   2.440  10.300 -0.1404 -0.2979 -0.6896
  388TMC3    C7 5859   4.374   2.221  10.264 -0.0888  0.5278  0.1525
  388TMC3    C8 5860   4.453   2.702  10.266 -0.2502 -0.8682 -0.3635
  388TMC3    O1 5861   4.485   2.197  10.308 -0.3915  0.3854 -0.4362
  388TMC3    O2 5862   4.417   2.795  10.203  0.3227  0.6554 -0.0612
  389MPD2     C 5863   3.473   1.195  11.114 -0.2359  0.6626  0.8570
  389MPD2    C1 5864   3.348   1.204  11.058 -0.0704  0.3170  0.2063
  389MPD2    C2 5865   3.236   1.139  11.123  0.1524 -0.0435  0.0654
  389MPD2    C3 5866   3.257   1.071  11.247  0.6274 -1.1593  0.0445
  389MPD2    C4 5867   3.378   1.076  11.307  0.0031 -0.1373 -0.1997
  389MPD2    C5 5868   3.481   1.137  11.240 -0.9290 -0.3205 -0.0906
  389MPD2     H 5869   3.142   1.117  11.072  0.4903  0.1205 -0.6195
  389MPD2    H1 5870   3.397   1.022  11.399  1.3128  2.5644  1.0815
  389MPD2    H2 5871   3.556   1.245  11.066  0.2710  0.5738  1.6554
  389MPD2    H3 5872   3.579   1.131  11.287  0.0433  1.8476 -1.7889
  389MPD2     N 5873   3.155   1.009  11.311  0.1240 -0.4022 -0.7469
  389MPD2    H5 5874   3.178   0.986  11.407  1.0258 -0.5269 -0.9891
  389MPD2    N1 5875   3.330   1.269  10.932 -0.0200  0.1855  0.0919
  389MPD2    H7 5876   3.411   1.291  10.874 -1.8106 -1.6882 -3.1374
  390TMC3    C1 5877   2.937   0.922  11.351 -0.5713  0.0707  0.7321
  390TMC3    C2 5878   2.838   0.844  11.304  0.2798 -0.6463  0.5085
  390TMC3    C3 5879   2.728   0.814  11.382  0.0889  0.2037  0.1656
  390TMC3    C4 5880   2.933   0.978  11.477 -0.5627  0.2780 -0.3537
  390TMC3    C5 5881   2.825   0.941  11.555 -0.4897 -0.4140 -0.2566
  390TMC3    C6 5882   2.718   0.862  11.509 -0.2084 -0.6198  0.4588
  390TMC3     C 5883   3.031   0.976  11.257 -0.5550 -0.2378 -0.8138
  390TMC3     O 5884   3.011   0.957  11.137 -0.0318  0.3960  0.2449
  390TMC3     H 5885   2.851   0.794  11.209  0.7465 -0.3517  0.4197
  390TMC3    H1 5886   3.015   1.037  11.516 -1.8645  2.4900 -0.9452
  390TMC3    H2 5887   2.628   0.839  11.564 -1.3096 -0.2881 -1.2288
  390TMC3    C7 5888   2.829   0.980  11.696  0.8798  0.5481  0.3274
  390TMC3    C8 5889   2.642   0.708  11.342  0.0132  0.6526  0.3238
  390TMC3    O1 5890   2.897   1.081  11.724  0.0128 -0.1993  1.3654
  390TMC3    O2 5891   2.692   0.619  11.275 -0.3339  0.4514 -0.1771
  391MPD2     C 5892   2.432   1.979  11.175 -0.1317  0.2969  0.0662
  391MPD2    C1 5893   2.548   2.056  11.162 -0.0553  0.6939 -0.3008
  391MPD2    C2 5894   2.567   2.127  11.051 -0.4622 -0.1839  0.0056
  391MPD2    C3 5895   2.472   2.120  10.950 -0.2883  0.1305 -0.6268
  391MPD2    C4 5896   2.354   2.053  10.966  0.1330  0.0811 -0.3746
  391MPD2    C5 5897   2.336   1.979  11.080 -0.0608  0.1569 -0.1080
  391MPD2     H 5898   2.658   2.184  11.036 -1.6739  1.6017 -0.5187
  391MPD2    H1 5899   2.274   2.062  10.893 -1.3709  0.1573  1.2772
  391MPD2    H2 5900   2.425   1.919  11.264  0.1837 -0.7694 -0.6251
  391MPD2    H3 5901   2.242   1.934  11.109 -0.9670  2.2000  0.1131
  391MPD2     N 5902   2.488   2.213  10.842  0.8823  0.5317  0.4041
  391MPD2    H5 5903   2.568   2.275  10.845  0.0041  1.6479  0.7578
  391MPD2    N1 5904   2.642   2.047  11.267 -0.4087  0.1829 -0.5320
  391MPD2    H7 5905   2.627   1.988  11.348 -1.4293  0.8951 -0.2012
  392TMC3    C1 5906   2.449   2.344  10.645  0.1920 -0.4941  0.2518
  392TMC3    C2 5907   2.391   2.347  10.520  0.2105 -0.4457  0.3880
  392TMC3    C3 5908   2.409   2.471  10.455 -0.2319 -0.0036  0.7363
  392TMC3    C4 5909   2.523   2.449  10.696 -0.0241  0.5125  0.1357
  392TMC3    C5 5910   2.552   2.553  10.616  0.7368 -1.2553 -0.2431
  392TMC3    C6 5911   2.503   2.566  10.492 -0.1113  0.2314  0.3084
  392TMC3     C 5912   2.408   2.235  10.731  0.3399  0.4638  0.0328
  392TMC3     O 5913   2.319   2.158  10.703 -0.2602 -0.3097  0.0798
  392TMC3     H 5914   2.310   2.280  10.494 -1.1033  1.3699 -0.1673
  392TMC3    H1 5915   2.576   2.433  10.790  1.6315  1.2157 -0.6636
  392TMC3    H2 5916   2.513   2.655  10.430  0.9926 -1.2003 -1.5642
  392TMC3    C7 5917   2.631   2.662  10.674 -0.1682 -0.1274  0.2205
  392TMC3    C8 5918   2.364   2.476  10.318 -0.0760 -0.4370 -0.0520
  392TMC3    O1 5919   2.694   2.626  10.771 -0.4705 -0.4759  0.1084
  392TMC3    O2 5920   2.313   2.369  10.287  0.2745  0.2213  0.6472
  393TMC3    C1 5921   1.151   0.575   9.861  0.0187 -1.1803 -0.6010
  393TMC3    C2 5922   1.025   0.600   9.806  0.5720  0.1106  0.2530
  393TMC3    C3 5923   0.914   0.600   9.887 -0.0900 -0.8123 -0.5504
  393TMC3    C4 5924   1.166   0.563   9.997  0.0265 -0.4694 -0.2730
  393TMC3    C5 5925   1.048   0.578  10.074  0.7662  0.1127 -0.3424
  393TMC3    C6 5926   0.922   0.583  10.021  0.2325 -0.0875  0.0510
  393TMC3     C 5927   1.277   0.586   9.792 -0.3968 -0.6336  0.3307
  393TMC3     O 5928   1.378   0.590   9.858 -0.2793 -0.9638 -0.4976
  393TMC3     H 5929   1.022   0.606   9.698 -0.9897 -2.4853  0.1466
  393TMC3    H1 5930   1.263   0.538  10.037 -0.4833  0.7150  1.6976
  393TMC3    H2 5931   0.833   0.604  10.079  0.2915 -0.5964  0.3220
  393TMC3    C7 5932   1.054   0.537  10.218  0.4387 -0.7102  0.8449
  393TMC3    C8 5933   0.790   0.637   9.833  0.2532 -0.0866 -0.1968
  393TMC3    O1 5934   0.949   0.485  10.259  0.6513  0.1779 -0.5087
  393TMC3    O2 5935   0.688   0.620   9.899 -0.0256 -0.0776  0.4549
  394TMC3    C1 5936   3.204   1.333  10.735  0.1761 -0.5233  0.2513
  394TMC3    C2 5937   3.081   1.299  10.683 -0.0982  0.2505 -0.4210
  394TMC3    C3 5938   3.070   1.298  10.551 -0.2853 -0.5289  0.6294
  394TMC3    C4 5939   3.310   1.376  10.658  0.0959  0.0242  0.4950
  394TMC3    C5 5940   3.299   1.366  10.526 -0.5799  0.3611 -0.0062
  394TMC3    C6 5941   3.179   1.326  10.473  0.5267 -0.3864 -0.7315
  394TMC3     C 5942   3.206   1.309  10.881 -0.5067  0.8151 -0.7903
  394TMC3     O 5943   3.096   1.331  10.938  0.7079 -0.1904  0.2239
  394TMC3     H 5944   3.002   1.262  10.748 -0.1014  0.1105 -0.5048
  394TMC3    H1 5945   3.408   1.408  10.694 -0.5287  1.1383  1.2042
  394TMC3    H2 5946   3.177   1.307  10.366 -0.1687  0.9896 -0.9671
  394TMC3    C7 5947   3.383   1.451  10.447 -0.6111 -0.1909 -0.4464
  394TMC3    C8 5948   2.962   1.203  10.512  0.0605 -0.0568  0.4064
  394TMC3    O1 5949   3.449   1.536  10.505  0.0670  0.3600  0.1820
  394TMC3    O2 5950   2.851   1.232  10.554  0.2440 -0.3168  0.2589
  395TMC3    C1 5951   2.657   2.780  15.085 -0.2277  0.1947 -0.3434
  395TMC3    C2 5952   2.564   2.783  14.988 -0.5729  0.8252 -0.7380
  395TMC3    C3 5953   2.546   2.907  14.930  0.4080  0.1156 -0.5684
  395TMC3    C4 5954   2.729   2.890  15.129 -0.3593  0.3802  0.0166
  395TMC3    C5 5955   2.711   3.007  15.065 -0.0895 -0.4925  0.4601
  395TMC3    C6 5956   2.632   3.018  14.954  0.8553  0.5735 -0.8106
  395TMC3     C 5957   2.606   2.710  15.197 -0.4966 -0.3656 -0.1930
  395TMC3     O 5958   2.606   2.586  15.208 -0.0627  0.1673 -0.1565
  395TMC3     H 5959   2.504   2.693  14.979 -1.1049  1.0993  0.1250
  395TMC3    H1 5960   2.798   2.883  15.213 -0.3301  0.8311  0.0312
  395TMC3    H2 5961   2.616   3.114  14.905  0.1823  1.4618  1.1575
  395TMC3    C7 5962   2.774   3.125  15.125 -0.4473  0.0917 -0.8627
  395TMC3    C8 5963   2.430   2.926  14.844 -0.1912  0.3637 -0.8163
  395TMC3    O1 5964   2.718   3.234  15.123 -0.1456  0.1562 -0.3728
  395TMC3    O2 5965   2.406   3.041  14.812  0.1411 -0.4859 -0.0760
  396MPD2     C 5966   1.763   3.978  17.130 -0.5515  0.2385 -0.6307
  396MPD2    C1 5967   1.894   3.946  17.147  0.1711 -0.0146  0.7780
  396MPD2    C2 5968   2.000   4.030  17.114  0.5345 -0.5107 -0.1714
  396MPD2    C3 5969   1.963   4.157  17.064 -0.4016  0.1821 -0.1277
  396MPD2    C4 5970   1.828   4.189  17.047  0.3598 -1.3954  0.6010
  396MPD2    C5 5971   1.730   4.105  17.084 -0.1073  0.1766  0.5118
  396MPD2     H 5972   2.098   3.986  17.130  0.1952 -1.4337 -0.6609
  396MPD2    H1 5973   1.796   4.287  17.014 -1.8267 -2.0786  0.6456
  396MPD2    H2 5974   1.690   3.901  17.150 -1.6758  1.1880 -1.0321
  396MPD2    H3 5975   1.628   4.141  17.074  1.1789  3.1536 -2.2243
  396MPD2     N 5976   2.070   4.241  17.011  0.0025 -0.1191  0.5075
  396MPD2    H5 5977   2.163   4.204  17.029  0.3765  0.5527 -0.0571
  396MPD2    N1 5978   1.922   3.816  17.192 -0.0784  0.0201  0.0675
  396MPD2    H7 5979   1.851   3.745  17.173 -0.9531  2.0300 -4.1443
  397TMC3    C1 5980   2.072   3.635  17.178 -0.2396 -0.3202  0.5818
  397TMC3    C2 5981   2.084   3.643  17.041 -0.3310  0.2863 -0.0801
  397TMC3    C3 5982   2.206   3.609  16.984 -0.7091 -0.4638  0.0661
  397TMC3    C4 5983   2.168   3.577  17.252 -0.0163 -0.0399  0.5986
  397TMC3    C5 5984   2.280   3.531  17.194 -0.2286  0.7264 -0.7806
  397TMC3    C6 5985   2.297   3.536  17.059  0.1099  0.2211 -0.5735
  397TMC3     C 5986   2.048   3.773  17.233 -0.0824  0.0882  0.0326
  397TMC3     O 5987   2.129   3.831  17.304 -0.6593 -0.3432  0.0509
  397TMC3     H 5988   2.029   3.720  16.988 -3.5115 -2.2682 -0.4737
  397TMC3    H1 5989   2.159   3.564  17.359 -1.0229  0.3326  0.5613
  397TMC3    H2 5990   2.395   3.502  17.027  0.1292  0.9190 -1.2791
  397TMC3    C7 5991   2.382   3.450  17.260 -0.0193 -0.1600  0.1524
  397TMC3    C8 5992   2.254   3.724  16.908  0.4502 -0.0172  0.0584
  397TMC3    O1 5993   2.440   3.370  17.185  0.0911  0.4569  0.2791
  397TMC3    O2 5994   2.188   3.760  16.807 -0.2326  0.2102 -0.3804
  398MPD2     C 5995   0.584   0.913   0.500 -0.5778  0.4633 -0.1731
  398MPD2    C1 5996   0.714   0.863   0.501 -0.3177 -0.1092 -0.1260
  398MPD2    C2 5997   0.825   0.945   0.480  0.3603  0.3864  0.3014
  398MPD2    C3 5998   0.817   1.080   0.460  0.2965 -0.5782 -0.1364
  398MPD2    C4 5999   0.694   1.137   0.482 -0.2510  0.1865 -0.1537
  398MPD2    C5 6000   0.582   1.055   0.491 -0.5148  0.2764  0.0010
  398MPD2     H 6001   0.918   0.898   0.451 -0.5365 -1.9475  1.2487
  398MPD2    H1 6002   0.681   1.244   0.491 -1.3062  0.1583 -1.3979
  398MPD2    H2 6003   0.489   0.866   0.521 -0.3712  0.3270  0.4677
  398MPD2    H3 6004   0.486   1.103   0.504 -0.5544 -0.0185  0.7887
  398MPD2     N 6005   0.943   1.151   0.453 -0.0321 -0.2216  0.3841
  398MPD2    H5 6006   1.026   1.093   0.448 -1.5225 -2.3702  0.8050
  398MPD2    N1 6007   0.744   0.730   0.526 -0.1428  0.0735  0.5910
  398MPD2    H7 6008   0.842   0.708   0.536  0.5222  3.0312  0.3225
  399TMC3    C1 6009   0.721   0.506   0.528 -0.1655 -0.4151  0.9760
  399TMC3    C2 6010   0.855   0.507   0.504  0.0580 -0.0457  0.5268
  399TMC3    C3 6011   0.922   0.394   0.532 -0.4928 -0.5068 -0.4577
  399TMC3    C4 6012   0.656   0.397   0.580  0.1929 -0.2939  0.1266
  399TMC3    C5 6013   0.725   0.286   0.600 -0.3677  0.4072 -0.7312
  399TMC3    C6 6014   0.858   0.278   0.581 -0.2191  0.1966 -0.6889
  399TMC3     C 6015   0.645   0.630   0.529 -0.0551  0.6654  0.1231
  399TMC3     O 6016   0.525   0.633   0.553 -0.3442  0.1869  0.1380
  399TMC3     H 6017   0.909   0.590   0.459  0.3180  0.2527  1.3789
  399TMC3    H1 6018   0.549   0.405   0.597  0.1801  0.3972 -0.2949
  399TMC3    H2 6019   0.915   0.186   0.595  3.1646  2.1434 -1.6589
  399TMC3    C7 6020   0.652   0.192   0.687 -0.1695  0.0007  0.5196
  399TMC3    C8 6021   1.044   0.382   0.468 -0.2814  0.5683 -0.4393
  399TMC3    O1 6022   0.558   0.237   0.752 -0.2508  1.0383 -0.0653
  399TMC3    O2 6023   1.060   0.291   0.389  0.1089 -0.1205  0.0120
  400TMC3    C1 6024   3.622   3.640  17.023 -0.3001 -0.1030  1.0185
  400TMC3    C2 6025   3.521   3.554  17.028 -0.4713  0.5357  0.4427
  400TMC3    C3 6026   3.395   3.596  17.012  0.1180  0.2043  0.3525
  400TMC3    C4 6027   3.600   3.773  16.983 -0.3265 -0.1100 -0.1013
  400TMC3    C5 6028   3.473   3.808  16.952  0.2211  0.4948  0.5528
  400TMC3    C6 6029   3.365   3.725  16.971  0.5323 -0.5931  0.2441
  400TMC3     C 6030   3.755   3.592  17.046  0.0367  0.7812 -0.6078
  400TMC3     O 6031   3.767   3.477  17.083  0.2431  0.7242 -0.0741
  400TMC3     H 6032   3.532   3.447  17.044  1.3927  0.8016  0.8782
  400TMC3    H1 6033   3.680   3.844  16.967 -0.7770  0.1292 -1.2542
  400TMC3    H2 6034   3.267   3.761  16.940  0.0994  0.0513  2.3592
  400TMC3    C7 6035   3.451   3.950  16.918  0.3927 -0.1486  0.4378
  400TMC3    C8 6036   3.304   3.490  17.011  0.6131  0.7813 -0.5610
  400TMC3    O1 6037   3.342   3.978  16.867  0.3140  0.8347  0.4595
  400TMC3    O2 6038   3.303   3.413  17.103  0.0810 -0.0213 -0.2531
  401MPD2     C 6039   2.172   2.651   0.097 -0.0759  0.4131 -0.3893
  401MPD2    C1 6040   2.261   2.552   0.140 -0.6100 -0.0225 -0.3540
  401MPD2    C2 6041   2.261   2.424   0.089  0.1530  0.3762 -0.6924
  401MPD2    C3 6042   2.176   2.395  17.721  0.5354 -0.3469 -0.1582
  401MPD2    C4 6043   2.096   2.495  17.668 -0.3892 -0.1761  0.3822
  401MPD2    C5 6044   2.089   2.623  17.728  0.0310  0.8077  0.3428
  401MPD2     H 6045   2.334   2.354   0.128  0.6903  1.1542 -0.2887
  401MPD2    H1 6046   2.040   2.478  17.577  0.3606  1.5274 -0.4077
  401MPD2    H2 6047   2.155   2.749   0.140 -0.1122 -0.4113  1.4500
  401MPD2    H3 6048   2.019   2.698  17.694 -1.4566  0.7365  3.1833
  401MPD2     N 6049   2.184   2.260  17.661  0.4400 -0.1273 -0.1025
  401MPD2    H5 6050   2.235   2.191  17.716  0.9127 -1.0864 -1.7451
  401MPD2    N1 6051   2.334   2.566   0.263  0.0745 -0.0139  0.2189
  401MPD2    H7 6052   2.371   2.479   0.300 -1.9014 -0.7067  0.5584
  402TMC3    C1 6053   2.225   2.113  17.496  0.1058 -0.4773  0.2978
  402TMC3    C2 6054   2.204   2.007  17.582 -0.6473 -1.0089  0.9390
  402TMC3    C3 6055   2.301   1.918  17.601  0.2879  0.2954 -0.5724
  402TMC3    C4 6056   2.351   2.151  17.453 -0.3488  0.0750  0.0037
  402TMC3    C5 6057   2.452   2.082  17.506 -0.2226  0.2823  0.2999
  402TMC3    C6 6058   2.430   1.956  17.566 -0.6134 -0.3808 -0.9679
  402TMC3     C 6059   2.153   2.228  17.535  0.2972  0.4856 -0.1889
  402TMC3     O 6060   2.119   2.305  17.445 -0.0869  0.5447  0.4605
  402TMC3     H 6061   2.105   2.003  17.626 -1.0531  1.7806  0.2329
  402TMC3    H1 6062   2.357   2.247  17.403 -0.9794  0.6089  0.9540
  402TMC3    H2 6063   2.515   1.909  17.614 -2.3692 -1.1728  1.3617
  402TMC3    C7 6064   2.553   2.158  17.574 -0.1324 -0.2996 -0.2299
  402TMC3    C8 6065   2.294   1.817  17.705  0.3050  0.5284  0.4075
  402TMC3    O1 6066   2.641   2.095  17.634  0.4585 -0.0382  0.2645
  402TMC3    O2 6067   2.395   1.773   0.010 -0.2717 -0.1061 -0.2770
  403MPD2     C 6068   0.518   0.454  13.367 -0.2600  0.4899  0.2215
  403MPD2    C1 6069   0.503   0.467  13.504  0.2213 -0.3431  0.1019
  403MPD2    C2 6070   0.601   0.540  13.579  0.6882 -0.8938  0.6077
  403MPD2    C3 6071   0.717   0.584  13.514  0.2310 -0.3550 -0.0541
  403MPD2    C4 6072   0.722   0.577  13.379 -0.3064 -0.2024  0.3693
  403MPD2    C5 6073   0.624   0.514  13.305 -0.0509 -0.8121 -0.1795
  403MPD2     H 6074   0.586   0.552  13.685  0.5347 -0.3305  0.5244
  403MPD2    H1 6075   0.807   0.612  13.323  0.3821 -1.8794  0.3508
  403MPD2    H2 6076   0.448   0.398  13.307 -0.4907  2.1392 -1.0466
  403MPD2    H3 6077   0.639   0.494  13.200 -0.0259  0.5501 -0.4374
  403MPD2     N 6078   0.824   0.639  13.586  0.4268  0.4540  0.3192
  403MPD2    H5 6079   0.819   0.618  13.685  1.3322 -1.3792 -0.0287
  403MPD2    N1 6080   0.378   0.416  13.556  0.1419  0.3300 -0.2486
  403MPD2    H7 6081   0.305   0.394  13.488 -0.6867  1.1431  0.3831
  404TMC3    C1 6082   0.233   0.303  13.703 -0.3235 -0.1876 -0.3320
  404TMC3    C2 6083   0.276   0.207  13.792 -0.6580  0.1387 -1.1124
  404TMC3    C3 6084   0.296   0.081  13.740 -0.3826  0.2683  0.9523
  404TMC3    C4 6085   0.179   0.274  13.584 -0.4893  1.4125 -0.4435
  404TMC3    C5 6086   0.204   0.145  13.536  0.0734  0.6356 -0.3642
  404TMC3    C6 6087   0.265   0.052  13.611  0.2952 -0.0293 -0.2408
  404TMC3     C 6088   0.339   0.402  13.687  0.2317 -0.0231 -1.1653
  404TMC3     O 6089   0.405   0.435  13.784 -0.3947  0.2094  0.1075
  404TMC3     H 6090   0.335   0.240  13.876  0.2642 -0.9732 -1.3262
  404TMC3    H1 6091   0.137   0.349  13.517 -0.2937  1.2261 -0.7770
  404TMC3    H2 6092   0.308   4.699  13.565 -1.2304 -0.3270 -1.0931
  404TMC3    C7 6093   0.166   0.114  13.397 -0.1562  0.1451  0.1202
  404TMC3    C8 6094   0.340   4.704  13.823  0.4592 -0.5555 -0.0021
  404TMC3    O1 6095   0.175   0.213  13.323  0.3616 -0.3112  0.5681
  404TMC3    O2 6096   0.378   4.609  13.758 -0.3887 -0.4413  0.6455
  405MPD2     C 6097   1.139   1.311  14.612  0.7002  0.7449  0.6695
  405MPD2    C1 6098   1.100   1.234  14.500 -0.0557 -0.7492  0.0763
  405MPD2    C2 6099   1.070   1.304  14.387 -0.3746 -0.0828 -0.0992
  405MPD2    C3 6100   1.092   1.436  14.375 -0.2559 -0.0738  0.2549
  405MPD2    C4 6101   1.164   1.506  14.476 -0.2157 -0.5839  0.7071
  405MPD2    C5 6102   1.182   1.441  14.591 -0.3533  0.1212  1.3524
  405MPD2     H 6103   1.022   1.255  14.303  0.0953 -1.1539  0.2658
  405MPD2    H1 6104   1.203   1.604  14.450  0.2464 -1.1185 -0.6444
  405MPD2    H2 6105   1.171   1.263  14.704  4.3315  1.3229 -0.2589
  405MPD2    H3 6106   1.219   1.507  14.668  0.6199 -0.7719  1.6482
  405MPD2     N 6107   1.058   1.489  14.249 -0.2711 -0.3390  1.3043
  405MPD2    H5 6108   1.014   1.421  14.188  2.9490 -1.7389  0.4884
  405MPD2    N1 6109   1.074   1.095  14.515  0.0581  0.5054 -0.1012
  405MPD2    H7 6110   1.072   1.057  14.609  1.9905  0.2167 -0.1866
  406TMC3    C1 6111   0.794   1.715  14.022 -0.0450 -0.6248  0.4938
  406TMC3    C2 6112   0.775   1.594  13.957 -0.2150  0.1901  1.3251
  406TMC3    C3 6113   0.886   1.519  13.931 -0.5136 -0.2078 -0.4560
  406TMC3    C4 6114   0.916   1.743  14.095 -0.1679 -0.1679  0.4761
  406TMC3    C5 6115   1.011   1.646  14.081 -1.3114  0.0928  0.5067
  406TMC3    C6 6116   1.000   1.538  13.998 -0.4699  0.2927  0.2421
  406TMC3     C 6117   0.676   1.768  14.087  0.2745  0.9065  0.4163
  406TMC3     O 6118   0.699   1.853  14.171  0.7653  0.0466  0.2049
  406TMC3     H 6119   0.684   1.570  13.902 -0.1177  1.3726  0.6544
  406TMC3    H1 6120   0.934   1.816  14.173  1.0021  0.8457 -0.7258
  406TMC3    H2 6121   1.087   1.476  13.979 -0.0265  0.4108  1.9373
  406TMC3    C7 6122   1.075   1.617  14.211  0.2793 -0.0302  0.4158
  406TMC3    C8 6123   0.865   1.402  13.854 -0.4723 -0.3069  0.7058
  406TMC3    O1 6124   1.105   1.711  14.281  0.3619 -0.0071 -0.2283
  406TMC3    O2 6125   0.764   1.394  13.785 -0.1732 -0.1691  0.6050
  407MPD2     C 6126   3.993   2.730   9.744 -0.2881  0.2530 -0.0669
  407MPD2    C1 6127   4.047   2.782   9.868  0.5753 -0.7123 -0.4156
  407MPD2    C2 6128   3.967   2.856   9.952 -0.2318 -0.5049 -0.1563
  407MPD2    C3 6129   3.831   2.884   9.928 -0.5656 -0.6357  0.0914
  407MPD2    C4 6130   3.775   2.828   9.814 -0.2579  0.0533 -0.2753
  407MPD2    C5 6131   3.853   2.747   9.723  0.1617  0.0751  0.2518
  407MPD2     H 6132   4.021   2.907  10.032  1.7392 -0.5205 -1.4756
  407MPD2    H1 6133   3.673   2.850   9.785 -0.1252  0.3867 -0.4967
  407MPD2    H2 6134   4.050   2.671   9.673  1.0587  1.7545 -0.2200
  407MPD2    H3 6135   3.797   2.711   9.637 -0.4216  1.4106  0.0664
  407MPD2     N 6136   3.759   2.973  10.004 -0.7282 -0.3682  0.5623
  407MPD2    H5 6137   3.669   3.004   9.966 -0.6862  2.5995  2.8687
  407MPD2    N1 6138   4.187   2.793   9.885  0.7042 -0.2473  0.4243
  407MPD2    H7 6139   4.216   2.852   9.963  0.7054 -0.4752  0.5968
  408TMC3    C1 6140   4.420   2.738   9.872 -0.0003  0.6703  0.2779
  408TMC3    C2 6141   4.494   2.639   9.921  0.2591 -1.1788 -0.1116
  408TMC3    C3 6142   4.617   2.676   9.970 -0.4398  0.0651  0.1165
  408TMC3    C4 6143   4.461   2.873   9.876  0.0743 -0.3259 -0.3625
  408TMC3    C5 6144   4.584   2.902   9.924  0.0811  0.3375 -0.2938
  408TMC3    C6 6145   4.658   2.806   9.978 -0.4922 -0.8808  0.4076
  408TMC3     C 6146   4.282   2.705   9.830 -1.1324 -0.1595 -0.2423
  408TMC3     O 6147   4.253   2.599   9.779  0.2343 -0.1711  0.2998
  408TMC3     H 6148   4.460   2.536   9.919 -0.2986 -1.0014  0.0613
  408TMC3    H1 6149   4.388   2.948   9.848 -0.1611 -0.7542 -0.8763
  408TMC3    H2 6150   0.023   2.831  10.007 -1.4733 -0.6725  3.5893
  408TMC3    C7 6151   4.622   3.034   9.973  0.6931  0.0147 -0.5678
  408TMC3    C8 6152   4.683   2.571  10.044  0.5281 -0.2602  0.2890
  408TMC3    O1 6153   0.001   3.053  10.014  0.4568  0.2068  0.0852
  408TMC3    O2 6154   4.627   2.464  10.049 -0.2407 -0.1694  0.0849
  409MPD2     C 6155   3.016   3.058  17.266  0.1704  0.2525 -0.1424
  409MPD2    C1 6156   3.121   3.144  17.296  0.1597  0.1695  0.4780
  409MPD2    C2 6157   3.112   3.280  17.282  0.5576  0.0070  0.0890
  409MPD2    C3 6158   2.995   3.332  17.235 -0.5858 -0.2050 -0.2527
  409MPD2    C4 6159   2.889   3.255  17.199  0.7701  0.1860  0.8865
  409MPD2    C5 6160   2.903   3.117  17.213  0.6329  0.2029 -0.3399
  409MPD2     H 6161   3.195   3.346  17.302 -1.4872  2.2800  1.1243
  409MPD2    H1 6162   2.807   3.306  17.150  0.1177 -0.3685  1.4195
  409MPD2    H2 6163   3.016   2.949  17.267  3.2369  0.2563  0.7010
  409MPD2    H3 6164   2.821   3.057  17.177 -0.1554 -0.5228  2.7107
  409MPD2     N 6165   2.964   3.475  17.229 -0.2138  0.1644 -0.1891
  409MPD2    H5 6166   2.866   3.496  17.210  0.1546  1.7288 -0.3900
  409MPD2    N1 6167   3.245   3.107  17.351 -0.5583  0.5021 -0.8573
  409MPD2    H7 6168   3.307   3.178  17.390 -0.0690  1.0423 -2.6085
  410TMC3    C1 6169   3.000   3.707  17.260 -0.6257 -0.5092 -0.3577
  410TMC3    C2 6170   3.078   3.792  17.326  0.1232 -0.7208  0.0348
  410TMC3    C3 6171   3.138   3.899  17.266  0.9468  0.4700  0.2605
  410TMC3    C4 6172   2.956   3.737  17.130 -0.2939  0.3772  0.0632
  410TMC3    C5 6173   3.028   3.835  17.066  0.0365  0.8236 -0.6743
  410TMC3    C6 6174   3.121   3.913  17.132  0.4139  0.3433 -0.3439
  410TMC3     C 6175   3.046   3.574  17.282 -0.2418 -0.4894  0.0817
  410TMC3     O 6176   3.156   3.553  17.337  0.4979  0.2730  0.2822
  410TMC3     H 6177   3.093   3.779  17.432 -1.5989 -2.0287  0.1030
  410TMC3    H1 6178   2.895   3.664  17.079 -0.8571 -0.4009  1.8235
  410TMC3    H2 6179   3.167   4.002  17.090 -0.0643  0.2903 -0.9748
  410TMC3    C7 6180   2.997   3.857  16.924 -0.0668  0.7717  0.1120
  410TMC3    C8 6181   3.281   3.900  17.291  1.2124 -0.5048  0.2093
  410TMC3    O1 6182   2.912   3.779  16.890  0.2758  0.2195  0.6992
  410TMC3    O2 6183   3.354   3.991  17.250  0.2151  0.1880  0.2645
  411MPD2     C 6184   3.391   4.100  15.052  0.1226  0.0963 -0.0334
  411MPD2    C1 6185   3.281   4.142  15.121  0.0368  0.3166 -0.0202
  411MPD2    C2 6186   3.179   4.056  15.149 -0.3307  0.0877  0.0647
  411MPD2    C3 6187   3.192   3.923  15.107  0.1934 -0.0436  0.2967
  411MPD2    C4 6188   3.308   3.881  15.050 -0.1006  0.8891 -0.6196
  411MPD2    C5 6189   3.409   3.964  15.022 -0.0271 -0.1685  0.5435
  411MPD2     H 6190   3.090   4.086  15.203  0.6739  1.3274  1.0232
  411MPD2    H1 6191   3.308   3.783  15.004  2.2726  0.2557  0.7561
  411MPD2    H2 6192   3.458   4.170  15.004  1.4795 -0.2586  1.3535
  411MPD2    H3 6193   3.496   3.931  14.967  0.3417  1.7275 -0.0057
  411MPD2     N 6194   3.099   3.822  15.134 -0.0783  0.4236 -0.2616
  411MPD2    H5 6195   3.126   3.726  15.111 -2.8147 -0.9226  2.1002
  411MPD2    N1 6196   3.276   4.284  15.142 -0.1887  0.2400 -0.2903
  411MPD2    H7 6197   3.337   4.351  15.097  0.2175  0.5097  0.6622
  412TMC3    C1 6198   2.886   3.716  15.122  0.1645  0.2500 -0.3056
  412TMC3    C2 6199   2.757   3.739  15.089  1.0967 -0.2545 -0.0669
  412TMC3    C3 6200   2.694   3.637  15.021  0.2757  0.3762  0.7926
  412TMC3    C4 6201   2.948   3.597  15.095 -0.0631  0.4846 -0.4536
  412TMC3    C5 6202   2.876   3.492  15.042 -0.3602  0.2313 -1.3374
  412TMC3    C6 6203   2.750   3.515  15.000 -0.1535 -0.2875 -0.2603
  412TMC3     C 6204   2.964   3.834  15.162  0.0676 -0.9292 -0.1783
  412TMC3     O 6205   2.907   3.939  15.189  0.3468 -0.1269 -0.4629
  412TMC3     H 6206   2.717   3.832  15.129 -1.0085 -0.8133 -0.9192
  412TMC3    H1 6207   3.052   3.581  15.122 -1.2719 -3.0606  1.9668
  412TMC3    H2 6208   2.694   3.436  14.951  4.1124 -1.1521 -3.6804
  412TMC3    C7 6209   2.960   3.429  14.943 -0.3399  0.6625 -0.3269
  412TMC3    C8 6210   2.642   3.682  14.894  0.6894  0.4261 -0.2460
  412TMC3    O1 6211   3.069   3.381  14.977  0.7532 -0.1394  0.3196
  412TMC3    O2 6212   2.707   3.640  14.800  0.0199 -0.3600  0.6813
  413MPD2     C 6213   0.385   2.870  15.363 -0.2513  0.4821  0.5421
  413MPD2    C1 6214   0.304   2.768  15.319  0.2299 -0.0136  0.4470
  413MPD2    C2 6215   0.358   2.644  15.307 -0.5636  0.0235 -0.0285
  413MPD2    C3 6216   0.495   2.625  15.323 -0.2232 -0.2513  0.5115
  413MPD2    C4 6217   0.579   2.731  15.346  0.3919 -0.1092  0.0124
  413MPD2    C5 6218   0.522   2.856  15.376 -0.2305 -0.3238 -0.0857
  413MPD2     H 6219   0.300   2.553  15.312 -2.6019  1.4702  2.8362
  413MPD2    H1 6220   0.687   2.727  15.343  0.3736 -2.2202  1.7563
  413MPD2    H2 6221   0.347   2.970  15.381  0.6816  0.8651  0.4162
  413MPD2    H3 6222   0.581   2.943  15.399 -0.3944 -0.2722  0.1389
  413MPD2     N 6223   0.529   2.482  15.327  0.0059  0.1303 -0.1064
  413MPD2    H5 6224   0.450   2.417  15.331  2.1377 -2.4909 -0.7825
  413MPD2    N1 6225   0.162   2.791  15.306 -0.2652 -0.0041 -0.3114
  413MPD2    H7 6226   0.126   2.878  15.345  0.3883 -1.2211  3.0410
  414TMC3    C1 6227   0.644   2.276  15.322  0.1440 -0.2311  0.3712
  414TMC3    C2 6228   0.743   2.198  15.383  0.1530 -0.3466 -0.4446
  414TMC3    C3 6229   0.720   2.065  15.392  0.1545  0.1262  0.0398
  414TMC3    C4 6230   0.528   2.218  15.264 -0.2073  0.4897 -0.1843
  414TMC3    C5 6231   0.511   2.083  15.281  0.4330  0.0530 -0.3757
  414TMC3    C6 6232   0.599   2.009  15.358  0.3378 -0.0152  0.1593
  414TMC3     C 6233   0.651   2.422  15.339 -0.7694 -0.1514 -0.4617
  414TMC3     O 6234   0.755   2.481  15.352  0.1044  0.0845 -0.0400
  414TMC3     H 6235   0.827   2.249  15.430  0.0654 -1.6335  1.0920
  414TMC3    H1 6236   0.459   2.277  15.205 -1.5767 -0.2530  0.6616
  414TMC3    H2 6237   0.596   1.901  15.351  2.6018 -0.0919  0.3743
  414TMC3    C7 6238   0.403   2.029  15.193 -0.4140 -0.2009 -0.1871
  414TMC3    C8 6239   0.839   1.980  15.374 -0.2335 -0.3894  0.1061
  414TMC3    O1 6240   0.295   2.046  15.245 -0.0504  0.1667  0.2243
  414TMC3    O2 6241   0.824   1.857  15.385 -1.3597 -0.5721 -0.2844
  415TMC3    C1 6242   0.964   4.375  10.376 -0.2245 -0.5361  0.5022
  415TMC3    C2 6243   0.946   4.478  10.292  0.1800  0.1298 -0.2502
  415TMC3    C3 6244   0.990   4.466  10.166  0.1818 -0.2798  0.0114
  415TMC3    C4 6245   1.015   4.259  10.332 -0.1175  0.1336  0.0630
  415TMC3    C5 6246   1.058   4.245  10.201  0.5560 -0.3711  0.5797
  415TMC3    C6 6247   1.065   4.354  10.120  0.3614 -1.1552 -0.5862
  415TMC3     C 6248   0.916   4.381  10.511 -0.5314 -0.0401 -0.2762
  415TMC3     O 6249   0.931   4.274  10.572 -0.0273 -0.1772 -0.1466
  415TMC3     H 6250   0.897   4.571  10.317 -0.0828 -0.2719  0.7428
  415TMC3    H1 6251   1.046   4.184  10.405  0.5942 -1.4100 -1.8235
  415TMC3    H2 6252   1.109   4.335  10.023  0.0347  2.1881 -1.4064
  415TMC3    C7 6253   1.107   4.122  10.159  0.2620 -0.2507  0.2296
  415TMC3    C8 6254   1.004   4.590  10.085 -0.2102 -0.0813 -0.4706
  415TMC3    O1 6255   1.191   4.113  10.067 -0.1613 -0.4605  0.6924
  415TMC3    O2 6256   0.912   4.668  10.095 -0.5693 -0.1540 -0.4021
  416MPD2     C 6257   2.640   3.510  11.844 -0.1783  0.6298 -0.4930
  416MPD2    C1 6258   2.508   3.477  11.816 -0.4815 -0.4182  1.0001
  416MPD2    C2 6259   2.479   3.370  11.739 -0.0768  0.1012 -0.6507
  416MPD2    C3 6260   2.579   3.279  11.704  0.1079  0.2594  0.2410
  416MPD2    C4 6261   2.709   3.309  11.738  0.3806  0.1703 -0.7895
  416MPD2    C5 6262   2.739   3.425  11.805 -0.1812 -0.5087 -0.3409
  416MPD2     H 6263   2.377   3.342  11.713  0.2665 -1.4834 -0.2739
  416MPD2    H1 6264   2.789   3.241  11.712 -0.3632 -0.2233 -2.0632
  416MPD2    H2 6265   2.668   3.583  11.918 -1.5719  0.8214 -0.1582
  416MPD2    H3 6266   2.842   3.444  11.832 -0.1205 -0.0987 -0.8612
  416MPD2     N 6267   2.537   3.165  11.637  0.2776  0.2358 -0.0278
  416MPD2    H5 6268   2.440   3.159  11.608 -0.6033 -0.5604  3.0162
  416MPD2    N1 6269   2.403   3.568  11.863 -0.0423  0.3741 -0.1636
  416MPD2    H7 6270   2.430   3.644  11.923 -1.1275  0.6419 -0.0042
  417TMC3    C1 6271   2.176   3.659  11.864  0.3424 -0.3392  0.0089
  417TMC3    C2 6272   2.196   3.724  11.983  0.3379 -0.6172 -0.1424
  417TMC3    C3 6273   2.137   3.844  11.995  0.3972 -0.1840  0.2094
  417TMC3    C4 6274   2.078   3.702  11.780 -0.3008 -0.1953  0.3460
  417TMC3    C5 6275   2.011   3.823  11.799  1.1959 -0.0705  0.0411
  417TMC3    C6 6276   2.040   3.893  11.917 -0.2003 -0.0692 -0.2419
  417TMC3     C 6277   2.275   3.567  11.814  0.1866 -0.3087 -0.5292
  417TMC3     O 6278   2.232   3.503  11.720 -0.1336  0.7810  0.1505
  417TMC3     H 6279   2.267   3.683  12.055  2.4365 -0.8169 -2.3446
  417TMC3    H1 6280   2.052   3.642  11.693  1.7696  0.7538 -0.9081
  417TMC3    H2 6281   2.005   3.993  11.939  0.8542  0.1779  0.2763
  417TMC3    C7 6282   1.954   3.886  11.679  0.1699  0.1824  0.4201
  417TMC3    C8 6283   2.148   3.901  12.127 -0.3569 -0.2053 -0.7143
  417TMC3    O1 6284   1.977   3.835  11.572  0.0504 -0.0803 -0.2338
  417TMC3    O2 6285   2.040   3.943  12.176 -0.3140  0.9588 -0.0224
  418TMC3    C1 6286   1.276   1.451   0.494 -0.2717  0.2310  0.0787
  418TMC3    C2 6287   1.143   1.431   0.474  0.4006 -0.2361  0.1267
  418TMC3    C3 6288   1.100   1.313   0.507  0.3319 -0.1242 -0.1633
  418TMC3    C4 6289   1.362   1.368   0.566 -0.1457 -0.1749 -0.3063
  418TMC3    C5 6290   1.302   1.252   0.614 -0.0640 -0.7141  0.2194
  418TMC3    C6 6291   1.173   1.222   0.578 -0.5436  0.2203 -0.1473
  418TMC3     C 6292   1.333   1.519   0.373  0.2379 -0.6629  0.1010
  418TMC3     O 6293   1.267   1.615   0.331 -0.0364  0.4950  0.0629
  418TMC3     H 6294   1.092   1.490   0.398 -0.3344  0.1536  0.9337
  418TMC3    H1 6295   1.467   1.385   0.590 -0.4677  1.8380 -0.3020
  418TMC3    H2 6296   1.131   1.133   0.625 -0.4172 -0.0498 -0.5460
  418TMC3    C7 6297   1.378   1.139   0.652  0.3906 -0.0122 -0.3620
  418TMC3    C8 6298   0.963   1.286   0.458  0.5057  0.1466 -0.1763
  418TMC3    O1 6299   1.316   1.033   0.651  0.1781 -0.3038  0.0317
  418TMC3    O2 6300   0.878   1.379   0.449  0.2619  0.4317 -0.8141
  419MPD2     C 6301   3.945   3.263  12.756  0.5368  0.1274  0.0456
  419MPD2    C1 6302   3.869   3.377  12.736 -0.1653  0.3594 -0.5652
  419MPD2    C2 6303   3.842   3.465  12.839  0.1433 -0.9304 -0.3899
  419MPD2    C3 6304   3.896   3.443  12.965 -0.4978 -0.4278  0.2940
  419MPD2    C4 6305   3.956   3.322  12.998  0.1714 -0.3593  0.3531
  419MPD2    C5 6306   3.978   3.241  12.890 -0.5853  0.4771 -0.1787
  419MPD2     H 6307   3.786   3.556  12.829 -2.3435 -2.2728  1.2259
  419MPD2    H1 6308   3.988   3.294  13.097  0.3000  0.2307  0.4794
  419MPD2    H2 6309   3.964   3.191  12.677 -1.2989 -0.2378 -0.0519
  419MPD2    H3 6310   4.008   3.141  12.919  1.6738  0.6790 -1.8083
  419MPD2     N 6311   3.900   3.559  13.050  0.2985 -0.0189  0.1925
  419MPD2    H5 6312   3.849   3.642  13.021  0.2613 -0.4895 -1.0840
  419MPD2    N1 6313   3.833   3.419  12.606  0.6677  0.2908 -0.1986
  419MPD2    H7 6314   3.766   3.494  12.590  2.6548  1.7823 -1.6443
  420TMC3    C1 6315   3.982   3.706  13.219 -0.4261 -0.5268  0.1933
  420TMC3    C2 6316   3.936   3.822  13.154 -0.3940  0.1723  0.9843
  420TMC3    C3 6317   3.976   3.944  13.197 -0.5246 -0.1644 -0.4635
  420TMC3    C4 6318   4.070   3.724  13.322  0.1100  0.7680  0.1468
  420TMC3    C5 6319   4.110   3.847  13.365 -0.6552 -0.2508 -0.1271
  420TMC3    C6 6320   4.055   3.962  13.313 -0.7753  0.3589  0.4598
  420TMC3     C 6321   3.988   3.573  13.158  0.3187 -0.2438 -0.4040
  420TMC3     O 6322   4.056   3.488  13.215 -0.3524 -0.1264 -0.0488
  420TMC3     H 6323   3.896   3.819  13.053 -0.4636  1.3299  0.9764
  420TMC3    H1 6324   4.096   3.635  13.378 -2.2586  0.8893  1.4423
  420TMC3    H2 6325   4.094   4.060  13.338  0.5549 -0.0989  0.2025
  420TMC3    C7 6326   4.172   3.849  13.493  0.1285 -0.1991  0.4476
  420TMC3    C8 6327   3.918   4.054  13.138  0.3045 -0.3183 -0.5429
  420TMC3    O1 6328   4.150   3.754  13.562  0.2758 -0.6814 -0.2943
  420TMC3    O2 6329   3.993   4.141  13.110  0.4948  0.3413 -0.0148
  421TMC3    C1 6330   1.031   0.741  13.644  0.0193  0.2407  0.8349
  421TMC3    C2 6331   1.060   0.874  13.639  0.4290  0.8493  0.2624
  421TMC3    C3 6332   1.194   0.909  13.650  0.3570  0.1886 -0.0937
  421TMC3    C4 6333   1.125   0.642  13.666 -0.4082  0.1285 -0.0204
  421TMC3    C5 6334   1.254   0.674  13.677  0.2866 -0.2252 -0.1175
  421TMC3    C6 6335   1.293   0.808  13.665 -0.2647  0.2291 -0.0795
  421TMC3     C 6336   0.937   0.701  13.540  0.2506  0.1201 -0.5873
  421TMC3     O 6337   0.973   0.728  13.426  0.4730 -0.1062  0.7875
  421TMC3     H 6338   0.989   0.952  13.616 -1.5712 -0.7183  1.0988
  421TMC3    H1 6339   1.104   0.541  13.632  0.1794  0.7310 -2.2030
  421TMC3    H2 6340   1.395   0.838  13.688 -0.0665  2.1550 -3.4139
  421TMC3    C7 6341   1.357   0.568  13.678 -0.1384  0.1710  0.3995
  421TMC3    C8 6342   1.224   1.046  13.700  0.1662  0.0985 -0.3380
  421TMC3    O1 6343   1.472   0.601  13.669 -0.1780 -0.4117  0.4390
  421TMC3    O2 6344   1.328   1.055  13.764  0.2345  0.4555 -0.2837
  422TMC3    C1 6345   3.461   1.657  12.642  0.3744 -0.0822 -0.0965
  422TMC3    C2 6346   3.436   1.760  12.733 -0.8307 -0.3365  0.1458
  422TMC3    C3 6347   3.317   1.750  12.804 -0.3577 -0.3093  0.2218
  422TMC3    C4 6348   3.370   1.555  12.623  0.5016  0.3664  0.1489
  422TMC3    C5 6349   3.253   1.556  12.692  0.1410 -0.0815 -0.1838
  422TMC3    C6 6350   3.222   1.654  12.783  0.3838 -0.6336 -0.1727
  422TMC3     C 6351   3.569   1.680  12.546  0.3673 -0.0616  0.3485
  422TMC3     O 6352   3.660   1.757  12.583  0.0899 -0.0597 -0.2782
  422TMC3     H 6353   3.516   1.830  12.755  0.2428 -1.9336  1.3235
  422TMC3    H1 6354   3.390   1.471  12.557 -2.5565  0.7400 -1.2315
  422TMC3    H2 6355   3.140   1.636  12.851  1.2329 -2.2353  0.4199
  422TMC3    C7 6356   3.161   1.456  12.657  0.7969 -0.0258 -0.2632
  422TMC3    C8 6357   3.292   1.873  12.879 -0.6940 -0.5194  0.3665
  422TMC3    O1 6358   3.206   1.344  12.647 -0.2767  0.0711 -0.1894
  422TMC3    O2 6359   3.386   1.940  12.923 -0.6177 -0.1774 -0.4642
  423MPD2     C 6360   4.584   2.829   0.604 -0.2685 -0.4081  1.0541
  423MPD2    C1 6361   4.720   2.843   0.605 -0.4473 -0.7386  0.0171
  423MPD2    C2 6362   0.057   2.822   0.492 -0.5172 -0.3680 -0.3374
  423MPD2    C3 6363   4.718   2.780   0.376  0.0413 -0.0911  0.9679
  423MPD2    C4 6364   4.575   2.781   0.375 -0.0650  0.9650  1.0068
  423MPD2    C5 6365   4.512   2.809   0.487  0.0567  0.6245  0.2446
  423MPD2     H 6366   0.165   2.822   0.494 -0.5145  0.2189 -0.6204
  423MPD2    H1 6367   4.509   2.758   0.292  1.1513 -1.7074  0.7791
  423MPD2    H2 6368   4.530   2.833   0.698 -2.3648  0.1406 -0.1780
  423MPD2    H3 6369   4.405   2.799   0.494 -0.0098  0.1181 -1.4393
  423MPD2     N 6370   0.046   2.734   0.263  0.1300 -0.6162 -0.4881
  423MPD2    H5 6371   4.725   2.680   0.198  0.0945 -0.6526 -0.4266
  423MPD2    N1 6372   0.055   2.861   0.724 -0.1455  0.1548 -0.0046
  423MPD2    H7 6373   0.156   2.875   0.720 -0.1172 -0.4283 -1.4325
  424TMC3    C1 6374   0.094   2.886   0.953  0.3030 -0.3087 -0.2404
  424TMC3    C2 6375   0.207   2.813   0.938  0.0069 -0.3776  0.5614
  424TMC3    C3 6376   0.295   2.822   1.042 -0.8881  0.5143  0.4318
  424TMC3    C4 6377   0.055   2.960   1.058  0.4415  0.2195  0.2650
  424TMC3    C5 6378   0.139   2.957   1.168 -0.0109  0.1172  0.5042
  424TMC3    C6 6379   0.260   2.895   1.159 -0.0862  1.0654  0.5759
  424TMC3     C 6380   4.731   2.875   0.848  0.9346 -0.3391 -0.1133
  424TMC3     O 6381   4.619   2.873   0.891  0.5933  0.2359 -0.8854
  424TMC3     H 6382   0.224   2.756   0.847  0.9412  0.1999  0.3802
  424TMC3    H1 6383   4.694   3.010   1.058 -0.1492 -0.9245 -0.1740
  424TMC3    H2 6384   0.313   2.897   1.253 -0.0477  1.0989  0.5536
  424TMC3    C7 6385   0.092   3.009   1.297  0.1796 -0.6946 -0.0592
  424TMC3    C8 6386   0.396   2.721   1.055 -0.0622  0.1170 -0.2979
  424TMC3    O1 6387   0.180   3.034   1.379 -0.1626  0.5817  0.0234
  424TMC3    O2 6388   0.380   2.611   1.000  0.5898 -0.2104  0.1682
  425MPD2     C 6389   4.176   2.463  17.408  0.4150 -0.3509  0.6040
  425MPD2    C1 6390   4.083   2.368  17.378 -0.0716  0.4206 -0.4740
  425MPD2    C2 6391   3.950   2.386  17.405  0.5550 -0.8629 -0.0075
  425MPD2    C3 6392   3.907   2.494  17.474 -0.1815  0.1329 -0.5958
  425MPD2    C4 6393   3.997   2.595  17.502  0.4281  0.4488 -0.4224
  425MPD2    C5 6394   4.130   2.576  17.469 -0.0856 -0.0102 -0.5578
  425MPD2     H 6395   3.878   2.307  17.385 -0.5722  0.1993 -0.1369
  425MPD2    H1 6396   3.973   2.686  17.556  0.1935 -0.6736  1.3570
  425MPD2    H2 6397   4.283   2.453  17.397  0.6133 -0.9298  2.9326
  425MPD2    H3 6398   4.188   2.667  17.480 -0.5466  0.1853  0.2350
  425MPD2     N 6399   3.774   2.488  17.509  0.3978 -0.8973 -0.1443
  425MPD2    H5 6400   3.720   2.409  17.475 -1.1421  0.0805 -0.0221
  425MPD2    N1 6401   4.130   2.248  17.322  0.5273 -0.2984  1.1705
  425MPD2    H7 6402   4.229   2.238  17.303  0.6122  4.4870 -1.1092
  426TMC3    C1 6403   4.137   2.035  17.209 -0.5994 -0.4559  0.5114
  426TMC3    C2 6404   4.064   1.956  17.125 -0.4713 -0.5992  0.2257
  426TMC3    C3 6405   4.096   1.817  17.115  0.1636 -0.1809  0.0338
  426TMC3    C4 6406   4.230   1.976  17.298 -0.1686  0.8671  1.3298
  426TMC3    C5 6407   4.247   1.840  17.300 -0.0614  0.2749  0.8023
  426TMC3    C6 6408   4.180   1.752  17.212  0.5670  0.1089 -0.7346
  426TMC3     C 6409   4.057   2.148  17.270  0.0942  0.2022 -0.1943
  426TMC3     O 6410   3.938   2.117  17.275 -0.0615  0.3304  0.2805
  426TMC3     H 6411   3.991   2.006  17.062  0.2969  1.9154  1.3145
  426TMC3    H1 6412   4.274   2.042  17.372 -0.9192  3.0594 -0.2064
  426TMC3    H2 6413   4.203   1.646  17.208  0.4492  0.0196  1.1611
  426TMC3    C7 6414   4.304   1.787  17.426  1.0863 -0.9746  0.4437
  426TMC3    C8 6415   4.050   1.745  17.001 -0.2981 -0.1745 -0.1081
  426TMC3    O1 6416   4.389   1.859  17.479 -0.0540  0.0220 -0.0632
  426TMC3    O2 6417   4.046   1.623  17.012 -0.0803 -0.4079 -0.3307
  427MPD2     C 6418   2.443   4.508  15.073  0.6049  0.0110 -0.0618
  427MPD2    C1 6419   2.408   4.418  15.170 -0.1330 -0.5371  0.0188
  427MPD2    C2 6420   2.276   4.401  15.201 -0.1618  0.8243 -0.4292
  427MPD2    C3 6421   2.174   4.467  15.127 -0.5871 -0.3075 -0.1815
  427MPD2    C4 6422   2.218   4.555  15.029 -0.2655 -0.4269 -0.8600
  427MPD2    C5 6423   2.349   4.576  15.006 -0.2423  0.4061 -0.0026
  427MPD2     H 6424   2.245   4.318  15.264  0.4940  0.8224 -0.1104
  427MPD2    H1 6425   2.146   4.607  14.966 -1.3975 -0.8829  0.0493
  427MPD2    H2 6426   2.547   4.522  15.044 -0.1194  3.0047 -1.1609
  427MPD2    H3 6427   2.382   4.652  14.936 -0.4000 -0.2085 -0.7368
  427MPD2     N 6428   2.038   4.431  15.137 -0.8031 -0.7704  0.0136
  427MPD2    H5 6429   1.979   4.471  15.065 -0.9436  1.2440  1.2405
  427MPD2    N1 6430   2.501   4.349  15.257 -0.5371 -0.3213  0.2321
  427MPD2    H7 6431   2.455   4.299  15.333  0.2638  2.2408  2.3720
  428TMC3    C1 6432   2.692   4.247  15.338  0.2123 -0.0831  0.2697
  428TMC3    C2 6433   2.644   4.116  15.340 -0.2998 -0.4552 -0.4596
  428TMC3    C3 6434   2.718   4.018  15.399  0.0948  0.3771 -0.0631
  428TMC3    C4 6435   2.821   4.271  15.387 -0.4853 -0.0071  0.2164
  428TMC3    C5 6436   2.874   4.177  15.471 -0.0986  0.0977  0.5250
  428TMC3    C6 6437   2.823   4.049  15.479 -0.1442  0.3015  0.1372
  428TMC3     C 6438   2.638   4.348  15.247  0.3539  0.0015 -0.2344
  428TMC3     O 6439   2.708   4.402  15.163  0.8165 -0.4570 -0.1157
  428TMC3     H 6440   2.552   4.089  15.288  0.5495 -0.7642 -1.7941
  428TMC3    H1 6441   2.846   4.377  15.385  1.2907 -0.4698 -2.0696
  428TMC3    H2 6442   2.868   3.971  15.541 -0.3994 -0.6894 -0.9245
  428TMC3    C7 6443   2.934   4.211  15.597  0.0661  0.2766 -0.4797
  428TMC3    C8 6444   2.652   3.893  15.428  0.2804  0.3930 -0.6786
  428TMC3    O1 6445   2.902   4.145  15.692 -0.2217  1.0431 -0.4569
  428TMC3    O2 6446   2.713   3.796  15.470 -0.2340 -0.5142 -0.2004
  429MPD2     C 6447   3.577   4.376   0.288  0.9685  0.2193 -0.0666
  429MPD2    C1 6448   3.641   4.289   0.207  0.4275  0.9347 -0.5699
  429MPD2    C2 6449   3.689   4.327   0.081 -0.1527 -0.5853  0.5022
  429MPD2    C3 6450   3.661   4.459   0.028  1.2269  0.2178  0.0436
  429MPD2    C4 6451   3.589   4.541   0.116 -0.0513  0.1556  0.2309
  429MPD2    C5 6452   3.546   4.493   0.239 -0.6066 -0.3969  0.9912
  429MPD2     H 6453   3.732   4.251   0.015  0.4282  0.2495 -0.0794
  429MPD2    H1 6454   3.584   4.646   0.089 -3.5948 -0.1166 -0.1601
  429MPD2    H2 6455   3.547   4.357   0.391 -1.4235  1.3267 -0.5492
  429MPD2    H3 6456   3.499   4.564   0.306 -1.6174 -0.3244  0.2088
  429MPD2     N 6457   3.711   4.492  17.640 -0.2643  0.0335 -0.4254
  429MPD2    H5 6458   3.756   4.413  17.593  0.8444  0.5194 -0.1587
  429MPD2    N1 6459   3.659   4.149   0.250  0.7943 -0.3778 -0.0780
  429MPD2    H7 6460   3.679   4.078   0.180 -0.7173 -0.6692 -0.2120
  430TMC3    C1 6461   3.775   4.633  17.459  0.1246 -0.5318  0.2970
  430TMC3    C2 6462   3.743   0.006  17.380 -0.9737 -0.3245  0.6135
  430TMC3    C3 6463   3.794   0.019  17.251 -0.2473 -0.3516 -0.4554
  430TMC3    C4 6464   3.852   4.531  17.417  0.2258 -0.5559  0.4737
  430TMC3    C5 6465   3.887   4.538  17.282 -0.5071  0.1362 -0.1656
  430TMC3    C6 6466   3.864   4.650  17.203 -0.4087 -0.3189  0.3463
  430TMC3     C 6467   3.703   4.618  17.583  0.2948  0.0680  0.6191
  430TMC3     O 6468   3.644   4.716  17.628  0.2815  0.6456  0.0102
  430TMC3     H 6469   3.688   0.087  17.426  1.2738  2.0532 -0.9335
  430TMC3    H1 6470   3.890   4.445  17.471 -1.7391 -0.6736  1.7032
  430TMC3    H2 6471   3.926   4.659  17.115 -1.0290  0.4762 -0.0117
  430TMC3    C7 6472   3.831   4.417  17.220 -0.4898  0.1754  0.1878
  430TMC3    C8 6473   3.703   0.071  17.146  0.8020 -0.5559 -0.1794
  430TMC3    O1 6474   3.826   4.316  17.289 -0.2061  0.1698  0.3152
  430TMC3    O2 6475   3.733   0.026  17.035  0.1756  0.1329  0.3427
  431MPD2     C 6476   4.246   3.713  12.978  0.0908 -0.3157  0.1750
  431MPD2    C1 6477   4.237   3.817  12.895  0.0929 -0.3147  0.0479
  431MPD2    C2 6478   4.191   3.792  12.769  0.0467  0.5500  0.8470
  431MPD2    C3 6479   4.174   3.663  12.728  0.0250  0.0076  0.4318
  431MPD2    C4 6480   4.192   3.558  12.809 -0.6551 -0.1754 -0.2015
  431MPD2    C5 6481   4.231   3.581  12.933 -0.7807 -0.5773  0.7237
  431MPD2     H 6482   4.178   3.875  12.701 -0.8407  0.5080  0.9657
  431MPD2    H1 6483   4.170   3.456  12.779  2.3325 -0.1477 -2.4383
  431MPD2    H2 6484   4.281   3.720  13.080 -0.8663 -1.0511  0.5545
  431MPD2    H3 6485   4.248   3.507  13.010  0.6976  0.2795  1.2299
  431MPD2     N 6486   4.143   3.644  12.596 -0.1270  0.4417 -0.8863
  431MPD2    H5 6487   4.161   3.555  12.552  2.6573  0.6881 -0.2024
  431MPD2    N1 6488   4.255   3.951  12.938 -0.2671 -0.2257  0.4354
  431MPD2    H7 6489   4.233   4.019  12.866  0.9957  1.1234  1.3139
  432TMC3    C1 6490   4.032   3.671  12.405  0.6416 -0.8487 -0.4703
  432TMC3    C2 6491   4.124   3.613  12.325  0.1030 -0.3624 -0.3480
  432TMC3    C3 6492   4.086   3.497  12.257  0.3152 -0.0005  0.3110
  432TMC3    C4 6493   3.929   3.591  12.440  0.9984  0.9271  0.4127
  432TMC3    C5 6494   3.899   3.468  12.384 -0.1161 -0.1120 -0.0072
  432TMC3    C6 6495   3.980   3.418  12.288  0.0442 -0.9634  0.1533
  432TMC3     C 6496   4.080   3.742  12.518 -0.8776 -0.4271  0.0816
  432TMC3     O 6497   4.017   3.844  12.547 -0.2512 -0.0046  1.0378
  432TMC3     H 6498   4.224   3.651  12.307  0.7008 -1.9987 -0.4477
  432TMC3    H1 6499   3.871   3.633  12.522 -1.2917  1.1964 -1.3608
  432TMC3    H2 6500   3.959   3.319  12.249  0.1277 -0.4409 -1.2184
  432TMC3    C7 6501   3.889   3.372  12.493  0.1590  0.5173  0.4227
  432TMC3    C8 6502   4.154   3.445  12.132  0.3162  0.9210 -0.8970
  432TMC3    O1 6503   3.933   3.262  12.468 -0.0509  0.8739 -0.9834
  432TMC3    O2 6504   4.104   3.354  12.067 -0.2610  0.4786 -0.1054
  433MPD2     C 6505   3.175   2.486  10.815  0.5970  0.0687  0.3267
  433MPD2    C1 6506   3.279   2.408  10.853  0.7278 -0.4771 -0.2239
  433MPD2    C2 6507   3.288   2.367  10.984  0.3929 -0.5279  0.0169
  433MPD2    C3 6508   3.197   2.410  11.076 -0.4639 -0.1336  0.5300
  433MPD2    C4 6509   3.097   2.501  11.040 -0.0129  0.4664 -0.1184
  433MPD2    C5 6510   3.085   2.533  10.905 -0.0849 -0.1342  0.4295
  433MPD2     H 6511   3.360   2.298  11.028  0.4418  1.0383  2.4233
  433MPD2    H1 6512   3.024   2.544  11.107 -2.0176  1.4685 -2.9401
  433MPD2    H2 6513   3.177   2.517  10.711  1.2909 -1.4933 -0.1292
  433MPD2    H3 6514   3.014   2.606  10.867  0.8715  0.6633  0.1664
  433MPD2     N 6515   3.227   2.377  11.208  0.3488  0.0357  0.0216
  433MPD2    H5 6516   3.305   2.313  11.214 -0.2797 -0.5080  2.3403
  433MPD2    N1 6517   3.361   2.358  10.750  0.0362 -0.4164  0.2642
  433MPD2    H7 6518   3.347   2.380  10.652 -0.0460  0.1718  0.4058
  434TMC3    C1 6519   3.547   2.236  10.674 -0.9922 -0.2230 -0.0688
  434TMC3    C2 6520   3.679   2.207  10.705 -0.4171 -0.0844  0.3960
  434TMC3    C3 6521   3.733   2.077  10.666 -0.6741 -0.1972  0.1196
  434TMC3    C4 6522   3.472   2.144  10.601  0.0480  0.2006 -0.4390
  434TMC3    C5 6523   3.529   2.031  10.559 -0.2673  0.6978 -0.6117
  434TMC3    C6 6524   3.658   1.988  10.590 -0.0229  0.9354  0.1354
  434TMC3     C 6525   3.477   2.298  10.784 -0.2410  0.1474 -0.4594
  434TMC3     O 6526   3.522   2.262  10.895  0.8495 -0.0729  0.0534
  434TMC3     H 6527   3.746   2.273  10.758 -2.6980  1.1713  1.6918
  434TMC3    H1 6528   3.364   2.149  10.589  0.1122 -0.2973 -1.2495
  434TMC3    H2 6529   3.692   1.886  10.573  0.9572  1.2533  0.2509
  434TMC3    C7 6530   3.435   1.930  10.541  0.3131  0.5036 -0.0982
  434TMC3    C8 6531   3.848   2.031  10.740 -0.4725  0.6508  0.3620
  434TMC3    O1 6532   3.379   1.932  10.434  0.2783 -0.1557  0.4379
  434TMC3    O2 6533   3.932   2.113  10.777 -0.1366  0.3424 -0.4828
  435MPD2     C 6534   0.744   3.145  15.588 -0.1801  0.0197 -0.8811
  435MPD2    C1 6535   0.680   3.069  15.676 -0.2937 -0.3014  0.6439
  435MPD2    C2 6536   0.754   2.974  15.750  0.4891 -0.0430 -0.1266
  435MPD2    C3 6537   0.890   2.961  15.718 -0.4087 -0.6925  0.8083
  435MPD2    C4 6538   0.948   3.042  15.620  0.0063  0.1492 -0.5081
  435MPD2    C5 6539   0.876   3.144  15.566  0.0352 -0.7256 -0.0573
  435MPD2     H 6540   0.709   2.916  15.829 -0.1319 -0.6108 -0.8941
  435MPD2    H1 6541   1.054   3.030  15.601 -0.0321 -2.2150  0.7017
  435MPD2    H2 6542   0.687   3.224  15.540  0.4907  0.2139 -1.3524
  435MPD2    H3 6543   0.919   3.209  15.491 -1.7602 -1.1603 -1.4652
  435MPD2     N 6544   0.964   2.861  15.791  0.0862 -0.0733 -0.0471
  435MPD2    H5 6545   0.910   2.811  15.861  0.7489  1.2995  1.4479
  435MPD2    N1 6546   0.539   3.068  15.702 -0.5769  0.6200  0.1072
  435MPD2    H7 6547   0.508   3.000  15.771  1.1538  0.1839  0.4459
  436TMC3    C1 6548   0.158   3.091  15.866 -1.1424  0.4273  0.1260
  436TMC3    C2 6549   0.284   3.099  15.818  0.2714  0.1317 -0.3652
  436TMC3    C3 6550   0.304   3.126  15.687  0.6631 -0.3224 -0.0338
  436TMC3    C4 6551   0.049   3.109  15.782 -0.4262  0.1035  0.0100
  436TMC3    C5 6552   0.080   3.149  15.656  0.0937 -0.3339 -0.5126
  436TMC3    C6 6553   0.206   3.165  15.610 -0.1769  0.6497  0.2821
  436TMC3     C 6554   0.137   3.064  16.003  1.0525  0.2839 -0.0251
  436TMC3     O 6555   0.225   3.021  16.076  0.0153 -1.0675 -0.4790
  436TMC3     H 6556   0.356   3.076  15.895 -2.4033 -0.1562  2.0586
  436TMC3    H1 6557   4.687   3.085  15.823 -0.1481  0.5014  0.9010
  436TMC3    H2 6558   0.225   3.203  15.510 -0.4566 -0.8608 -0.3369
  436TMC3    C7 6559   4.705   3.122  15.563 -0.5261  0.0885 -0.3238
  436TMC3    C8 6560   0.438   3.147  15.640  0.8611 -0.9343 -0.2153
  436TMC3    O1 6561   0.001   3.102  15.449 -0.9172 -0.3078  0.0042
  436TMC3    O2 6562   0.454   3.222  15.547 -0.7944 -0.0274  0.0166
  437TMC3    C1 6563   3.574   4.388  13.324 -1.1316 -0.5984 -0.6403
  437TMC3    C2 6564   3.451   4.339  13.291 -0.1617  0.2501  0.7166
  437TMC3    C3 6565   3.356   4.426  13.235  0.5780 -0.0914  0.1350
  437TMC3    C4 6566   3.610   4.516  13.293 -0.1463 -0.1301 -0.1231
  437TMC3    C5 6567   3.521   4.592  13.225 -0.0959 -0.1504  0.5228
  437TMC3    C6 6568   3.387   4.559  13.204  0.7341 -0.1294  0.7297
  437TMC3     C 6569   3.661   4.302  13.409  0.1238  1.0128 -0.5198
  437TMC3     O 6570   3.616   4.193  13.439 -0.2895  0.2336  0.0170
  437TMC3     H 6571   3.422   4.237  13.313  0.2562  0.5593  2.7966
  437TMC3    H1 6572   3.697   4.557  13.344 -1.6289  0.9400  1.5505
  437TMC3    H2 6573   3.316   4.617  13.146  0.3734 -0.4158  0.8886
  437TMC3    C7 6574   3.568   4.706  13.146 -0.8192 -0.2023 -0.9573
  437TMC3    C8 6575   3.220   4.383  13.236 -0.3039  0.2310  0.4926
  437TMC3    O1 6576   3.477   0.043  13.110 -0.0914 -0.6848  0.5168
  437TMC3    O2 6577   3.208   4.264  13.259 -0.1188 -0.3709  0.1632
  438MPD2     C 6578   1.725   1.292  17.036  0.3067 -0.4651 -0.6155
  438MPD2    C1 6579   1.780   1.174  17.079  0.1144 -0.1707 -0.1134
  438MPD2    C2 6580   1.741   1.130  17.200 -0.4660  0.2868 -0.0452
  438MPD2    C3 6581   1.647   1.192  17.282  0.2028 -0.0301  0.6065
  438MPD2    C4 6582   1.597   1.311  17.236 -0.0684  0.5799  0.2294
  438MPD2    C5 6583   1.642   1.364  17.120  0.5837 -0.1314 -0.1574
  438MPD2     H 6584   1.784   1.035  17.230 -2.4465 -0.7007 -0.3480
  438MPD2    H1 6585   1.506   1.346  17.283 -0.6421 -0.2743 -0.2436
  438MPD2    H2 6586   1.752   1.348  16.947  1.0958 -0.3900 -0.3341
  438MPD2    H3 6587   1.596   1.458  17.090  2.2494  0.7075 -0.0793
  438MPD2     N 6588   1.598   1.130  17.402  0.3297 -0.8194 -0.4955
  438MPD2    H5 6589   1.518   1.176  17.444  1.7721 -0.1262  1.4832
  438MPD2    N1 6590   1.870   1.089  17.010  0.5777  0.1469  0.0682
  438MPD2    H7 6591   1.900   1.001  17.051  0.1281 -0.4961 -0.9723
  439TMC3    C1 6592   1.965   0.999  16.815  0.0847 -0.4776 -0.9218
  439TMC3    C2 6593   1.942   0.969  16.685  0.5168  0.5146 -0.1210
  439TMC3    C3 6594   2.014   0.854  16.639  0.5195 -0.2785 -0.1249
  439TMC3    C4 6595   2.061   0.936  16.892  0.0911  0.4273  0.0717
  439TMC3    C5 6596   2.119   0.817  16.852 -0.0374 -0.3489  0.2632
  439TMC3    C6 6597   2.101   0.789  16.722  0.0647 -0.3554 -0.0420
  439TMC3     C 6598   1.895   1.108  16.874  0.7278 -0.0043 -0.4945
  439TMC3     O 6599   1.844   1.181  16.789 -0.5299 -0.1100  0.0539
  439TMC3     H 6600   1.874   1.023  16.620  2.1233 -0.1793 -2.3765
  439TMC3    H1 6601   2.087   0.984  16.986 -1.0945  0.1663  0.5349
  439TMC3    H2 6602   2.171   0.729  16.666  0.2543  2.6063 -2.9010
  439TMC3    C7 6603   2.218   0.753  16.935  0.0543  0.1583 -0.5653
  439TMC3    C8 6604   2.001   0.817  16.500 -0.3174 -0.1226 -0.0301
  439TMC3    O1 6605   2.259   0.821  17.030  0.1633 -0.5898  0.9122
  439TMC3    O2 6606   2.074   0.728  16.464  0.2672 -0.0402 -0.0166
  440MPD2     C 6607   0.569   1.741  14.546 -0.6026  0.4380 -0.4464
  440MPD2    C1 6608   0.528   1.661  14.646  0.0985 -0.8285  0.1538
  440MPD2    C2 6609   0.623   1.583  14.713  0.1236  0.4945  0.0157
  440MPD2    C3 6610   0.760   1.587  14.678  0.1809 -0.1325  0.7918
  440MPD2    C4 6611   0.803   1.680  14.578 -0.5719  0.5691 -0.1360
  440MPD2    C5 6612   0.704   1.753  14.518 -0.2946  0.1497 -0.4432
  440MPD2     H 6613   0.586   1.524  14.796  1.6832  1.4741  1.3963
  440MPD2    H1 6614   0.908   1.680  14.552 -0.8797  0.3361 -1.3484
  440MPD2    H2 6615   0.501   1.798  14.483 -0.2846 -1.6125 -2.6383
  440MPD2    H3 6616   0.740   1.813  14.435  1.1104  0.4921  0.4139
  440MPD2     N 6617   0.862   1.514  14.737  0.3574  0.7695 -0.0543
  440MPD2    H5 6618   0.954   1.552  14.718 -0.8688  3.4839 -0.4964
  440MPD2    N1 6619   0.390   1.655  14.687  0.0551  0.2757 -0.1929
  440MPD2    H7 6620   0.366   1.587  14.758  1.8962  0.0753  0.2241
  441TMC3    C1 6621   0.962   1.390  14.901 -0.2058 -0.6400 -0.1106
  441TMC3    C2 6622   1.060   1.490  14.910 -0.1470  0.2199  0.1131
  441TMC3    C3 6623   1.168   1.470  14.992  0.1161 -0.4557 -0.0471
  441TMC3    C4 6624   0.972   1.279  14.986  0.2369  1.0616  0.3174
  441TMC3    C5 6625   1.078   1.264  15.065  0.5430 -0.2739 -0.8433
  441TMC3    C6 6626   1.185   1.352  15.064  0.2064  0.2031 -0.5810
  441TMC3     C 6627   0.847   1.408  14.823  0.4099 -0.0296  0.6302
  441TMC3     O 6628   0.755   1.333  14.848  0.5172 -0.5003  0.0502
  441TMC3     H 6629   1.043   1.585  14.861 -1.1444  0.2341  0.5047
  441TMC3    H1 6630   0.899   1.199  14.979  1.2105  0.0630  1.6588
  441TMC3    H2 6631   1.269   1.337  15.130 -1.4347 -0.4059  1.3743
  441TMC3    C7 6632   1.071   1.153  15.162  0.4945  0.6381 -0.3968
  441TMC3    C8 6633   1.234   1.588  15.046 -0.1096  0.5326 -0.7313
  441TMC3    O1 6634   0.960   1.105  15.179  0.3107  0.3601 -0.2762
  441TMC3    O2 6635   1.353   1.605  15.015 -0.0800  0.1246 -0.2869
  442MPD2     C 6636   3.592   1.920  17.068 -0.6148 -0.2578  0.1645
  442MPD2    C1 6637   3.532   1.933  16.949 -1.0431  0.8275  0.3286
  442MPD2    C2 6638   3.501   1.817  16.871  0.3014 -0.1495  0.4520
  442MPD2    C3 6639   3.549   1.696  16.908  0.4171  0.6304 -0.1624
  442MPD2    C4 6640   3.620   1.688  17.026  0.2099  0.0692 -0.0550
  442MPD2    C5 6641   3.627   1.797  17.111 -0.0061 -0.2360  0.4657
  442MPD2     H 6642   3.437   1.820  16.783  2.3205 -2.3197 -1.0924
  442MPD2    H1 6643   3.659   1.590  17.055 -1.0041 -0.6594 -0.8924
  442MPD2    H2 6644   3.612   2.001  17.137  0.3571 -2.5280  2.5789
  442MPD2    H3 6645   3.672   1.788  17.210 -0.0883  1.1123  0.6289
  442MPD2     N 6646   3.521   1.577  16.843 -0.0672  0.1476  0.0798
  442MPD2    H5 6647   3.555   1.495  16.894  1.4930  0.1023 -1.0437
  442MPD2    N1 6648   3.493   2.060  16.893 -0.0990  0.7720  0.1413
  442MPD2    H7 6649   3.462   2.061  16.797  1.0733 -0.7979 -0.2698
  443TMC3    C1 6650   3.418   2.274  16.887 -0.4586  0.0985  0.4555
  443TMC3    C2 6651   3.391   2.256  16.750 -0.7752 -0.2199 -0.1308
  443TMC3    C3 6652   3.279   2.313  16.698  0.7803  0.5762  0.2838
  443TMC3    C4 6653   3.344   2.361  16.967 -0.3297 -0.0428 -0.0807
  443TMC3    C5 6654   3.221   2.404  16.913  0.0489 -0.5267 -0.4312
  443TMC3    C6 6655   3.193   2.387  16.778  0.0579 -0.4533 -0.1669
  443TMC3     C 6656   3.491   2.173  16.960 -0.2561  0.5707 -0.2289
  443TMC3     O 6657   3.508   2.198  17.079 -0.6578  0.4327  0.3722
  443TMC3     H 6658   3.463   2.205  16.688 -0.2027 -1.7772  1.8278
  443TMC3    H1 6659   3.369   2.381  17.070  1.8838 -0.5588 -0.5009
  443TMC3    H2 6660   3.099   2.427  16.744  0.6915  0.1731 -1.2139
  443TMC3    C7 6661   3.105   2.375  16.989 -0.0127 -0.3559 -0.0787
  443TMC3    C8 6662   3.225   2.243  16.580  0.5988 -0.2742  0.4872
  443TMC3    O1 6663   3.020   2.307  16.932 -0.1950  0.0452  0.3925
  443TMC3    O2 6664   3.261   2.130  16.564  0.2702  0.5075 -0.0673
  444MPD2     C 6665   3.802   1.462  17.331  0.2334 -0.7945  0.3039
  444MPD2    C1 6666   3.717   1.359  17.322  0.6894 -0.0630 -0.4032
  444MPD2    C2 6667   3.762   1.237  17.264 -0.2006 -0.0221 -0.3153
  444MPD2    C3 6668   3.884   1.236  17.203 -0.6553  0.1481  0.3304
  444MPD2    C4 6669   3.971   1.338  17.211 -0.7039 -1.0328  0.0309
  444MPD2    C5 6670   3.934   1.451  17.282  0.3520  0.1739 -0.9975
  444MPD2     H 6671   3.690   1.156  17.263  0.8088 -0.9293  1.0158
  444MPD2    H1 6672   4.076   1.341  17.185 -1.6098  3.1011 -3.1444
  444MPD2    H2 6673   3.778   1.561  17.367  1.2007  0.6380 -2.9077
  444MPD2    H3 6674   4.007   1.529  17.300 -2.4986  2.1639  1.8461
  444MPD2     N 6675   3.900   1.125  17.116 -0.0584  0.2110 -0.0995
  444MPD2    H5 6676   3.820   1.063  17.122 -1.1849  1.7974  1.3565
  444MPD2    N1 6677   3.582   1.362  17.369 -0.0521 -0.4098 -0.7039
  444MPD2    H7 6678   3.533   1.274  17.376 -1.2802  0.2937 -0.3888
  445TMC3    C1 6679   3.962   0.982  16.952  0.2553 -0.1012  0.3331
  445TMC3    C2 6680   3.911   0.876  17.022 -0.1029  0.9551  0.2799
  445TMC3    C3 6681   3.908   0.754  16.965  0.1602  0.2490 -0.1231
  445TMC3    C4 6682   4.022   0.960  16.831  0.9826 -0.6923 -0.1411
  445TMC3    C5 6683   4.012   0.840  16.767  0.6498  0.1023  0.5884
  445TMC3    C6 6684   3.958   0.739  16.841 -0.0707  0.3130 -0.3696
  445TMC3     C 6685   4.003   1.101  17.028 -0.1058  0.4705 -0.0276
  445TMC3     O 6686   4.103   1.165  17.005 -0.3847  0.1452  0.1437
  445TMC3     H 6687   3.905   0.871  17.130 -0.4938 -1.5217  0.1547
  445TMC3    H1 6688   4.053   1.054  16.787 -1.1200 -0.5142 -1.2140
  445TMC3    H2 6689   3.959   0.638  16.803  1.1988 -0.0903  0.7245
  445TMC3    C7 6690   4.085   0.826  16.640 -0.1333 -0.7742  0.1344
  445TMC3    C8 6691   3.852   0.647  17.037  0.2433  0.6415 -0.0447
  445TMC3    O1 6692   4.154   0.910  16.595 -0.6125 -0.0302  0.2756
  445TMC3    O2 6693   3.909   0.542  17.037  0.0846  0.6731 -0.4195
  446MPD2     C 6694   3.277   1.943  11.334  0.2094  0.0432 -0.5358
  446MPD2    C1 6695   3.255   1.990  11.205 -0.0117  0.5153  0.0271
  446MPD2    C2 6696   3.355   2.068  11.157 -0.5397  0.6125  0.2886
  446MPD2    C3 6697   3.476   2.097  11.221  0.5040 -0.3431 -0.4037
  446MPD2    C4 6698   3.487   2.043  11.346 -0.5085  0.1089 -0.0506
  446MPD2    C5 6699   3.390   1.964  11.400 -0.1703  0.6473 -0.2402
  446MPD2     H 6700   3.326   2.119  11.066 -1.1207  2.7556  1.6740
  446MPD2    H1 6701   3.578   2.071  11.399 -1.6832  0.5348  1.7196
  446MPD2    H2 6702   3.214   1.859  11.363 -0.4254  1.1107  1.1683
  446MPD2    H3 6703   3.418   1.907  11.488 -1.5415 -0.2994 -0.4277
  446MPD2     N 6704   3.571   2.175  11.154  0.0358 -0.1647 -0.6955
  446MPD2    H5 6705   3.538   2.223  11.071  1.1053  0.0541 -0.9950
  446MPD2    N1 6706   3.143   1.948  11.120 -0.0024  0.1272 -0.0661
  446MPD2    H7 6707   3.149   1.991  11.028 -0.1811 -0.6209 -0.4314
  447TMC3    C1 6708   3.786   2.270  11.113  0.3479  0.4002  0.5075
  447TMC3    C2 6709   3.754   2.390  11.055  0.9084  0.7939 -0.0816
  447TMC3    C3 6710   3.851   2.464  10.993 -0.0832  0.0592  0.7115
  447TMC3    C4 6711   3.920   2.233  11.109 -0.0967  0.1468 -0.2552
  447TMC3    C5 6712   4.008   2.312  11.042  0.0682 -0.8470  1.6521
  447TMC3    C6 6713   3.982   2.437  10.997  0.2119 -0.3188 -0.6558
  447TMC3     C 6714   3.704   2.175  11.188  0.4446  0.3258  0.0464
  447TMC3     O 6715   3.767   2.103  11.264 -0.1583 -0.0843  0.4714
  447TMC3     H 6716   3.649   2.417  11.056  0.3654 -1.3146  0.6782
  447TMC3    H1 6717   3.948   2.135  11.145 -1.6505 -0.4726 -0.7382
  447TMC3    H2 6718   4.047   2.492  10.931  0.3520  2.4106  1.7622
  447TMC3    C7 6719   4.148   2.277  11.059 -0.1872  0.1002 -0.7527
  447TMC3    C8 6720   3.810   2.575  10.907 -0.0589  0.4370 -0.3882
  447TMC3    O1 6721   4.168   2.160  11.089  0.9383 -0.1306  0.0860
  447TMC3    O2 6722   3.888   2.632  10.832  1.1521 -0.4376 -0.5859
  448TMC3    C1 6723   1.683   2.464  17.553 -0.5156 -0.0693  0.3022
  448TMC3    C2 6724   1.708   2.372  17.456 -0.0474  0.7963 -0.6569
  448TMC3    C3 6725   1.734   2.244  17.498  0.0762  0.6180 -0.6333
  448TMC3    C4 6726   1.690   2.435  17.686 -0.2772 -0.4184 -0.8046
  448TMC3    C5 6727   1.709   2.305  17.721 -0.1991  0.2371 -0.2841
  448TMC3    C6 6728   1.736   2.209  17.631 -0.6563 -0.4015 -0.5666
  448TMC3     C 6729   1.615   2.581  17.505 -0.1969  0.7242 -0.1218
  448TMC3     O 6730   1.651   2.629  17.400  0.1282 -0.3149  0.6141
  448TMC3     H 6731   1.711   2.396  17.350 -1.2513  0.8062 -0.6818
  448TMC3    H1 6732   1.646   2.498   0.023 -1.9131 -0.5912 -1.6022
  448TMC3    H2 6733   1.763   2.111  17.667 -0.9110 -0.0685  0.5339
  448TMC3    C7 6734   1.710   2.290   0.123  0.3826 -0.0355 -0.9166
  448TMC3    C8 6735   1.810   2.156  17.410 -0.7215 -0.4710  0.1997
  448TMC3    O1 6736   1.770   2.376   0.184 -0.0334  0.0318  0.1970
  448TMC3    O2 6737   1.826   2.037  17.445  0.1636  0.4982 -0.2346
  449MPD2     C 6738   2.468   4.549  13.493  0.7639  0.0178  0.3994
  449MPD2    C1 6739   2.367   4.637  13.489 -0.0719  0.0620 -0.1163
  449MPD2    C2 6740   2.234   4.588  13.477 -0.2584 -0.5965  0.1057
  449MPD2    C3 6741   2.214   4.453  13.486 -0.7830 -0.0512  0.0644
  449MPD2    C4 6742   2.320   4.363  13.495  0.4804  0.4061 -0.0624
  449MPD2    C5 6743   2.443   4.414  13.501  0.4110  0.1267  0.2668
  449MPD2     H 6744   2.153   4.659  13.463 -0.8878 -1.4023 -0.3301
  449MPD2    H1 6745   2.312   4.255  13.494  3.3470  0.1937 -0.0817
  449MPD2    H2 6746   2.571   4.576  13.514  1.1298 -0.6027 -0.5980
  449MPD2    H3 6747   2.534   4.360  13.526  0.7882 -0.5563 -2.6158
  449MPD2     N 6748   2.075   4.415  13.482 -0.6735 -0.0251 -0.5254
  449MPD2    H5 6749   2.013   4.490  13.452  1.0392  1.1765 -1.0500
  449MPD2    N1 6750   2.373   0.042  13.493 -0.3463 -0.4785 -0.2936
  449MPD2    H7 6751   2.283   0.090  13.491  0.1589  0.3736 -1.9992
  450TMC3    C1 6752   2.459   0.257  13.501  0.1799 -0.3784 -0.3561
  450TMC3    C2 6753   2.503   0.317  13.390 -0.3884 -0.6708  0.0684
  450TMC3    C3 6754   2.418   0.408  13.332 -0.1750 -0.6089 -0.5462
  450TMC3    C4 6755   2.339   0.288  13.555 -0.0076  0.0324  0.2172
  450TMC3    C5 6756   2.248   0.366  13.490  0.3194 -0.1517  0.3425
  450TMC3    C6 6757   2.290   0.426  13.371 -0.2866 -0.6895  0.0052
  450TMC3     C 6758   2.489   0.117  13.499  0.3465 -0.3632 -0.5560
  450TMC3     O 6759   2.603   0.086  13.519  0.0976  0.1468 -0.1984
  450TMC3     H 6760   2.602   0.295  13.350 -2.2056 -3.4019 -2.9370
  450TMC3    H1 6761   2.309   0.236  13.645  1.3204  1.0838  1.2583
  450TMC3    H2 6762   2.222   0.491  13.316  0.6376  1.4915  1.4236
  450TMC3    C7 6763   2.122   0.292  13.486 -0.6827  0.3482  0.1277
  450TMC3    C8 6764   2.468   0.512  13.247  0.8040 -0.4898 -0.8755
  450TMC3    O1 6765   2.137   0.178  13.514 -0.5287  0.3682 -0.1241
  450TMC3    O2 6766   2.398   0.572  13.164 -0.3265 -0.3384  0.0543
  451MPD2     C 6767   3.840   3.810   1.734 -0.5911 -0.0078  0.3054
  451MPD2    C1 6768   3.893   3.887   1.628  0.6930 -0.0225 -0.0182
  451MPD2    C2 6769   4.021   3.851   1.571 -0.9755 -0.5573 -0.1105
  451MPD2    C3 6770   4.076   3.730   1.605  0.8070  0.4688 -0.7004
  451MPD2    C4 6771   4.022   3.659   1.711  0.5172 -0.1417 -0.1460
  451MPD2    C5 6772   3.910   3.704   1.775 -0.5589 -0.0798  0.1858
  451MPD2     H 6773   4.056   3.915   1.491  1.6639 -0.2243  1.3082
  451MPD2    H1 6774   4.065   3.564   1.740  0.3496  0.2312  1.2870
  451MPD2    H2 6775   3.749   3.840   1.784 -0.1331  0.1183  1.0610
  451MPD2    H3 6776   3.876   3.642   1.857 -0.0657 -0.0498  0.4159
  451MPD2     N 6777   4.188   3.683   1.532 -0.3900  0.4968 -0.0184
  451MPD2    H5 6778   4.229   3.751   1.468 -1.0470  0.3673 -0.5686
  451MPD2    N1 6779   3.813   3.990   1.577  0.4490  0.1569  0.3407
  451MPD2    H7 6780   3.722   4.006   1.619 -0.6139 -1.1829 -1.4570
  452TMC3    C1 6781   4.385   3.570   1.480 -0.2698 -0.2182 -0.3583
  452TMC3    C2 6782   4.413   3.453   1.410 -0.1412  0.5598  0.0759
  452TMC3    C3 6783   4.545   3.432   1.367  0.7236 -0.7096 -0.8431
  452TMC3    C4 6784   4.473   3.665   1.511 -0.1783  0.2436 -0.4823
  452TMC3    C5 6785   4.601   3.646   1.458 -0.5281 -0.0742 -0.0293
  452TMC3    C6 6786   4.624   3.542   1.375 -0.0323  0.3615 -0.4685
  452TMC3     C 6787   4.258   3.568   1.553  0.2681  0.1840  0.6646
  452TMC3     O 6788   4.237   3.468   1.617 -0.6320  0.1035  0.3726
  452TMC3     H 6789   4.351   3.364   1.413  1.5329 -0.5813  0.6548
  452TMC3    H1 6790   4.434   3.752   1.562 -0.0918 -0.7460  1.2726
  452TMC3    H2 6791   4.708   3.545   1.307 -1.0351  0.9958 -1.6717
  452TMC3    C7 6792   4.670   3.770   1.436  0.6053  0.1127 -0.5799
  452TMC3    C8 6793   4.551   3.357   1.242  0.0992 -0.1837  0.7459
  452TMC3    O1 6794   4.616   3.872   1.481  0.1661  0.8188  0.4857
  452TMC3    O2 6795   4.445   3.352   1.184  0.3846  0.2491  0.3732
  453TMC3    C1 6796   0.628   0.882  12.030  0.4360  0.0801 -0.5526
  453TMC3    C2 6797   0.548   0.785  12.083  0.1054  0.5658  0.2050
  453TMC3    C3 6798   0.416   0.792  12.056  0.2246 -0.1810 -0.2601
  453TMC3    C4 6799   0.574   0.967  11.942 -0.4573 -0.3774  0.1049
  453TMC3    C5 6800   0.444   0.957  11.911  0.1053 -0.1512 -0.1615
  453TMC3    C6 6801   0.357   0.874  11.972 -0.0545 -0.3830  0.3751
  453TMC3     C 6802   0.773   0.889  12.050  0.1465 -0.1667  0.0449
  453TMC3     O 6803   0.829   0.983  12.001 -0.5636 -0.2247 -0.1769
  453TMC3     H 6804   0.582   0.717  12.160  1.5280  1.4125  0.3309
  453TMC3    H1 6805   0.643   1.032  11.889  0.4089 -1.6053 -0.2632
  453TMC3    H2 6806   0.252   0.870  11.946  0.1813 -0.1830 -0.6292
  453TMC3    C7 6807   0.414   0.976  11.768  0.3653 -0.0856 -0.7840
  453TMC3    C8 6808   0.357   0.660  12.046 -0.2041 -0.3433 -0.0779
  453TMC3    O1 6809   0.349   0.885  11.715 -0.0814 -0.9228  0.0394
  453TMC3    O2 6810   0.240   0.639  12.069  0.1265 -0.2210  0.1323
  454MPD2     C 6811   3.689   1.208  15.794  0.2840  0.0098  0.3025
  454MPD2    C1 6812   3.719   1.089  15.861 -0.3046 -0.2920 -0.1834
  454MPD2    C2 6813   3.746   1.097  15.997 -0.2943  0.1200 -0.3817
  454MPD2    C3 6814   3.752   1.218  16.063  0.3652  0.2497 -0.4918
  454MPD2    C4 6815   3.716   1.331  15.996  0.1581  0.6360 -0.6502
  454MPD2    C5 6816   3.677   1.322  15.864  0.1017  0.3058 -0.0902
  454MPD2     H 6817   3.740   1.001  16.047  2.1255  0.9524  1.5428
  454MPD2    H1 6818   3.731   1.425  16.048  0.7872 -0.4122  1.0283
  454MPD2    H2 6819   3.662   1.197  15.689  0.9111  0.0548  0.1389
  454MPD2    H3 6820   3.649   1.412  15.810 -1.4511 -0.4261 -0.4968
  454MPD2     N 6821   3.775   1.226  16.203 -0.1402 -0.4745  0.2449
  454MPD2    H5 6822   3.751   1.313  16.251  0.3765  0.3506 -1.0063
  454MPD2    N1 6823   3.701   0.962  15.795 -0.3774 -0.4748  0.6115
  454MPD2    H7 6824   3.724   0.884  15.856  2.1383 -0.7330 -0.6650
  455TMC3    C1 6825   3.808   1.137  16.416  0.0310 -0.9367 -0.1347
  455TMC3    C2 6826   3.823   1.259  16.478 -0.0423 -0.1386  0.2059
  455TMC3    C3 6827   3.798   1.256  16.615  0.2839  0.1584  0.0341
  455TMC3    C4 6828   3.783   1.019  16.479  0.0015 -0.2867  0.5791
  455TMC3    C5 6829   3.762   1.023  16.616 -1.3395 -0.5255  0.3982
  455TMC3    C6 6830   3.767   1.141  16.682  0.4500 -0.0162  0.1458
  455TMC3     C 6831   3.825   1.116  16.276  0.4862 -0.5305  0.2622
  455TMC3     O 6832   3.893   1.019  16.234 -0.3773 -0.2993 -0.2157
  455TMC3     H 6833   3.860   1.348  16.427 -0.1296 -1.8989 -2.9441
  455TMC3    H1 6834   3.785   0.925  16.426  0.8500 -0.8303  1.5848
  455TMC3    H2 6835   3.751   1.143  16.790  3.5098  2.5031  0.5569
  455TMC3    C7 6836   3.694   0.918  16.684  0.6862 -0.7218  0.1900
  455TMC3    C8 6837   3.828   1.371  16.691  0.4410 -0.5175  0.0230
  455TMC3    O1 6838   3.681   0.933  16.802 -0.9108 -0.1198  0.6091
  455TMC3    O2 6839   3.874   1.356  16.805  0.2136 -0.4411  0.2696
  456MPD2     C 6840   2.345   1.057  16.528 -0.8003  0.1126  0.3294
  456MPD2    C1 6841   2.392   1.013  16.652  0.7328  0.1973  0.3561
  456MPD2    C2 6842   2.377   1.092  16.767 -0.5663  0.6409  0.1028
  456MPD2    C3 6843   2.311   1.214  16.766 -0.1652 -0.2349 -0.7509
  456MPD2    C4 6844   2.257   1.252  16.649  0.4535  0.3631 -0.5960
  456MPD2    C5 6845   2.267   1.173  16.534  0.5237  0.1909 -0.8114
  456MPD2     H 6846   2.413   1.049  16.859  0.3481  0.9531 -0.1018
  456MPD2    H1 6847   2.187   1.336  16.648 -0.9985 -0.8975 -4.8869
  456MPD2    H2 6848   2.334   0.994  16.441 -2.3605  0.9550 -0.0826
  456MPD2    H3 6849   2.205   1.200  16.449  1.8482 -0.0711 -1.8642
  456MPD2     N 6850   2.302   1.283  16.884  0.1974  0.3859 -0.0049
  456MPD2    H5 6851   2.333   1.229  16.964  0.2730  2.5782  1.4525
  456MPD2    N1 6852   2.450   0.890  16.649 -0.3528 -0.0317 -0.4526
  456MPD2    H7 6853   2.452   0.843  16.560 -2.7609  2.5212 -1.8668
  457TMC3    C1 6854   2.260   1.466  17.032  0.4427 -0.4692 -0.1186
  457TMC3    C2 6855   2.189   1.580  17.049 -0.5382  0.0604  0.7450
  457TMC3    C3 6856   2.173   1.636  17.174 -0.2223  0.6353  0.2467
  457TMC3    C4 6857   2.312   1.399  17.139 -0.0472 -0.3622  0.4214
  457TMC3    C5 6858   2.287   1.452  17.264 -0.2959 -0.4423 -0.4103
  457TMC3    C6 6859   2.223   1.562  17.279  0.5120  0.1707  0.0739
  457TMC3     C 6860   2.263   1.412  16.894 -0.3282 -0.2309 -0.0961
  457TMC3     O 6861   2.216   1.479  16.807  0.0619  0.3615 -0.3969
  457TMC3     H 6862   2.161   1.631  16.958 -0.0072 -0.4824  0.2741
  457TMC3    H1 6863   2.371   1.308  17.133 -0.1503 -0.3094 -1.1968
  457TMC3    H2 6864   2.233   1.611  17.375  0.5572  3.4710 -1.6044
  457TMC3    C7 6865   2.322   1.375  17.378 -0.3660 -0.3128 -0.7591
  457TMC3    C8 6866   2.112   1.765  17.204  0.4701  0.4588  0.3502
  457TMC3    O1 6867   2.417   1.297  17.370  0.1647  0.2687 -0.3611
  457TMC3    O2 6868   2.077   1.782  17.322 -0.1180 -0.3089  0.2888
  458MPD2     C 6869   3.918   0.300  12.962  0.4439 -0.1092  0.3535
  458MPD2    C1 6870   3.989   0.189  13.004  0.3218 -0.0941 -0.3885
  458MPD2    C2 6871   3.912   0.078  13.050 -0.1258 -0.3879 -0.3847
  458MPD2    C3 6872   3.774   0.087  13.066 -0.6537 -0.1366 -0.4010
  458MPD2    C4 6873   3.709   0.202  13.039 -0.2822 -0.3245 -0.2982
  458MPD2    C5 6874   3.785   0.310  12.992  0.0380  0.1677  0.5057
  458MPD2     H 6875   3.951   4.725  13.099 -0.6768  0.1112  0.9729
  458MPD2    H1 6876   3.603   0.219  13.052  0.1737  0.9933  1.5479
  458MPD2    H2 6877   3.959   0.390  12.918 -0.5874 -0.1352 -0.6866
  458MPD2    H3 6878   3.742   0.407  12.970  1.8893  0.8663  0.0474
  458MPD2     N 6879   3.706   4.716  13.132  0.9019  0.5857 -0.6120
  458MPD2    H5 6880   3.765   4.638  13.160  1.6880  1.7768  1.0829
  458MPD2    N1 6881   4.132   0.192  13.011 -0.5523 -0.2797 -0.1207
  458MPD2    H7 6882   4.176   0.282  12.994  0.2248 -0.2821  1.8499
  459TMC3    C1 6883   4.340   0.143  13.107 -0.1486 -0.3406 -0.0275
  459TMC3    C2 6884   4.406   0.239  13.040  0.4374  0.4183 -0.4464
  459TMC3    C3 6885   4.518   0.297  13.093  0.6349 -0.3692  0.5428
  459TMC3    C4 6886   4.381   0.085  13.219 -0.1058 -0.4776 -0.9583
  459TMC3    C5 6887   4.485   0.154  13.278  0.3880  0.4932 -0.5319
  459TMC3    C6 6888   4.552   0.255  13.214  0.5755  0.0501  0.9371
  459TMC3     C 6889   4.218   0.096  13.059 -0.2005 -0.0874  0.0829
  459TMC3     O 6890   4.185   4.723  13.100  0.2444  0.4496 -0.0458
  459TMC3     H 6891   4.373   0.259  12.939 -2.7571 -1.8133  0.1557
  459TMC3    H1 6892   4.318   0.026  13.285  1.4554 -0.2084  0.7608
  459TMC3    H2 6893   4.632   0.312  13.260 -0.4103  0.9961  1.4736
  459TMC3    C7 6894   4.524   0.110  13.411 -0.9031 -0.4258  0.3809
  459TMC3    C8 6895   4.611   0.376  13.018 -0.3823  0.0042  0.0661
  459TMC3    O1 6896   4.486   4.734  13.437  0.2763 -0.1426  0.4422
  459TMC3    O2 6897   4.721   0.370  13.072  0.0844 -0.8663 -0.4143
  460MPD2     C 6898   3.469   2.699  10.885 -1.6334  1.2974 -0.0690
  460MPD2    C1 6899   3.601   2.697  10.846 -0.0147 -0.8228 -0.3385
  460MPD2    C2 6900   3.638   2.776  10.741  0.5006  0.3917 -0.1833
  460MPD2    C3 6901   3.547   2.858  10.683 -0.3191 -0.1648  0.4238
  460MPD2    C4 6902   3.413   2.864  10.729  0.0925 -0.3655 -0.0877
  460MPD2    C5 6903   3.376   2.781  10.829 -0.7353 -0.4036 -0.0819
  460MPD2     H 6904   3.743   2.775  10.714  0.7097  0.1873  0.6542
  460MPD2    H1 6905   3.329   2.916  10.684  0.3814 -0.5995 -0.9097
  460MPD2    H2 6906   3.438   2.642  10.972 -1.8782  0.6538 -0.5779
  460MPD2    H3 6907   3.272   2.785  10.861 -0.6358  3.3670 -0.2261
  460MPD2     N 6908   3.587   2.933  10.570  0.1921 -0.1450  0.4700
  460MPD2    H5 6909   3.679   2.928  10.528  0.7312  1.2621  1.4568
  460MPD2    N1 6910   3.677   2.611  10.923  0.4245 -0.0133  0.2415
  460MPD2    H7 6911   3.624   2.563  10.995  1.7591 -2.5877 -0.4649
  461TMC3    C1 6912   3.561   3.099  10.393  0.7243 -0.6405 -0.0051
  461TMC3    C2 6913   3.668   3.043  10.331  0.3325  0.1183  0.2804
  461TMC3    C3 6914   3.681   3.076  10.197  0.0989 -1.0120  0.1591
  461TMC3    C4 6915   3.473   3.182  10.332 -1.0834  0.0814  0.5023
  461TMC3    C5 6916   3.491   3.205  10.198  0.4624  0.1326 -0.5782
  461TMC3    C6 6917   3.586   3.144  10.125 -0.0230  0.1436  0.3540
  461TMC3     C 6918   3.510   3.030  10.515 -0.7649  0.6687 -0.6246
  461TMC3     O 6919   3.397   3.069  10.541  0.0133  0.6783 -0.0012
  461TMC3     H 6920   3.742   2.977  10.375  0.0234 -0.0514  0.5502
  461TMC3    H1 6921   3.393   3.228  10.389 -1.5973 -0.0865 -0.0900
  461TMC3    H2 6922   3.591   3.166  10.019 -0.3596 -0.9463  0.1147
  461TMC3    C7 6923   3.384   3.279  10.128 -0.1404 -0.4000 -0.5987
  461TMC3    C8 6924   3.797   3.015  10.129 -0.0435 -0.5702 -0.4232
  461TMC3    O1 6925   3.360   3.243  10.015  0.2938 -0.3170 -0.2487
  461TMC3    O2 6926   3.895   2.993  10.202  0.5617 -0.2454  0.0648
  462TMC3    C1 6927   4.194   3.753   0.191  0.2086 -0.5921  0.2863
  462TMC3    C2 6928   4.290   3.666   0.139  0.2453 -0.1321  0.2267
  462TMC3    C3 6929   4.350   3.582   0.229  0.5686 -0.2455 -0.2081
  462TMC3    C4 6930   4.146   3.732   0.319  0.0262 -0.3672 -0.2331
  462TMC3    C5 6931   4.205   3.632   0.390  0.1108  0.0548 -0.7101
  462TMC3    C6 6932   4.319   3.566   0.358  0.0565  0.1011 -0.1985
  462TMC3     C 6933   4.121   3.854   0.118 -0.1647  0.1040  0.7827
  462TMC3     O 6934   4.008   3.876   0.152 -0.4165  0.2053  0.0663
  462TMC3     H 6935   4.338   3.685   0.044  0.5494  1.5479  0.7150
  462TMC3    H1 6936   4.066   3.797   0.352  0.8918 -0.0277  1.2108
  462TMC3    H2 6937   4.346   3.472   0.406  0.6138  1.2607  1.7549
  462TMC3    C7 6938   4.111   3.571   0.481  1.0201  0.2729  0.0498
  462TMC3    C8 6939   4.468   3.506   0.181  0.6152 -0.0651  0.1573
  462TMC3    O1 6940   3.995   3.610   0.462 -0.1682  0.3418 -0.4542
  462TMC3    O2 6941   4.543   3.463   0.269 -0.4461  0.8577 -0.4631
  463MPD2     C 6942   4.421   2.501   0.643 -0.0810  0.9162  0.3620
  463MPD2    C1 6943   4.406   2.527   0.775 -0.0328 -0.6256 -0.2250
  463MPD2    C2 6944   4.516   2.525   0.859  0.3708 -0.1205  0.3842
  463MPD2    C3 6945   4.643   2.505   0.814  0.7445  0.1215  0.0328
  463MPD2    C4 6946   4.659   2.482   0.678  0.2849  0.1715 -0.3148
  463MPD2    C5 6947   4.551   2.487   0.590 -0.1659  0.3216 -0.4924
  463MPD2     H 6948   4.505   2.556   0.963 -2.4048  1.2757 -0.3256
  463MPD2    H1 6949   0.024   2.471   0.637  0.5643 -1.5072  0.8290
  463MPD2    H2 6950   4.337   2.501   0.574  0.6349 -1.4045 -0.5157
  463MPD2    H3 6951   4.559   2.468   0.484 -0.0808  1.3141 -0.6669
  463MPD2     N 6952   0.026   2.491   0.888  0.0728 -0.3212 -0.5134
  463MPD2    H5 6953   0.106   2.454   0.840  1.2118  0.6744  0.5938
  463MPD2    N1 6954   4.283   2.545   0.840 -0.3682  0.8167 -0.7683
  463MPD2    H7 6955   4.279   2.589   0.931  1.9478 -0.4512 -0.0481
  464TMC3    C1 6956   4.041   2.562   0.863  0.5785 -0.1377 -0.2959
  464TMC3    C2 6957   3.924   2.570   0.801 -0.2473 -1.1862  0.4573
  464TMC3    C3 6958   3.815   2.548   0.875  0.1521  0.6540  0.0163
  464TMC3    C4 6959   4.052   2.525   0.996 -0.6471 -0.1582  0.0926
  464TMC3    C5 6960   3.938   2.503   1.067  0.3387  0.6525  0.3651
  464TMC3    C6 6961   3.816   2.515   1.006 -0.0727  0.5063  0.4527
  464TMC3     C 6962   4.162   2.558   0.779  0.0508  0.5381  0.7835
  464TMC3     O 6963   4.143   2.568   0.659 -0.7367  0.3202  0.2019
  464TMC3     H 6964   3.910   2.607   0.700  1.7876  1.8551  1.2742
  464TMC3    H1 6965   4.145   2.503   1.047  0.8653  2.6373 -1.4425
  464TMC3    H2 6966   3.718   2.489   1.045  0.3062  2.5252  2.7597
  464TMC3    C7 6967   3.948   2.416   1.180 -0.0355  0.6698 -0.5632
  464TMC3    C8 6968   3.689   2.587   0.819 -0.9882 -0.0574  0.4827
  464TMC3    O1 6969   4.034   2.437   1.264  0.4083  0.1625 -0.3773
  464TMC3    O2 6970   3.687   2.594   0.693 -0.1995  0.4946 -0.0074
  465MPD2     C 6971   1.466   1.033  16.430 -0.0802 -0.0401  0.4288
  465MPD2    C1 6972   1.394   0.969  16.535 -0.0333  0.4477  0.3906
  465MPD2    C2 6973   1.254   0.972  16.529  0.2689 -0.6123 -0.1854
  465MPD2    C3 6974   1.184   1.032  16.428  0.5008 -0.1826  0.1284
  465MPD2    C4 6975   1.261   1.094  16.333  0.1184 -0.2792 -0.4144
  465MPD2    C5 6976   1.396   1.093  16.330 -0.3020  0.1621 -0.4092
  465MPD2     H 6977   1.199   0.918  16.605 -2.1146 -1.5089 -2.5463
  465MPD2    H1 6978   1.216   1.151  16.253 -1.3938 -0.7884  0.0500
  465MPD2    H2 6979   1.574   1.028  16.423  0.0124  0.8599  1.2575
  465MPD2    H3 6980   1.448   1.144  16.249  0.1617 -0.4954 -0.5271
  465MPD2     N 6981   1.043   1.025  16.426  0.3497  0.1313 -0.3339
  465MPD2    H5 6982   1.004   0.968  16.500 -0.3356  2.1292  0.8568
  465MPD2    N1 6983   1.454   0.899  16.637  0.0236  0.0510  0.0658
  465MPD2    H7 6984   1.388   0.864  16.706  1.3597 -2.7454 -0.0927
  466TMC3    C1 6985   0.662   0.874  16.395 -0.0426  0.2605  0.1159
  466TMC3    C2 6986   0.583   0.913  16.289 -0.9750 -0.3824 -0.4964
  466TMC3    C3 6987   0.623   1.017  16.213  0.1522 -0.8977 -0.3969
  466TMC3    C4 6988   0.779   0.941  16.425  0.1646 -0.4147  0.4455
  466TMC3    C5 6989   0.823   1.035  16.336  0.2764  0.6413  0.3917
  466TMC3    C6 6990   0.744   1.075  16.233  0.2125 -0.3526  0.0251
  466TMC3     C 6991   0.597   0.799  16.511  0.5700  0.5691  0.0515
  466TMC3     O 6992   0.641   0.815  16.624 -0.1042 -0.2109 -0.0747
  466TMC3     H 6993   0.482   0.876  16.275 -1.8302  1.6394  0.3324
  466TMC3    H1 6994   0.840   0.910  16.509  0.1616 -1.3250  0.1179
  466TMC3    H2 6995   0.770   1.157  16.166  3.1656 -0.8368  0.5830
  466TMC3    C7 6996   0.956   1.078  16.330  0.0552 -0.8247 -0.0998
  466TMC3    C8 6997   0.518   1.102  16.171 -0.0749 -0.1070  0.3309
  466TMC3    O1 6998   0.980   1.143  16.229  0.0352  0.6904 -0.2744
  466TMC3    O2 6999   0.418   1.052  16.121 -0.3473  0.5878 -0.3234
  467TMC3    C1 7000   1.520   4.114  14.112 -0.2903 -0.5444  0.2311
  467TMC3    C2 7001   1.539   4.133  13.974 -0.0579 -0.3176 -0.0286
  467TMC3    C3 7002   1.428   4.148  13.903  0.4533  0.3485  0.7700
  467TMC3    C4 7003   1.401   4.120  14.174 -0.3674 -0.3074  1.1557
  467TMC3    C5 7004   1.296   4.140  14.093 -0.3913 -0.2499 -0.6860
  467TMC3    C6 7005   1.305   4.148  13.956  0.8132  0.4412 -0.1509
  467TMC3     C 7006   1.634   4.123  14.203  0.8263  0.4050  0.1606
  467TMC3     O 7007   1.607   4.090  14.317  0.0065  0.0284 -0.3580
  467TMC3     H 7008   1.632   4.124  13.920  0.2240 -2.9114  0.8940
  467TMC3    H1 7009   1.389   4.123  14.281 -0.0029  1.4424  1.1360
  467TMC3    H2 7010   1.225   4.161  13.883  0.4201  0.8936  0.3563
  467TMC3    C7 7011   1.152   4.124  14.134  0.0304 -0.1622 -0.0688
  467TMC3    C8 7012   1.434   4.143  13.755 -0.1427 -0.3318 -0.0655
  467TMC3    O1 7013   1.071   4.098  14.044 -0.2581 -0.0417 -0.4577
  467TMC3    O2 7014   1.363   4.226  13.701 -0.4510  0.0437  0.2879
  468MPD2     C 7015   1.108   2.603  10.457  0.4485  0.0538  0.1367
  468MPD2    C1 7016   1.056   2.573  10.580 -0.3663  0.2997 -0.4732
  468MPD2    C2 7017   0.985   2.457  10.599  0.4591 -0.3719 -0.2898
  468MPD2    C3 7018   0.968   2.368  10.496 -0.2202 -0.1716 -0.0664
  468MPD2    C4 7019   1.007   2.404  10.367 -0.1194 -0.1775  0.3552
  468MPD2    C5 7020   1.079   2.519  10.353  0.7598 -0.8462  0.2429
  468MPD2     H 7021   0.959   2.426  10.700  2.4468  0.8826  0.6102
  468MPD2    H1 7022   0.967   2.348  10.283 -2.0028  0.0934  1.0625
  468MPD2    H2 7023   1.172   2.687  10.437 -2.0644  2.2409  1.3038
  468MPD2    H3 7024   1.110   2.546  10.253  3.7515  0.3475  1.4995
  468MPD2     N 7025   0.916   2.238  10.515  0.5158  0.6163  0.5203
  468MPD2    H5 7026   0.909   2.182  10.431  0.1927 -0.8287  1.5119
  468MPD2    N1 7027   1.077   2.653  10.696 -0.1198  0.3918 -0.2250
  468MPD2    H7 7028   1.015   2.642  10.775  0.5374 -0.6281  0.1565
  469TMC3    C1 7029   1.186   2.796  10.828 -0.4705 -0.4185  0.3595
  469TMC3    C2 7030   1.295   2.797  10.907  0.1005 -1.0496 -0.1712
  469TMC3    C3 7031   1.284   2.872  11.017  0.2695  0.3359  0.4195
  469TMC3    C4 7032   1.068   2.852  10.858 -0.1294  0.9218  0.5371
  469TMC3    C5 7033   1.062   2.924  10.974  0.3898  0.0560  0.3357
  469TMC3    C6 7034   1.172   2.942  11.059 -0.0843  0.2406 -0.7903
  469TMC3     C 7035   1.198   2.716  10.711  0.6258  0.3639 -0.3190
  469TMC3     O 7036   1.305   2.679  10.668  0.1159  0.1015 -0.0789
  469TMC3     H 7037   1.388   2.745  10.887 -1.0301 -1.7108 -3.6088
  469TMC3    H1 7038   0.978   2.844  10.798  1.5181 -0.3044 -1.7702
  469TMC3    H2 7039   1.184   3.013  11.139 -1.8571 -0.3345 -0.0157
  469TMC3    C7 7040   0.943   3.007  10.989 -0.1024 -0.0536  0.9651
  469TMC3    C8 7041   1.409   2.885  11.088 -0.2202  0.5579  0.0385
  469TMC3    O1 7042   0.874   3.028  10.891 -0.1643 -0.4025 -0.2389
  469TMC3    O2 7043   1.514   2.864  11.030 -0.1326  0.1202  0.2872
  470TMC3    C1 7044   3.065   3.703   0.455  0.0944  0.1439 -0.3828
  470TMC3    C2 7045   3.008   3.810   0.511 -0.4510  0.0927 -0.3915
  470TMC3    C3 7046   3.066   3.859   0.629  0.2432  0.5608  0.6187
  470TMC3    C4 7047   3.170   3.642   0.516 -0.5049  0.4539  0.5899
  470TMC3    C5 7048   3.221   3.691   0.635  0.1364 -0.7094 -0.7988
  470TMC3    C6 7049   3.167   3.797   0.698 -0.2776 -0.1835 -0.1608
  470TMC3     C 7050   3.038   3.684   0.319  0.5430  0.4492  0.2825
  470TMC3     O 7051   2.943   3.746   0.272  0.2366  0.4122  0.0888
  470TMC3     H 7052   2.922   3.855   0.463 -1.1549 -0.6875  0.1477
  470TMC3    H1 7053   3.208   3.542   0.496  0.6243  0.7990  0.9659
  470TMC3    H2 7054   3.215   3.839   0.786  0.3779 -0.6254 -0.3117
  470TMC3    C7 7055   3.322   3.624   0.709 -0.9621  0.0597  0.0035
  470TMC3    C8 7056   3.022   3.987   0.682 -0.0973  0.2948  0.6771
  470TMC3    O1 7057   3.405   3.559   0.641 -0.2148  0.2561  0.1727
  470TMC3    O2 7058   3.038   4.010   0.799 -0.1213  0.1842  0.4648
  471MPD2     C 7059   3.292   0.269  16.935  0.1122 -0.7992 -0.5161
  471MPD2    C1 7060   3.370   0.169  16.893 -0.4069 -0.8521 -0.6021
  471MPD2    C2 7061   3.478   0.135  16.975 -0.0580 -0.0250  1.0567
  471MPD2    C3 7062   3.509   0.198  17.094 -0.0552 -0.5444  0.0382
  471MPD2    C4 7063   3.425   0.303  17.121 -0.4211  0.3021  0.0656
  471MPD2    C5 7064   3.325   0.344  17.043 -0.9521 -0.1421  0.7011
  471MPD2     H 7065   3.525   0.043  16.943  1.1041  1.0100 -0.1909
  471MPD2    H1 7066   3.446   0.353  17.216 -1.6342  1.3129 -0.1960
  471MPD2    H2 7067   3.206   0.302  16.877 -0.5346 -1.0011  0.3429
  471MPD2    H3 7068   3.271   0.429  17.082  2.1100  1.3950  1.6343
  471MPD2     N 7069   3.608   0.159  17.179  0.4771 -0.7319 -0.0644
  471MPD2    H5 7070   3.599   0.199  17.271  0.8714  2.3020 -1.3545
  471MPD2    N1 7071   3.355   0.092  16.781  0.3516 -0.5061  0.0956
  471MPD2    H7 7072   3.421   0.016  16.762  0.7140 -0.0575 -0.4427
  472TMC3    C1 7073   3.271   0.002  16.587  0.1899 -0.0927  0.4275
  472TMC3    C2 7074   3.252   0.036  16.453  0.1643  0.5041  0.6282
  472TMC3    C3 7075   3.236   4.671  16.366 -0.1939  0.5387  0.8874
  472TMC3    C4 7076   3.299   4.605  16.633 -0.3750 -0.2037 -1.1219
  472TMC3    C5 7077   3.261   4.502  16.541 -0.4880 -0.0333  0.2589
  472TMC3    C6 7078   3.229   4.543  16.411 -0.1460 -0.1672 -0.5297
  472TMC3     C 7079   3.257   0.107  16.686 -0.1617  0.0453  0.3243
  472TMC3     O 7080   3.185   0.202  16.664  0.3880 -0.1167 -0.1657
  472TMC3     H 7081   3.239   0.140  16.428 -0.0117  0.4035  0.2944
  472TMC3    H1 7082   3.321   4.587  16.737 -0.5961 -1.0929 -1.2286
  472TMC3    H2 7083   3.196   4.472  16.336  0.5784  0.6467 -1.6204
  472TMC3    C7 7084   3.210   4.384  16.605  0.2805 -0.1881  0.4202
  472TMC3    C8 7085   3.150   4.709  16.255  0.1769  0.9584 -0.1871
  472TMC3    O1 7086   3.222   4.376  16.727  0.3783  0.0857 -0.1225
  472TMC3    O2 7087   3.194   0.030  16.161 -0.2765  0.0958 -0.3923
  473MPD2     C 7088   3.544   1.823  13.927  0.6491 -0.7244 -0.0275
  473MPD2    C1 7089   3.459   1.934  13.899  0.7398 -0.6150 -0.1276
  473MPD2    C2 7090   3.444   2.039  13.990 -0.1733  0.0627 -0.3395
  473MPD2    C3 7091   3.518   2.031  14.106 -0.6062  0.3147 -0.6015
  473MPD2    C4 7092   3.601   1.921  14.130  0.7842  0.7347  0.0360
  473MPD2    C5 7093   3.610   1.816  14.044 -0.6895 -0.1051  0.0392
  473MPD2     H 7094   3.367   2.114  13.977  0.6511  1.0380  0.3364
  473MPD2    H1 7095   3.674   1.916  14.209 -0.4098  1.3131  1.1779
  473MPD2    H2 7096   3.566   1.738  13.864 -0.8133 -1.3114  0.2562
  473MPD2    H3 7097   3.655   1.721  14.068 -0.8697 -0.4126 -0.8406
  473MPD2     N 7098   3.515   2.127  14.211  0.6232 -0.0362  0.0946
  473MPD2    H5 7099   3.565   2.090  14.291 -0.6570 -0.3862  0.7453
  473MPD2    N1 7100   3.392   1.955  13.772 -0.1392 -0.2757 -0.3612
  473MPD2    H7 7101   3.335   2.039  13.772  0.3583  0.0655 -0.7734
  474TMC3    C1 7102   3.454   2.325  14.341 -0.4228  0.7613 -0.1082
  474TMC3    C2 7103   3.353   2.415  14.356 -0.0207  0.8952  0.3194
  474TMC3    C3 7104   3.372   2.524  14.438 -0.1962  0.3907 -0.2536
  474TMC3    C4 7105   3.573   2.349  14.409  0.3132 -0.5497  0.4777
  474TMC3    C5 7106   3.588   2.459  14.488 -0.6980 -0.1523  0.3814
  474TMC3    C6 7107   3.484   2.549  14.507  0.2455  0.4163 -0.4030
  474TMC3     C 7108   3.457   2.253  14.215 -0.6234 -0.2061 -0.1790
  474TMC3     O 7109   3.385   2.306  14.131  0.0340  0.5352 -0.1719
  474TMC3     H 7110   3.261   2.410  14.300 -0.0313 -0.7014  0.4751
  474TMC3    H1 7111   3.651   2.274  14.409  0.7470 -0.1068 -0.9146
  474TMC3    H2 7112   3.493   2.636  14.572  0.1242 -0.2755  0.5493
  474TMC3    C7 7113   3.718   2.464  14.550 -0.3076  0.4456  0.1040
  474TMC3    C8 7114   3.298   2.646  14.404 -0.6277 -0.5022 -0.2711
  474TMC3    O1 7115   3.815   2.416  14.493 -0.3360  0.0787 -0.1101
  474TMC3    O2 7116   3.182   2.613  14.378  0.1520 -0.2543 -0.2610
  475MPD2     C 7117   1.265   0.441  10.681 -0.2476 -0.1266 -0.6073
  475MPD2    C1 7118   1.354   0.508  10.604 -0.1987  0.4574 -0.1937
  475MPD2    C2 7119   1.326   0.537  10.467  0.8176 -0.2594 -0.3308
  475MPD2    C3 7120   1.207   0.497  10.410 -0.9313 -0.0600 -0.5444
  475MPD2    C4 7121   1.122   0.418  10.484 -0.2732 -0.6408  0.6737
  475MPD2    C5 7122   1.156   0.383  10.615 -0.1077  0.2896  0.4262
  475MPD2     H 7123   1.397   0.593  10.408  0.0858 -0.9170 -1.8254
  475MPD2    H1 7124   1.037   0.367  10.441 -1.1731 -0.4474  2.2303
  475MPD2    H2 7125   1.289   0.410  10.782 -1.0204 -0.4678 -0.5276
  475MPD2    H3 7126   1.087   0.320  10.671 -0.2328 -0.2897 -0.3729
  475MPD2     N 7127   1.178   0.541  10.276 -0.1031  0.1263 -0.4369
  475MPD2    H5 7128   1.255   0.593  10.236 -0.5711  0.2466 -1.1886
  475MPD2    N1 7129   1.478   0.541  10.660 -0.6758 -0.3722 -0.2816
  475MPD2    H7 7130   1.495   0.508  10.755  1.0341 -0.6620 -0.6895
  476TMC3    C1 7131   1.683   0.642  10.689 -0.2641 -0.4661 -0.1620
  476TMC3    C2 7132   1.810   0.670  10.639 -0.4382  0.6669  0.5072
  476TMC3    C3 7133   1.889   0.732  10.729 -0.2733 -0.5153  0.4636
  476TMC3    C4 7134   1.645   0.661  10.817 -0.1197  1.2015  0.3255
  476TMC3    C5 7135   1.730   0.731  10.894  0.4073  0.5087 -0.1080
  476TMC3    C6 7136   1.853   0.772  10.854  0.0150  1.1834  0.2510
  476TMC3     C 7137   1.584   0.606  10.597 -0.1696  0.0194  0.4200
  476TMC3     O 7138   1.601   0.635  10.478 -0.5944 -0.4240  0.8939
  476TMC3     H 7139   1.815   0.685  10.532 -3.7124  0.8883  0.3720
  476TMC3    H1 7140   1.541   0.648  10.845 -0.0049 -0.9970 -0.2913
  476TMC3    H2 7141   1.921   0.825  10.920  0.5848  0.8796 -0.0872
  476TMC3    C7 7142   1.667   0.796  11.007 -0.6592  0.5512 -0.6001
  476TMC3    C8 7143   2.031   0.718  10.701  0.1692 -0.0662 -0.0930
  476TMC3    O1 7144   1.567   0.741  11.051 -0.3087 -0.0402 -0.3591
  476TMC3    O2 7145   2.105   0.802  10.745  0.0005 -0.5698 -0.3382
  477MPD2     C 7146   4.728   2.037  11.830 -0.7618  0.4030 -0.1656
  477MPD2    C1 7147   4.645   1.939  11.782 -0.3786  0.4165  0.2959
  477MPD2    C2 7148   4.631   1.825  11.853 -0.5014 -0.3119  0.2108
  477MPD2    C3 7149   4.705   1.796  11.967 -0.1424  0.3255 -0.3107
  477MPD2    C4 7150   0.057   1.898  12.001  0.1555  0.1589 -0.0572
  477MPD2    C5 7151   0.064   2.011  11.940 -0.6175  0.2931  0.2783
  477MPD2     H 7152   4.562   1.750  11.816  1.1618 -0.6483 -2.1896
  477MPD2    H1 7153   0.130   1.881  12.079  1.7788  0.6725 -1.4563
  477MPD2    H2 7154   0.004   2.135  11.784  1.0892  0.3221  0.1202
  477MPD2    H3 7155   0.135   2.086  11.973 -0.9741  0.7793 -0.0449
  477MPD2     N 7156   4.689   1.682  12.036 -0.3433  0.3454  0.6124
  477MPD2    H5 7157   4.628   1.608  12.001 -2.1611  1.9794  0.2999
  477MPD2    N1 7158   4.574   1.967  11.662  0.4677 -0.0244 -0.0118
  477MPD2    H7 7159   4.591   2.058  11.621  0.6080 -0.0479 -0.0059
  478TMC3    C1 7160   4.437   1.949  11.479 -0.0531 -0.2184 -0.6869
  478TMC3    C2 7161   4.384   2.075  11.496 -0.0304 -0.1007  0.4203
  478TMC3    C3 7162   4.271   2.114  11.434  0.4150 -0.5684 -0.1575
  478TMC3    C4 7163   4.372   1.861  11.403  0.6858  0.5108  0.2154
  478TMC3    C5 7164   4.256   1.909  11.341 -0.4680 -0.4552  0.2051
  478TMC3    C6 7165   4.200   2.026  11.357  0.5792  0.9025  0.0686
  478TMC3     C 7166   4.502   1.883  11.587  0.7164  0.1841 -0.0995
  478TMC3     O 7167   4.482   1.762  11.608 -0.2340 -0.0902  0.3322
  478TMC3     H 7168   4.425   2.150  11.562 -1.5762  0.3870  0.8336
  478TMC3    H1 7169   4.405   1.760  11.384  0.6649  0.7146 -0.9191
  478TMC3    H2 7170   4.108   2.049  11.306  0.6088  1.8247  0.4337
  478TMC3    C7 7171   4.202   1.808  11.258  0.5626 -0.0387  0.0072
  478TMC3    C8 7172   4.217   2.246  11.439  0.0975  0.2759 -0.1259
  478TMC3    O1 7173   4.211   1.691  11.296 -0.0763  0.0858  0.0812
  478TMC3    O2 7174   4.290   2.343  11.453 -0.7972  0.0091 -0.0370
  479MPD2     C 7175   3.262   4.378  15.610  0.1947  0.5869 -0.0306
  479MPD2    C1 7176   3.153   4.316  15.665 -0.4223  0.3111  0.3744
  479MPD2    C2 7177   3.136   4.296  15.801 -0.3187  0.4903 -0.4830
  479MPD2    C3 7178   3.229   4.346  15.886 -0.4938  0.0868  0.0427
  479MPD2    C4 7179   3.333   4.425  15.835 -0.4451 -0.3813 -0.1723
  479MPD2    C5 7180   3.350   4.437  15.701 -0.1911  0.0267  0.7621
  479MPD2     H 7181   3.048   4.244  15.837  1.8259 -2.9014 -0.1392
  479MPD2    H1 7182   3.406   4.471  15.901 -1.7932  0.6800  0.5759
  479MPD2    H2 7183   3.274   4.388  15.503 -0.4258 -2.1702 -0.3555
  479MPD2    H3 7184   3.429   4.494  15.655 -0.1239  0.5022  1.4621
  479MPD2     N 7185   3.214   4.356  16.022  0.7130 -0.2405 -0.1116
  479MPD2    H5 7186   3.301   4.392  16.061 -3.0316  2.9524  5.3965
  479MPD2    N1 7187   3.056   4.268  15.568 -0.5919 -0.5901  0.5707
  479MPD2    H7 7188   3.089   4.277  15.473 -1.3718 -1.9423  0.1779
  480TMC3    C1 7189   2.832   4.088  16.092  0.1141  0.1662 -0.2993
  480TMC3    C2 7190   2.736   4.176  16.058  0.3839  0.3775 -0.1622
  480TMC3    C3 7191   2.774   4.302  16.020 -0.3538  0.3266 -0.3440
  480TMC3    C4 7192   2.966   4.114  16.096  0.2098 -0.1036  0.7208
  480TMC3    C5 7193   2.998   4.246  16.071 -0.1370 -0.3664  0.0666
  480TMC3    C6 7194   2.907   4.340  16.031 -0.4178  0.1483 -0.2240
  480TMC3     C 7195   2.793   3.971  16.162  0.0790 -0.0450 -0.8275
  480TMC3     O 7196   2.890   3.892  16.179  0.1923 -0.5478  0.3348
  480TMC3     H 7197   2.631   4.152  16.052  0.4457 -0.2230  0.9999
  480TMC3    H1 7198   3.039   4.042  16.133  3.1856  2.1772 -0.7220
  480TMC3    H2 7199   2.937   4.443  16.015  0.5352  0.0882  1.1295
  480TMC3    C7 7200   3.131   4.296  16.116  0.1644 -0.0404 -0.4497
  480TMC3    C8 7201   2.690   4.369  15.923  0.6376  0.1966  0.1169
  480TMC3    O1 7202   3.160   4.279  16.232  0.3120  0.0828 -0.0799
  480TMC3    O2 7203   2.569   4.363  15.947  0.0451  0.0720 -0.1862
  481MPD2     C 7204   0.093   3.613  14.600  0.0147  0.7395  0.2759
  481MPD2    C1 7205   4.693   3.598  14.610 -0.4784 -0.0353  0.0082
  481MPD2    C2 7206   4.629   3.620  14.727  0.2471  0.3678  0.1107
  481MPD2    C3 7207   4.699   3.642  14.844  0.2935 -0.2343 -0.1589
  481MPD2    C4 7208   0.104   3.632  14.837  0.2893  0.0034 -0.1688
  481MPD2    C5 7209   0.168   3.632  14.717  0.0731  0.2736 -0.5573
  481MPD2     H 7210   4.522   3.636  14.730  0.2370 -0.0010  1.4958
  481MPD2    H1 7211   0.159   3.664  14.924 -1.1560 -0.2103  0.8224
  481MPD2    H2 7212   0.144   3.608  14.504 -0.7946  0.8046 -0.1616
  481MPD2    H3 7213   0.274   3.651  14.713  0.0861  0.1928 -0.6128
  481MPD2     N 7214   4.635   3.674  14.965 -0.4587  0.2810  0.3088
  481MPD2    H5 7215   4.686   3.657  15.052 -0.5774 -1.8536 -0.0469
  481MPD2    N1 7216   4.624   3.586  14.489 -0.1472  0.1294  0.0833
  481MPD2    H7 7217   4.679   3.598  14.405 -2.8660  1.4513 -1.5098
  482TMC3    C1 7218   4.438   3.565  14.345 -0.5525  0.1801 -0.0693
  482TMC3    C2 7219   4.332   3.484  14.313 -0.0923  0.2467 -0.3497
  482TMC3    C3 7220   4.250   3.523  14.214  0.3459  0.3341 -0.0298
  482TMC3    C4 7221   4.472   3.674  14.274 -0.2817  0.0505  0.0498
  482TMC3    C5 7222   4.387   3.705  14.171 -0.1235 -0.2360 -1.1904
  482TMC3    C6 7223   4.280   3.623  14.141  0.4579 -0.4347 -0.5795
  482TMC3     C 7224   4.493   3.549  14.483 -0.9391 -0.5743 -0.1358
  482TMC3     O 7225   4.431   3.483  14.565  0.1114  0.2585 -0.2175
  482TMC3     H 7226   4.305   3.400  14.375  3.8045  0.1446  1.2347
  482TMC3    H1 7227   4.554   3.738  14.307  0.9218 -1.0299 -0.8386
  482TMC3    H2 7228   4.198   3.667  14.085  0.2899  0.0960  0.0790
  482TMC3    C7 7229   4.431   3.804  14.086 -0.8066  0.6317  0.6726
  482TMC3    C8 7230   4.153   3.425  14.176 -0.0887  0.3805 -0.1375
  482TMC3    O1 7231   4.514   3.880  14.133 -0.0743  0.0625  0.0687
  482TMC3    O2 7232   4.176   3.310  14.215 -0.0501  0.0458 -0.1923
  483TMC3    C1 7233   2.457   2.693   0.436 -0.1888  0.1533 -0.0223
  483TMC3    C2 7234   2.473   2.820   0.491  0.0226 -0.7878  0.0933
  483TMC3    C3 7235   2.534   2.832   0.614 -0.8229  0.5865  0.3717
  483TMC3    C4 7236   2.486   2.581   0.506 -0.0893  0.4162  0.1029
  483TMC3    C5 7237   2.532   2.599   0.635  0.0512 -0.6201 -0.5912
  483TMC3    C6 7238   2.558   2.721   0.694 -0.1221  0.4288 -0.1125
  483TMC3     C 7239   2.368   2.689   0.319  0.2683 -0.2444  0.1740
  483TMC3     O 7240   2.338   2.798   0.273 -0.1760  0.3400  0.1343
  483TMC3     H 7241   2.448   2.910   0.436 -2.3160 -0.7172  1.2350
  483TMC3    H1 7242   2.489   2.481   0.465  0.5962 -0.0822  1.3996
  483TMC3    H2 7243   2.595   2.735   0.795  1.2578 -1.0281 -0.4140
  483TMC3    C7 7244   2.583   2.488   0.700 -0.4117 -0.4990  0.8342
  483TMC3    C8 7245   2.620   2.946   0.643  0.4790 -1.3682 -0.7109
  483TMC3    O1 7246   2.647   2.411   0.626 -0.2104 -0.3252  0.4344
  483TMC3    O2 7247   2.668   3.007   0.549  0.1791 -0.0050 -0.3073
  484MPD2     C 7248   4.556   0.560  12.715  0.7537  0.6256 -0.3945
  484MPD2    C1 7249   4.632   0.496  12.804 -0.0149 -0.3893 -0.5618
  484MPD2    C2 7250   0.038   0.490  12.788 -0.3718 -0.8879 -0.1476
  484MPD2    C3 7251   0.094   0.533  12.669 -0.1027  0.9307 -0.5795
  484MPD2    C4 7252   0.010   0.585  12.576 -0.7982  0.0390 -0.0998
  484MPD2    C5 7253   4.612   0.603  12.600 -0.3805  0.7330 -1.7051
  484MPD2     H 7254   0.087   0.445  12.874 -2.7085 -0.1486  1.5921
  484MPD2    H1 7255   0.052   0.605  12.478  1.1198  1.9593  1.0996
  484MPD2    H2 7256   4.449   0.566  12.728  0.8336  1.0536  0.0791
  484MPD2    H3 7257   4.550   0.642  12.521 -0.6389  2.9174 -0.4475
  484MPD2     N 7258   0.230   0.524  12.631  0.4579  0.5480 -0.4872
  484MPD2    H5 7259   0.250   0.566  12.542  0.8116  1.1881 -0.1033
  484MPD2    N1 7260   4.562   0.449  12.919 -0.4114 -0.3821 -0.0780
  484MPD2    H7 7261   4.461   0.457  12.927 -0.4091 -0.1005 -0.3255
  485TMC3    C1 7262   0.458   0.469  12.616 -0.5130 -0.4012 -0.0367
  485TMC3    C2 7263   0.579   0.482  12.687  0.2831  0.3010  0.0394
  485TMC3    C3 7264   0.690   0.536  12.633  0.1585 -0.0671 -0.5531
  485TMC3    C4 7265   0.454   0.498  12.487  0.4258 -0.2277  0.3540
  485TMC3    C5 7266   0.565   0.545  12.429 -0.0818  0.1236 -1.0936
  485TMC3    C6 7267   0.676   0.564  12.496  0.1392  0.0143  0.0480
  485TMC3     C 7268   0.337   0.458  12.694 -0.1412  0.6056  0.5857
  485TMC3     O 7269   0.337   0.395  12.795  0.1445  0.3543 -0.1372
  485TMC3     H 7270   0.572   0.454  12.791  0.2748 -0.3705 -0.1414
  485TMC3    H1 7271   0.365   0.482  12.427  1.2667  1.8129 -1.4859
  485TMC3    H2 7272   0.765   0.589  12.440  2.4723 -3.7035  2.1615
  485TMC3    C7 7273   0.604   0.471  12.307 -0.5401 -0.5191  0.7375
  485TMC3    C8 7274   0.821   0.477  12.660  0.0361  0.1111  0.2713
  485TMC3    O1 7275   0.679   0.525  12.228 -0.6110 -0.0096 -0.5822
  485TMC3    O2 7276   0.928   0.534  12.636 -0.2715  0.2317 -0.0046
  486MPD2     C 7277   3.003   3.872  13.049 -0.4766  0.4569 -0.5490
  486MPD2    C1 7278   2.876   3.854  13.007  0.9071  0.0153  0.0007
  486MPD2    C2 7279   2.802   3.956  12.962  0.4290  0.5084 -0.1697
  486MPD2    C3 7280   2.854   4.087  12.958  0.4000 -0.7830  0.4727
  486MPD2    C4 7281   2.989   4.100  12.991 -0.0411 -0.9483  0.8098
  486MPD2    C5 7282   3.059   3.998  13.035 -0.0125  0.4406  0.5065
  486MPD2     H 7283   2.697   3.936  12.942  0.5373 -1.6826  1.5590
  486MPD2    H1 7284   3.031   4.200  12.981  0.9345 -1.2141  2.2810
  486MPD2    H2 7285   3.067   3.791  13.084  0.8345  1.2558 -1.0847
  486MPD2    H3 7286   3.165   4.012  13.055  0.0223 -0.4385  0.9185
  486MPD2     N 7287   2.764   4.193  12.923 -0.3178  0.0513 -0.1715
  486MPD2    H5 7288   2.668   4.162  12.911 -0.8864  1.6897  0.1582
  486MPD2    N1 7289   2.825   3.724  13.015  0.7277  0.2208 -0.4109
  486MPD2    H7 7290   2.893   3.659  13.052  0.1991 -0.8691 -1.3465
  487TMC3    C1 7291   2.669   3.545  13.035 -0.3726 -0.1778 -0.3691
  487TMC3    C2 7292   2.564   3.481  12.979  0.0090 -0.0005  0.0408
  487TMC3    C3 7293   2.518   3.369  13.043 -0.0106  0.1629  0.1759
  487TMC3    C4 7294   2.703   3.514  13.163 -0.1030 -0.7999 -0.2519
  487TMC3    C5 7295   2.629   3.426  13.234  0.0536 -0.1631 -0.0286
  487TMC3    C6 7296   2.535   3.355  13.175 -1.1500 -0.1917 -0.3690
  487TMC3     C 7297   2.698   3.682  12.988  0.8512 -0.3405  0.1951
  487TMC3     O 7298   2.610   3.731  12.916 -0.8488  0.6658 -0.2708
  487TMC3     H 7299   2.538   3.497  12.876  0.8119 -0.1955 -0.1905
  487TMC3    H1 7300   2.767   3.586  13.214 -0.6365 -0.7566  0.3659
  487TMC3    H2 7301   2.488   3.267  13.215  1.0022 -0.7091  1.0391
  487TMC3    C7 7302   2.630   3.446  13.377  0.0894 -0.1288  0.5085
  487TMC3    C8 7303   2.380   3.336  12.994 -0.5987  0.4175  0.1270
  487TMC3    O1 7304   2.710   3.518  13.438 -0.1050  0.2193  0.4781
  487TMC3    O2 7305   2.314   3.426  12.940  0.4808  0.0447  0.0725
  488MPD2     C 7306   3.073   1.324  16.674  0.2800 -0.5503  0.4476
  488MPD2    C1 7307   3.021   1.451  16.660  0.1162  0.2011  0.4622
  488MPD2    C2 7308   2.988   1.519  16.775 -0.0856  0.5114 -0.4133
  488MPD2    C3 7309   3.005   1.462  16.897  0.8849  0.2774  0.0741
  488MPD2    C4 7310   3.053   1.328  16.906 -0.3381 -0.1740  0.1437
  488MPD2    C5 7311   3.085   1.262  16.795  0.2895 -0.4590  0.2928
  488MPD2     H 7312   2.954   1.622  16.775 -2.3394 -0.2147  1.6850
  488MPD2    H1 7313   3.072   1.277  17.000 -0.2809 -0.5909 -0.0970
  488MPD2    H2 7314   3.089   1.255  16.591 -0.5494  3.1550 -2.7863
  488MPD2    H3 7315   3.118   1.159  16.801 -0.0564 -0.4436  2.3550
  488MPD2     N 7316   2.973   1.544  17.013  0.2274 -0.2939 -0.6336
  488MPD2    H5 7317   2.928   1.634  17.002  0.9770  0.0511 -0.8542
  488MPD2    N1 7318   2.999   1.514  16.540 -0.4052  0.3598  0.5753
  488MPD2    H7 7319   2.955   1.606  16.542 -0.0707  0.4808  2.4394
  489TMC3    C1 7320   2.957   1.608  17.234 -0.0319  0.1504 -0.3093
  489TMC3    C2 7321   2.922   1.729  17.184 -0.0533 -0.1725  0.1443
  489TMC3    C3 7322   2.851   1.820  17.265 -0.2409  0.0223  0.2067
  489TMC3    C4 7323   2.926   1.571  17.357  0.0952 -0.6186 -0.0267
  489TMC3    C5 7324   2.855   1.662  17.441  0.1235 -0.2502  0.1099
  489TMC3    C6 7325   2.813   1.787  17.397  0.2786  0.4615  0.1482
  489TMC3     C 7326   3.007   1.513  17.141  0.1188  0.1837  0.1498
  489TMC3     O 7327   3.076   1.420  17.182 -0.2826  0.1268 -0.3378
  489TMC3     H 7328   2.962   1.773  17.094  2.1784  1.0505  1.7355
  489TMC3    H1 7329   2.949   1.475  17.401  1.9970  0.0169  0.3847
  489TMC3    H2 7330   2.755   1.852  17.462 -1.2570 -0.7075 -0.0609
  489TMC3    C7 7331   2.806   1.620  17.576 -0.5343  0.4171 -0.5345
  489TMC3    C8 7332   2.867   1.960  17.223 -0.6502 -0.0524 -0.6662
  489TMC3    O1 7333   2.749   1.700  17.649  0.1691  0.0892 -0.1715
  489TMC3    O2 7334   2.902   1.979  17.109  0.1204 -0.1509 -0.4175
  490MPD2     C 7335   3.033   0.579  17.430  0.2989  0.8410 -0.2371
  490MPD2    C1 7336   3.128   0.513  17.508  0.9059 -0.3597 -0.3917
  490MPD2    C2 7337   3.226   0.591  17.578 -0.5140 -0.4569 -0.0445
  490MPD2    C3 7338   3.217   0.735  17.562  0.1121  0.7048 -0.2044
  490MPD2    C4 7339   3.130   0.789  17.476 -0.2746 -0.6100 -0.7553
  490MPD2    C5 7340   3.043   0.709  17.410  0.5353  0.6568 -0.3212
  490MPD2     H 7341   3.301   0.543  17.641  1.5754 -0.3384 -2.4242
  490MPD2    H1 7342   3.140   0.895  17.455  0.7955 -0.6005 -0.1945
  490MPD2    H2 7343   2.961   0.530  17.365 -0.2054  2.1904 -0.6968
  490MPD2    H3 7344   2.972   0.748  17.338 -2.0304 -0.9202  1.3777
  490MPD2     N 7345   3.308   0.831  17.627 -0.0728  0.1566  0.4911
  490MPD2    H5 7346   3.287   0.926  17.600  2.6233  0.1542 -1.5401
  490MPD2    N1 7347   3.143   0.378  17.517 -0.4996  0.0955  0.5188
  490MPD2    H7 7348   3.223   0.343  17.569 -0.3647  0.1433  0.3450
  491TMC3    C1 7349   3.094   0.161  17.476 -0.0178 -0.4341 -0.2532
  491TMC3    C2 7350   3.122   0.117  17.604 -0.3269 -0.1019 -0.3032
  491TMC3    C3 7351   3.111   4.718  17.620 -0.2096 -0.6428  0.8954
  491TMC3    C4 7352   3.056   0.074  17.375  0.1358  0.7332  0.3833
  491TMC3    C5 7353   3.045   4.673  17.393  0.5201  0.6732 -0.0905
  491TMC3    C6 7354   3.072   4.629  17.519 -0.3642  0.1880  0.1430
  491TMC3     C 7355   3.063   0.290  17.450 -0.3788 -0.0300 -0.3392
  491TMC3     O 7356   2.973   0.304  17.370  0.2544 -0.0794 -0.9034
  491TMC3     H 7357   3.153   0.181  17.685  0.6735 -0.7139 -0.2059
  491TMC3    H1 7358   3.038   0.117  17.277  0.4019 -3.3134 -1.4494
  491TMC3    H2 7359   3.069   4.526  17.551 -0.7860 -0.8474 -3.2952
  491TMC3    C7 7360   2.945   4.601  17.323 -0.6623  0.3966 -0.7750
  491TMC3    C8 7361   3.112   4.677   0.018  0.3890  0.3790 -0.0445
  491TMC3    O1 7362   2.879   4.666  17.239  0.0549 -0.0836  0.8745
  491TMC3    O2 7363   3.089   0.021   0.106 -0.3492  0.7041  0.4493
  492MPD2     C 7364   3.999   0.485  11.672 -0.4231  0.1192  0.5270
  492MPD2    C1 7365   3.939   0.385  11.601  0.1023  0.2121 -0.1519
  492MPD2    C2 7366   3.871   0.288  11.672  0.5195 -0.5631  0.1968
  492MPD2    C3 7367   3.866   0.293  11.811 -0.3728 -0.1578  0.0734
  492MPD2    C4 7368   3.950   0.385  11.871  0.0687 -0.4149 -0.1883
  492MPD2    C5 7369   4.013   0.484  11.807  0.5868  0.2614  0.0124
  492MPD2     H 7370   3.808   0.214  11.624  0.3650 -1.6350  2.0781
  492MPD2    H1 7371   3.955   0.384  11.980  0.9441  0.4809 -0.2162
  492MPD2    H2 7372   4.059   0.557  11.617 -2.1247  1.4106  0.3904
  492MPD2    H3 7373   4.072   0.554  11.865 -2.4862  2.1932  0.7732
  492MPD2     N 7374   3.783   0.212  11.895 -0.2314  0.1345 -0.0908
  492MPD2    H5 7375   3.792   0.232  11.994 -0.0842  0.9466 -0.2683
  492MPD2    N1 7376   3.922   0.403  11.464 -0.5668 -0.5881  0.7045
  492MPD2    H7 7377   3.939   0.497  11.430  1.4843 -0.7149  1.3832
  493TMC3    C1 7378   3.850   0.385  11.247 -0.2232  0.9823  0.7428
  493TMC3    C2 7379   3.967   0.430  11.187 -0.0376  0.3672 -0.0220
  493TMC3    C3 7380   3.954   0.475  11.068  0.1720 -0.2256 -0.1742
  493TMC3    C4 7381   3.735   0.377  11.183 -0.3662 -0.0819 -0.2234
  493TMC3    C5 7382   3.725   0.433  11.064 -0.5992 -0.2424 -0.2126
  493TMC3    C6 7383   3.831   0.483  11.003  0.2539 -0.2488 -0.1221
  493TMC3     C 7384   3.854   0.324  11.377  0.1850  0.0702  0.3993
  493TMC3     O 7385   3.793   0.220  11.392  0.1243  0.1771  0.1506
  493TMC3     H 7386   4.065   0.420  11.233  1.5773  0.2141 -3.5251
  493TMC3    H1 7387   3.651   0.332  11.235 -0.2163  0.8233  0.8129
  493TMC3    H2 7388   3.815   0.538  10.911 -0.5234  0.7840  0.6309
  493TMC3    C7 7389   3.600   0.433  10.989  0.7096 -0.7976  0.0461
  493TMC3    C8 7390   4.076   0.528  11.001  0.0332  0.8252  0.2228
  493TMC3    O1 7391   3.606   0.460  10.868 -0.3057  0.1245 -0.0998
  493TMC3    O2 7392   4.183   0.512  11.058  1.0991 -0.2060 -0.2144
  494TMC3    C1 7393   3.963   2.448   0.152  0.0869 -0.4863  0.0115
  494TMC3    C2 7394   4.013   2.332   0.203  0.0736 -0.6417  0.2267
  494TMC3    C3 7395   4.151   2.315   0.208 -0.0624  0.2986  0.1139
  494TMC3    C4 7396   4.043   2.555   0.127  0.6334 -1.0321 -0.0856
  494TMC3    C5 7397   4.181   2.521   0.120  0.2393 -0.0534  0.0445
  494TMC3    C6 7398   4.237   2.409   0.160 -0.2320  0.0080 -0.7123
  494TMC3     C 7399   3.823   2.468   0.143  0.3629 -0.8893  0.1989
  494TMC3     O 7400   3.779   2.587   0.142  0.5437 -0.6562 -0.0288
  494TMC3     H 7401   3.951   2.247   0.231  0.1970 -0.7918  0.0468
  494TMC3    H1 7402   3.994   2.641   0.083  1.4987 -1.9152 -2.7452
  494TMC3    H2 7403   4.344   2.394   0.171 -0.8987 -3.7868  0.6380
  494TMC3    C7 7404   4.270   2.633   0.078  0.5731  1.0056  0.3209
  494TMC3    C8 7405   4.206   2.191   0.264  0.9683 -0.2783  0.2398
  494TMC3    O1 7406   4.232   2.749   0.091 -0.1352  0.5298  0.0150
  494TMC3    O2 7407   4.321   2.188   0.306  0.0052 -0.0805 -0.4545
  495TMC3    C1 7408   3.177   4.485  15.197  0.1738 -0.4129 -0.5401
  495TMC3    C2 7409   3.139   4.531  15.075 -0.6277 -0.0374  0.4100
  495TMC3    C3 7410   3.053   4.634  15.062 -0.1398  0.6568 -0.4518
  495TMC3    C4 7411   3.122   4.543  15.313 -0.3959  0.4857  0.1790
  495TMC3    C5 7412   3.025   4.644  15.291 -0.0874 -0.2587 -0.4292
  495TMC3    C6 7413   2.999   4.700  15.170  0.2040 -0.0859  0.3231
  495TMC3     C 7414   3.175   4.343  15.212  0.3891 -0.4775  1.3434
  495TMC3     O 7415   3.106   4.297  15.306 -0.6347  1.0782  0.4248
  495TMC3     H 7416   3.155   4.463  14.992  1.7293  0.4821  0.4458
  495TMC3    H1 7417   3.135   4.503  15.413  1.0777 -0.2786 -0.3179
  495TMC3    H2 7418   2.920   0.039  15.163  0.9911  0.8400  1.2901
  495TMC3    C7 7419   2.951   4.679  15.411  0.4411 -0.5136  0.2573
  495TMC3    C8 7420   3.015   4.679  14.933 -0.3346 -0.1389 -0.6852
  495TMC3    O1 7421   3.011   4.682  15.521 -0.5241 -0.4485 -0.0280
  495TMC3    O2 7422   2.995   0.061  14.920  0.4042 -0.7337  0.0633
  496MPD2     C 7423   0.451   4.615  15.568 -0.7735  0.0221  0.1599
  496MPD2    C1 7424   0.385   4.547  15.666  0.4820 -0.5234 -0.5222
  496MPD2    C2 7425   0.263   4.483  15.640  0.4619 -0.3540  0.1548
  496MPD2    C3 7426   0.211   4.499  15.511 -0.4004 -0.3224 -0.6335
  496MPD2    C4 7427   0.275   4.572  15.411  0.2007  0.4443 -1.5724
  496MPD2    C5 7428   0.393   4.627  15.447  0.3518  0.4249 -0.2418
  496MPD2     H 7429   0.208   4.425  15.714 -0.4743 -0.0189 -0.2753
  496MPD2    H1 7430   0.242   4.592  15.310 -1.0911  2.7508 -0.6918
  496MPD2    H2 7431   0.550   4.656  15.585 -0.3310 -1.5167  1.2470
  496MPD2    H3 7432   0.445   4.676  15.366  2.0800 -0.6744  0.2008
  496MPD2     N 7433   0.088   4.439  15.483 -0.2867 -0.3697  0.2955
  496MPD2    H5 7434   0.036   4.421  15.569 -1.4274  0.2796 -0.2557
  496MPD2    N1 7435   0.451   4.538  15.792  0.1705 -0.6945  0.2192
  496MPD2    H7 7436   0.535   4.594  15.806  0.0225 -0.0616 -1.3715
  497TMC3    C1 7437   4.634   4.349  15.377  0.0330  0.2708  0.0275
  497TMC3    C2 7438   4.587   4.262  15.289  0.2823  0.0916  0.3510
  497TMC3    C3 7439   4.460   4.209  15.303  0.5558 -0.1636  0.0660
  497TMC3    C4 7440   4.557   4.391  15.482 -0.7093 -0.1046  0.0481
  497TMC3    C5 7441   4.440   4.330  15.505 -0.1481  0.0603 -0.7368
  497TMC3    C6 7442   4.390   4.243  15.413  0.0541  0.4280  0.0792
  497TMC3     C 7443   0.036   4.403  15.363  0.2017  0.5968 -0.4413
  497TMC3     O 7444   0.098   4.392  15.258  0.3799 -0.6874 -0.0817
  497TMC3     H 7445   4.647   4.240  15.201 -0.6693  0.8287 -0.4944
  497TMC3    H1 7446   4.594   4.470  15.546  2.0296  0.2805 -1.9974
  497TMC3    H2 7447   4.286   4.213  15.413  0.7102 -1.8779  0.3083
  497TMC3    C7 7448   4.355   4.361  15.609  0.4290 -0.3048 -0.0553
  497TMC3    C8 7449   4.395   4.123  15.211 -0.8144 -0.6146 -0.7532
  497TMC3    O1 7450   4.235   4.330  15.598 -0.6894  0.4441 -1.1017
  497TMC3    O2 7451   4.316   4.050  15.260  0.1607 -0.3194 -0.1490
  498MPD2     C 7452   1.247   0.225   9.810 -0.4414 -0.0868  0.6835
  498MPD2    C1 7453   1.331   0.114   9.819 -0.2195  0.1614  0.0178
  498MPD2    C2 7454   1.283   4.735   9.881 -0.6977  0.2020 -0.0292
  498MPD2    C3 7455   1.160   4.732   9.943  0.1871  0.5482  0.3332
  498MPD2    C4 7456   1.073   0.105   9.917  0.4806  0.1776  1.0454
  498MPD2    C5 7457   1.121   0.217   9.858 -0.1443 -0.5547  0.4656
  498MPD2     H 7458   1.354   4.653   9.882  0.9602  1.6041 -1.5914
  498MPD2    H1 7459   0.975   0.109   9.965 -0.8779 -1.7359 -1.5544
  498MPD2    H2 7460   1.275   0.316   9.758  0.9594 -1.1558 -0.4193
  498MPD2    H3 7461   1.062   0.308   9.855  3.2689  1.5909 -1.0420
  498MPD2     N 7462   1.126   4.615  10.013  0.1667 -0.1479 -0.1390
  498MPD2    H5 7463   1.192   4.544  10.043 -1.0288 -0.4237  1.8704
  498MPD2    N1 7464   1.465   0.107   9.779 -0.2172  0.5198 -0.3461
  498MPD2    H7 7465   1.499   0.011   9.782 -0.2309  0.5050 -0.5907
  499TMC3    C1 7466   1.685   0.185   9.727  0.0479 -0.2150  0.3693
  499TMC3    C2 7467   1.718   0.053   9.719  0.0272  0.8290  0.2313
  499TMC3    C3 7468   1.857   0.028   9.716 -0.6295 -0.2498 -0.5940
  499TMC3    C4 7469   1.774   0.283   9.746 -0.0566 -0.1588  0.7721
  499TMC3    C5 7470   1.909   0.260   9.755 -0.1473  0.1744 -0.6096
  499TMC3    C6 7471   1.957   0.132   9.729 -0.2152 -0.1117 -0.2498
  499TMC3     C 7472   1.547   0.217   9.755 -0.0207  0.3160  0.0144
  499TMC3     O 7473   1.518   0.335   9.763 -0.8844 -0.4125  0.6876
  499TMC3     H 7474   1.650   4.707   9.699 -1.2342  1.3152  2.5205
  499TMC3    H1 7475   1.752   0.388   9.759  0.5849  0.2763 -1.5559
  499TMC3    H2 7476   2.062   0.109   9.738  0.2740  1.2178 -2.4415
  499TMC3    C7 7477   2.001   0.361   9.800 -0.8060 -0.1311 -0.5663
  499TMC3    C8 7478   1.917   4.629   9.724 -0.0396 -0.2645  0.0094
  499TMC3    O1 7479   2.115   0.351   9.753  0.3006  0.1380  0.1142
  499TMC3    O2 7480   2.032   4.616   9.760  0.4530 -0.5706  0.2961
  500MPD2     C 7481   2.685   1.243  11.265 -0.0640  0.5445  0.3103
  500MPD2    C1 7482   2.782   1.286  11.181  0.3976 -0.2971  1.0335
  500MPD2    C2 7483   2.748   1.326  11.058 -0.3633 -1.0340  0.0102
  500MPD2    C3 7484   2.620   1.329  11.010 -0.0630 -0.5119  0.0816
  500MPD2    C4 7485   2.522   1.280  11.095  0.2873  0.1923 -0.3011
  500MPD2    C5 7486   2.558   1.235  11.217  0.1352 -0.6872 -0.0692
  500MPD2     H 7487   2.831   1.359  10.997 -0.4116 -1.5373 -0.3295
  500MPD2    H1 7488   2.417   1.302  11.084  0.4405  1.2503  0.2743
  500MPD2    H2 7489   2.710   1.242  11.371  0.0997  0.8319  0.2742
  500MPD2    H3 7490   2.477   1.216  11.286 -1.8890 -0.4358 -2.3612
  500MPD2     N 7491   2.589   1.374  10.885 -0.8488 -0.1608 -0.2166
  500MPD2    H5 7492   2.492   1.367  10.855 -0.7110 -0.6912 -0.5420
  500MPD2    N1 7493   2.914   1.302  11.210 -0.0095 -0.6815  0.3728
  500MPD2    H7 7494   2.971   1.323  11.129  0.1141  1.7818  1.1013
  501TMC3    C1 7495   3.096   1.393  11.326 -0.3976  0.5356 -0.2002
  501TMC3    C2 7496   3.107   1.482  11.219 -0.1750 -0.0940  0.4586
  501TMC3    C3 7497   3.218   1.560  11.215 -0.8833 -0.2244 -0.3271
  501TMC3    C4 7498   3.184   1.371  11.428  0.0542  0.7418 -0.3666
  501TMC3    C5 7499   3.294   1.451  11.425 -0.3922  0.1156  0.1360
  501TMC3    C6 7500   3.307   1.538  11.315  0.2494  0.0510  0.0686
  501TMC3     C 7501   2.971   1.327  11.335  0.8354  0.1055 -0.5148
  501TMC3     O 7502   2.932   1.293  11.447  0.6706  1.0441 -0.5093
  501TMC3     H 7503   3.038   1.497  11.137  0.6439  1.4039  0.0271
  501TMC3    H1 7504   3.161   1.289  11.495 -2.0843  1.5470 -0.1210
  501TMC3    H2 7505   3.407   1.577  11.297  0.7644 -0.4443  1.9224
  501TMC3    C7 7506   3.414   1.380  11.467 -0.1297 -0.0343  0.0171
  501TMC3    C8 7507   3.258   1.636  11.099  0.2622 -0.1771 -0.3295
  501TMC3    O1 7508   3.518   1.420  11.419 -0.3137  0.0586 -0.4512
  501TMC3    O2 7509   3.355   1.710  11.112  0.4626  0.2087 -0.5714
  502TMC3    C1 7510   2.453   0.678  15.156 -0.0845  0.6797  0.0921
  502TMC3    C2 7511   2.438   0.814  15.135  0.9679 -0.2300  0.0202
  502TMC3    C3 7512   2.344   0.844  15.045  0.4799  0.2037  0.3195
  502TMC3    C4 7513   2.377   0.574  15.112 -1.3079  0.9191 -0.3542
  502TMC3    C5 7514   2.277   0.620  15.029 -0.8356 -0.4880 -0.4073
  502TMC3    C6 7515   2.266   0.746  14.990 -0.2122 -0.6201 -1.0069
  502TMC3     C 7516   2.545   0.653  15.265  0.4115  0.2489 -0.4880
  502TMC3     O 7517   2.642   0.723  15.278 -0.0501  0.0327 -0.0554
  502TMC3     H 7518   2.498   0.887  15.188  0.9062  0.1354 -0.4093
  502TMC3    H1 7519   2.388   0.472  15.146  1.6400  0.9133 -1.2627
  502TMC3    H2 7520   2.214   0.763  14.896  1.1736  1.3981 -1.4260
  502TMC3    C7 7521   2.188   0.520  14.973  0.1257  0.0627  0.1338
  502TMC3    C8 7522   2.327   0.982  15.005 -0.2281 -0.1270 -0.2329
  502TMC3    O1 7523   2.223   0.405  14.999 -0.2526  0.0229  0.1975
  502TMC3    O2 7524   2.424   1.052  15.028  0.0262 -0.5875 -0.2203
  503MPD2     C 7525   4.332   1.106  17.530  0.3506  0.0573  0.6614
  503MPD2    C1 7526   4.457   1.163  17.552  0.9939  0.7963 -0.4582
  503MPD2    C2 7527   4.555   1.088  17.613  0.4837 -0.1435  0.1110
  503MPD2    C3 7528   4.532   0.951  17.648 -0.5041 -0.1984  0.1649
  503MPD2    C4 7529   4.405   0.905  17.636 -0.4247  0.0659 -0.5084
  503MPD2    C5 7530   4.307   0.984  17.590  0.1769 -0.2479 -0.2543
  503MPD2     H 7531   4.656   1.127  17.618  0.4971  0.0213 -1.4571
  503MPD2    H1 7532   4.372   0.804  17.660  0.9142 -0.0148  0.9825
  503MPD2    H2 7533   4.248   1.144  17.473 -0.7516 -2.0825  0.8392
  503MPD2    H3 7534   4.206   0.948  17.573  0.7144 -1.6050 -0.5165
  503MPD2     N 7535   4.645   0.869  17.666  0.5360  0.2118  0.5150
  503MPD2    H5 7536   0.005   0.900  17.656  0.7674 -0.7179 -0.2040
  503MPD2    N1 7537   4.491   1.292  17.502 -0.1809 -0.5971  0.0406
  503MPD2    H7 7538   4.587   1.320  17.517 -0.5571  0.2486  0.8717
  504TMC3    C1 7539   0.029   0.684  17.703 -0.3474  0.4802  0.0388
  504TMC3    C2 7540   0.070   0.602   0.065  0.1621 -0.6033  0.0684
  504TMC3    C3 7541   0.178   0.516   0.036 -0.0459  0.6256 -0.2017
  504TMC3    C4 7542   0.088   0.692  17.588  0.1398 -0.0360  0.1760
  504TMC3    C5 7543   0.199   0.608  17.568  0.3500 -0.7461  0.6668
  504TMC3    C6 7544   0.247   0.524  17.662 -0.0971  0.5179 -0.3638
  504TMC3     C 7545   4.636   0.744  17.711  0.1143 -0.3617 -0.2086
  504TMC3     O 7546   4.543   0.673   0.010 -0.2309  0.2620 -0.2060
  504TMC3     H 7547   4.733   0.582   0.143  1.1827 -1.4440  0.7992
  504TMC3    H1 7548   0.050   0.749  17.504 -0.3010  1.5487  1.4401
  504TMC3    H2 7549   0.329   0.456  17.639 -0.7499 -0.4062  0.0314
  504TMC3    C7 7550   0.253   0.584  17.435  0.2664  0.0762 -0.2689
  504TMC3    C8 7551   0.191   0.399   0.123  0.0370  0.5458 -0.4884
  504TMC3    O1 7552   0.362   0.536  17.422 -0.5457  0.4762 -0.2229
  504TMC3    O2 7553   0.238   0.296   0.079  0.0363  0.1728  0.2624
  505MPD2     C 7554   0.312   3.755  10.483  0.2170 -0.2162  0.5221
  505MPD2    C1 7555   0.384   3.708  10.587 -0.4437 -0.6073 -0.5270
  505MPD2    C2 7556   0.379   3.777  10.707  0.5794 -0.1097 -0.1894
  505MPD2    C3 7557   0.290   3.879  10.734  0.0906  0.3013  0.3223
  505MPD2    C4 7558   0.218   3.927  10.628 -0.3122 -0.0646  0.3282
  505MPD2    C5 7559   0.226   3.861  10.504  0.2307 -0.1741 -0.7323
  505MPD2     H 7560   0.461   3.767  10.778  0.6315  1.6202 -0.0028
  505MPD2    H1 7561   0.154   4.014  10.637 -1.2016 -0.8246  1.3588
  505MPD2    H2 7562   0.308   3.714  10.383 -1.4004 -0.5563  0.7337
  505MPD2    H3 7563   0.160   3.889  10.423  0.4373 -1.0420 -1.1919
  505MPD2     N 7564   0.285   3.952  10.856 -0.8049 -0.2330  0.3080
  505MPD2    H5 7565   0.248   4.046  10.859 -0.6873 -0.1823  0.1850
  505MPD2    N1 7566   0.471   3.596  10.575 -0.1620 -0.0021 -0.4517
  505MPD2    H7 7567   0.495   3.567  10.481  0.1772  2.9370 -1.2806
  506TMC3    C1 7568   0.629   3.429  10.641 -0.5815 -0.3125 -0.4317
  506TMC3    C2 7569   0.710   3.496  10.556  0.7698  0.4018  0.1158
  506TMC3    C3 7570   0.840   3.458  10.560  0.8360  0.1897  0.0628
  506TMC3    C4 7571   0.678   3.344  10.738 -0.0750 -0.6545  0.5591
  506TMC3    C5 7572   0.812   3.319  10.737  0.2601  0.5434 -0.4610
  506TMC3    C6 7573   0.886   3.350  10.628  0.5976 -0.2820 -0.0802
  506TMC3     C 7574   0.525   3.518  10.680 -0.5819 -0.0729 -0.8001
  506TMC3     O 7575   0.506   3.529  10.805 -0.1740  0.1906  0.0536
  506TMC3     H 7576   0.683   3.567  10.479  0.6256  2.0110  1.6561
  506TMC3    H1 7577   0.618   3.321  10.825 -0.4239  1.3418  0.8304
  506TMC3    H2 7578   0.994   3.336  10.629  0.4979 -1.0492 -0.1170
  506TMC3    C7 7579   0.874   3.373  10.854 -0.8337  1.1048  0.6917
  506TMC3    C8 7580   0.915   3.495  10.443  0.5050 -0.0482  0.1358
  506TMC3    O1 7581   0.990   3.351  10.881  0.1655  0.2281 -0.4914
  506TMC3    O2 7582   0.967   3.404  10.376  0.2116 -0.0629  0.3837
  507TMC3    C1 7583   0.841   0.770  14.488  0.0116  0.1513 -0.0702
  507TMC3    C2 7584   0.829   0.714  14.362 -0.4790  0.0037 -0.2221
  507TMC3    C3 7585   0.934   0.734  14.278  0.2403  0.6787  0.5612
  507TMC3    C4 7586   0.945   0.855  14.520  0.2607 -0.4016  0.0140
  507TMC3    C5 7587   1.046   0.878  14.428 -0.2674  0.0912 -0.1301
  507TMC3    C6 7588   1.039   0.809  14.312 -0.0060 -0.3915  0.6323
  507TMC3     C 7589   0.723   0.773  14.582 -0.0707  0.4316 -0.2113
  507TMC3     O 7590   0.729   0.851  14.672  0.2154 -0.0589  0.0610
  507TMC3     H 7591   0.734   0.678  14.325 -0.3158 -0.9292  0.2803
  507TMC3    H1 7592   0.963   0.905  14.614  0.8734  1.6266 -1.1680
  507TMC3    H2 7593   1.117   0.815  14.237 -1.0405  2.2666 -0.2204
  507TMC3    C7 7594   1.069   1.011  14.408  1.0987 -0.5296 -0.7848
  507TMC3    C8 7595   0.885   0.757  14.145 -0.2256  0.2259  0.2031
  507TMC3    O1 7596   1.083   1.039  14.290  0.3011  0.1271 -0.4669
  507TMC3    O2 7597   0.806   0.675  14.091 -0.0389 -0.2830 -0.0904
  508MPD2     C 7598   1.857   2.759  16.351 -0.1985 -0.3885  0.4808
  508MPD2    C1 7599   1.834   2.868  16.436 -0.3048 -0.2789 -0.0068
  508MPD2    C2 7600   1.787   2.992  16.381  0.1533  0.0616  0.6318
  508MPD2    C3 7601   1.767   2.995  16.238 -0.1311 -0.4551 -0.4168
  508MPD2    C4 7602   1.809   2.891  16.163 -0.2280 -0.1237  0.4567
  508MPD2    C5 7603   1.854   2.777  16.218 -0.5518  0.2098 -0.1709
  508MPD2     H 7604   1.765   3.080  16.440  0.9309  2.4807 -2.6791
  508MPD2    H1 7605   1.794   2.891  16.056  1.1560 -1.0251  0.2712
  508MPD2    H2 7606   1.901   2.667  16.387  1.4896  0.5769  0.8494
  508MPD2    H3 7607   1.870   2.693  16.151  0.7141  0.3861 -0.0896
  508MPD2     N 7608   1.726   3.122  16.188 -0.7963 -0.3025 -0.2442
  508MPD2    H5 7609   1.706   3.192  16.259 -0.4829  0.6411 -1.0884
  508MPD2    N1 7610   1.849   2.856  16.582 -0.0102  0.1427  0.2754
  508MPD2    H7 7611   1.871   2.765  16.623  1.1302 -0.9467 -2.7337
  509TMC3    C1 7612   1.634   3.465  15.870 -0.5186  0.1911  0.8252
  509TMC3    C2 7613   1.682   3.563  15.947  0.1665 -0.6374 -0.1282
  509TMC3    C3 7614   1.736   3.524  16.067 -0.0285 -0.2120 -0.2959
  509TMC3    C4 7615   1.617   3.335  15.911  0.7056  0.2684 -0.0641
  509TMC3    C5 7616   1.678   3.297  16.030  0.1044 -0.0569  0.7430
  509TMC3    C6 7617   1.739   3.394  16.103  0.0607  0.3529  0.8353
  509TMC3     C 7618   1.574   3.493  15.738 -0.4307 -0.2332 -0.2409
  509TMC3     O 7619   1.536   3.393  15.678 -0.3900 -0.0734 -0.3002
  509TMC3     H 7620   1.664   3.668  15.925 -1.4802 -0.8805  0.0478
  509TMC3    H1 7621   1.569   3.263  15.845 -1.0657  0.5431  0.9242
  509TMC3    H2 7622   1.795   3.361  16.189 -1.5879 -3.5177  0.4477
  509TMC3    C7 7623   1.696   3.155  16.057 -0.1058 -0.5897 -0.6875
  509TMC3    C8 7624   1.815   3.613  16.147  0.2411  0.0367 -0.3464
  509TMC3    O1 7625   1.678   3.084  15.957  0.2909  0.1653  0.8458
  509TMC3    O2 7626   1.845   3.578  16.259  0.4541  0.4156 -0.1572
  510MPD2     C 7627   4.342   0.234  15.002 -0.8537  0.3435 -0.1839
  510MPD2    C1 7628   4.388   0.121  15.068 -0.2206 -0.1601 -0.4238
  510MPD2    C2 7629   4.518   0.069  15.035  0.4928  0.1059 -0.0513
  510MPD2    C3 7630   4.592   0.134  14.933  0.3083  0.3697 -0.1250
  510MPD2    C4 7631   4.546   0.247  14.875 -0.2238  0.2197 -0.1306
  510MPD2    C5 7632   4.425   0.294  14.907  0.1050 -0.8125  0.2199
  510MPD2     H 7633   4.561   4.717  15.082  1.2238 -1.2957 -3.3825
  510MPD2    H1 7634   4.605   0.301  14.803  0.3646  1.2316  1.1082
  510MPD2    H2 7635   4.239   0.266  15.011 -0.6237  1.0068  0.0939
  510MPD2    H3 7636   4.388   0.385  14.860  0.3493 -2.3827 -3.0225
  510MPD2     N 7637   4.717   0.074  14.897 -0.8005 -0.9036 -0.3647
  510MPD2    H5 7638   0.004   4.724  14.947  2.1474  0.4284  0.5420
  510MPD2    N1 7639   4.290   0.057  15.142  0.7956  0.1199 -0.5172
  510MPD2    H7 7640   4.203   0.107  15.158  0.8304 -0.2046  0.7197
  511TMC3    C1 7641   4.170   4.594  15.208  0.1719  0.9261 -0.3188
  511TMC3    C2 7642   4.122   4.633  15.327  0.0729  0.4234 -0.1656
  511TMC3    C3 7643   4.054   4.541  15.400 -0.6403 -0.1058  1.0396
  511TMC3    C4 7644   4.159   4.462  15.158 -0.7249  0.3252 -0.0721
  511TMC3    C5 7645   4.113   4.366  15.251  0.1216 -0.1727 -0.0041
  511TMC3    C6 7646   4.050   4.410  15.363 -0.1106  0.8497 -0.1536
  511TMC3     C 7647   4.290   4.657  15.152  0.0639 -0.2822 -0.7642
  511TMC3     O 7648   4.382   4.583  15.126  0.1358 -0.4843  0.0029
  511TMC3     H 7649   4.142   4.732  15.366  1.6393 -0.0741  0.2946
  511TMC3    H1 7650   4.190   4.451  15.055  1.4232 -1.1595  0.7183
  511TMC3    H2 7651   3.993   4.342  15.425  1.4644 -0.2552  0.1039
  511TMC3    C7 7652   4.054   4.254  15.183  0.1101  0.4304  0.6951
  511TMC3    C8 7653   3.993   4.580  15.531  0.5892 -0.0801 -1.1490
  511TMC3    O1 7654   4.048   4.272  15.064  0.3513 -0.1006  0.2010
  511TMC3    O2 7655   4.006   4.698  15.564 -1.0733  0.0396 -0.6185
  512TMC3    C1 7656   3.026   3.734  13.551  0.6685 -0.2904  0.1384
  512TMC3    C2 7657   3.140   3.727  13.620  0.3116 -0.0234 -0.0623
  512TMC3    C3 7658   3.230   3.638  13.568  0.1502 -0.1050 -0.2045
  512TMC3    C4 7659   3.003   3.672  13.433 -0.0717  0.0168  0.2569
  512TMC3    C5 7660   3.102   3.590  13.380  0.9498  0.1140  0.0847
  512TMC3    C6 7661   3.218   3.569  13.452  0.1230 -0.6680 -0.4827
  512TMC3     C 7662   2.917   3.802  13.622 -0.4484  1.3452  0.5245
  512TMC3     O 7663   2.949   3.884  13.705 -0.0337 -0.3848  0.5998
  512TMC3     H 7664   3.149   3.769  13.719 -2.0597  0.0498  0.1214
  512TMC3    H1 7665   2.915   3.691  13.374 -0.9392  0.8371  1.8046
  512TMC3    H2 7666   3.293   3.495  13.426 -0.9476 -1.3864 -1.5695
  512TMC3    C7 7667   3.075   3.519  13.253  0.0142 -0.2011  0.0874
  512TMC3    C8 7668   3.362   3.646  13.617 -0.0184 -0.1218  0.3170
  512TMC3    O1 7669   2.998   3.569  13.164 -0.0434  0.1198 -0.6186
  512TMC3    O2 7670   3.444   3.560  13.589 -0.1395 -0.2922 -0.9254
  513MPD2     C 7671   0.503   0.036  13.179  0.1742  0.5654 -1.0757
  513MPD2    C1 7672   0.436   4.651  13.194  0.2284 -0.3099  0.1994
  513MPD2    C2 7673   0.465   4.581  13.301  0.3048 -0.3351  0.5924
  513MPD2    C3 7674   0.556   4.621  13.397  0.1463 -0.1176 -0.3336
  513MPD2    C4 7675   0.616   0.009  13.383  0.0458 -0.1493  0.2270
  513MPD2    C5 7676   0.587   0.083  13.274 -0.2915 -0.2769  0.7472
  513MPD2     H 7677   0.434   4.478  13.317  1.1131 -0.7995 -0.8185
  513MPD2    H1 7678   0.673   0.053  13.464  0.3436  2.4986 -1.4295
  513MPD2    H2 7679   0.477   0.106  13.099 -0.3433  0.4932 -0.9699
  513MPD2    H3 7680   0.622   0.185  13.279  1.9536 -1.0283  0.4804
  513MPD2     N 7681   0.596   4.531  13.500  0.1111  0.5765  0.0164
  513MPD2    H5 7682   0.539   4.446  13.499  0.5344  0.2920  1.7316
  513MPD2    N1 7683   0.356   4.597  13.095 -0.3836  0.2119 -0.5823
  513MPD2    H7 7684   0.363   4.628  12.999 -1.7012  2.3947  0.0244
  514TMC3    C1 7685   0.209   4.429  12.994  0.6849 -0.2951  0.6722
  514TMC3    C2 7686   0.260   4.461  12.872  0.1977  1.2195  0.1119
  514TMC3    C3 7687   0.262   4.362  12.774  0.5782 -0.5333 -0.3103
  514TMC3    C4 7688   0.147   4.315  13.022  0.0704  0.5022 -0.0190
  514TMC3    C5 7689   0.160   4.216  12.928  0.2441 -0.4828  0.3304
  514TMC3    C6 7690   0.213   4.239  12.800  0.2812 -0.4571  0.1787
  514TMC3     C 7691   0.273   4.482  13.112 -0.3877 -0.0671 -0.5060
  514TMC3     O 7692   0.252   4.416  13.208  0.1610  0.4559  1.0234
  514TMC3     H 7693   0.307   4.557  12.853  1.6534  0.8983  2.1496
  514TMC3    H1 7694   0.079   4.308  13.106 -0.1883 -1.5481 -0.4099
  514TMC3    H2 7695   0.223   4.166  12.720 -1.9913 -1.4935  0.8496
  514TMC3    C7 7696   0.219   4.105  12.994 -0.3438 -0.4160  0.0227
  514TMC3    C8 7697   0.301   4.394  12.639 -0.0623 -0.0536  0.1128
  514TMC3    O1 7698   0.267   4.024  12.922 -0.2328 -0.3268  0.3914
  514TMC3    O2 7699   0.371   4.491  12.632 -0.6404  0.2406 -0.4866
  515MPD2     C 7700   3.492   1.299  14.511  0.6873  0.3701  0.0230
  515MPD2    C1 7701   3.473   1.193  14.588 -0.2625 -0.3586 -0.1761
  515MPD2    C2 7702   3.521   1.194  14.717 -0.0562  0.2217 -0.3883
  515MPD2    C3 7703   3.590   1.301  14.774 -0.3772  0.8760 -0.1193
  515MPD2    C4 7704   3.602   1.413  14.693 -0.3879  0.1256  0.0726
  515MPD2    C5 7705   3.557   1.409  14.564 -0.2699  0.3009  0.1330
  515MPD2     H 7706   3.494   1.108  14.778 -1.9457 -1.3810 -3.4883
  515MPD2    H1 7707   3.659   1.499  14.727  2.8641 -2.9722  2.4172
  515MPD2    H2 7708   3.471   1.306  14.405  1.5078 -2.9077 -0.3620
  515MPD2    H3 7709   3.596   1.481  14.492 -0.9689 -1.6575 -2.1911
  515MPD2     N 7710   3.645   1.301  14.905  0.7580  0.7745 -1.1318
  515MPD2    H5 7711   3.683   1.392  14.930 -0.6723  1.0684 -0.0856
  515MPD2    N1 7712   3.406   1.079  14.543  0.9819 -0.0049  0.7048
  515MPD2    H7 7713   3.393   1.004  14.611 -0.8867 -2.3424 -2.2215
  516TMC3    C1 7714   3.255   0.977  14.400  0.0152 -0.4625  0.0043
  516TMC3    C2 7715   3.220   0.951  14.266  0.6543  0.8565  0.0507
  516TMC3    C3 7716   3.135   0.841  14.245  0.2610  0.6094  0.0487
  516TMC3    C4 7717   3.190   0.916  14.502 -0.1734 -0.1023  0.2048
  516TMC3    C5 7718   3.096   0.819  14.474  0.7386  0.8351  0.3699
  516TMC3    C6 7719   3.079   0.776  14.345  0.0484 -0.4066 -0.8733
  516TMC3     C 7720   3.368   1.063  14.412 -0.1302  0.0803  0.1405
  516TMC3     O 7721   3.391   1.111  14.303  0.3508  0.1368  0.0175
  516TMC3     H 7722   3.262   0.987  14.172 -0.5806 -0.3615 -0.9619
  516TMC3    H1 7723   3.209   0.945  14.605 -1.2959 -1.9974  0.9644
  516TMC3    H2 7724   2.992   0.714  14.328 -1.0503  0.9628 -0.3130
  516TMC3    C7 7725   3.033   0.757  14.586 -0.2113 -0.3110 -0.8346
  516TMC3    C8 7726   3.084   0.819  14.112  0.9259 -0.7802  0.7246
  516TMC3    O1 7727   3.093   0.753  14.694  0.1653  0.6803 -0.2738
  516TMC3    O2 7728   2.965   0.830  14.098 -0.3477 -0.4311 -0.1242
  517MPD2     C 7729   3.127   3.018  17.709 -0.0939  0.0253  0.3980
  517MPD2    C1 7730   3.232   2.948   0.034  0.0767 -0.9904  0.2159
  517MPD2    C2 7731   3.278   3.001   0.153 -0.4020  0.1828  0.5242
  517MPD2    C3 7732   3.214   3.106   0.218 -0.3544  0.5287  0.2561
  517MPD2    C4 7733   3.106   3.164   0.150  0.5511  1.0464 -0.3021
  517MPD2    C5 7734   3.070   3.127   0.025  0.2354  0.5487 -1.0193
  517MPD2     H 7735   3.355   2.949   0.208  0.8130  1.4092 -0.0074
  517MPD2    H1 7736   3.059   3.255   0.186 -2.0449  0.2639 -1.7065
  517MPD2    H2 7737   3.097   2.975  17.614  1.0019 -1.6028  0.7886
  517MPD2    H3 7738   2.984   3.175  17.721  1.4004  3.2130 -0.3934
  517MPD2     N 7739   3.249   3.152   0.351  0.1368  0.1087 -0.5121
  517MPD2    H5 7740   3.182   3.213   0.394 -0.8980 -1.1464 -0.3374
  517MPD2    N1 7741   3.297   2.829  17.719 -0.0722 -0.4785 -0.7279
  517MPD2    H7 7742   3.387   2.804   0.019  0.5035 -0.3936 -1.9994
  518TMC3    C1 7743   3.340   2.633  17.593 -0.6507 -0.4650 -0.3675
  518TMC3    C2 7744   3.282   2.513  17.555 -0.2960 -0.7949  0.5116
  518TMC3    C3 7745   3.366   2.414  17.521 -0.2074 -0.4464  0.2153
  518TMC3    C4 7746   3.471   2.666  17.596 -0.5768 -0.4255 -0.3692
  518TMC3    C5 7747   3.557   2.560  17.552  0.3083 -0.1190 -0.3005
  518TMC3    C6 7748   3.502   2.434  17.528 -0.1967 -0.0885  0.4814
  518TMC3     C 7749   3.247   2.739  17.629 -0.2079  1.2270 -0.5849
  518TMC3     O 7750   3.129   2.726  17.611 -0.3725 -0.0131  0.2226
  518TMC3     H 7751   3.174   2.508  17.551 -0.2699 -0.6693 -0.2983
  518TMC3    H1 7752   3.512   2.765  17.611 -1.6120 -0.3742  2.1768
  518TMC3    H2 7753   3.564   2.348  17.506 -0.7282 -0.5013  0.5843
  518TMC3    C7 7754   3.701   2.595  17.550  0.5150  0.5863 -0.2099
  518TMC3    C8 7755   3.309   2.281  17.502 -0.2205 -0.4149 -0.0756
  518TMC3    O1 7756   3.739   2.708  17.585 -0.1532 -0.3848 -0.4218
  518TMC3    O2 7757   3.375   2.190  17.450 -0.4301 -0.3844 -0.1007
  519MPD2     C 7758   4.554   0.593  14.665 -0.1169 -0.6312 -0.0582
  519MPD2    C1 7759   4.516   0.611  14.535 -0.2206 -0.1017 -0.4554
  519MPD2    C2 7760   4.615   0.623  14.446 -0.4644 -0.7599 -1.0151
  519MPD2    C3 7761   0.017   0.632  14.476  0.5235  1.2750 -0.1466
  519MPD2    C4 7762   0.055   0.611  14.609  0.4073 -0.1169  0.1035
  519MPD2    C5 7763   4.686   0.594  14.698 -0.1617 -0.6466 -0.0688
  519MPD2     H 7764   4.571   0.619  14.347 -1.9168  2.4983 -0.4981
  519MPD2    H1 7765   0.155   0.619  14.651  1.1989  0.1347 -1.8124
  519MPD2    H2 7766   4.480   0.583  14.744  1.1560  2.7994  1.5763
  519MPD2    H3 7767   4.713   0.593  14.803  1.5617 -1.6395 -0.5199
  519MPD2     N 7768   0.117   0.661  14.382  0.1611 -0.0694  0.4402
  519MPD2    H5 7769   0.211   0.683  14.414  0.8222  0.0820 -1.5975
  519MPD2    N1 7770   4.385   0.606  14.475 -0.5090 -0.2834  0.0686
  519MPD2    H7 7771   4.382   0.623  14.375 -1.0819  1.7919  0.4505
  520TMC3    C1 7772   0.216   0.662  14.171 -0.6399 -0.2430  0.4763
  520TMC3    C2 7773   0.224   0.727  14.051 -0.0251  0.7498  0.1841
  520TMC3    C3 7774   0.340   0.709  13.977  0.5225 -0.0610  0.2886
  520TMC3    C4 7775   0.302   0.573  14.221  0.0099  0.5452  0.1424
  520TMC3    C5 7776   0.416   0.549  14.139 -0.1040 -0.0281  0.9973
  520TMC3    C6 7777   0.437   0.622  14.023  0.1469  0.3480  0.0246
  520TMC3     C 7778   0.104   0.695  14.250  0.4017 -0.6325  0.5332
  520TMC3     O 7779   0.004   0.731  14.187 -0.1728 -0.4956 -0.8845
  520TMC3     H 7780   0.149   0.801  14.025 -0.4136  0.1749 -0.3129
  520TMC3    H1 7781   0.293   0.512  14.310 -1.9969  1.1523  0.3729
  520TMC3    H2 7782   0.524   0.626  13.958  0.1799  1.3390  0.1295
  520TMC3    C7 7783   0.471   0.416  14.140  0.3642  0.6993 -0.1629
  520TMC3    C8 7784   0.322   0.733  13.836  0.0278  0.7726  0.4539
  520TMC3    O1 7785   0.463   0.357  14.249 -0.1521  0.1787 -0.0652
  520TMC3    O2 7786   0.428   0.765  13.780 -0.2802  0.4618 -0.0076
  521MPD2     C 7787   0.485   3.825  17.528 -0.8153 -0.5682 -0.1036
  521MPD2    C1 7788   0.448   3.709  17.465  0.2602 -0.7151  0.0672
  521MPD2    C2 7789   0.542   3.610  17.451  0.8149  0.0327 -0.5881
  521MPD2    C3 7790   0.669   3.633  17.498 -0.2266  0.3861  0.0043
  521MPD2    C4 7791   0.703   3.751  17.566 -0.1145  0.1549  0.3305
  521MPD2    C5 7792   0.611   3.851  17.572  1.1017 -0.0303  0.0974
  521MPD2     H 7793   0.516   3.508  17.425  0.9421 -0.1132 -0.1486
  521MPD2    H1 7794   0.805   3.773  17.593 -0.6695  0.6503  2.0172
  521MPD2    H2 7795   0.412   3.904  17.539  1.1083  0.8786  2.0664
  521MPD2    H3 7796   0.636   3.942  17.625  5.0750 -1.7026  1.0878
  521MPD2     N 7797   0.763   3.539  17.461  1.1813  0.5858 -0.2523
  521MPD2    H5 7798   0.718   3.473  17.399 -0.3768  0.8487  0.5761
  521MPD2    N1 7799   0.314   3.700  17.417 -0.1964 -0.0324 -0.3705
  521MPD2    H7 7800   0.258   3.783  17.431  1.4778  0.9823  0.2058
  522TMC3    C1 7801   0.961   3.416  17.447 -0.0570 -0.1392 -0.4835
  522TMC3    C2 7802   1.063   3.366  17.528 -0.2620 -0.1036 -0.1772
  522TMC3    C3 7803   1.145   3.270  17.465  0.6912  0.2697 -0.3748
  522TMC3    C4 7804   0.931   3.378  17.321  0.5978  0.4524 -0.9258
  522TMC3    C5 7805   1.018   3.290  17.271 -0.4368  0.9242 -0.0970
  522TMC3    C6 7806   1.121   3.225  17.336 -0.0757  0.1110  0.5054
  522TMC3     C 7807   0.893   3.529  17.502  0.4110 -0.1137  0.3760
  522TMC3     O 7808   0.939   3.578  17.605  0.4063  0.1365  0.3307
  522TMC3     H 7809   1.076   3.402  17.629  1.8553  1.6458 -1.0659
  522TMC3    H1 7810   0.866   3.436  17.256 -0.0704  1.1098  0.3116
  522TMC3    H2 7811   1.185   3.152  17.289  0.4576  0.8606  0.0706
  522TMC3    C7 7812   1.002   3.245  17.133 -0.8251  0.0535  0.1491
  522TMC3    C8 7813   1.272   3.233  17.530 -0.5051  0.0567  0.5433
  522TMC3    O1 7814   1.060   3.141  17.098 -0.2874 -0.3986 -0.1601
  522TMC3    O2 7815   1.282   3.269  17.646 -0.4070  0.5713  0.7020
  523MPD2     C 7816   3.233   3.608  10.227 -0.3228 -0.2260 -0.0179
  523MPD2    C1 7817   3.254   3.489  10.152 -0.4038 -0.1457  0.1208
  523MPD2    C2 7818   3.173   3.477  10.045 -0.1767  0.1531  0.2431
  523MPD2    C3 7819   3.080   3.576  10.005 -0.1647 -0.3199  0.0217
  523MPD2    C4 7820   3.056   3.689  10.086  0.1860  0.1642  0.2512
  523MPD2    C5 7821   3.141   3.702  10.195 -0.0464  0.2178 -0.4250
  523MPD2     H 7822   3.177   3.385   9.989 -1.7884 -0.6647  1.4825
  523MPD2    H1 7823   2.987   3.770  10.065  1.8603  1.9047  1.4876
  523MPD2    H2 7824   3.282   3.632  10.320 -0.9215  0.7144  0.0516
  523MPD2    H3 7825   3.130   3.796  10.248 -0.3041 -0.5898  0.9591
  523MPD2     N 7826   3.001   3.574   9.887 -0.3269  0.1516 -0.4169
  523MPD2    H5 7827   2.926   3.641   9.878 -1.4341 -1.4227 -2.9560
  523MPD2    N1 7828   3.342   3.389  10.196 -0.2680  0.2060  0.0524
  523MPD2    H7 7829   3.385   3.395  10.288 -0.2036 -2.1950  0.1725
  524TMC3    C1 7830   2.938   3.552   9.668  0.0557  0.3568 -0.2227
  524TMC3    C2 7831   2.985   3.575   9.545 -0.3515 -0.1891  0.0543
  524TMC3    C3 7832   2.919   3.658   9.460 -0.2430  0.4621  0.7136
  524TMC3    C4 7833   2.816   3.608   9.710 -0.0036  0.0418 -0.5956
  524TMC3    C5 7834   2.752   3.693   9.624  0.0065  0.4675 -0.1468
  524TMC3    C6 7835   2.799   3.719   9.498 -0.6456  0.4925 -0.4033
  524TMC3     C 7836   3.032   3.512   9.766  0.2567 -0.7512 -0.2724
  524TMC3     O 7837   3.132   3.447   9.735 -0.2828 -0.2935 -0.0672
  524TMC3     H 7838   3.091   3.558   9.525 -0.0802  2.2127 -0.5166
  524TMC3    H1 7839   2.770   3.580   9.804 -1.1452 -0.2453 -1.2386
  524TMC3    H2 7840   2.739   3.786   9.437 -3.2344  0.2025  1.8015
  524TMC3    C7 7841   2.678   3.800   9.691 -0.5430 -0.0531 -0.0051
  524TMC3    C8 7842   2.963   3.673   9.324 -0.3286  0.2473 -0.3274
  524TMC3    O1 7843   2.701   3.814   9.811 -0.3404  0.3059  0.2122
  524TMC3    O2 7844   2.932   3.778   9.268  0.3464  0.0168  0.4769
  525MPD2     C 7845   1.197   0.563  14.031 -0.2675 -0.2246  0.4469
  525MPD2    C1 7846   1.327   0.520  14.059  0.6391  0.1192 -0.2942
  525MPD2    C2 7847   1.434   0.606  14.042  0.5255  0.1665 -0.0926
  525MPD2    C3 7848   1.413   0.737  14.007 -0.3347 -0.0792  0.1943
  525MPD2    C4 7849   1.282   0.781  13.985  0.0866 -0.5764 -0.5258
  525MPD2    C5 7850   1.185   0.689  13.989  0.1288  0.7592 -0.7829
  525MPD2     H 7851   1.534   0.572  14.068  1.0159  1.7167  0.0266
  525MPD2    H1 7852   1.259   0.885  13.967  1.2805  0.2679  2.8751
  525MPD2    H2 7853   1.108   0.501  14.036  0.0015 -0.6638 -0.1812
  525MPD2    H3 7854   1.086   0.727  13.966  0.3728  1.0406 -1.3702
  525MPD2     N 7855   1.514   0.826  13.975 -0.2226 -0.1802  0.3097
  525MPD2    H5 7856   1.495   0.923  13.950 -2.3426 -0.5727  0.4280
  525MPD2    N1 7857   1.361   0.395  14.112  0.4862 -0.6157 -0.2337
  525MPD2    H7 7858   1.459   0.379  14.134  0.5515  1.8209  1.2487
  526TMC3    C1 7859   1.344   0.177  14.169 -0.3697  0.5639  0.5877
  526TMC3    C2 7860   1.278   0.119  14.271 -0.8208 -0.2930 -0.4269
  526TMC3    C3 7861   1.355   0.085  14.377 -0.0882 -0.6892  0.1695
  526TMC3    C4 7862   1.478   0.179  14.156  0.0350  0.0094  0.2326
  526TMC3    C5 7863   1.551   0.134  14.266  0.6223  0.2445  0.4852
  526TMC3    C6 7864   1.488   0.087  14.380  0.3213  0.1701  0.0520
  526TMC3     C 7865   1.274   0.293  14.124 -0.2216 -0.3758  0.4122
  526TMC3     O 7866   1.154   0.288  14.112 -0.1017 -0.0984 -0.6473
  526TMC3     H 7867   1.171   0.120  14.286 -1.0903 -1.5190 -2.2091
  526TMC3    H1 7868   1.530   0.218  14.070 -0.9182  0.1919 -0.2590
  526TMC3    H2 7869   1.543   0.042  14.462  1.5669 -1.4329 -1.6407
  526TMC3    C7 7870   1.690   0.173  14.272  0.1978 -0.2051 -0.4377
  526TMC3    C8 7871   1.288   0.104  14.496  0.2126  0.1464  0.4929
  526TMC3    O1 7872   1.723   0.250  14.183 -0.4099 -0.0628  0.0540
  526TMC3    O2 7873   1.168   0.078  14.491 -0.0939  0.5044 -0.5405
  527MPD2     C 7874   4.441   3.050   1.641 -0.6613 -0.3506  0.2012
  527MPD2    C1 7875   4.389   3.049   1.515  0.1013 -0.2530 -0.1833
  527MPD2    C2 7876   4.467   3.035   1.407  0.5149 -0.7607 -0.0769
  527MPD2    C3 7877   4.605   3.039   1.422  0.1414 -0.7115  0.2455
  527MPD2    C4 7878   4.663   3.066   1.543  0.4674 -0.0322  0.3181
  527MPD2    C5 7879   4.581   3.061   1.650 -0.1353 -0.5979  0.3734
  527MPD2     H 7880   4.429   3.041   1.306 -0.6813  1.0441  0.4841
  527MPD2    H1 7881   0.033   3.052   1.564  0.6453  1.4378  0.4107
  527MPD2    H2 7882   4.383   3.050   1.733 -2.2090  2.0060 -0.7728
  527MPD2    H3 7883   4.620   3.080   1.750  1.5696 -1.2791 -0.1748
  527MPD2     N 7884   4.684   3.015   1.306 -0.2932 -0.0532  0.7285
  527MPD2    H5 7885   4.634   2.972   1.229  1.4179  0.3408 -0.5978
  527MPD2    N1 7886   4.251   3.036   1.495  0.0486 -0.2623 -0.3899
  527MPD2    H7 7887   4.217   3.018   1.401 -1.6150 -1.5244  0.4487
  528TMC3    C1 7888   4.029   2.971   1.552  0.3457 -0.3469  0.6969
  528TMC3    C2 7889   4.041   2.914   1.427 -0.0356 -0.9385  0.4588
  528TMC3    C3 7890   3.944   2.943   1.338  0.2388  0.1989  0.1087
  528TMC3    C4 7891   3.920   3.043   1.601  0.3930 -0.7756  1.1605
  528TMC3    C5 7892   3.822   3.056   1.507 -0.4267 -0.0083 -0.3265
  528TMC3    C6 7893   3.832   3.007   1.378  0.1795  0.6684  0.1138
  528TMC3     C 7894   4.153   3.031   1.594 -0.2840  0.5166  0.1726
  528TMC3     O 7895   4.161   3.084   1.708 -0.2246  0.2450  0.0140
  528TMC3     H 7896   4.127   2.853   1.401  0.3494  0.2652 -1.1271
  528TMC3    H1 7897   3.924   3.084   1.701 -0.1875  0.4625  0.6865
  528TMC3    H2 7898   3.759   3.035   1.303 -2.0560  1.6097  2.6452
  528TMC3    C7 7899   3.707   3.142   1.533  0.7090  0.2319  0.3651
  528TMC3    C8 7900   3.970   2.907   1.199  0.9352 -0.3243 -0.2165
  528TMC3    O1 7901   3.615   3.156   1.451 -0.3854 -0.1637  0.3862
  528TMC3    O2 7902   4.089   2.916   1.181 -0.3365  0.4919  0.4419
  529MPD2     C 7903   0.993   1.098   0.888  0.0014 -1.0407 -0.6760
  529MPD2    C1 7904   1.073   1.194   0.950 -0.8524 -0.5657 -0.4228
  529MPD2    C2 7905   1.068   1.329   0.911 -0.5643 -0.0402 -0.3342
  529MPD2    C3 7906   0.964   1.373   0.827 -0.3861 -0.6966 -0.3989
  529MPD2    C4 7907   0.876   1.275   0.778  0.4790 -0.2157 -0.0673
  529MPD2    C5 7908   0.889   1.146   0.816 -0.0240 -0.4610  0.4069
  529MPD2     H 7909   1.135   1.397   0.962  1.1349 -0.4818 -2.0057
  529MPD2    H1 7910   0.788   1.305   0.722 -0.0417 -0.2208  0.7491
  529MPD2    H2 7911   1.003   0.993   0.914 -1.2466 -0.8379  0.6576
  529MPD2    H3 7912   0.808   1.077   0.793  0.8904 -1.0557 -1.0722
  529MPD2     N 7913   0.961   1.494   0.757  0.0746  0.5729  0.2888
  529MPD2    H5 7914   0.890   1.498   0.684  0.5024 -0.0241 -0.1606
  529MPD2    N1 7915   1.167   1.167   1.042 -0.1796  0.0596 -0.2034
  529MPD2    H7 7916   1.225   1.249   1.063  2.3710 -1.1500 -2.4923
  530TMC3    C1 7917   1.332   1.044   1.159 -0.2859 -0.0019  0.5638
  530TMC3    C2 7918   1.404   1.158   1.141  0.6889  0.0061 -0.1208
  530TMC3    C3 7919   1.542   1.146   1.143 -0.4145  0.0602  0.4256
  530TMC3    C4 7920   1.393   0.921   1.162 -0.1082 -0.0852  0.1763
  530TMC3    C5 7921   1.530   0.913   1.169 -0.1707 -0.1179  0.6987
  530TMC3    C6 7922   1.610   1.024   1.165 -0.1539  0.0401 -0.5827
  530TMC3     C 7923   1.192   1.047   1.110 -0.1882 -0.3863  0.2424
  530TMC3     O 7924   1.126   0.943   1.109 -0.1556  0.4233 -0.3104
  530TMC3     H 7925   1.352   1.253   1.146  2.2059  0.6941  2.2793
  530TMC3    H1 7926   1.326   0.837   1.149 -0.9553  0.2247  2.3987
  530TMC3    H2 7927   1.717   1.009   1.156  0.1213  2.1786 -0.9172
  530TMC3    C7 7928   1.596   0.792   1.218 -0.0944  0.2403  0.4726
  530TMC3    C8 7929   1.616   1.265   1.119 -0.9220 -0.2794 -0.0206
  530TMC3    O1 7930   1.715   0.790   1.205  0.6044  0.2923  0.0538
  530TMC3    O2 7931   1.555   1.353   1.055  0.3206 -0.0131 -0.2665
  531MPD2     C 7932   0.477   3.872  13.383 -0.1110  0.6232 -0.5412
  531MPD2    C1 7933   0.446   4.006  13.414  0.0501 -0.3477 -0.5076
  531MPD2    C2 7934   0.362   4.078  13.324 -0.2790  0.3030 -0.1468
  531MPD2    C3 7935   0.314   4.026  13.211 -0.2189  0.1328  0.4325
  531MPD2    C4 7936   0.342   3.896  13.178 -0.0843  0.2838 -0.0677
  531MPD2    C5 7937   0.422   3.826  13.264  1.0576 -0.0499  0.2510
  531MPD2     H 7938   0.337   4.181  13.346  1.0803  0.4810  0.5221
  531MPD2    H1 7939   0.310   3.846  13.087  0.8052  0.3997 -0.4480
  531MPD2    H2 7940   0.554   3.817  13.436 -1.1377 -0.1449  0.1503
  531MPD2    H3 7941   0.464   3.733  13.228  0.8661  0.2423 -0.7361
  531MPD2     N 7942   0.241   4.120  13.129  0.2148  0.3735  0.0751
  531MPD2    H5 7943   0.231   4.214  13.167  0.4319  0.3970  0.0750
  531MPD2    N1 7944   0.522   4.062  13.516 -0.6203 -0.1285 -0.8650
  531MPD2    H7 7945   0.582   4.001  13.570 -1.2697  0.8845  1.0217
  532TMC3    C1 7946   0.595   4.233  13.664 -0.1662  0.9698  0.0939
  532TMC3    C2 7947   0.590   4.365  13.686 -0.0289 -0.3837 -0.4879
  532TMC3    C3 7948   0.705   4.435  13.686 -0.2015 -0.8016 -0.6500
  532TMC3    C4 7949   0.712   4.168  13.659  0.0134  0.1835  0.5055
  532TMC3    C5 7950   0.832   4.244  13.661  0.4321 -0.3074  0.0390
  532TMC3    C6 7951   0.831   4.372  13.675 -0.1986  0.2685  0.2719
  532TMC3     C 7952   0.502   4.188  13.568  0.7790  0.2781 -0.4679
  532TMC3     O 7953   0.429   4.276  13.523  0.4256 -0.1490 -0.6500
  532TMC3     H 7954   0.500   4.423  13.702 -0.7367 -1.3413 -1.0314
  532TMC3    H1 7955   0.721   4.060  13.668 -0.0633  0.2085  0.8901
  532TMC3    H2 7956   0.922   4.431  13.675  0.3576 -0.5866 -2.5033
  532TMC3    C7 7957   0.951   4.185  13.601 -0.4864  0.4853  0.2868
  532TMC3    C8 7958   0.702   4.544  13.586  0.2308 -0.4569  0.2146
  532TMC3    O1 7959   1.042   4.260  13.573 -0.0600 -0.3195 -0.3030
  532TMC3    O2 7960   0.798   4.622  13.576  0.5035 -0.1723 -0.2322
  533TMC3    C1 7961   1.720   0.926  13.933 -0.4145  0.0667 -0.4491
  533TMC3    C2 7962   1.856   0.928  13.984 -0.9695  0.3373 -0.2175
  533TMC3    C3 7963   1.886   1.045  14.046 -0.4225  0.4441  0.7480
  533TMC3    C4 7964   1.644   1.040  13.918  0.4640  0.2782  0.2963
  533TMC3    C5 7965   1.688   1.153  13.982 -0.4131  0.3234 -0.5447
  533TMC3    C6 7966   1.804   1.147  14.053 -0.2251  0.4414 -0.1020
  533TMC3     C 7967   1.645   0.801  13.958 -0.3606  0.2981  0.7582
  533TMC3     O 7968   1.708   0.710  14.011  0.2166 -0.1944 -0.2191
  533TMC3     H 7969   1.917   0.839  13.994 -0.6884  0.7240  1.4665
  533TMC3    H1 7970   1.555   1.042  13.856 -0.6184  1.0036  1.8890
  533TMC3    H2 7971   1.855   1.234  14.093  1.1445 -0.4276  0.0636
  533TMC3    C7 7972   1.571   1.190  14.064  0.0188 -0.0968 -0.1934
  533TMC3    C8 7973   2.017   1.066  14.110 -0.5580  0.0377  0.2778
  533TMC3    O1 7974   1.470   1.126  14.057  0.2560 -0.0302 -0.2937
  533TMC3    O2 7975   2.025   1.141  14.206 -0.2668 -0.2568 -0.1677
  534MPD2     C 7976   3.883   2.220   1.401  0.0981 -0.2861 -0.3315
  534MPD2    C1 7977   3.838   2.207   1.274 -0.4159  0.3483  0.5638
  534MPD2    C2 7978   3.760   2.096   1.237  0.5736 -0.9049 -0.0498
  534MPD2    C3 7979   3.741   1.995   1.326  0.0301  0.3471  0.5692
  534MPD2    C4 7980   3.793   2.012   1.449  0.2692 -0.4182  0.0223
  534MPD2    C5 7981   3.873   2.115   1.484 -0.6655 -0.2181 -0.6333
  534MPD2     H 7982   3.738   2.086   1.131 -0.2918  0.4152  0.0025
  534MPD2    H1 7983   3.778   1.941   1.529 -1.3246  1.4080  1.3642
  534MPD2    H2 7984   3.935   2.310   1.434 -0.3677 -1.0417  2.4097
  534MPD2    H3 7985   3.915   2.116   1.584 -1.3223  2.9779 -0.3690
  534MPD2     N 7986   3.666   1.887   1.294 -0.1666 -0.2974 -0.3853
  534MPD2    H5 7987   3.668   1.809   1.360  2.1684 -2.3316 -2.8565
  534MPD2    N1 7988   3.854   2.309   1.172  0.0646  0.3751  0.2322
  534MPD2    H7 7989   3.816   2.299   1.078  1.0086 -1.0523  0.0019
  535TMC3    C1 7990   3.533   1.733   1.163 -0.2126 -0.3422 -0.0455
  535TMC3    C2 7991   3.419   1.718   1.098 -0.4241  0.7457  0.9195
  535TMC3    C3 7992   3.375   1.591   1.064  0.1485 -0.0744  0.4847
  535TMC3    C4 7993   3.608   1.623   1.205  0.3476  0.0461  0.1081
  535TMC3    C5 7994   3.561   1.497   1.170  0.2466 -0.1882  0.6789
  535TMC3    C6 7995   3.442   1.478   1.107  0.9268 -0.3051  0.3029
  535TMC3     C 7996   3.595   1.866   1.176 -0.3897  0.2432 -1.0291
  535TMC3     O 7997   3.561   1.949   1.098  0.1394 -0.5395 -0.1734
  535TMC3     H 7998   3.360   1.805   1.072  2.5567  2.2167 -0.8141
  535TMC3    H1 7999   3.705   1.640   1.251  0.1210 -1.6182  1.1836
  535TMC3    H2 8000   3.406   1.379   1.082 -0.8260  0.2308  0.6890
  535TMC3    C7 8001   3.637   1.376   1.190 -0.0913  0.4540 -0.3593
  535TMC3    C8 8002   3.263   1.567   0.993  0.4860 -0.1990  1.1095
  535TMC3    O1 8003   3.614   1.288   1.111  0.3527 -0.0779 -0.0384
  535TMC3    O2 8004   3.179   1.481   1.023  0.3034 -0.3067 -0.0171
  536MPD2     C 8005   2.583   0.146  16.539 -0.2998 -0.4868  0.7872
  536MPD2    C1 8006   2.449   0.096  16.547 -0.5663  0.2098  0.1441
  536MPD2    C2 8007   2.366   0.122  16.438 -0.1135  0.5480 -0.3264
  536MPD2    C3 8008   2.407   0.218  16.339  0.7060  0.3697 -0.0884
  536MPD2    C4 8009   2.529   0.271  16.342 -0.0838  0.0013  0.2990
  536MPD2    C5 8010   2.619   0.226  16.436 -0.2196 -0.3042 -0.7156
  536MPD2     H 8011   2.270   0.072  16.429  0.5529 -0.4356 -2.0116
  536MPD2    H1 8012   2.561   0.332  16.259 -2.7154  0.7549 -0.1596
  536MPD2    H2 8013   2.661   0.129  16.611 -0.1082  1.1302  0.9671
  536MPD2    H3 8014   2.722   0.260  16.446 -0.6871  0.4653  1.4699
  536MPD2     N 8015   2.325   0.260  16.236 -0.4937  0.0500 -0.2456
  536MPD2    H5 8016   2.362   0.335  16.179 -0.1526 -0.4780 -0.7267
  536MPD2    N1 8017   2.418   0.008  16.651  0.4126  0.2728 -0.2725
  536MPD2    H7 8018   2.495   4.712  16.710  0.6350 -0.0795 -0.7532
  537TMC3    C1 8019   2.297   4.587  16.780  0.7165 -0.0581  0.0860
  537TMC3    C2 8020   2.411   4.567  16.854 -0.1769  0.4639  0.2645
  537TMC3    C3 8021   2.407   4.476  16.952 -0.1623  0.2056 -0.3476
  537TMC3    C4 8022   2.182   4.525  16.807  0.2956 -0.3061  0.4001
  537TMC3    C5 8023   2.183   4.429  16.908  0.1563  0.2630 -0.2753
  537TMC3    C6 8024   2.297   4.405  16.985 -0.4331 -0.4932 -0.5778
  537TMC3     C 8025   2.296   4.677  16.671  0.0621  0.1719  0.6593
  537TMC3     O 8026   2.188   4.695  16.616 -0.5945 -0.0520  0.2970
  537TMC3     H 8027   2.504   4.613  16.825  0.7799 -2.7006 -1.7092
  537TMC3    H1 8028   2.094   4.559  16.753  2.0163 -1.9675 -3.4295
  537TMC3    H2 8029   2.295   4.350  17.079  1.3615  0.7994  0.2274
  537TMC3    C7 8030   2.054   4.369  16.952  0.0697 -0.5172 -0.4442
  537TMC3    C8 8031   2.532   4.467  17.020  0.0614  0.3817 -0.0331
  537TMC3    O1 8032   1.956   4.436  16.938 -0.3807  0.5524 -0.3584
  537TMC3    O2 8033   2.614   4.557  17.001  0.3993  0.7017  0.2609
  538TMC3    C1 8034   4.199   2.939  11.433 -0.4451 -0.0393  0.3873
  538TMC3    C2 8035   4.257   2.865  11.330  0.4965  0.4606 -0.5589
  538TMC3    C3 8036   4.181   2.820  11.229  0.0280 -0.5659 -0.9506
  538TMC3    C4 8037   4.072   2.987  11.423  0.1629  0.0112 -0.0582
  538TMC3    C5 8038   4.006   2.952  11.307 -0.4036  0.0169 -0.4663
  538TMC3    C6 8039   4.054   2.870  11.212 -0.0373  0.0805  0.6680
  538TMC3     C 8040   4.284   2.989  11.538  0.3098  0.3421  0.7668
  538TMC3     O 8041   4.236   3.010  11.652  0.1934  0.1069 -0.0515
  538TMC3     H 8042   4.360   2.834  11.338 -0.1939 -1.7015 -0.0088
  538TMC3    H1 8043   4.025   3.048  11.499  1.8967  1.6702 -0.3414
  538TMC3    H2 8044   4.006   2.834  11.122 -0.0344  1.5122  0.0970
  538TMC3    C7 8045   3.877   3.021  11.273  0.2121  0.1150 -0.8656
  538TMC3    C8 8046   4.246   2.784  11.101  0.2413 -0.6783 -0.0015
  538TMC3    O1 8047   3.802   2.962  11.198 -0.1805 -0.1145 -0.0110
  538TMC3    O2 8048   4.196   2.690  11.034 -0.8671  0.5087 -0.2955
  539MPD2     C 8049   4.031   2.484  11.410 -0.1767  0.0407  0.0496
  539MPD2    C1 8050   3.987   2.357  11.445 -0.3181  0.0973  0.3161
  539MPD2    C2 8051   3.852   2.338  11.466  0.4189  0.4252 -0.6585
  539MPD2    C3 8052   3.763   2.438  11.456  0.4119  0.2776 -0.4233
  539MPD2    C4 8053   3.806   2.560  11.417  0.4477 -0.1611 -0.1823
  539MPD2    C5 8054   3.940   2.582  11.390 -0.0669 -0.1702 -0.1604
  539MPD2     H 8055   3.815   2.241  11.496 -0.9966  1.6929  1.6736
  539MPD2    H1 8056   3.736   2.643  11.417  0.7194  0.0704 -0.8594
  539MPD2    H2 8057   4.131   2.503  11.374  0.8646 -0.9465  2.4791
  539MPD2    H3 8058   3.972   2.683  11.365 -2.4466  0.5560 -0.2803
  539MPD2     N 8059   3.627   2.419  11.478  0.1743  0.3629  0.6094
  539MPD2    H5 8060   3.566   2.495  11.450 -0.4854 -0.9279 -1.4796
  539MPD2    N1 8061   4.075   2.243  11.451  0.1572  0.1553 -0.2376
  539MPD2    H7 8062   4.030   2.154  11.462 -0.4564  0.5470  0.3782
  540TMC3    C1 8063   3.423   2.318  11.546  0.3871 -0.0815  0.1346
  540TMC3    C2 8064   3.360   2.348  11.432 -0.3271  0.6636 -0.5260
  540TMC3    C3 8065   3.221   2.340  11.437 -0.4429 -0.0199 -0.3138
  540TMC3    C4 8066   3.368   2.271  11.660  0.5977 -0.5077 -0.6339
  540TMC3    C5 8067   3.231   2.263  11.656  0.0264  0.2107 -0.1067
  540TMC3    C6 8068   3.154   2.314  11.555  0.1415  0.2661  0.6608
  540TMC3     C 8069   3.570   2.326  11.557  0.1099 -0.4134  0.5047
  540TMC3     O 8070   3.623   2.241  11.624  0.0279 -0.3502 -0.3690
  540TMC3     H 8071   3.421   2.372  11.345  1.3181 -0.8987  0.1819
  540TMC3    H1 8072   3.432   2.245  11.744  1.7215  0.6950 -1.1114
  540TMC3    H2 8073   3.047   2.323  11.569 -0.0463  0.1902 -0.6804
  540TMC3    C7 8074   3.155   2.214  11.769 -0.6950  0.3095  0.5416
  540TMC3    C8 8075   3.152   2.399  11.320  0.1900 -0.0216  0.1910
  540TMC3    O1 8076   3.032   2.225  11.768 -0.4356  0.0087 -0.0379
  540TMC3    O2 8077   3.037   2.434  11.326 -0.0094  0.3228 -0.2372
  541MPD2     C 8078   1.360   3.852  13.041  0.0245  0.4278  0.0068
  541MPD2    C1 8079   1.472   3.802  12.986 -0.1601 -0.5081 -0.5493
  541MPD2    C2 8080   1.575   3.890  12.935  0.3845 -0.5462 -0.0893
  541MPD2    C3 8081   1.541   4.027  12.925  0.2859  0.2020 -0.0687
  541MPD2    C4 8082   1.424   4.073  12.981  0.3568  0.4292  0.2215
  541MPD2    C5 8083   1.332   3.987  13.040 -0.0723  0.0623 -0.1280
  541MPD2     H 8084   1.671   3.852  12.900 -0.4073  0.8876 -3.7537
  541MPD2    H1 8085   1.402   4.179  12.978  0.8935  0.4683 -2.1859
  541MPD2    H2 8086   1.303   3.785  13.105  2.4848 -2.1090 -0.4968
  541MPD2    H3 8087   1.239   4.030  13.076 -0.4900 -0.4403 -0.6119
  541MPD2     N 8088   1.617   4.137  12.869 -0.0502  0.0065  0.0367
  541MPD2    H5 8089   1.569   4.226  12.873  0.5185  0.3678 -1.0874
  541MPD2    N1 8090   1.483   3.660  12.993 -0.1772  0.2150  0.1728
  541MPD2    H7 8091   1.403   3.608  13.028 -0.3051 -0.0077 -0.4482
  542TMC3    C1 8092   1.816   4.240  12.783  0.5537  0.4501 -0.6746
  542TMC3    C2 8093   1.943   4.224  12.735 -0.5804  0.1534 -0.3417
  542TMC3    C3 8094   1.989   4.316  12.650  1.4903  0.0744  0.0482
  542TMC3    C4 8095   1.749   4.357  12.767  0.7270  0.2942  0.6089
  542TMC3    C5 8096   1.798   4.449  12.678 -0.0288 -0.4015 -0.4205
  542TMC3    C6 8097   1.917   4.428  12.614  0.0518  0.3949  0.6453
  542TMC3     C 8098   1.751   4.125  12.836  0.0031 -0.0912  0.2216
  542TMC3     O 8099   1.813   4.019  12.836  0.4625 -0.5568 -0.3792
  542TMC3     H 8100   1.977   4.122  12.723  1.0432  0.3943  2.1930
  542TMC3    H1 8101   1.649   4.374  12.807  0.5638  0.5120  0.1014
  542TMC3    H2 8102   1.968   4.512  12.567  0.7981 -1.5569 -2.0630
  542TMC3    C7 8103   1.736   4.582  12.656 -0.6561  0.2530 -0.6079
  542TMC3    C8 8104   2.052   4.258  12.530 -0.2474  0.0862  0.1073
  542TMC3    O1 8105   1.661   4.617  12.743  0.3720  0.0148  0.7134
  542TMC3    O2 8106   2.001   4.282  12.424  0.3315 -0.0067  0.6534
  543TMC3    C1 8107   1.545   0.933  17.533  0.0341 -0.2118 -0.2689
  543TMC3    C2 8108   1.523   0.801  17.513  0.3636 -1.0002  0.0717
  543TMC3    C3 8109   1.427   0.735  17.582  0.3240 -0.1335 -0.0959
  543TMC3    C4 8110   1.470   1.013  17.612 -0.1878 -0.9747  0.2892
  543TMC3    C5 8111   1.369   0.943  17.686 -0.4756  0.6235  0.1542
  543TMC3    C6 8112   1.352   0.806  17.673 -0.3336  0.1475  0.3583
  543TMC3     C 8113   1.634   1.000  17.439 -1.2635 -0.2071 -0.0863
  543TMC3     O 8114   1.732   0.939  17.410  0.7712  0.0352  0.0227
  543TMC3     H 8115   1.575   0.754  17.430  0.3438 -0.0142 -0.5014
  543TMC3    H1 8116   1.496   1.116  17.633  1.0252 -1.1494 -0.3459
  543TMC3    H2 8117   1.286   0.753   0.000 -0.5857 -1.7455 -1.3999
  543TMC3    C7 8118   1.264   1.008   0.023  0.6146 -0.1471  0.1166
  543TMC3    C8 8119   1.399   0.598  17.546  0.2739 -0.0553  0.6278
  543TMC3    O1 8120   1.203   0.935   0.103  0.4074  0.0250 -0.0284
  543TMC3    O2 8121   1.300   0.546  17.595  0.2864 -0.2361 -0.2945
  544MPD2     C 8122   1.507   0.180  17.251  0.6014  0.2752  0.0993
  544MPD2    C1 8123   1.418   0.192  17.362 -0.1695 -0.0386 -0.0520
  544MPD2    C2 8124   1.418   0.307  17.441 -0.2417 -0.2627  0.2665
  544MPD2    C3 8125   1.504   0.413  17.405  0.3207 -0.6076  0.6494
  544MPD2    C4 8126   1.604   0.396  17.303  0.0773  0.1432  0.0752
  544MPD2    C5 8127   1.598   0.285  17.227 -0.4309 -0.3703  0.1991
  544MPD2     H 8128   1.338   0.323  17.513  0.8758  0.2616  1.3890
  544MPD2    H1 8129   1.677   0.471  17.276  0.7147  0.5603  2.9828
  544MPD2    H2 8130   1.503   0.094  17.185 -1.4724  0.1168  0.4340
  544MPD2    H3 8131   1.665   0.278  17.141 -0.7915 -5.0142  0.3073
  544MPD2     N 8132   1.500   0.543  17.469  0.2537  0.7529 -0.7572
  544MPD2    H5 8133   1.579   0.593  17.431  1.8011 -3.0534 -2.5696
  544MPD2    N1 8134   1.322   0.088  17.372  0.1167  0.0301 -0.2798
  544MPD2    H7 8135   1.338   0.015  17.302  0.5277  0.3444 -0.5162
  545TMC3    C1 8136   1.162   4.684  17.472 -1.0289  0.6963  0.5926
  545TMC3    C2 8137   1.041   4.686  17.536  0.1188 -0.3630  0.8572
  545TMC3    C3 8138   0.966   4.573  17.516 -0.3538  0.2633  0.0441
  545TMC3    C4 8139   1.215   4.573  17.409 -0.3459  0.2521  0.2597
  545TMC3    C5 8140   1.135   4.458  17.402 -0.2426  0.4297  1.2099
  545TMC3    C6 8141   1.015   4.457  17.458  1.1497  0.4591 -0.0294
  545TMC3     C 8142   1.233   0.074  17.473 -0.0989 -0.7650  0.0668
  545TMC3     O 8143   1.206   0.154  17.562  0.1241  0.2170  0.0162
  545TMC3     H 8144   1.002   0.048  17.563  0.5811  0.4127 -1.2490
  545TMC3    H1 8145   1.311   4.570  17.358 -1.0648  0.9543 -1.1288
  545TMC3    H2 8146   0.946   4.374  17.458  2.0355 -0.2841 -1.2223
  545TMC3    C7 8147   1.195   4.327  17.360 -0.5235  0.5418 -0.8233
  545TMC3    C8 8148   0.844   4.559  17.589 -0.5865  0.4487  0.3533
  545TMC3    O1 8149   1.116   4.266  17.289 -0.2918  0.4852 -0.0100
  545TMC3    O2 8150   0.766   4.470  17.560  0.4031 -0.1803 -0.2920
  546MPD2     C 8151   3.000   0.845   0.252  0.2672  0.2235  0.5380
  546MPD2    C1 8152   2.981   0.859   0.115 -0.2056 -0.0507  0.5356
  546MPD2    C2 8153   3.049   0.964   0.048  0.2057  0.5175  0.7568
  546MPD2    C3 8154   3.096   1.076   0.115  0.3166  0.0271 -0.0110
  546MPD2    C4 8155   3.091   1.070   0.255 -1.0200 -0.1559 -0.5873
  546MPD2    C5 8156   3.046   0.953   0.321 -0.3918  0.2092  0.0916
  546MPD2     H 8157   3.046   0.954  17.680 -1.3386  0.5482  0.7902
  546MPD2    H1 8158   3.149   1.147   0.304 -1.0413 -0.0012 -0.8050
  546MPD2    H2 8159   2.987   0.757   0.314  1.3121 -0.4973 -0.2566
  546MPD2    H3 8160   3.084   0.950   0.423 -0.5933  2.8125  0.2585
  546MPD2     N 8161   3.172   1.185   0.055  0.2356 -0.3793  0.2321
  546MPD2    H5 8162   3.205   1.254   0.122 -2.3685  0.2756  0.8520
  546MPD2    N1 8163   2.905   0.763   0.043  0.3759 -0.8955 -0.3085
  546MPD2    H7 8164   2.874   0.677   0.086  2.0902 -0.9606  0.7708
  547TMC3    C1 8165   2.778   0.673  17.606 -0.1220 -0.3259  0.2330
  547TMC3    C2 8166   2.683   0.698  17.506 -0.4651 -0.4128  0.3594
  547TMC3    C3 8167   2.627   0.589  17.452  0.5744 -0.2586 -0.2059
  547TMC3    C4 8168   2.802   0.543  17.660 -0.3449 -0.5376 -1.3215
  547TMC3    C5 8169   2.735   0.443  17.604 -0.3131  0.6604 -0.0408
  547TMC3    C6 8170   2.648   0.459  17.500 -0.4352  1.1118 -0.3355
  547TMC3     C 8171   2.848   0.790  17.665 -0.0941  0.1853 -0.0968
  547TMC3     O 8172   2.849   0.895  17.599  0.1512  0.1154  0.2207
  547TMC3     H 8173   2.670   0.800  17.471  0.0177 -0.2218  0.7353
  547TMC3    H1 8174   2.883   0.520  17.728 -0.9236 -0.7342 -0.7001
  547TMC3    H2 8175   2.579   0.384  17.462  0.4928 -0.0862  0.3479
  547TMC3    C7 8176   2.741   0.321  17.673  0.3822  0.3359  0.4994
  547TMC3    C8 8177   2.533   0.597  17.342 -0.5559  0.2330  0.3446
  547TMC3    O1 8178   2.744   0.326   0.056  0.3108 -0.1030 -0.2771
  547TMC3    O2 8179   2.461   0.695  17.330  0.6765  0.4436  0.1226
  548MPD2     C 8180   2.886   0.917  12.642 -0.5784 -0.1111  0.5351
  548MPD2    C1 8181   2.803   0.806  12.624  0.1969 -0.2410  0.2360
  548MPD2    C2 8182   2.834   0.713  12.535  0.7063  0.2365 -0.1085
  548MPD2    C3 8183   2.956   0.715  12.474 -0.0513  0.2456  0.3240
  548MPD2    C4 8184   3.046   0.820  12.496  0.3833 -0.0842 -0.1311
  548MPD2    C5 8185   3.008   0.921  12.583 -0.2298  0.0918 -0.3817
  548MPD2     H 8186   2.765   0.631  12.517  0.1358  0.5128  0.7952
  548MPD2    H1 8187   3.137   0.832  12.438  0.3917  0.1721 -0.0637
  548MPD2    H2 8188   2.864   1.008  12.697  2.2721 -0.2836  1.9764
  548MPD2    H3 8189   3.078   1.004  12.589 -0.2610  0.1653 -1.0580
  548MPD2     N 8190   2.984   0.610  12.381  0.1081 -0.8308 -0.0774
  548MPD2    H5 8191   2.914   0.539  12.360  0.5393 -0.8895 -1.3309
  548MPD2    N1 8192   2.675   0.800  12.693  0.1894 -0.2129  0.9501
  548MPD2    H7 8193   2.633   0.888  12.724  0.1974 -0.4101  1.5057
  549TMC3    C1 8194   2.468   0.712  12.740  0.1331  0.2824  0.9281
  549TMC3    C2 8195   2.397   0.791  12.665 -0.6412  0.0106 -0.1261
  549TMC3    C3 8196   2.265   0.785  12.660 -0.6910  0.6483 -0.0330
  549TMC3    C4 8197   2.409   0.618  12.818 -0.1622 -0.0863 -0.8824
  549TMC3    C5 8198   2.272   0.612  12.816  0.1910 -0.6566 -0.5842
  549TMC3    C6 8199   2.196   0.699  12.742  0.2990 -0.1313 -0.2100
  549TMC3     C 8200   2.606   0.686  12.717  0.2966 -0.0637 -0.2796
  549TMC3     O 8201   2.637   0.571  12.706  0.0043  0.0779 -0.3571
  549TMC3     H 8202   2.443   0.879  12.620 -1.1392  0.4720  0.2736
  549TMC3    H1 8203   2.466   0.563  12.891 -0.0214 -1.5480 -2.1132
  549TMC3    H2 8204   2.089   0.685  12.739  0.1999  0.8262 -1.1891
  549TMC3    C7 8205   2.199   0.527  12.901 -0.1483 -0.2005  0.1006
  549TMC3    C8 8206   2.187   0.852  12.559  0.4117 -0.0395  0.0886
  549TMC3    O1 8207   2.081   0.535  12.916  0.0482 -0.1227 -0.4407
  549TMC3    O2 8208   2.067   0.827  12.571 -0.0637  0.2253  0.4237
  550TMC3    C1 8209   1.087   3.380  12.452  0.7105  0.2260  0.0920
  550TMC3    C2 8210   1.037   3.397  12.579  0.2163 -0.4956 -0.4347
  550TMC3    C3 8211   0.963   3.510  12.600  0.6601 -0.1993 -0.3569
  550TMC3    C4 8212   1.043   3.457  12.345  0.1125  0.1981 -0.9358
  550TMC3    C5 8213   0.980   3.575  12.376 -0.2681  0.1533 -0.5956
  550TMC3    C6 8214   0.952   3.609  12.502  0.5559  0.7639  0.2252
  550TMC3     C 8215   1.172   3.263  12.418 -0.2132 -0.4029  1.0809
  550TMC3     O 8216   1.180   3.187  12.514 -0.0112 -0.3509 -0.2448
  550TMC3     H 8217   1.039   3.324  12.659  3.1492  1.8880  1.6306
  550TMC3    H1 8218   1.062   3.430  12.242  3.3210  1.5673 -0.6884
  550TMC3    H2 8219   0.918   3.710  12.523  1.3239  1.2195 -0.7001
  550TMC3    C7 8220   0.934   3.673  12.279 -0.0590 -0.2379  0.4524
  550TMC3    C8 8221   0.856   3.500  12.700 -0.0775 -0.6161  0.1626
  550TMC3    O1 8222   0.852   3.755  12.319 -0.5481 -0.2862  0.1404
  550TMC3    O2 8223   0.851   3.397  12.762 -0.1387  0.3195 -0.5982
  551TMC3    C1 8224   3.799   1.875  13.493 -0.3597 -0.1334 -0.1958
  551TMC3    C2 8225   3.834   1.972  13.402 -0.4318  0.0880 -0.2053
  551TMC3    C3 8226   3.820   2.098  13.447 -0.1124 -0.6225  0.6403
  551TMC3    C4 8227   3.768   1.904  13.623 -0.1232 -0.9587  0.0751
  551TMC3    C5 8228   3.746   2.034  13.662  0.4955  0.1652  0.2460
  551TMC3    C6 8229   3.778   2.132  13.575 -0.0725 -0.3616  0.3614
  551TMC3     C 8230   3.806   1.737  13.451  0.0598  0.0820  0.6796
  551TMC3     O 8231   3.886   1.701  13.364 -0.0403  0.2080 -0.0715
  551TMC3     H 8232   3.866   1.944  13.303 -0.0079  0.1651 -0.0910
  551TMC3    H1 8233   3.744   1.823  13.691 -2.1286 -0.9262 -0.5825
  551TMC3    H2 8234   3.785   2.235  13.608  0.0964 -0.3136  0.1806
  551TMC3    C7 8235   3.760   2.052  13.808 -0.1363  0.3670  0.6119
  551TMC3    C8 8236   3.869   2.211  13.359  0.1378 -0.7196  0.2654
  551TMC3    O1 8237   3.829   1.972  13.870 -0.4582  0.4386  0.1617
  551TMC3    O2 8238   3.880   2.323  13.408  0.0958 -0.1110 -0.1786
  552MPD2     C 8239   1.163   3.744  14.267 -0.4323  0.7496  0.3742
  552MPD2    C1 8240   1.064   3.702  14.358 -0.1672 -0.0452 -0.2492
  552MPD2    C2 8241   1.098   3.690  14.493  0.0884  0.0729  0.2594
  552MPD2    C3 8242   1.230   3.717  14.528 -0.5323 -0.7343  0.2537
  552MPD2    C4 8243   1.326   3.743  14.431  0.3130 -0.0976 -0.4233
  552MPD2    C5 8244   1.289   3.769  14.307 -0.1788  0.4200 -0.1109
  552MPD2     H 8245   1.023   3.678  14.571 -0.3438 -0.6238 -0.2663
  552MPD2    H1 8246   1.430   3.765  14.454 -0.7386  2.0990  2.1592
  552MPD2    H2 8247   1.129   3.754  14.165  2.1698  1.0602 -0.4702
  552MPD2    H3 8248   1.360   3.804  14.234  3.1114  0.7275  3.2407
  552MPD2     N 8249   1.274   3.712  14.660 -0.3187 -0.1474 -0.9582
  552MPD2    H5 8250   1.368   3.743  14.682 -0.8967  0.2912  0.8948
  552MPD2    N1 8251   0.932   3.666  14.322 -0.1181 -0.0255  0.2322
  552MPD2    H7 8252   0.876   3.635  14.401 -1.3342 -1.9401 -1.3814
  553TMC3    C1 8253   0.745   3.611  14.172 -0.0762  0.4993 -0.2317
  553TMC3    C2 8254   0.689   3.625  14.044 -1.0540 -0.6292  0.1963
  553TMC3    C3 8255   0.593   3.536  14.006  0.1060 -0.1396  0.4801
  553TMC3    C4 8256   0.711   3.512  14.259  0.5784  0.5821  0.2688
  553TMC3    C5 8257   0.617   3.418  14.217  0.6152  0.6957  0.8260
  553TMC3    C6 8258   0.554   3.432  14.094 -0.0365 -0.1714  1.1199
  553TMC3     C 8259   0.874   3.675  14.194  0.5297 -0.1366 -0.0949
  553TMC3     O 8260   0.911   3.737  14.097 -0.0735 -0.1020 -0.5048
  553TMC3     H 8261   0.720   3.707  13.981 -2.1379 -0.1760  0.2557
  553TMC3    H1 8262   0.758   3.502  14.356 -3.1917 -0.8818  1.9524
  553TMC3    H2 8263   0.494   3.354  14.048 -1.6760  1.5362  0.3376
  553TMC3    C7 8264   0.680   3.285  14.231  0.0897  0.0010  0.2398
  553TMC3    C8 8265   0.576   3.535  13.866  0.0742  0.3127  0.5921
  553TMC3    O1 8266   0.804   3.290  14.243  0.1836 -0.1366  0.6237
  553TMC3    O2 8267   0.679   3.555  13.801 -0.1535 -0.3013 -0.2388
  554TMC3    C1 8268   2.786   2.093  11.646  0.1694  0.1492 -0.7627
  554TMC3    C2 8269   2.811   2.054  11.516  0.1609  0.7598  0.1401
  554TMC3    C3 8270   2.783   2.151  11.422 -0.4134  0.1004 -0.8343
  554TMC3    C4 8271   2.750   2.223  11.680  0.3604  0.0800 -0.5535
  554TMC3    C5 8272   2.718   2.315  11.579 -0.4262  0.1405 -0.1971
  554TMC3    C6 8273   2.721   2.270  11.450 -0.0977  0.4093  0.0815
  554TMC3     C 8274   2.800   1.997  11.749  0.1269  0.0306  0.0508
  554TMC3     O 8275   2.892   1.920  11.750  1.0748 -0.4327 -0.3210
  554TMC3     H 8276   2.828   1.953  11.482 -1.9028  0.7679 -0.9240
  554TMC3    H1 8277   2.756   2.265  11.780 -1.7899  1.0567 -0.8226
  554TMC3    H2 8278   2.681   2.335  11.373 -0.9187 -2.3003 -1.8140
  554TMC3    C7 8279   2.752   2.458  11.597 -0.2270 -0.1995  1.1872
  554TMC3    C8 8280   2.758   2.120  11.280  0.2599 -0.0759  0.5041
  554TMC3    O1 8281   2.717   2.530  11.506 -0.1560  0.0419 -0.8703
  554TMC3    O2 8282   2.789   2.215  11.213  0.4756 -0.5233  0.0433
  555TMC3    C1 8283   1.653   2.658  15.168 -0.1192 -0.0447 -0.7878
  555TMC3    C2 8284   1.672   2.692  15.302 -0.1574  0.0251  0.2345
  555TMC3    C3 8285   1.716   2.599  15.384  0.7426 -0.1833  0.1749
  555TMC3    C4 8286   1.697   2.544  15.113 -0.7090 -0.6342  0.2957
  555TMC3    C5 8287   1.757   2.463  15.202 -0.3268  0.1491  0.0750
  555TMC3    C6 8288   1.748   2.475  15.337  0.6095 -0.5096  0.2763
  555TMC3     C 8289   1.653   2.774  15.093 -0.0229 -0.2404 -0.7962
  555TMC3     O 8290   1.696   2.881  15.138 -0.5794  0.0173 -0.2572
  555TMC3     H 8291   1.647   2.788  15.347  2.8240  1.1639 -0.5038
  555TMC3    H1 8292   1.697   2.521  15.007 -0.3702 -1.1445  0.4044
  555TMC3    H2 8293   1.810   2.405  15.393  0.4957 -1.3392 -0.6275
  555TMC3    C7 8294   1.801   2.342  15.147  0.3411 -0.0900 -0.2894
  555TMC3    C8 8295   1.763   2.642  15.513  0.6854  0.0465 -0.0772
  555TMC3    O1 8296   1.818   2.265  15.239  0.0781 -0.1342 -0.5248
  555TMC3    O2 8297   1.806   2.759  15.524  0.4793 -0.6298  0.6674
  556MPD2     C 8298   4.406   4.100  11.229  0.3136  0.3695 -0.2960
  556MPD2    C1 8299   4.401   3.969  11.267 -1.2324  0.3199  0.0903
  556MPD2    C2 8300   4.459   3.872  11.191 -0.3886  0.3370 -0.3080
  556MPD2    C3 8301   4.490   3.899  11.054 -0.1745  0.4286 -0.9108
  556MPD2    C4 8302   4.474   4.027  11.005  0.3137 -0.1252 -0.6832
  556MPD2    C5 8303   4.431   4.127  11.094 -0.1168  0.2982  0.0042
  556MPD2     H 8304   4.489   3.778  11.237  1.5242  1.1817  0.1759
  556MPD2    H1 8305   4.520   4.062  10.913  0.4571  2.9457  0.5318
  556MPD2    H2 8306   4.387   4.180  11.300  2.0984  0.2335  0.3184
  556MPD2    H3 8307   4.429   4.230  11.058 -1.3905  0.6423  1.0570
  556MPD2     N 8308   4.544   3.799  10.981  0.4272  0.0043 -0.3813
  556MPD2    H5 8309   4.548   3.704  11.016  0.2765 -1.0271 -3.1633
  556MPD2    N1 8310   4.366   3.945  11.404 -0.1127  0.2388 -0.3893
  556MPD2    H7 8311   4.346   4.026  11.462  1.1469 -0.2638  0.7413
  557TMC3    C1 8312   4.604   3.669  10.787  0.2594  0.2730 -0.7773
  557TMC3    C2 8313   4.691   3.651  10.678 -0.0279 -0.0450  0.2221
  557TMC3    C3 8314   4.681   3.541  10.598  0.0290 -0.2876 -0.4824
  557TMC3    C4 8315   4.516   3.564  10.826 -0.4989  0.5657 -1.3461
  557TMC3    C5 8316   4.523   3.451  10.742  0.1884  0.0981  0.0035
  557TMC3    C6 8317   4.604   3.438  10.640 -0.0715 -0.2081  0.0101
  557TMC3     C 8318   4.592   3.801  10.852  0.2311  1.0077  0.5547
  557TMC3     O 8319   4.628   3.886  10.771  0.0396  0.2071 -0.1983
  557TMC3     H 8320   0.027   3.727  10.648 -1.6187  1.9619  1.5079
  557TMC3    H1 8321   4.438   3.575  10.900  0.7047  1.2284 -0.1778
  557TMC3    H2 8322   4.614   3.357  10.569  0.3522 -0.3540  0.2366
  557TMC3    C7 8323   4.473   3.331  10.810  0.3575 -0.2065 -0.6534
  557TMC3    C8 8324   0.056   3.506  10.508  0.2681  0.9069 -0.1045
  557TMC3    O1 8325   4.461   3.330  10.930 -0.2626  0.2738  0.2439
  557TMC3    O2 8326   0.058   3.560  10.398 -0.2874 -0.2994 -0.4370
  558TMC3    C1 8327   2.613   1.471  10.667  0.2835  0.6383  0.2298
  558TMC3    C2 8328   2.474   1.505  10.657  0.4181  0.1077  0.3645
  558TMC3    C3 8329   2.445   1.574  10.542 -0.2071 -0.1870  0.2282
  558TMC3    C4 8330   2.709   1.521  10.576 -0.2026 -0.3743  0.1407
  558TMC3    C5 8331   2.660   1.565  10.461 -0.0274 -0.6996 -0.0171
  558TMC3    C6 8332   2.528   1.588  10.430 -0.4516 -0.2581 -0.6128
  558TMC3     C 8333   2.673   1.432  10.795  0.2908  0.2910  0.0075
  558TMC3     O 8334   2.792   1.460  10.801  0.3137 -0.2562  0.2023
  558TMC3     H 8335   2.407   1.508  10.742 -1.0376 -0.3451 -0.7619
  558TMC3    H1 8336   2.816   1.511  10.585 -0.1505  1.2156  1.3681
  558TMC3    H2 8337   2.504   1.634  10.335 -0.2036  3.0565  0.9175
  558TMC3    C7 8338   2.757   1.541  10.356  0.2026 -0.3886  0.4899
  558TMC3    C8 8339   2.305   1.601  10.503  0.2590  0.0210 -0.7853
  558TMC3    O1 8340   2.867   1.597  10.368  0.3547 -0.2616 -0.4402
  558TMC3    O2 8341   2.277   1.586  10.386  0.0418 -0.2034  0.1769
  559MPD2     C 8342   2.489   1.955  10.337  0.6281 -0.4255 -0.5308
  559MPD2    C1 8343   2.427   1.964  10.455 -0.2071  0.0127  0.0687
  559MPD2    C2 8344   2.488   1.941  10.576  0.2363 -0.2911 -0.1619
  559MPD2    C3 8345   2.620   1.917  10.576 -0.2353 -0.1408  0.6958
  559MPD2    C4 8346   2.686   1.904  10.451  0.0199 -0.1017 -0.0819
  559MPD2    C5 8347   2.623   1.930  10.336  0.2170  0.2477 -0.5204
  559MPD2     H 8348   2.432   1.950  10.669 -1.5060  2.5411 -1.4643
  559MPD2    H1 8349   2.793   1.884  10.446  0.7176  3.5876 -0.1469
  559MPD2    H2 8350   2.438   1.968  10.242 -0.5475  2.8111  0.5127
  559MPD2    H3 8351   2.678   1.919  10.243  1.2734 -1.2343  0.2771
  559MPD2     N 8352   2.673   1.887  10.707  0.3242 -0.4803 -0.0162
  559MPD2    H5 8353   2.607   1.888  10.784 -0.8539 -0.6853 -1.0324
  559MPD2    N1 8354   2.291   1.987  10.466 -0.2326  0.0857 -0.6700
  559MPD2    H7 8355   2.246   2.002  10.556  0.8333 -0.3625 -0.0581
  560TMC3    C1 8356   2.818   1.827  10.878 -0.9607  0.1508  0.6333
  560TMC3    C2 8357   2.714   1.753  10.925  0.0617 -0.1164  0.1770
  560TMC3    C3 8358   2.728   1.713  11.055 -0.5541  0.3474  0.2216
  560TMC3    C4 8359   2.921   1.881  10.951 -0.2763  0.5657 -0.6736
  560TMC3    C5 8360   2.918   1.856  11.084 -0.5511 -0.1682  0.2107
  560TMC3    C6 8361   2.827   1.767  11.133 -0.0181 -0.0095 -0.1295
  560TMC3     C 8362   2.802   1.882  10.744  0.1234  0.4068 -0.4303
  560TMC3     O 8363   2.899   1.920  10.687 -0.3381  0.0546  0.2032
  560TMC3     H 8364   2.635   1.712  10.863  1.0651  0.0939 -1.2131
  560TMC3    H1 8365   2.980   1.958  10.904 -0.3580  1.7143  1.0950
  560TMC3    H2 8366   2.823   1.744  11.239  2.8905  0.1651  0.0135
  560TMC3    C7 8367   3.033   1.881  11.173  0.5715 -0.3411  0.7007
  560TMC3    C8 8368   2.602   1.661  11.113  0.2748 -0.1732  0.5941
  560TMC3    O1 8369   3.019   1.855  11.293 -1.1079  0.1637 -0.5244
  560TMC3    O2 8370   2.507   1.677  11.039 -0.9480 -1.0638 -0.1199
  561TMC3    C1 8371   0.269   1.115  11.122  0.3563 -0.2932 -0.0649
  561TMC3    C2 8372   0.217   1.047  11.230 -0.2505 -0.4257 -0.2652
  561TMC3    C3 8373   0.201   1.117  11.342  0.4709  0.0896 -0.4123
  561TMC3    C4 8374   0.308   1.246  11.126  0.3207  0.1996  0.3387
  561TMC3    C5 8375   0.293   1.319  11.246 -0.4113  0.1512  0.1102
  561TMC3    C6 8376   0.230   1.254  11.360 -0.0281 -0.5282  0.1011
  561TMC3     C 8377   0.276   1.043  10.995 -0.3879 -0.3914 -0.3430
  561TMC3     O 8378   0.218   0.936  11.006 -0.2929  0.2258 -0.7035
  561TMC3     H 8379   0.181   0.945  11.219 -1.3736 -0.3332  2.7756
  561TMC3    H1 8380   0.343   1.287  11.032 -1.0798 -0.5916 -0.5287
  561TMC3    H2 8381   0.209   1.310  11.451  1.1148  1.9013 -1.1140
  561TMC3    C7 8382   0.331   1.461  11.261  0.0234  0.0551  0.2583
  561TMC3    C8 8383   0.137   1.040  11.446 -0.0228  0.5113 -0.3421
  561TMC3    O1 8384   0.324   1.493  11.377 -0.0006  0.1007  0.1001
  561TMC3    O2 8385   0.105   0.927  11.422 -0.2487  0.5474  0.0302
  562TMC3    C1 8386   1.522   2.410  16.791  0.1495  0.6705  0.6271
  562TMC3    C2 8387   1.545   2.542  16.796 -0.0020 -0.0140  0.9905
  562TMC3    C3 8388   1.573   2.618  16.682 -0.2793 -0.1526 -0.4230
  562TMC3    C4 8389   1.541   2.343  16.672  0.4361 -0.6553  0.0713
  562TMC3    C5 8390   1.571   2.413  16.556 -0.7748  0.1189  0.0053
  562TMC3    C6 8391   1.592   2.553  16.562 -0.0641  0.4375  0.1021
  562TMC3     C 8392   1.505   2.327  16.910 -0.7426 -0.0888  0.2625
  562TMC3     O 8393   1.532   2.210  16.925  0.2058  0.6666 -0.2827
  562TMC3     H 8394   1.535   2.607  16.882  0.9841 -0.1970  1.2464
  562TMC3    H1 8395   1.548   2.235  16.673 -0.4606 -0.7420 -3.1759
  562TMC3    H2 8396   1.625   2.607  16.474 -1.1168  1.2754  0.2231
  562TMC3    C7 8397   1.544   2.366  16.424 -0.9077  0.3941 -0.1834
  562TMC3    C8 8398   1.547   2.763  16.681  0.1581 -0.9260 -0.7376
  562TMC3    O1 8399   1.580   2.434  16.334 -0.0111  0.2459 -0.1397
  562TMC3    O2 8400   1.539   2.811  16.794  0.0580  0.5392  0.6194
  563MPD2     C 8401   3.704   4.053  15.957 -0.4844 -0.0537 -0.1730
  563MPD2    C1 8402   3.739   4.064  16.091  0.2601 -0.2379 -0.2223
  563MPD2    C2 8403   3.864   4.012  16.124  0.1579  1.0967 -0.1675
  563MPD2    C3 8404   3.952   3.971  16.025 -0.3022  0.1292  0.3134
  563MPD2    C4 8405   3.914   3.980  15.893 -0.6040  0.2380  0.3687
  563MPD2    C5 8406   3.793   4.029  15.856 -0.2010 -0.7950 -0.1499
  563MPD2     H 8407   3.894   3.995  16.227 -0.2505 -2.3985 -0.6107
  563MPD2    H1 8408   3.969   3.941  15.809 -1.5863  0.2271 -0.2631
  563MPD2    H2 8409   3.603   4.079  15.926  0.5510  1.0605 -2.5890
  563MPD2    H3 8410   3.748   4.029  15.757 -0.3153  2.0679 -0.1064
  563MPD2     N 8411   4.066   3.909  16.078  0.1803 -0.1695  0.0950
  563MPD2    H5 8412   4.079   3.911  16.178 -2.1525  0.7509  0.3758
  563MPD2    N1 8413   3.645   4.106  16.188  0.3523 -0.0256  0.0078
  563MPD2    H7 8414   3.547   4.105  16.162  1.1355  0.0662 -2.9227
  564TMC3    C1 8415   3.563   4.110  16.411  0.2105  0.3344 -0.0198
  564TMC3    C2 8416   3.454   4.044  16.361 -0.1217 -0.5082  0.0116
  564TMC3    C3 8417   3.388   3.951  16.437  0.0424  0.6103 -0.8303
  564TMC3    C4 8418   3.613   4.069  16.530  0.1439  0.0688  0.1254
  564TMC3    C5 8419   3.553   3.973  16.602 -0.2574 -0.3207 -0.2167
  564TMC3    C6 8420   3.435   3.920  16.566 -0.4650 -0.6488  0.0539
  564TMC3     C 8421   3.679   4.132  16.318 -0.4002 -0.1754  0.0227
  564TMC3     O 8422   3.786   4.152  16.367  0.5060 -0.2763 -0.0044
  564TMC3     H 8423   3.433   4.055  16.255  0.0976 -1.4994 -0.1316
  564TMC3    H1 8424   3.704   4.108  16.573 -0.1059 -0.7750  1.4152
  564TMC3    H2 8425   3.379   3.851  16.629  0.4288 -0.1085  1.4396
  564TMC3    C7 8426   3.640   3.870  16.662  0.1194  0.5443  0.5979
  564TMC3    C8 8427   3.348   3.826  16.370 -0.1690 -0.5052  0.1925
  564TMC3    O1 8428   3.754   3.908  16.682  0.2767 -0.5660  0.3936
  564TMC3    O2 8429   3.343   3.724  16.436 -0.4240 -0.1913 -0.2541
  565TMC3    C1 8430   0.535   0.057  10.681  0.1665  0.5552  0.1066
  565TMC3    C2 8431   0.437   0.027  10.773 -0.3192  0.3008  0.0368
  565TMC3    C3 8432   0.375   4.635  10.754  0.1309 -0.7930 -0.3075
  565TMC3    C4 8433   0.572   4.706  10.582 -0.3813 -0.1827 -0.3516
  565TMC3    C5 8434   0.509   4.584  10.570  0.7330  0.0486  0.0998
  565TMC3    C6 8435   0.407   4.552  10.656  0.2113  0.3294 -0.6094
  565TMC3     C 8436   0.605   0.188  10.689 -0.4857  0.0486 -0.5524
  565TMC3     O 8437   0.655   0.233  10.588 -0.2514  0.3936 -0.0489
  565TMC3     H 8438   0.390   0.096  10.841  0.7051 -0.3856  1.4610
  565TMC3    H1 8439   0.657   0.003  10.524 -0.6325 -0.0454 -0.6468
  565TMC3    H2 8440   0.336   4.470  10.652 -1.5672  1.7122  2.4135
  565TMC3    C7 8441   0.568   4.492  10.476  0.4686  0.6274 -0.5898
  565TMC3    C8 8442   0.232   4.643  10.765  0.6121 -0.4801  0.5650
  565TMC3    O1 8443   0.618   4.542  10.375 -0.0875  0.1666  0.2405
  565TMC3    O2 8444   0.171   4.591  10.855 -0.1741  0.2476  0.6402
  566MPD2     C 8445   0.860   2.173  14.005 -0.8145 -0.5853  0.0860
  566MPD2    C1 8446   0.951   2.106  13.923 -0.1765 -0.4337 -0.2147
  566MPD2    C2 8447   0.901   2.010  13.835  0.1512  0.1009 -0.4039
  566MPD2    C3 8448   0.763   1.991  13.824 -0.0431 -0.5543 -0.0136
  566MPD2    C4 8449   0.672   2.064  13.896  0.4281  0.2344  0.8043
  566MPD2    C5 8450   0.716   2.147  13.996  0.3461  0.5736 -0.8771
  566MPD2     H 8451   0.973   1.958  13.773  1.1406  0.5434  0.3701
  566MPD2    H1 8452   0.566   2.045  13.884  0.3144  0.9740  0.6737
  566MPD2    H2 8453   0.903   2.238  14.080  0.1065 -3.0755  1.7136
  566MPD2    H3 8454   0.648   2.201  14.060 -0.2498  0.4080 -1.3691
  566MPD2     N 8455   0.710   1.893  13.732  0.0774 -0.5765  0.0143
  566MPD2    H5 8456   0.608   1.899  13.732  0.0977 -0.2173 -1.1624
  566MPD2    N1 8457   1.093   2.130  13.940 -0.1908  0.0874 -0.2867
  566MPD2    H7 8458   1.125   2.198  14.009  0.0116  0.2465 -0.5370
  567TMC3    C1 8459   1.322   2.145  13.873 -0.2824  0.5078  0.6477
  567TMC3    C2 8460   1.396   2.166  13.761  1.1970 -0.5107  0.5591
  567TMC3    C3 8461   1.534   2.163  13.775  0.0661 -0.7410 -0.3208
  567TMC3    C4 8462   1.379   2.143  13.997 -0.1217 -1.1273 -0.1384
  567TMC3    C5 8463   1.512   2.157  13.998  0.4657  0.0224  0.0582
  567TMC3    C6 8464   1.599   2.161  13.894  0.3550 -0.1791  0.5611
  567TMC3     C 8465   1.191   2.088  13.851 -0.0981 -0.6165  0.2691
  567TMC3     O 8466   1.186   2.043  13.737  0.2314  0.0695 -0.2660
  567TMC3     H 8467   1.355   2.169  13.661  2.6811  0.7569 -0.0131
  567TMC3    H1 8468   1.318   2.142  14.086  0.0422  0.0146 -0.0116
  567TMC3    H2 8469   1.704   2.187  13.901  0.6332 -1.1190 -0.1128
  567TMC3    C7 8470   1.564   2.233  14.109 -0.2978  0.0233 -0.0676
  567TMC3    C8 8471   1.627   2.168  13.661  0.2361 -0.1811 -0.2274
  567TMC3    O1 8472   1.666   2.295  14.082 -0.0460 -0.4688  0.0565
  567TMC3    O2 8473   1.730   2.101  13.663 -0.0057  0.5249 -0.3085
  568MPD2     C 8474   4.000   2.547  16.219  0.0418  0.0568  0.9037
  568MPD2    C1 8475   3.955   2.585  16.341 -0.3156  0.3760 -0.3317
  568MPD2    C2 8476   3.843   2.674  16.349  0.0364  0.0391 -0.6940
  568MPD2    C3 8477   3.791   2.720  16.226 -0.1072  0.2034 -0.3865
  568MPD2    C4 8478   3.852   2.693  16.110 -0.0262 -0.0098  0.2400
  568MPD2    C5 8479   3.945   2.595  16.104  0.5358  0.2329  0.3860
  568MPD2     H 8480   3.803   2.717  16.440 -0.9626 -0.7554 -0.7610
  568MPD2    H1 8481   3.818   2.736  16.017  0.5636  1.3219  0.6497
  568MPD2    H2 8482   4.083   2.478  16.209 -0.8556 -1.2661  2.6434
  568MPD2    H3 8483   3.994   2.584  16.008 -0.1696  0.4962 -0.0038
  568MPD2     N 8484   3.687   2.805  16.231  0.4889  0.3110  0.1523
  568MPD2    H5 8485   3.669   2.849  16.321  0.5572  2.0107 -0.6655
  568MPD2    N1 8486   4.014   2.522  16.455  0.0180  0.1274  0.2346
  568MPD2    H7 8487   4.090   2.461  16.425  2.2850  2.3234  1.5618
  569TMC3    C1 8488   3.501   2.943  16.164 -0.2023 -0.0847 -0.4206
  569TMC3    C2 8489   3.433   2.926  16.278 -0.7391  0.8040 -0.3688
  569TMC3    C3 8490   3.346   3.025  16.323 -0.4487  0.3612 -0.2946
  569TMC3    C4 8491   3.482   3.055  16.085  0.4833  0.3780  0.3026
  569TMC3    C5 8492   3.393   3.145  16.120 -0.5323 -0.8475 -1.1387
  569TMC3    C6 8493   3.325   3.133  16.240 -0.6223 -0.2346 -0.6498
  569TMC3     C 8494   3.609   2.854  16.124  0.0348 -0.7820  0.5300
  569TMC3     O 8495   3.612   2.825  16.006 -0.4286  0.0835 -0.1274
  569TMC3     H 8496   3.434   2.838  16.343  0.1992  0.7704 -0.4330
  569TMC3    H1 8497   3.554   3.078  16.007 -1.5223  4.2949 -0.3775
  569TMC3    H2 8498   3.233   3.185  16.264 -1.2447 -2.0873  0.9567
  569TMC3    C7 8499   3.376   3.266  16.039  0.8511 -0.0085  1.1766
  569TMC3    C8 8500   3.291   3.014  16.451  0.5778 -0.3949  0.7736
  569TMC3    O1 8501   3.429   3.266  15.928 -0.3178 -0.2427 -0.1092
  569TMC3    O2 8502   3.252   2.902  16.489 -0.2272 -0.0351 -0.0505
  570TMC3    C1 8503   2.973   1.558  16.314  0.0743  0.1116 -0.0604
  570TMC3    C2 8504   2.961   1.501  16.193 -0.0553 -0.6303  0.3411
  570TMC3    C3 8505   2.884   1.553  16.092 -0.0082  0.1041 -0.3676
  570TMC3    C4 8506   2.908   1.675  16.343 -0.2694 -0.1384  0.0967
  570TMC3    C5 8507   2.835   1.727  16.237 -0.5341  0.6003  0.4806
  570TMC3    C6 8508   2.833   1.675  16.114 -0.0522  0.3681 -0.0239
  570TMC3     C 8509   3.023   1.467  16.415 -0.7444  0.3419  0.0886
  570TMC3     O 8510   3.068   1.360  16.375  0.3723  0.3282 -0.3925
  570TMC3     H 8511   3.000   1.400  16.183 -0.7232 -0.7471 -1.1366
  570TMC3    H1 8512   2.907   1.728  16.438  4.0596  0.3001 -0.1114
  570TMC3    H2 8513   2.781   1.734  16.039 -0.3887 -0.6125 -0.5675
  570TMC3    C7 8514   2.798   1.863  16.245  0.2292  0.5168  0.4454
  570TMC3    C8 8515   2.943   1.561  15.958 -0.9556 -0.1865  0.8360
  570TMC3    O1 8516   2.701   1.901  16.183 -0.3005 -0.3854  0.4731
  570TMC3    O2 8517   2.938   1.668  15.903  0.0729 -0.9365 -0.5095
  571MPD2     C 8518   0.322   3.400  17.687  0.4134 -0.3193  0.1386
  571MPD2    C1 8519   0.381   3.319   0.037 -0.1357 -0.7392 -0.1143
  571MPD2    C2 8520   0.397   3.366   0.161  0.3290 -0.1618  0.1297
  571MPD2    C3 8521   0.354   3.493   0.199  0.0619 -0.0129 -0.2355
  571MPD2    C4 8522   0.294   3.576   0.106 -0.0046 -0.0044  0.4211
  571MPD2    C5 8523   0.273   3.528  17.715  0.3160 -0.5192  0.0375
  571MPD2     H 8524   0.448   3.305   0.235  0.1803 -0.9299 -0.3939
  571MPD2    H1 8525   0.270   3.680   0.126  1.9410  0.4212  0.5185
  571MPD2    H2 8526   0.327   3.367  17.584 -1.4923 -0.3930  0.0555
  571MPD2    H3 8527   0.233   3.590  17.635  2.2755 -0.2770 -0.7627
  571MPD2     N 8528   0.370   3.556   0.324  0.2491  0.3626  0.2712
  571MPD2    H5 8529   0.339   3.653   0.327 -2.0677 -0.3195 -1.6688
  571MPD2    N1 8530   0.427   3.191  17.739 -0.2330 -0.3112  0.5750
  571MPD2    H7 8531   0.415   3.168  17.640  0.0360  0.4973  0.3557
  572TMC3    C1 8532   0.400   3.586   0.545 -0.3199  0.0707 -0.0149
  572TMC3    C2 8533   0.438   3.538   0.669 -0.0320  0.7099  0.0246
  572TMC3    C3 8534   0.437   3.616   0.781  0.4703  0.6235 -0.2808
  572TMC3    C4 8535   0.349   3.718   0.534 -0.6559 -0.6685 -0.0387
  572TMC3    C5 8536   0.339   3.785   0.655 -0.5504  0.3841  0.3520
  572TMC3    C6 8537   0.386   3.739   0.774  0.0912 -0.5107 -0.2644
  572TMC3     C 8538   0.419   3.496   0.436 -0.9011 -0.7298  0.2429
  572TMC3     O 8539   0.451   3.380   0.449 -0.7971  0.2308  0.3006
  572TMC3     H 8540   0.500   3.449   0.669  0.2706  0.9220 -0.2115
  572TMC3    H1 8541   0.305   3.762   0.445 -1.5591 -0.7376  0.3737
  572TMC3    H2 8542   0.384   3.801   0.863  0.4207  1.7752 -1.8461
  572TMC3    C7 8543   0.225   3.878   0.652  0.1398  0.1916  0.0756
  572TMC3    C8 8544   0.534   3.592   0.884 -0.5333  0.0052  0.3815
  572TMC3    O1 8545   0.188   3.920   0.545  0.5125  0.2042 -0.0982
  572TMC3    O2 8546   0.640   3.544   0.848 -0.2199  0.0268 -0.0426
  573MPD2     C 8547   2.182   3.565   0.486  1.2444  0.2892 -0.2847
  573MPD2    C1 8548   2.187   3.700   0.480  0.4029  0.6555 -0.3742
  573MPD2    C2 8549   2.166   3.766   0.359  0.4191  0.0371  0.0943
  573MPD2    C3 8550   2.131   3.693   0.248 -0.0775  0.8632 -0.0218
  573MPD2    C4 8551   2.110   3.558   0.267  0.0075  0.1598  0.2765
  573MPD2    C5 8552   2.141   3.493   0.383  0.0111 -0.1813  0.6582
  573MPD2     H 8553   2.180   3.873   0.365 -2.7759  0.3947  1.0795
  573MPD2    H1 8554   2.068   3.498   0.187 -0.5913 -1.8180  2.0822
  573MPD2    H2 8555   2.209   3.507   0.574  0.0302 -1.7027 -1.2211
  573MPD2    H3 8556   2.138   3.385   0.387  1.0550 -0.1606  1.6979
  573MPD2     N 8557   2.101   3.750   0.123 -0.7186  0.0392 -0.1040
  573MPD2    H5 8558   2.060   3.692   0.051  1.0432 -1.2795 -0.0189
  573MPD2    N1 8559   2.218   3.768   0.598 -0.2847  0.1607  0.4121
  573MPD2    H7 8560   2.246   3.702   0.669  2.1699  0.2658 -0.4692
  574TMC3    C1 8561   2.110   3.913  17.694 -0.4904  0.3476 -0.2127
  574TMC3    C2 8562   1.985   3.887  17.659  0.0913 -0.1986  0.3188
  574TMC3    C3 8563   1.916   3.972  17.569 -0.0180  0.5443  1.0480
  574TMC3    C4 8564   2.174   4.021  17.647  0.0693  0.3581  0.0461
  574TMC3    C5 8565   2.101   4.105  17.562  0.3548 -0.2216  0.8322
  574TMC3    C6 8566   1.980   4.077  17.510  1.1383 -0.3266  0.1143
  574TMC3     C 8567   2.159   3.867   0.080  0.2581 -0.6814  0.0357
  574TMC3     O 8568   2.244   3.937   0.138 -0.3642  0.2298 -0.6312
  574TMC3     H 8569   1.924   3.813  17.709 -2.6007  2.5979  1.1755
  574TMC3    H1 8570   2.270   4.046  17.691  0.2446 -0.8880  0.3699
  574TMC3    H2 8571   1.930   4.133  17.432  0.2826 -0.9319  0.2173
  574TMC3    C7 8572   2.176   4.199  17.486  0.1773  0.2055 -0.0860
  574TMC3    C8 8573   1.784   3.937  17.524  0.0321  0.1003 -0.5644
  574TMC3    O1 8574   2.292   4.163  17.477  0.4021  0.3997 -0.4531
  574TMC3    O2 8575   1.750   3.818  17.523  0.5073  0.2574  0.4694
  575TMC3    C1 8576   4.150   4.514  11.028 -0.1564  0.4128  0.3884
  575TMC3    C2 8577   4.052   4.497  10.942 -0.0651  0.7726 -0.3522
  575TMC3    C3 8578   4.074   4.568  10.821  0.3287  1.1010  0.0126
  575TMC3    C4 8579   4.263   4.589  11.009  0.0085 -0.1567  0.1321
  575TMC3    C5 8580   4.278   4.656  10.892 -0.6130 -0.5726  0.1355
  575TMC3    C6 8581   4.184   4.651  10.800  0.3293  0.5419 -0.2746
  575TMC3     C 8582   4.142   4.416  11.133 -0.7168 -0.9584  0.6111
  575TMC3     O 8583   4.077   4.313  11.120 -0.3589 -0.2282 -0.0986
  575TMC3     H 8584   3.963   4.437  10.954 -0.6216  2.0906  2.3103
  575TMC3    H1 8585   4.343   4.596  11.082 -0.1275 -1.6246  0.4191
  575TMC3    H2 8586   4.198   4.709  10.709 -1.0062  1.2562 -0.0288
  575TMC3    C7 8587   4.418   4.653  10.841  0.0338  0.2707  0.2761
  575TMC3    C8 8588   3.973   4.578  10.722 -0.5646 -0.2920  0.0218
  575TMC3    O1 8589   4.499   4.591  10.903  0.5864 -0.1659 -0.6063
  575TMC3    O2 8590   3.993   4.658  10.630 -0.5705  0.6186  0.4153
  576MPD2     C 8591   4.644   1.434  12.869 -0.3859  0.6765  0.3745
  576MPD2    C1 8592   4.589   1.521  12.775 -0.1257 -0.0795 -0.0193
  576MPD2    C2 8593   4.524   1.638  12.808 -0.6056  0.5574 -0.4248
  576MPD2    C3 8594   4.513   1.666  12.948 -0.0110 -0.0092  0.2177
  576MPD2    C4 8595   4.569   1.582  13.045  0.2674 -0.1932  0.9142
  576MPD2    C5 8596   4.631   1.469  13.001 -0.2188 -0.0828  0.2480
  576MPD2     H 8597   4.491   1.696  12.723  0.7541  3.6266  1.1543
  576MPD2    H1 8598   4.570   1.614  13.149  3.0576 -0.6246  1.0139
  576MPD2    H2 8599   4.696   1.341  12.848 -2.0655  0.0042 -0.7271
  576MPD2    H3 8600   4.672   1.407  13.080  0.4713  1.3823  1.0418
  576MPD2     N 8601   4.454   1.792  12.983  0.1142 -0.1255  0.1150
  576MPD2    H5 8602   4.425   1.855  12.908  0.5349 -0.0852 -0.0158
  576MPD2    N1 8603   4.590   1.500  12.630 -0.0370  0.1331 -0.6577
  576MPD2    H7 8604   4.559   1.579  12.574 -1.5309  0.1220  0.1565
  577TMC3    C1 8605   4.654   1.413  12.419  0.3174  0.7702  0.4831
  577TMC3    C2 8606   4.666   1.295  12.342  0.2014 -0.2542  0.3826
  577TMC3    C3 8607   4.668   1.318  12.211 -0.9646  0.8143 -1.4346
  577TMC3    C4 8608   4.652   1.539  12.365 -0.2459 -0.6437 -0.0442
  577TMC3    C5 8609   4.657   1.548  12.230  0.4024  0.3935  0.9511
  577TMC3    C6 8610   4.662   1.437  12.149 -0.4976  0.6961 -0.3619
  577TMC3     C 8611   4.645   1.395  12.564  0.0046  0.1186 -0.1075
  577TMC3     O 8612   4.694   1.292  12.607 -0.5704 -0.0728 -0.9546
  577TMC3     H 8613   4.663   1.194  12.381 -0.5189 -0.9787 -1.5646
  577TMC3    H1 8614   4.659   1.630  12.424  0.9153  0.4062 -1.7808
  577TMC3    H2 8615   4.663   1.443  12.040 -0.9793 -0.2139 -0.4216
  577TMC3    C7 8616   4.709   1.671  12.173 -0.0656  0.2413 -0.5279
  577TMC3    C8 8617   4.640   1.204  12.126 -0.2832  0.0434  0.3557
  577TMC3    O1 8618   0.027   1.751  12.250 -0.0618  0.9077 -0.2019
  577TMC3    O2 8619   4.556   1.127  12.166  0.3255 -0.1429 -0.6508
  578MPD2     C 8620   1.988   1.691   0.138  0.6663  0.6311 -0.0569
  578MPD2    C1 8621   2.120   1.717   0.117 -0.4107 -0.1798  0.6426
  578MPD2    C2 8622   2.212   1.684   0.217  0.0939 -0.3953  0.3905
  578MPD2    C3 8623   2.170   1.596   0.322 -0.0189  0.4979  0.0179
  578MPD2    C4 8624   2.044   1.561   0.326 -0.7126  0.5825  0.4448
  578MPD2    C5 8625   1.948   1.606   0.239 -0.8881  0.4322  0.3090
  578MPD2     H 8626   2.317   1.709   0.208 -0.0450 -0.2723 -0.9636
  578MPD2    H1 8627   2.025   1.494   0.408  1.3967 -2.0096 -1.1951
  578MPD2    H2 8628   1.907   1.718   0.071 -0.8765  0.9894  1.9526
  578MPD2    H3 8629   1.843   1.588   0.260 -0.9132  0.8149  0.5221
  578MPD2     N 8630   2.277   1.545   0.408  0.4569 -0.1817  0.0068
  578MPD2    H5 8631   2.371   1.583   0.400  0.1095  0.7182  0.2697
  578MPD2    N1 8632   2.162   1.793   0.004  0.7253  0.3747  0.4768
  578MPD2    H7 8633   2.087   1.818  17.680 -2.6007 -1.0645  3.8132
  579TMC3    C1 8634   2.373   1.418   0.581 -0.2139  0.4312  0.1527
  579TMC3    C2 8635   2.467   1.511   0.608 -0.2689 -0.3273  0.7121
  579TMC3    C3 8636   2.588   1.462   0.649  0.5063 -0.4720  0.7897
  579TMC3    C4 8637   2.387   1.290   0.622  0.1897  0.6577  0.8209
  579TMC3    C5 8638   2.513   1.248   0.656 -0.6470 -0.5759  0.2037
  579TMC3    C6 8639   2.620   1.336   0.669  0.3808  0.6045  0.6890
  579TMC3     C 8640   2.253   1.448   0.503  0.0309 -0.2673  0.1363
  579TMC3     O 8641   2.152   1.383   0.535 -0.4539 -0.2103  0.4398
  579TMC3     H 8642   2.438   1.615   0.594  3.5679  0.3943 -1.8824
  579TMC3    H1 8643   2.310   1.215   0.609 -0.9488  1.7193  1.4704
  579TMC3    H2 8644   2.724   1.308   0.671  0.1630 -0.2415  0.5175
  579TMC3    C7 8645   2.539   1.110   0.681 -0.2620 -0.8171  0.6287
  579TMC3    C8 8646   2.688   1.573   0.657  0.0491 -0.2410 -0.4770
  579TMC3    O1 8647   2.639   1.081   0.746 -0.5767  0.0381 -0.0670
  579TMC3    O2 8648   2.655   1.676   0.600  0.1941  0.4893 -0.8188
  580TMC3    C1 8649   2.163   0.560  12.211  0.5832  0.1576  0.4859
  580TMC3    C2 8650   2.282   0.629  12.199  0.0514  0.6455 -0.2832
  580TMC3    C3 8651   2.378   0.603  12.290  0.3876  0.4340 -0.1111
  580TMC3    C4 8652   2.144   0.468  12.311  0.4160 -0.9232 -0.1246
  580TMC3    C5 8653   2.250   0.446  12.399 -0.1493  0.4166 -0.1118
  580TMC3    C6 8654   2.368   0.515  12.395 -0.2011 -0.6188  0.5494
  580TMC3     C 8655   2.056   0.596  12.123 -0.4097 -0.1452 -0.1885
  580TMC3     O 8656   2.091   0.641  12.014 -0.3630  0.1040 -0.3359
  580TMC3     H 8657   2.296   0.698  12.116  2.0534 -0.9967 -1.3235
  580TMC3    H1 8658   2.054   0.408  12.310  0.1515 -0.5125 -1.5989
  580TMC3    H2 8659   2.455   0.500  12.459 -0.2738  3.0780  1.5095
  580TMC3    C7 8660   2.258   0.317  12.464 -0.3077  0.6107  0.2685
  580TMC3    C8 8661   2.495   0.678  12.284  0.2916  0.4554  0.2459
  580TMC3    O1 8662   2.347   0.302  12.546  0.1060 -0.1504 -0.6169
  580TMC3    O2 8663   2.553   0.699  12.387  0.0945  0.3680 -0.2243
  581MPD2     C 8664   4.348   0.408  15.303  0.0869 -0.0537 -0.0428
  581MPD2    C1 8665   4.417   0.471  15.206 -0.4951 -0.0541 -0.5487
  581MPD2    C2 8666   4.351   0.541  15.109  0.4107  0.2715  0.2851
  581MPD2    C3 8667   4.211   0.558  15.110 -0.2218  0.2687  0.7539
  581MPD2    C4 8668   4.153   0.492  15.216 -0.3138 -0.1310  0.3040
  581MPD2    C5 8669   4.218   0.419  15.310  0.2207 -0.5720  0.6549
  581MPD2     H 8670   4.412   0.570  15.025  1.5746  0.9780  1.3755
  581MPD2    H1 8671   4.047   0.508  15.235 -1.2128 -3.2904 -1.8928
  581MPD2    H2 8672   4.394   0.348  15.381  0.2887  1.2230  0.8194
  581MPD2    H3 8673   4.162   0.364  15.385 -1.7291  1.0628  0.4257
  581MPD2     N 8674   4.139   0.643  15.024 -0.2258  0.0194 -0.6511
  581MPD2    H5 8675   4.197   0.705  14.967 -0.5776  0.1903 -0.8229
  581MPD2    N1 8676   4.557   0.461  15.207 -0.1556  0.5877 -0.1672
  581MPD2    H7 8677   4.596   0.387  15.264  0.5162  1.8318  0.9797
  582TMC3    C1 8678   0.045   0.483  15.175 -0.9245  0.3534 -0.2809
  582TMC3    C2 8679   0.119   0.551  15.267 -0.7198 -0.0808  0.8009
  582TMC3    C3 8680   0.204   0.476  15.341  0.3429 -0.8560  0.4555
  582TMC3    C4 8681   0.054   0.346  15.160  0.4504 -0.1173  0.2318
  582TMC3    C5 8682   0.145   0.271  15.237 -0.1672 -0.3396 -0.7491
  582TMC3    C6 8683   0.228   0.338  15.331  0.5450  0.3274  0.4527
  582TMC3     C 8684   4.651   0.543  15.152 -0.5631 -0.1724  0.1769
  582TMC3     O 8685   4.643   0.658  15.115  0.0514 -0.3497  0.3485
  582TMC3     H 8686   0.102   0.657  15.285 -0.2882  0.0806  0.2566
  582TMC3    H1 8687   4.725   0.299  15.087  0.0157 -0.5123  0.8656
  582TMC3    H2 8688   0.297   0.289  15.399  0.9921 -1.4087 -1.2517
  582TMC3    C7 8689   0.091   0.140  15.278  0.0285 -0.1684 -0.2724
  582TMC3    C8 8690   0.232   0.520  15.474 -0.2083 -0.2779  0.2232
  582TMC3    O1 8691   0.049   0.067  15.192 -0.3553 -0.1597  0.4472
  582TMC3    O2 8692   0.149   0.602  15.518 -0.1935 -0.7350  0.6761
  583MPD2     C 8693   4.719   1.951  16.504 -0.0578 -0.6828  0.8188
  583MPD2    C1 8694   0.057   2.059  16.471  0.6157  0.7534  0.1904
  583MPD2    C2 8695   0.045   2.169  16.552  0.3513 -0.1860  0.0605
  583MPD2    C3 8696   4.715   2.162  16.674  0.0249  0.4475  0.3374
  583MPD2    C4 8697   4.666   2.038  16.717  0.1644 -0.3568  0.7412
  583MPD2    C5 8698   4.661   1.928  16.628 -0.4951 -0.2806  0.5053
  583MPD2     H 8699   0.097   2.260  16.525 -2.1564  1.3332  0.2672
  583MPD2    H1 8700   4.623   2.035  16.817  0.9995  0.4089  1.1269
  583MPD2    H2 8701   4.707   1.866  16.437 -0.5369  0.9321 -1.1322
  583MPD2    H3 8702   4.609   1.835  16.648 -0.2724 -1.0474 -2.5117
  583MPD2     N 8703   4.721   2.285  16.754 -0.3270  0.2153 -0.0274
  583MPD2    H5 8704   0.005   2.361  16.690 -2.0481  1.0536  0.4475
  583MPD2    N1 8705   0.115   2.075  16.350  0.2999 -0.2451  0.0384
  583MPD2    H7 8706   0.130   2.170  16.316  2.3946 -0.3561  0.6284
  584TMC3    C1 8707   4.734   2.412  16.956  0.2429  0.0137  0.6067
  584TMC3    C2 8708   0.016   2.526  16.880 -0.3971 -0.8986  1.0504
  584TMC3    C3 8709   0.006   2.646  16.941  0.4682 -0.3366 -0.3409
  584TMC3    C4 8710   4.693   2.414  17.080 -0.9150 -0.6805 -0.4979
  584TMC3    C5 8711   4.667   2.540  17.131  0.4734  0.0197  0.2835
  584TMC3    C6 8712   4.688   2.657  17.064  0.6033 -0.0171 -0.9770
  584TMC3     C 8713   4.713   2.285  16.891 -1.1334 -0.0588 -0.4784
  584TMC3     O 8714   4.721   2.193  16.969 -0.7703 -0.1857 -0.4200
  584TMC3     H 8715   0.051   2.521  16.777 -0.7818  0.5349  0.8543
  584TMC3    H1 8716   4.664   2.327  17.137  1.1211  0.5312  2.3588
  584TMC3    H2 8717   4.665   2.753  17.109 -0.9709 -0.3201 -1.1184
  584TMC3    C7 8718   4.622   2.543  17.269 -0.4604  0.3160 -0.0044
  584TMC3    C8 8719   0.028   2.767  16.864 -0.3610  0.3524 -0.4250
  584TMC3    O1 8720   4.590   2.438  17.334 -0.1675  0.6559 -0.5671
  584TMC3    O2 8721   0.036   2.748  16.747  0.2163 -0.6986 -0.3865
  585MPD2     C 8722   3.754   0.695   0.783  0.1923  0.5671 -0.1866
  585MPD2    C1 8723   3.849   0.754   0.706 -0.9240  0.6176  0.1962
  585MPD2    C2 8724   3.820   0.799   0.578 -0.5790 -0.5394  0.0667
  585MPD2    C3 8725   3.697   0.771   0.523  0.2475  0.5992 -1.0962
  585MPD2    C4 8726   3.601   0.706   0.600  0.0125  0.3075 -0.2609
  585MPD2    C5 8727   3.625   0.667   0.730 -0.0736  0.0556 -0.0981
  585MPD2     H 8728   3.903   0.846   0.526 -1.0573  1.3756  1.0455
  585MPD2    H1 8729   3.506   0.680   0.556  0.1628  1.0835 -1.0464
  585MPD2    H2 8730   3.768   0.658   0.884  1.9918  2.1635  0.1451
  585MPD2    H3 8731   3.542   0.630   0.788 -0.4924  1.3126  0.1235
  585MPD2     N 8732   3.656   0.807   0.393 -0.2150 -0.3758  0.2155
  585MPD2    H5 8733   3.583   0.760   0.342  0.4962  1.1907 -2.2132
  585MPD2    N1 8734   3.975   0.782   0.783 -0.2074  0.6231 -0.4940
  585MPD2    H7 8735   3.974   0.757   0.881 -0.9214 -0.9732 -0.9093
  586TMC3    C1 8736   3.644   0.931   0.198  0.4384 -0.0009 -0.8760
  586TMC3    C2 8737   3.720   0.999   0.102  0.2561  0.0992  0.1490
  586TMC3    C3 8738   3.665   1.009  17.716 -0.0114 -0.0870  0.6686
  586TMC3    C4 8739   3.516   0.889   0.168  0.1652 -0.0194  0.0208
  586TMC3    C5 8740   3.471   0.904   0.047  0.1429 -0.0838 -0.1229
  586TMC3    C6 8741   3.544   0.966  17.686  0.1989 -0.1946 -0.2154
  586TMC3     C 8742   3.708   0.913   0.327 -0.2369  0.4222  0.6076
  586TMC3     O 8743   3.787   0.999   0.352  0.1737  1.3786 -0.7756
  586TMC3     H 8744   3.827   1.013   0.113  0.1900  2.7180 -2.4933
  586TMC3    H1 8745   3.455   0.845   0.246  0.2407  0.1330  0.1683
  586TMC3    H2 8746   3.528   0.952  17.580  0.2184  3.3221 -0.6612
  586TMC3    C7 8747   3.381   0.803   0.001 -0.0922  0.7424 -0.2004
  586TMC3    C8 8748   3.766   1.007  17.606  0.2834  0.8024 -0.1177
  586TMC3    O1 8749   3.387   0.697   0.060  0.1587 -0.1815  0.3928
  586TMC3    O2 8750   3.795   1.117  17.559 -0.1959 -0.0472  0.2820
  587TMC3    C1 8751   0.635   4.203  17.056 -0.4308  0.3897 -0.0276
  587TMC3    C2 8752   0.770   4.241  17.048  0.4052 -0.2695  0.3336
  587TMC3    C3 8753   0.806   4.341  17.129 -0.1511  0.7341  0.2449
  587TMC3    C4 8754   0.550   4.279  17.130  0.1843  0.7249  0.9942
  587TMC3    C5 8755   0.596   4.385  17.205  0.9314  0.0951 -0.5174
  587TMC3    C6 8756   0.730   4.408  17.222 -0.6164  0.4186  0.1214
  587TMC3     C 8757   0.574   4.165  16.930 -0.7642 -0.2117 -0.6539
  587TMC3     O 8758   0.627   4.069  16.872  0.4840  0.0441 -0.3826
  587TMC3     H 8759   0.824   4.204  16.962 -0.7879  0.5312 -0.7595
  587TMC3    H1 8760   0.443   4.264  17.116  0.4448  0.5798 -0.8635
  587TMC3    H2 8761   0.773   4.492  17.275 -0.5921  0.9458 -0.7300
  587TMC3    C7 8762   0.499   4.428  17.305 -0.5191 -0.0322  0.0176
  587TMC3    C8 8763   0.920   4.418  17.077 -0.2168 -0.3704  0.6209
  587TMC3    O1 8764   0.409   4.351  17.323  0.7405  0.0860 -0.5245
  587TMC3    O2 8765   0.995   4.357  17.003  0.4438  0.0086 -0.1731
  588TMC3    C1 8766   3.774   1.898   9.707  0.2053 -0.2588  0.0373
  588TMC3    C2 8767   3.708   1.787   9.659  0.0314 -0.9026 -0.0363
  588TMC3    C3 8768   3.779   1.670   9.651 -0.3307 -0.4816 -0.2867
  588TMC3    C4 8769   3.902   1.893   9.734  0.3583 -0.6925 -0.1975
  588TMC3    C5 8770   3.973   1.777   9.716  0.4277  0.5872 -0.7535
  588TMC3    C6 8771   3.912   1.664   9.667 -0.5202  0.3065  0.2297
  588TMC3     C 8772   3.706   2.024   9.738 -0.5829 -0.0844  0.1834
  588TMC3     O 8773   3.622   2.070   9.660  0.0354  0.7569  0.1021
  588TMC3     H 8774   3.601   1.784   9.647  0.0196  0.9839 -0.4424
  588TMC3    H1 8775   3.950   1.985   9.764  1.4702 -1.7418  1.2857
  588TMC3    H2 8776   3.968   1.573   9.647 -2.5549 -0.6593 -1.0571
  588TMC3    C7 8777   4.084   1.743   9.808 -0.0475 -0.4198  0.7089
  588TMC3    C8 8778   3.709   1.549   9.673  0.1718  0.2662 -0.1701
  588TMC3    O1 8779   4.095   1.627   9.843 -0.1046 -0.1790  0.4386
  588TMC3    O2 8780   3.590   1.544   9.640  0.0562  0.1617  0.1938
  589TMC3    C1 8781   2.499   4.672   1.119 -0.1307  0.4895  0.3560
  589TMC3    C2 8782   2.551   4.620   1.235  0.1205 -0.3569  0.4927
  589TMC3    C3 8783   2.653   4.528   1.227  0.4285 -0.0034 -0.9714
  589TMC3    C4 8784   2.549   4.633   0.995 -0.3428 -0.5794 -0.5650
  589TMC3    C5 8785   2.653   4.550   0.992 -0.3296  0.2491  0.7280
  589TMC3    C6 8786   2.707   4.490   1.106  0.3874  0.8975 -0.0969
  589TMC3     C 8787   2.389   0.034   1.117 -0.4107  0.4410 -0.2021
  589TMC3     O 8788   2.323   0.040   1.014 -0.5285  0.1315 -0.2296
  589TMC3     H 8789   2.512   4.646   1.333  0.0865 -1.7618  0.8599
  589TMC3    H1 8790   2.497   4.674   0.909 -0.5202 -0.4162 -0.3806
  589TMC3    H2 8791   2.784   4.416   1.088 -0.7823 -0.4104  0.3026
  589TMC3    C7 8792   2.709   4.529   0.854 -0.5163  0.1695  0.2968
  589TMC3    C8 8793   2.716   4.489   1.347 -0.5959  0.2955  0.6458
  589TMC3    O1 8794   2.671   4.600   0.762  0.0111 -0.3979  0.0128
  589TMC3    O2 8795   2.651   4.499   1.453  0.1435  0.8009 -0.4861
  590MPD2     C 8796   2.458   2.795  16.991  0.6190 -0.3147  0.1701
  590MPD2    C1 8797   2.393   2.861  16.894  0.4950  0.3868  0.2541
  590MPD2    C2 8798   2.468   2.927  16.794  0.2592  0.5836 -0.5412
  590MPD2    C3 8799   2.604   2.935  16.803 -0.2668 -0.1375  0.6717
  590MPD2    C4 8800   2.667   2.874  16.907  0.2153 -0.2509 -0.4922
  590MPD2    C5 8801   2.597   2.801  16.994 -0.1148 -0.4525 -0.0341
  590MPD2     H 8802   2.422   2.963  16.703 -1.8610 -3.1618 -0.9221
  590MPD2    H1 8803   2.775   2.878  16.912  0.1789 -0.5366  0.4989
  590MPD2    H2 8804   2.403   2.754  17.075  0.2938 -2.4755 -1.1022
  590MPD2    H3 8805   2.645   2.759  17.081 -0.5677 -1.6559 -0.3716
  590MPD2     N 8806   2.680   3.016  16.706  0.3806  0.3510 -0.3047
  590MPD2    H5 8807   2.627   3.076  16.644  0.3409  0.7647  0.1275
  590MPD2    N1 8808   2.245   2.877  16.896 -0.1996 -0.5798 -0.2517
  590MPD2    H7 8809   2.190   2.924  16.824  1.0810 -0.1598 -0.9433
  591TMC3    C1 8810   2.857   3.130  16.619 -0.8127  0.2044 -0.0004
  591TMC3    C2 8811   2.913   3.118  16.497  0.5613 -0.0404 -0.1271
  591TMC3    C3 8812   2.882   3.202  16.393  0.3400 -0.2494  0.0416
  591TMC3    C4 8813   2.778   3.244  16.636  0.1925  0.3902 -0.1541
  591TMC3    C5 8814   2.758   3.342  16.537  0.2842 -0.2617 -0.3093
  591TMC3    C6 8815   2.809   3.320  16.415 -0.2928 -0.7273  0.3770
  591TMC3     C 8816   2.816   3.006  16.692 -0.4577  0.1675 -0.8028
  591TMC3     O 8817   2.897   2.920  16.729  0.3120 -0.1781 -0.0464
  591TMC3     H 8818   2.965   3.023  16.485 -0.2262 -0.2954 -1.5808
  591TMC3    H1 8819   2.724   3.256  16.729  1.8354 -1.5096  1.0530
  591TMC3    H2 8820   2.784   3.389  16.335  2.7726 -0.7903 -0.6305
  591TMC3    C7 8821   2.712   3.475  16.577  0.5647 -0.0809  0.1079
  591TMC3    C8 8822   2.955   3.178  16.271 -0.1837 -0.4175  0.5035
  591TMC3    O1 8823   2.654   3.501  16.683  0.6984  0.3399  0.0807
  591TMC3    O2 8824   3.011   3.070  16.270  0.1168 -0.0601  0.1299
  592MPD2     C 8825   3.244   4.631  11.550  0.4952 -0.2172 -0.0149
  592MPD2    C1 8826   3.142   4.720  11.543 -0.3735 -0.1577  0.0282
  592MPD2    C2 8827   3.010   4.672  11.544  0.4516 -0.0485 -1.0606
  592MPD2    C3 8828   2.991   4.538  11.571  0.3290  0.2655  0.9248
  592MPD2    C4 8829   3.094   4.451  11.588 -0.4341  0.4576  0.1017
  592MPD2    C5 8830   3.219   4.498  11.574  0.4328 -0.4080 -0.2660
  592MPD2     H 8831   2.924   4.735  11.527 -0.3966 -0.3076  2.2384
  592MPD2    H1 8832   3.083   4.344  11.594 -0.2061  0.3937 -0.6208
  592MPD2    H2 8833   3.346   4.665  11.539  0.4783  0.3296  1.5880
  592MPD2    H3 8834   3.298   4.424  11.585  1.1633  0.4749  0.5571
  592MPD2     N 8835   2.856   4.512  11.604  0.0749 -0.1961 -0.7658
  592MPD2    H5 8836   2.787   4.587  11.605 -0.1288 -0.4080  0.3914
  592MPD2    N1 8837   3.184   0.116  11.532 -0.2389 -0.5438 -0.8209
  592MPD2    H7 8838   3.284   0.134  11.532 -0.7493  2.2867  1.3171
  593TMC3    C1 8839   3.167   0.354  11.531 -0.5545 -0.6093  0.0649
  593TMC3    C2 8840   3.080   0.459  11.558 -0.4414 -0.1287 -0.8852
  593TMC3    C3 8841   3.131   0.586  11.564 -0.4051 -1.0194 -0.0248
  593TMC3    C4 8842   3.298   0.373  11.501 -0.7297  0.2851  0.3570
  593TMC3    C5 8843   3.344   0.498  11.509  0.0303 -0.8921  0.5872
  593TMC3    C6 8844   3.266   0.605  11.542  0.2782 -0.1243 -0.1941
  593TMC3     C 8845   3.097   0.224  11.517  0.1540  0.1866  0.5519
  593TMC3     O 8846   2.974   0.222  11.510  0.2250 -0.1889  0.3568
  593TMC3     H 8847   2.977   0.440  11.583 -0.1159  0.3155  0.7818
  593TMC3    H1 8848   3.369   0.299  11.468 -2.6078 -0.6695 -1.5615
  593TMC3    H2 8849   3.307   0.706  11.539  0.5326 -0.2247 -0.0840
  593TMC3    C7 8850   3.463   0.537  11.437 -0.0112 -0.2053 -0.2767
  593TMC3    C8 8851   3.083   0.651  11.678 -0.5322 -0.4001  0.1876
  593TMC3    O1 8852   3.555   0.456  11.455  0.1378  0.3697  0.1913
  593TMC3    O2 8853   2.960   0.641  11.702 -0.2900  0.4069  0.4807
  594MPD2     C 8854   1.866   3.868  15.245 -0.0595  0.2545 -0.6314
  594MPD2    C1 8855   1.806   3.888  15.123 -0.2691  0.1525 -0.4473
  594MPD2    C2 8856   1.869   3.964  15.031 -0.1253  0.0636 -0.4564
  594MPD2    C3 8857   1.987   4.028  15.057  0.4937  0.2758 -0.6118
  594MPD2    C4 8858   2.049   4.009  15.182  0.3595 -0.0169 -0.1483
  594MPD2    C5 8859   1.979   3.934  15.279 -0.1261 -0.5245 -0.3146
  594MPD2     H 8860   1.821   3.968  14.934  0.1285 -1.5246 -0.6465
  594MPD2    H1 8861   2.134   4.067  15.218  0.1267  0.4570 -0.3638
  594MPD2    H2 8862   1.815   3.823  15.329  1.2336  0.3206  0.1883
  594MPD2    H3 8863   2.017   3.930  15.381  1.5168  0.2966 -0.8924
  594MPD2     N 8864   2.034   4.107  14.949 -0.7734 -0.2270 -0.9589
  594MPD2    H5 8865   1.990   4.098  14.858  1.4426 -0.7606 -1.9888
  594MPD2    N1 8866   1.693   3.809  15.101  0.4027 -0.4827  0.2846
  594MPD2    H7 8867   1.662   3.749  15.177  0.6338 -1.8752 -0.7141
  595TMC3    C1 8868   2.372   4.311  14.717 -0.0734 -0.4133  0.2098
  595TMC3    C2 8869   2.327   4.235  14.814  0.4672 -0.2439  0.2714
  595TMC3    C3 8870   2.194   4.224  14.828  0.2413 -0.3174 -0.0807
  595TMC3    C4 8871   2.287   4.401  14.663  0.2568  0.2676  0.4322
  595TMC3    C5 8872   2.157   4.408  14.692  0.3040  0.1446 -0.7575
  595TMC3    C6 8873   2.103   4.311  14.774 -0.7882 -0.3297  0.0190
  595TMC3     C 8874   2.518   4.347  14.722 -0.3761 -0.0386 -0.1912
  595TMC3     O 8875   2.586   4.294  14.813  0.0134 -0.4867  0.2186
  595TMC3     H 8876   2.393   4.161  14.857  0.8005 -0.5632 -0.8007
  595TMC3    H1 8877   2.335   4.461  14.586  0.6485 -1.3037 -0.5623
  595TMC3    H2 8878   2.002   4.300  14.811 -1.0904  0.0214 -0.7051
  595TMC3    C7 8879   2.075   4.511  14.644  0.0851 -0.0706 -0.3136
  595TMC3    C8 8880   2.162   4.162  14.953 -0.3063 -0.3292 -0.3535
  595TMC3    O1 8881   1.959   4.499  14.681  0.0928 -0.4033 -0.2618
  595TMC3    O2 8882   2.252   4.129  15.029 -0.5450 -0.8062 -0.2745
  596MPD2     C 8883   0.677   1.823  16.608  0.0131  0.6730  0.1687
  596MPD2    C1 8884   0.700   1.942  16.548 -0.2201 -0.3598  0.5922
  596MPD2    C2 8885   0.718   1.943  16.415  0.5919 -0.5872 -0.7281
  596MPD2    C3 8886   0.730   1.831  16.332 -0.8717  0.1805  0.9050
  596MPD2    C4 8887   0.697   1.716  16.395  0.2933  0.4248 -0.1359
  596MPD2    C5 8888   0.678   1.710  16.533 -0.0794  0.4698 -0.7131
  596MPD2     H 8889   0.735   2.041  16.372 -0.3221 -0.4343 -0.7222
  596MPD2    H1 8890   0.715   1.623  16.342 -0.5280 -1.1846  2.4248
  596MPD2    H2 8891   0.656   1.816  16.714 -2.4695 -1.8100 -0.4976
  596MPD2    H3 8892   0.643   1.617  16.577 -0.4900  1.0781  0.2549
  596MPD2     N 8893   0.777   1.831  16.197  0.1154  1.0013 -0.2033
  596MPD2    H5 8894   0.758   1.747  16.143  0.1024  0.6575  0.3406
  596MPD2    N1 8895   0.718   2.068  16.608  0.0324 -0.7050  0.0182
  596MPD2    H7 8896   0.756   2.142  16.551  0.2432 -2.0602 -1.5877
  597TMC3    C1 8897   0.728   2.228  16.783 -0.0328  0.2328 -0.0430
  597TMC3    C2 8898   0.813   2.313  16.709  0.4531 -0.1155 -0.1392
  597TMC3    C3 8899   0.864   2.430  16.764  0.3375  0.2523  0.7291
  597TMC3    C4 8900   0.688   2.266  16.907  0.0255  0.0625 -0.0182
  597TMC3    C5 8901   0.721   2.395  16.947 -0.2706 -0.1882 -0.0014
  597TMC3    C6 8902   0.817   2.468  16.886 -0.0974 -0.0004  0.0153
  597TMC3     C 8903   0.692   2.097  16.741  0.0074 -0.3376  0.5031
  597TMC3     O 8904   0.656   2.017  16.832 -0.1678 -0.5559  0.4837
  597TMC3     H 8905   0.847   2.279  16.612  1.5656  0.5910  0.0084
  597TMC3    H1 8906   0.615   2.203  16.957 -0.4360 -0.5571 -1.4787
  597TMC3    H2 8907   0.839   2.566  16.927 -0.6126  0.2926 -0.4181
  597TMC3    C7 8908   0.658   2.460  17.060  0.2325  0.1793 -0.0013
  597TMC3    C8 8909   0.952   2.516  16.688  0.0160 -0.3823 -0.0447
  597TMC3    O1 8910   0.601   2.389  17.142  0.2135 -0.3360  0.0230
  597TMC3    O2 8911   0.962   2.628  16.731  0.3599 -0.2044  0.3143
  598TMC3    C1 8912   3.551   3.605  15.706  0.2987  0.2018 -0.0313
  598TMC3    C2 8913   3.506   3.469  15.682  0.0592 -0.2356  0.0709
  598TMC3    C3 8914   3.491   3.426  15.559 -0.0145 -0.0146  1.1340
  598TMC3    C4 8915   3.576   3.689  15.596 -0.1157  0.0968 -0.0068
  598TMC3    C5 8916   3.551   3.637  15.471  0.4557  0.1288 -0.4869
  598TMC3    C6 8917   3.506   3.509  15.448  0.1237  0.5291  0.3821
  598TMC3     C 8918   3.616   3.655  15.827  0.1744 -0.1409 -0.3706
  598TMC3     O 8919   3.654   3.772  15.834  0.1676  0.4930  0.2754
  598TMC3     H 8920   3.505   3.394  15.760 -0.8200  1.2424  1.4693
  598TMC3    H1 8921   3.606   3.792  15.609  1.2880 -0.5029  1.4920
  598TMC3    H2 8922   3.507   3.471  15.346  0.3750  2.3753 -0.3140
  598TMC3    C7 8923   3.597   3.703  15.350  0.3389 -0.8801 -0.4468
  598TMC3    C8 8924   3.484   3.282  15.540  0.1338  0.0755  0.0869
  598TMC3    O1 8925   3.548   3.667  15.242  0.6647  0.2845 -0.2842
  598TMC3    O2 8926   3.507   3.246  15.427 -0.4247 -0.5566 -0.2009
  599MPD2     C 8927   3.366   1.214  15.926 -0.1618 -0.6525  0.1193
  599MPD2    C1 8928   3.381   1.100  16.001 -0.4012 -0.2731  0.0557
  599MPD2    C2 8929   3.394   1.117  16.139 -0.0148 -0.1534  0.3916
  599MPD2    C3 8930   3.372   1.245  16.194  0.1322 -0.1028  0.4536
  599MPD2    C4 8931   3.332   1.357  16.110 -0.3039  0.1759  0.4160
  599MPD2    C5 8932   3.342   1.342  15.980 -0.1965  0.2376 -0.0068
  599MPD2     H 8933   3.400   1.030  16.203  0.9663 -0.1768  0.2613
  599MPD2    H1 8934   3.320   1.460  16.141  1.8200  0.9034 -1.1626
  599MPD2    H2 8935   3.358   1.207  15.819 -1.0383  1.0913  0.0782
  599MPD2    H3 8936   3.327   1.429  15.917  0.2992  0.7460  0.5877
  599MPD2     N 8937   3.374   1.262  16.335  0.2680  0.2354  0.7086
  599MPD2    H5 8938   3.336   1.350  16.367 -1.7847 -0.5906  0.6117
  599MPD2    N1 8939   3.402   0.972  15.937  0.1619 -0.7003  0.4852
  599MPD2    H7 8940   3.403   0.978  15.836 -1.6028  0.2089  0.5116
  600TMC3    C1 8941   3.409   1.233  16.559 -0.0411 -0.4242  0.2921
  600TMC3    C2 8942   3.429   1.138  16.653  0.7002  0.4045  0.0784
  600TMC3    C3 8943   3.434   1.184  16.782  0.7093  0.1629 -0.4128
  600TMC3    C4 8944   3.411   1.373  16.575 -0.0763  0.2680 -0.0807
  600TMC3    C5 8945   3.428   1.411  16.708 -0.6445  0.4884  0.7054
  600TMC3    C6 8946   3.439   1.316  16.811 -0.0817 -0.0263  0.1919
  600TMC3     C 8947   3.437   1.185  16.425  0.1624  0.3418 -0.5060
  600TMC3     O 8948   3.511   1.094  16.408 -0.9495  0.0640  0.2008
  600TMC3     H 8949   3.445   1.033  16.636  0.2879  0.2000  0.9458
  600TMC3    H1 8950   3.419   1.448  16.497 -0.4038  0.3262 -0.0553
  600TMC3    H2 8951   3.443   1.344  16.915 -2.9503 -0.5905  0.4523
  600TMC3    C7 8952   3.439   1.555  16.739  0.6432 -0.1117  0.2860
  600TMC3    C8 8953   3.389   1.087  16.881  0.0438  0.1666  0.3075
  600TMC3    O1 8954   3.391   1.636  16.665 -0.6170 -0.0587 -0.2360
  600TMC3    O2 8955   3.401   1.105  16.999 -0.6248  0.3687  0.1386
  601MPD2     C 8956   4.601   4.153   0.900  0.5143  0.2741 -0.1606
  601MPD2    C1 8957   4.621   4.138   0.764  0.2872 -0.7751 -0.1408
  601MPD2    C2 8958   4.718   4.053   0.716 -0.2361 -0.0126  0.1042
  601MPD2    C3 8959   0.049   3.968   0.804  0.4452 -0.6954  0.1720
  601MPD2    C4 8960   0.013   3.972   0.938 -0.1385 -0.2801 -0.2781
  601MPD2    C5 8961   4.665   4.068   0.987 -0.8987  0.2376 -0.2151
  601MPD2     H 8962   0.010   4.047   0.611 -0.6682  0.2697 -0.0258
  601MPD2    H1 8963   0.074   3.913   1.006  1.8756 -0.0520 -1.8676
  601MPD2    H2 8964   4.529   4.223   0.940  1.1041 -0.1967  1.7061
  601MPD2    H3 8965   4.654   4.074   1.095  1.4505 -0.8330  0.0789
  601MPD2     N 8966   0.159   3.888   0.779  0.1772 -0.1770  0.1710
  601MPD2    H5 8967   0.202   3.834   0.853  1.4901  1.2547  0.4568
  601MPD2    N1 8968   4.549   4.204   0.666  0.2009  0.0165 -0.2144
  601MPD2    H7 8969   4.590   4.186   0.574  1.2690 -2.3681  0.7187
  602TMC3    C1 8970   4.397   4.358   0.565 -0.8857 -0.2199 -0.1900
  602TMC3    C2 8971   4.311   4.464   0.573  0.2026 -0.1960  0.2227
  602TMC3    C3 8972   4.270   4.526   0.463  0.6323  0.4602 -0.3154
  602TMC3    C4 8973   4.436   4.308   0.441  0.1106 -0.1314  0.3078
  602TMC3    C5 8974   4.381   4.372   0.330  0.6091  0.4996 -0.1243
  602TMC3    C6 8975   4.302   4.482   0.337 -0.1138 -0.3672  0.0670
  602TMC3     C 8976   4.448   4.294   0.683  0.1292 -0.2560  0.5389
  602TMC3     O 8977   4.389   4.327   0.788  0.5011  0.0987 -0.1560
  602TMC3     H 8978   4.300   4.516   0.668  3.1445  1.0917 -0.1252
  602TMC3    H1 8979   4.499   4.221   0.426  1.0688  0.5554  0.3810
  602TMC3    H2 8980   4.256   4.533   0.253 -0.7373  0.4444  0.8927
  602TMC3    C7 8981   4.438   4.347   0.202  0.6497 -0.4241 -0.4581
  602TMC3    C8 8982   4.217   4.663   0.475  0.1054 -0.3975 -0.3113
  602TMC3    O1 8983   4.448   4.237   0.160  0.1493  0.0716 -0.6284
  602TMC3    O2 8984   4.111   4.686   0.529  0.5687  0.0235  0.0167
  603TMC3    C1 8985   3.849   4.344  11.497  0.1908  0.0488 -0.2186
  603TMC3    C2 8986   3.847   4.345  11.635  0.4642 -0.0259  0.2263
  603TMC3    C3 8987   3.898   4.454  11.699  0.4069  0.5432 -0.3632
  603TMC3    C4 8988   3.871   4.459  11.428  0.0757  0.0919 -0.2365
  603TMC3    C5 8989   3.916   4.569  11.499  0.1139  0.2248  0.0589
  603TMC3    C6 8990   3.928   4.569  11.637  0.4182 -0.9136  0.3535
  603TMC3     C 8991   3.842   4.220  11.428 -0.6857 -0.0995  0.0056
  603TMC3     O 8992   3.845   4.221  11.306 -0.0257 -0.3855  0.4710
  603TMC3     H 8993   3.793   4.265  11.685 -1.0713 -0.0501 -1.4872
  603TMC3    H1 8994   3.857   4.458  11.320  1.8800 -0.1263 -0.4668
  603TMC3    H2 8995   3.986   4.650  11.681 -1.5569  1.0141 -0.5452
  603TMC3    C7 8996   3.981   4.682  11.423  0.4180  0.3940  0.1960
  603TMC3    C8 8997   3.864   4.463  11.835  0.0513 -0.2253 -0.3863
  603TMC3    O1 8998   4.083   4.733  11.464  0.1733 -0.0916  0.2108
  603TMC3    O2 8999   3.766   4.396  11.864 -1.1292 -0.0067  0.1838
  604MPD2     C 9000   4.560   3.027  16.412 -0.3438  0.5487 -0.3332
  604MPD2    C1 9001   4.544   3.152  16.360 -0.7799 -0.4917 -0.6688
  604MPD2    C2 9002   4.610   3.172  16.239  0.8221  0.2148 -0.0846
  604MPD2    C3 9003   4.699   3.081  16.176  0.6306  0.1612 -0.4259
  604MPD2    C4 9004   4.710   2.954  16.234 -0.4531 -0.3405 -0.0353
  604MPD2    C5 9005   4.637   2.930  16.351  0.3020 -0.0439  0.3006
  604MPD2     H 9006   4.604   3.269  16.190  0.2741 -0.0233 -0.4901
  604MPD2    H1 9007   0.027   2.878  16.178 -0.5722 -0.1633 -0.3902
  604MPD2    H2 9008   4.522   2.995  16.509  0.6130 -0.7158 -0.3751
  604MPD2    H3 9009   4.625   2.827  16.382 -0.5821 -0.1227 -0.3103
  604MPD2     N 9010   0.021   3.115  16.054  0.4137 -0.5132 -0.1664
  604MPD2    H5 9011   4.703   3.189  16.009  0.6338  0.4771  1.2085
  604MPD2    N1 9012   4.462   3.257  16.402 -0.5051 -0.1672  0.6168
  604MPD2    H7 9013   4.459   3.346  16.353  2.9586 -0.2216  0.2839
  605TMC3    C1 9014   4.392   3.392  16.561  0.5840 -0.3741  0.8801
  605TMC3    C2 9015   4.498   3.477  16.548 -0.0483  0.2612  0.5386
  605TMC3    C3 9016   4.468   3.611  16.595  0.0778  0.1028 -0.4239
  605TMC3    C4 9017   4.272   3.420  16.624 -0.3381 -0.7794 -0.0915
  605TMC3    C5 9018   4.248   3.546  16.654  0.7278 -0.5289 -0.4919
  605TMC3    C6 9019   4.339   3.645  16.628 -0.4160 -0.0727  0.4196
  605TMC3     C 9020   4.418   3.253  16.527  0.3618  0.3620  1.3746
  605TMC3     O 9021   4.372   3.164  16.593 -0.3811  0.6021 -0.1526
  605TMC3     H 9022   4.592   3.436  16.511 -1.1851 -1.3782 -0.5792
  605TMC3    H1 9023   4.206   3.336  16.642 -2.6736  1.2977  1.0732
  605TMC3    H2 9024   4.296   3.740  16.658 -2.0523 -0.7640  0.2926
  605TMC3    C7 9025   4.105   3.586  16.644  0.1163  0.0381 -0.1029
  605TMC3    C8 9026   4.594   3.690  16.596 -0.1526 -0.1790  0.5578
  605TMC3    O1 9027   4.088   3.698  16.606  0.4014 -0.0703  0.1412
  605TMC3    O2 9028   4.691   3.629  16.556  0.6139 -0.6523 -0.0419
  606TMC3    C1 9029   0.966   1.836  17.226  0.2616  0.2985 -0.2547
  606TMC3    C2 9030   0.924   1.857  17.352 -0.0104  0.1509  0.4023
  606TMC3    C3 9031   0.882   1.749  17.432  0.4114  0.4702 -0.2417
  606TMC3    C4 9032   0.968   1.705  17.171  0.3050  0.9101 -0.5648
  606TMC3    C5 9033   0.928   1.608  17.254  0.6321 -0.7316 -0.2702
  606TMC3    C6 9034   0.879   1.620  17.384 -0.0489 -0.1069 -0.0821
  606TMC3     C 9035   1.004   1.947  17.144  0.9672  0.0754 -0.3014
  606TMC3     O 9036   1.039   2.053  17.196 -0.1051  0.2919 -0.4582
  606TMC3     H 9037   0.921   1.956  17.395 -0.3726 -0.1835  1.1472
  606TMC3    H1 9038   1.015   1.673  17.078  2.1428 -0.4447  0.8409
  606TMC3    H2 9039   0.861   1.532  17.444 -0.4605  0.9358  1.3045
  606TMC3    C7 9040   0.937   1.470  17.212 -0.4749  0.1637  0.6535
  606TMC3    C8 9041   0.846   1.764  17.573  0.2734 -0.0693  0.4244
  606TMC3    O1 9042   1.042   1.430  17.161 -0.2386 -0.1288  0.3679
  606TMC3    O2 9043   0.894   1.856  17.637 -0.0903  0.3922 -0.6995
  607MPD2     C 9044   3.150   4.292  11.878  0.2310  0.4281 -0.4213
  607MPD2    C1 9045   3.151   4.414  11.938  0.5872 -0.1647  0.1139
  607MPD2    C2 9046   3.035   4.464  11.992 -0.4015 -0.4041 -0.6164
  607MPD2    C3 9047   2.917   4.383  11.995 -0.5733 -0.3253 -0.8069
  607MPD2    C4 9048   2.918   4.262  11.942 -0.6462  0.1607  0.0952
  607MPD2    C5 9049   3.033   4.219  11.874  0.1583 -0.5733  0.3277
  607MPD2     H 9050   3.032   4.562  12.038 -1.2816 -1.5337  1.7132
  607MPD2    H1 9051   2.832   4.197  11.947  1.1764 -2.2486 -0.2200
  607MPD2    H2 9052   3.237   4.251  11.830  0.0067 -0.1228 -0.3500
  607MPD2    H3 9053   3.038   4.125  11.820 -0.1383 -0.0744 -0.5621
  607MPD2     N 9054   2.804   4.434  12.062  0.1073 -0.1454 -0.7986
  607MPD2    H5 9055   2.820   4.529  12.094  3.3085 -0.8081 -0.4052
  607MPD2    N1 9056   3.260   4.509  11.947  0.0085  0.1213 -0.3758
  607MPD2    H7 9057   3.235   4.607  11.958  0.1771  0.1172  0.0149
  608TMC3    C1 9058   3.464   4.599  11.975 -0.0799  0.5664  0.2798
  608TMC3    C2 9059   3.426   4.661  12.095 -0.1833 -0.6128 -0.5975
  608TMC3    C3 9060   3.502   0.036  12.143 -0.1228 -0.7316  0.4510
  608TMC3    C4 9061   3.577   4.645  11.910  0.2420 -0.2209 -0.6630
  608TMC3    C5 9062   3.636   0.031  11.953 -0.1380 -0.8684  0.6703
  608TMC3    C6 9063   3.600   0.100  12.067  0.4999  0.2544 -0.3112
  608TMC3     C 9064   3.387   4.490  11.918  1.0957  0.9122  0.6253
  608TMC3     O 9065   3.445   4.390  11.876  0.0082 -0.1938 -1.0301
  608TMC3     H 9066   3.349   4.617  12.158 -0.1383 -0.3437 -0.3533
  608TMC3    H1 9067   3.617   4.586  11.829  2.1549  0.2710 -0.0711
  608TMC3    H2 9068   3.664   0.177  12.108  0.9643  0.7996 -2.0681
  608TMC3    C7 9069   3.708   0.105  11.853 -0.2740  0.3356 -0.4735
  608TMC3    C8 9070   3.432   0.137  12.220 -0.1163  0.6894  0.2555
  608TMC3    O1 9071   3.677   0.071  11.740  0.7202 -0.0441 -0.9538
  608TMC3    O2 9072   3.493   0.215  12.296 -0.0890 -0.2787  0.0218
  609TMC3    C1 9073   2.565   3.665   9.204  0.4579  0.1588 -0.4312
  609TMC3    C2 9074   2.600   3.704   9.080  0.4139  0.1653 -0.4091
  609TMC3    C3 9075   2.688   3.623   9.018 -0.5359  0.4021  0.6343
  609TMC3    C4 9076   2.599   3.550   9.267  0.0634  0.1687  0.4000
  609TMC3    C5 9077   2.693   3.470   9.204  0.4892 -0.5620  0.2362
  609TMC3    C6 9078   2.740   3.509   9.082 -0.0096  0.2528  0.1640
  609TMC3     C 9079   2.460   3.746   9.257 -0.2070 -0.7914  0.2826
  609TMC3     O 9080   2.464   3.748   9.379 -0.2242  0.4170  0.0455
  609TMC3     H 9081   2.577   3.804   9.044 -3.8507 -0.0954  1.5708
  609TMC3    H1 9082   2.551   3.516   9.358  0.1647  0.1681  0.4536
  609TMC3    H2 9083   2.821   3.458   9.031 -1.5047 -0.1921 -1.7631
  609TMC3    C7 9084   2.746   3.355   9.279  0.7287  0.3732  0.3477
  609TMC3    C8 9085   2.738   3.657   8.889  0.0462 -0.1352 -0.0985
  609TMC3    O1 9086   2.711   3.348   9.394 -0.3148 -0.2313  0.1427
  609TMC3    O2 9087   2.751   3.773   8.861  0.0217  0.4880 -0.6485
  610TMC3    C1 9088   3.674   0.082  12.718 -0.3080 -0.2454  0.0579
  610TMC3    C2 9089   3.792   0.120  12.656  0.3622  0.2079  0.1681
  610TMC3    C3 9090   3.905   0.050  12.680 -0.8879 -0.0716  0.2192
  610TMC3    C4 9091   3.673   4.700  12.797  0.2366  0.7559  0.2779
  610TMC3    C5 9092   3.792   4.613  12.790  0.1152 -0.2917  0.3579
  610TMC3    C6 9093   3.904   4.664  12.738 -0.0427 -0.0144 -0.2579
  610TMC3     C 9094   3.568   0.185  12.738  0.0668 -0.2618  0.1456
  610TMC3     O 9095   3.575   0.287  12.675  0.3897  0.2072  0.4248
  610TMC3     H 9096   3.790   0.213  12.601 -0.3902 -1.0792 -1.9524
  610TMC3    H1 9097   3.587   4.673  12.857 -0.7470 -0.1788 -1.5551
  610TMC3    H2 9098   3.990   4.600  12.729 -1.6235 -2.0094 -1.2854
  610TMC3    C7 9099   3.798   4.486  12.841 -0.5201  0.2628  0.2623
  610TMC3    C8 9100   4.022   0.106  12.624 -0.4161 -0.1996  0.1766
  610TMC3    O1 9101   3.896   4.471  12.914  0.6414 -0.3445  0.0799
  610TMC3    O2 9102   4.008   0.206  12.554 -0.0597  0.0396 -0.0302
  611MPD2     C 9103   3.062   4.567  10.908 -0.8303 -0.1205 -0.0593
  611MPD2    C1 9104   3.072   4.556  10.768  0.5830 -0.4351  0.1057
  611MPD2    C2 9105   3.185   4.612  10.708 -0.0652 -0.1172  0.4854
  611MPD2    C3 9106   3.284   4.666  10.789 -0.4018  0.4857 -0.7183
  611MPD2    C4 9107   3.269   4.670  10.925 -0.8391 -0.0825 -0.4813
  611MPD2    C5 9108   3.156   4.622  10.987 -0.6138  0.2458  0.2980
  611MPD2     H 9109   3.195   4.602  10.600  0.5655  1.5353  0.3884
  611MPD2    H1 9110   3.347   4.697  10.995 -0.6746 -0.0418 -0.6807
  611MPD2    H2 9111   2.982   4.522  10.965 -1.2428 -0.4885 -0.9271
  611MPD2    H3 9112   3.135   4.624  11.093 -0.2256 -0.5408  0.3890
  611MPD2     N 9113   3.400   4.731  10.738 -0.2681 -0.1558  0.1095
  611MPD2    H5 9114   3.461   0.028  10.813 -1.5804 -2.1576  2.0476
  611MPD2    N1 9115   2.962   4.505  10.702  0.1542 -0.0694 -0.0418
  611MPD2    H7 9116   2.879   4.471  10.750  0.8732 -1.4552  0.2074
  612TMC3    C1 9117   3.536   0.146  10.611  0.5431  0.5338 -0.0159
  612TMC3    C2 9118   3.643   0.132  10.691 -0.3600 -0.1150  0.2802
  612TMC3    C3 9119   3.741   0.226  10.679 -0.3338  0.2904  0.5996
  612TMC3    C4 9120   3.519   0.250  10.520 -0.2455 -0.5359  0.0306
  612TMC3    C5 9121   3.620   0.348  10.514  0.2004  0.3093  0.7560
  612TMC3    C6 9122   3.731   0.333  10.592  0.1446  0.0070  0.3066
  612TMC3     C 9123   3.428   0.046  10.605 -0.8279  0.2612  0.7357
  612TMC3     O 9124   3.363   0.055  10.501 -0.5003  0.0392  0.0751
  612TMC3     H 9125   3.660   0.036  10.740  0.0496 -0.0256  0.3134
  612TMC3    H1 9126   3.422   0.259  10.473 -0.5299  1.2743  0.9546
  612TMC3    H2 9127   3.812   0.404  10.603 -1.2478  2.0714 -2.6794
  612TMC3    C7 9128   3.604   0.467  10.443  0.2137 -0.2264  0.1448
  612TMC3    C8 9129   3.867   0.214  10.754  0.0447  0.6944 -0.0264
  612TMC3    O1 9130   3.680   0.552  10.478  0.2612  0.2401 -0.3057
  612TMC3    O2 9131   3.960   0.285  10.722 -0.2088 -0.0761 -0.3965
  613MPD2     C 9132   1.528   1.962  16.719  0.2615 -0.0359 -0.5118
  613MPD2    C1 9133   1.546   1.883  16.609  0.2192  0.3492  0.3201
  613MPD2    C2 9134   1.466   1.778  16.579 -0.6125  0.1014  0.1685
  613MPD2    C3 9135   1.356   1.751  16.655 -0.2509 -0.1378 -0.5733
  613MPD2    C4 9136   1.333   1.831  16.768 -1.1083 -0.2235  0.0890
  613MPD2    C5 9137   1.415   1.942  16.790 -0.0237 -0.1236 -0.0893
  613MPD2     H 9138   1.497   1.717  16.495  0.8361  2.3051 -0.9068
  613MPD2    H1 9139   1.259   1.798  16.839 -0.1950  0.1755  1.2305
  613MPD2    H2 9140   1.600   2.036  16.752 -1.1948  0.4168  1.6734
  613MPD2    H3 9141   1.387   2.013  16.866 -0.1581  0.7801 -0.9845
  613MPD2     N 9142   1.259   1.652  16.621 -0.4958 -0.2880  0.0758
  613MPD2    H5 9143   1.166   1.660  16.661 -0.2409  2.9360  0.0437
  613MPD2    N1 9144   1.656   1.894  16.526  0.8269  0.4597  0.3724
  613MPD2    H7 9145   1.655   1.826  16.451  1.5716  1.5528 -0.6174
  614TMC3    C1 9146   1.822   2.011  16.399  0.2026 -0.8983  0.2767
  614TMC3    C2 9147   1.815   1.897  16.316  0.5255  0.0426  0.1678
  614TMC3    C3 9148   1.789   1.917  16.184 -0.9203  0.3374  0.9782
  614TMC3    C4 9149   1.812   2.133  16.337 -0.3391  0.0263  0.0214
  614TMC3    C5 9150   1.795   2.146  16.202 -0.5469  0.9463  0.4880
  614TMC3    C6 9151   1.774   2.040  16.127  0.1114  0.5644 -0.9252
  614TMC3     C 9152   1.745   2.001  16.515 -0.4406 -0.1692  0.4194
  614TMC3     O 9153   1.744   2.100  16.585  0.2281  0.5934  0.3097
  614TMC3     H 9154   1.819   1.796  16.353  0.0309 -0.0920 -0.1389
  614TMC3    H1 9155   1.825   2.222  16.398 -0.8539 -0.0352  0.2228
  614TMC3    H2 9156   1.749   2.047  16.022  0.3403  0.2686 -0.9982
  614TMC3    C7 9157   1.848   2.272  16.140 -0.8697  0.3086  0.5427
  614TMC3    C8 9158   1.678   1.824  16.155  0.4932 -0.0241 -0.3803
  614TMC3    O1 9159   1.933   2.332  16.209  0.1114  0.1604 -0.5037
  614TMC3    O2 9160   1.620   1.770  16.250  0.0540  0.2690  0.4944
  615MPD2     C 9161   1.365   3.844  15.907  0.1792 -0.1915 -0.4755
  615MPD2    C1 9162   1.310   3.919  15.803 -0.1687 -0.2475 -0.1834
  615MPD2    C2 9163   1.221   3.853  15.714  0.4479  0.1757  1.0459
  615MPD2    C3 9164   1.176   3.726  15.749 -0.5045 -0.3788  0.6149
  615MPD2    C4 9165   1.235   3.652  15.854  0.2148  0.0216  0.2214
  615MPD2    C5 9166   1.335   3.709  15.925 -0.4541 -0.2165 -0.4006
  615MPD2     H 9167   1.188   3.898  15.621  1.5593 -1.5777 -0.1921
  615MPD2    H1 9168   1.220   3.547  15.877  0.7865  0.3270  2.0000
  615MPD2    H2 9169   1.439   3.887  15.974  0.6754  1.3101 -1.9673
  615MPD2    H3 9170   1.382   3.654  16.005  1.9452  2.3676 -0.0401
  615MPD2     N 9171   1.071   3.666  15.673  0.0163  0.0916  0.5154
  615MPD2    H5 9172   1.035   3.719  15.594  0.9666 -1.2550 -0.8327
  615MPD2    N1 9173   1.352   4.051  15.773 -0.6231 -0.0455 -0.1223
  615MPD2    H7 9174   1.299   4.102  15.703  0.7566  1.6538  0.0855
  616TMC3    C1 9175   1.449   4.269  15.785  0.8019  0.0398  0.2019
  616TMC3    C2 9176   1.495   4.369  15.873 -0.1102 -0.5649  0.0482
  616TMC3    C3 9177   1.523   4.492  15.822  0.3232  0.5992  0.5516
  616TMC3    C4 9178   1.423   4.294  15.651 -0.2540  0.1808 -0.0498
  616TMC3    C5 9179   1.454   4.421  15.605  0.4291 -0.0130 -0.2570
  616TMC3    C6 9180   1.502   4.514  15.692  0.7084 -0.1424  0.2445
  616TMC3     C 9181   1.447   4.129  15.841  1.1140 -0.1612 -0.4631
  616TMC3     O 9182   1.508   4.107  15.943 -0.3048 -0.5405  0.6271
  616TMC3     H 9183   1.517   4.339  15.975 -1.4103  1.3070  0.8685
  616TMC3    H1 9184   1.395   4.214  15.583 -1.7223  1.9457 -1.4940
  616TMC3    H2 9185   1.530   4.612  15.655 -2.9619  0.7760 -0.0274
  616TMC3    C7 9186   1.406   4.456  15.471 -0.5739 -0.4131  0.5718
  616TMC3    C8 9187   1.577   4.589  15.901 -0.6212 -0.6803  0.4196
  616TMC3    O1 9188   1.385   4.368  15.387 -0.0090 -1.1388  0.7288
  616TMC3    O2 9189   1.577   4.705  15.865  0.4920 -0.5259  0.4479
  617MPD2     C 9190   4.403   2.031  13.763 -0.2238 -0.7957 -0.6172
  617MPD2    C1 9191   4.418   1.932  13.859 -0.0502 -0.3256  0.0003
  617MPD2    C2 9192   4.310   1.882  13.931  0.6372 -0.0435  0.5578
  617MPD2    C3 9193   4.185   1.935  13.917  0.6902  0.9341 -0.3067
  617MPD2    C4 9194   4.171   2.032  13.821  0.0425  0.4250  0.0577
  617MPD2    C5 9195   4.278   2.079  13.751 -0.1715 -0.5476 -0.0108
  617MPD2     H 9196   4.320   1.793  13.991 -1.5414 -1.1531 -0.7285
  617MPD2    H1 9197   4.072   2.071  13.801  0.5552  1.4733 -0.4411
  617MPD2    H2 9198   4.477   2.072  13.695 -0.6852  0.5052 -0.3437
  617MPD2    H3 9199   4.252   2.157  13.679 -0.8518 -0.3094  0.4952
  617MPD2     N 9200   4.073   1.873  13.973  0.0199 -0.5704 -0.8825
  617MPD2    H5 9201   3.981   1.905  13.946 -0.0196 -0.1771 -0.2965
  617MPD2    N1 9202   4.536   1.870  13.891  0.2464 -0.5442  0.7121
  617MPD2    H7 9203   4.528   1.786  13.949  1.5326 -0.6404  0.7459
  618TMC3    C1 9204   0.024   1.811  13.861  0.1341 -0.1197  0.3397
  618TMC3    C2 9205   4.719   1.685  13.901  0.2262 -0.8235  0.6706
  618TMC3    C3 9206   0.055   1.580  13.862  0.6131 -0.8210 -0.1215
  618TMC3    C4 9207   0.131   1.841  13.789  0.2121 -0.0399 -0.3659
  618TMC3    C5 9208   0.198   1.732  13.748  0.2771 -0.8199 -0.1403
  618TMC3    C6 9209   0.169   1.601  13.784 -0.5612 -0.3830 -0.3581
  618TMC3     C 9210   4.656   1.901  13.829 -0.2956  0.0973 -1.1672
  618TMC3     O 9211   4.686   1.999  13.764 -0.1889 -0.0256  0.0615
  618TMC3     H 9212   4.627   1.663  13.954  1.0658  1.3548  3.0041
  618TMC3    H1 9213   0.169   1.941  13.771  0.6904 -0.0711  0.4880
  618TMC3    H2 9214   0.233   1.520  13.751 -2.1508 -1.5901 -0.4737
  618TMC3    C7 9215   0.310   1.767  13.656  0.3999 -0.4492  0.2641
  618TMC3    C8 9216   4.715   1.454  13.854  0.4509 -0.6497  0.1746
  618TMC3    O1 9217   0.393   1.846  13.700 -0.1504  0.0833 -0.0084
  618TMC3    O2 9218   4.601   1.447  13.896  0.2488 -0.2183 -0.4109
  619MPD2     C 9219   0.899   2.848  13.371  0.3968  0.6540 -0.7379
  619MPD2    C1 9220   0.855   2.955  13.441 -0.5567 -0.1149  0.6023
  619MPD2    C2 9221   0.780   2.936  13.557  0.0796  0.1524  0.1894
  619MPD2    C3 9222   0.741   2.813  13.597 -0.0693  0.2493  0.8873
  619MPD2    C4 9223   0.785   2.702  13.522  0.6915 -0.7019  0.8073
  619MPD2    C5 9224   0.866   2.720  13.414  0.2260  0.5282  0.3108
  619MPD2     H 9225   0.741   3.018  13.616  3.4076  1.8842  0.0082
  619MPD2    H1 9226   0.765   2.599  13.547  1.4003 -0.9225  0.4800
  619MPD2    H2 9227   0.957   2.854  13.280  1.2138  1.3066 -0.1682
  619MPD2    H3 9228   0.906   2.637  13.356  1.2246  1.0117  0.3101
  619MPD2     N 9229   0.664   2.785  13.714  0.1740  0.1282  0.4180
  619MPD2    H5 9230   0.598   2.709  13.710  1.0189 -0.5660 -0.2978
  619MPD2    N1 9231   0.874   3.086  13.397 -0.4585 -0.8154 -0.2294
  619MPD2    H7 9232   0.841   3.162  13.455  1.8841 -1.8287  2.4274
  620TMC3    C1 9233   0.907   3.273  13.256 -0.3683 -0.3577 -0.2211
  620TMC3    C2 9234   0.776   3.307  13.272  0.4866 -0.0321 -0.3307
  620TMC3    C3 9235   0.733   3.431  13.229 -0.0861 -0.9938  0.1983
  620TMC3    C4 9236   0.994   3.351  13.191  0.2819  0.0267  0.1677
  620TMC3    C5 9237   0.954   3.476  13.160  0.6453 -0.8899 -0.1766
  620TMC3    C6 9238   0.826   3.523  13.170  0.1296 -0.3761  0.1412
  620TMC3     C 9239   0.950   3.139  13.296  0.2467  0.0912 -0.3998
  620TMC3     O 9240   1.034   3.082  13.230 -0.0272  0.3529 -0.5305
  620TMC3     H 9241   0.703   3.234  13.307 -1.7673  1.6390 -1.5097
  620TMC3    H1 9242   1.100   3.328  13.194  0.2961  0.0024 -0.5603
  620TMC3    H2 9243   0.805   3.625  13.141 -0.4619 -0.6720 -0.4843
  620TMC3    C7 9244   1.053   3.576  13.204 -0.6627 -0.2661 -0.3897
  620TMC3    C8 9245   0.661   3.495  13.333  0.2804 -0.6742 -0.2008
  620TMC3    O1 9246   1.171   3.563  13.173 -0.4486 -0.3057  0.1654
  620TMC3    O2 9247   0.716   3.586  13.389 -0.0245  0.1454 -0.0236
  621MPD2     C 9248   1.564   2.551  10.371  0.1297  0.0289 -0.0191
  621MPD2    C1 9249   1.690   2.546  10.313  0.2887  0.4303  0.2654
  621MPD2    C2 9250   1.771   2.662  10.313  0.3090 -0.3592 -0.7657
  621MPD2    C3 9251   1.720   2.783  10.350  0.0998 -0.6199 -0.7097
  621MPD2    C4 9252   1.596   2.791  10.401 -0.1380  0.0793  0.3185
  621MPD2    C5 9253   1.516   2.674  10.418  0.0509 -0.8332 -0.2070
  621MPD2     H 9254   1.864   2.667  10.257  0.8415 -1.1580  0.0408
  621MPD2    H1 9255   1.545   2.875  10.447  0.1125  0.1578  0.4562
  621MPD2    H2 9256   1.504   2.461  10.376  0.2665 -0.0130  0.9118
  621MPD2    H3 9257   1.414   2.687  10.452  0.4004  0.5186  0.3139
  621MPD2     N 9258   1.802   2.901  10.328  0.6709 -0.4563 -0.5055
  621MPD2    H5 9259   1.895   2.881  10.294  1.2818 -1.1214  1.5540
  621MPD2    N1 9260   1.755   2.432  10.261 -0.0084  0.1714 -0.0634
  621MPD2    H7 9261   1.845   2.444  10.217 -0.5636 -0.9613 -1.5045
  622TMC3    C1 9262   1.752   2.237  10.137 -0.5239 -0.0337 -0.4000
  622TMC3    C2 9263   1.686   2.123  10.106 -0.5000  0.7423 -0.0910
  622TMC3    C3 9264   1.707   2.071   9.980 -0.3702  0.4840  0.5542
  622TMC3    C4 9265   1.849   2.300  10.055 -0.5605 -0.1225 -0.4497
  622TMC3    C5 9266   1.863   2.239   9.931  0.0646  0.9094 -0.5498
  622TMC3    C6 9267   1.808   2.121   9.901 -0.5493 -0.6161 -0.7041
  622TMC3     C 9268   1.699   2.304  10.250  0.0284 -0.9007 -0.8512
  622TMC3     O 9269   1.602   2.261  10.305 -0.2763  0.0647 -0.4751
  622TMC3     H 9270   1.623   2.065  10.172  0.0358 -0.4414 -0.6086
  622TMC3    H1 9271   1.900   2.392  10.080  2.0747 -2.6494  3.4738
  622TMC3    H2 9272   1.820   2.079   9.802 -0.1494  0.3703 -1.0638
  622TMC3    C7 9273   1.936   2.304   9.830 -0.4420 -0.0189 -0.0116
  622TMC3    C8 9274   1.624   1.962   9.928 -0.3104 -0.2188 -0.6414
  622TMC3    O1 9275   2.015   2.235   9.764 -0.0603  0.1731 -0.2999
  622TMC3    O2 9276   1.688   1.884   9.858  0.3174 -0.2534  0.3808
  623MPD2     C 9277   0.098   3.497  15.972 -0.2409 -0.0701 -0.2523
  623MPD2    C1 9278   0.072   3.584  16.081  1.3056  0.5747 -0.0226
  623MPD2    C2 9279   0.172   3.648  16.148 -0.2187 -0.1059  0.1929
  623MPD2    C3 9280   0.301   3.623  16.114 -0.4969 -0.0778 -0.3848
  623MPD2    C4 9281   0.333   3.529  16.014 -0.0729  0.8539 -0.3111
  623MPD2    C5 9282   0.234   3.476  15.936  0.5912  0.0177  0.7321
  623MPD2     H 9283   0.143   3.718  16.226 -0.1234  1.6282 -1.3212
  623MPD2    H1 9284   0.437   3.516  15.983 -0.0478 -1.7965  0.8679
  623MPD2    H2 9285   0.018   3.471  15.905  0.4481 -1.5099 -0.5215
  623MPD2    H3 9286   0.257   3.414  15.850 -0.8476 -1.3944  1.3772
  623MPD2     N 9287   0.389   3.673  16.207  0.3117  0.4160  0.2400
  623MPD2    H5 9288   0.343   3.727  16.280 -4.2775 -2.2949 -0.5658
  623MPD2    N1 9289   4.680   3.624  16.123  0.3458 -0.4883 -0.5558
  623MPD2    H7 9290   4.681   3.677  16.210 -1.4972  0.2017 -0.9491
  624TMC3    C1 9291   0.641   3.691  16.554  0.2928  0.1488  0.0207
  624TMC3    C2 9292   0.555   3.794  16.596  0.0413 -0.0611  0.1193
  624TMC3    C3 9293   0.495   3.867  16.494 -0.9641 -0.2232  0.3028
  624TMC3    C4 9294   0.656   3.649  16.427 -0.0308  0.0613 -0.2632
  624TMC3    C5 9295   0.589   3.717  16.328 -0.6852  0.1496  0.2871
  624TMC3    C6 9296   0.521   3.831  16.364 -0.0775 -0.2598  0.4590
  624TMC3     C 9297   0.700   3.618  16.664 -0.6087 -0.3492 -0.2201
  624TMC3     O 9298   0.729   3.682  16.768  0.2023  0.8596 -0.1819
  624TMC3     H 9299   0.517   3.801  16.697 -2.0530  0.1589 -0.6936
  624TMC3    H1 9300   0.716   3.564  16.396  0.3095 -0.1052  0.8483
  624TMC3    H2 9301   0.484   3.898  16.287 -1.2174 -1.8328 -0.3532
  624TMC3    C7 9302   0.524   3.658  16.211 -0.3385  0.2689 -0.3045
  624TMC3    C8 9303   0.355   3.878  16.514  0.6545 -0.9447  0.2021
  624TMC3    O1 9304   0.612   3.618  16.133 -0.0983 -0.1685  0.2741
  624TMC3    O2 9305   0.293   3.848  16.414 -0.2256 -0.2556 -0.4074
  625MPD2     C 9306   0.814   0.189   0.991  0.5893  0.0748 -0.3263
  625MPD2    C1 9307   0.831   0.326   0.956  0.1934  0.1415  0.3663
  625MPD2    C2 9308   0.944   0.375   0.894  0.0248  0.2644 -0.1855
  625MPD2    C3 9309   1.043   0.286   0.856 -0.3543  0.6310 -0.7221
  625MPD2    C4 9310   1.027   0.154   0.888 -0.3960  0.6945  0.5186
  625MPD2    C5 9311   0.920   0.106   0.957  0.0072 -0.4322 -0.3604
  625MPD2     H 9312   0.951   0.480   0.867  1.2564  0.1289 -0.4106
  625MPD2    H1 9313   1.111   0.088   0.875  0.0761  1.5216 -0.6906
  625MPD2    H2 9314   0.723   0.155   1.038  0.3640  0.5817 -0.3939
  625MPD2    H3 9315   0.916   0.001   0.983 -0.5448  0.0662  1.5924
  625MPD2     N 9316   1.162   0.332   0.800  0.4607 -0.0304  0.0380
  625MPD2    H5 9317   1.175   0.432   0.811  1.6593 -0.0974 -0.9049
  625MPD2    N1 9318   0.729   0.417   0.978 -0.5632  0.2290  0.3193
  625MPD2    H7 9319   0.736   0.513   0.946  2.9655 -0.0688  0.2701
  626TMC3    C1 9320   0.515   0.484   1.030  0.9976  0.0511 -0.2066
  626TMC3    C2 9321   0.476   0.522   0.906 -0.0088 -0.3259  0.0398
  626TMC3    C3 9322   0.352   0.571   0.886  0.4369  0.2799 -0.5007
  626TMC3    C4 9323   0.434   0.506   1.137  0.4086 -0.4782  0.3519
  626TMC3    C5 9324   0.316   0.570   1.112  0.1664 -0.3748 -0.0590
  626TMC3    C6 9325   0.269   0.594   0.988 -0.4288  0.5649  0.0249
  626TMC3     C 9326   0.617   0.387   1.048 -0.3815 -0.3613 -0.0699
  626TMC3     O 9327   0.610   0.309   1.144 -0.1277  0.2553 -0.6328
  626TMC3     H 9328   0.534   0.494   0.818  1.1330  1.0213  0.3736
  626TMC3    H1 9329   0.474   0.482   1.235 -1.5419  0.0965  1.2863
  626TMC3    H2 9330   0.174   0.644   0.976 -0.1838  0.6706 -1.4667
  626TMC3    C7 9331   0.230   0.568   1.231 -0.2515 -0.4019  0.9558
  626TMC3    C8 9332   0.291   0.541   0.763 -0.0329  0.2421  0.1097
  626TMC3    O1 9333   0.270   0.617   1.332 -0.5017 -0.0580  0.3311
  626TMC3    O2 9334   0.203   0.614   0.725 -0.1722 -0.3235  0.0412
  627MPD2     C 9335   3.495   0.592  14.485 -0.1811  0.4273  0.2400
  627MPD2    C1 9336   3.551   0.538  14.598 -0.2527  0.0956 -0.0841
  627MPD2    C2 9337   3.522   0.411  14.640 -0.1459 -0.1677 -0.5368
  627MPD2    C3 9338   3.438   0.330  14.565 -0.1200  0.0938 -0.4404
  627MPD2    C4 9339   3.370   0.386  14.463  0.3666 -0.2459  0.2206
  627MPD2    C5 9340   3.396   0.516  14.431 -0.4830 -0.1903  0.2819
  627MPD2     H 9341   3.570   0.378  14.731  0.6011 -1.1265 -1.2794
  627MPD2    H1 9342   3.307   0.332  14.394 -1.1130 -2.3306  3.1698
  627MPD2    H2 9343   3.521   0.688  14.442 -0.9118  0.2608 -0.5517
  627MPD2    H3 9344   3.353   0.558  14.341 -2.0113 -1.2704  0.5074
  627MPD2     N 9345   3.423   0.195  14.606 -0.1800  0.4452  0.2067
  627MPD2    H5 9346   3.470   0.172  14.692  0.8615  0.4541 -0.3650
  627MPD2    N1 9347   3.649   0.602  14.672  0.6299 -0.0495  0.1458
  627MPD2    H7 9348   3.678   0.555  14.757 -1.5138  0.5212  1.1869
  628TMC3    C1 9349   3.820   0.758  14.717  0.4585 -0.5059 -0.7748
  628TMC3    C2 9350   3.871   0.660  14.803  0.6885 -0.0109 -0.7821
  628TMC3    C3 9351   3.949   0.712  14.908 -0.3578  0.6454  0.4056
  628TMC3    C4 9352   3.841   0.891  14.727 -0.0010 -0.9136 -0.6930
  628TMC3    C5 9353   3.921   0.934  14.833  1.0263  0.6438 -1.1059
  628TMC3    C6 9354   3.971   0.847  14.927  0.1390  0.1659 -0.3130
  628TMC3     C 9355   3.708   0.715  14.630 -0.1498  0.4546 -0.3519
  628TMC3     O 9356   3.668   0.805  14.561 -0.6224 -0.0167 -1.2127
  628TMC3     H 9357   3.868   0.553  14.786  0.1690  0.1587 -1.7438
  628TMC3    H1 9358   3.790   0.965  14.667  3.2112  0.9488 -1.1710
  628TMC3    H2 9359   4.003   0.885  15.024 -0.8777 -2.3744  1.0053
  628TMC3    C7 9360   3.960   1.077  14.847  0.4137 -0.5309 -0.1709
  628TMC3    C8 9361   4.007   0.620  15.002  0.2976  0.2053 -0.7368
  628TMC3    O1 9362   3.992   1.110  14.963 -0.2814  0.7643 -0.3276
  628TMC3    O2 9363   3.951   0.511  15.016 -0.2676 -0.1309  0.5078
  629MPD2     C 9364   1.867   0.035  16.264  0.5414 -0.1896 -0.5723
  629MPD2    C1 9365   1.901   4.636  16.250  0.2448  0.7337 -1.0182
  629MPD2    C2 9366   1.817   4.548  16.182 -0.1049  0.6990 -0.1134
  629MPD2    C3 9367   1.716   4.608  16.111 -0.4227 -0.9754  0.0592
  629MPD2    C4 9368   1.682   0.003  16.129 -0.0669  0.3281 -0.1042
  629MPD2    C5 9369   1.754   0.081  16.209  0.0988  0.2870 -0.1620
  629MPD2     H 9370   1.854   4.447  16.169 -1.2475  0.5531 -2.1036
  629MPD2    H1 9371   1.596   0.049  16.081  0.3415 -0.4927 -1.6097
  629MPD2    H2 9372   1.926   0.103  16.325  1.1147 -0.3915 -0.9001
  629MPD2    H3 9373   1.732   0.188  16.209 -1.6083 -0.0699  1.7570
  629MPD2     N 9374   1.649   4.537  16.011  0.2128 -0.7477  0.5271
  629MPD2    H5 9375   1.661   4.437  15.996  2.3236 -0.3291 -0.5056
  629MPD2    N1 9376   2.026   4.596  16.312  0.2775 -0.1876 -0.3168
  629MPD2    H7 9377   2.087   4.674  16.334  1.1942 -1.7972  2.8192
  630TMC3    C1 9378   2.178   4.435  16.406 -0.5134  0.1958 -1.1802
  630TMC3    C2 9379   2.289   4.505  16.353  0.3948 -0.2106 -0.6703
  630TMC3    C3 9380   2.414   4.460  16.394  0.2508  0.1459  0.0889
  630TMC3    C4 9381   2.186   4.329  16.491 -0.0431  0.6627  0.1056
  630TMC3    C5 9382   2.316   4.287  16.519 -0.4214  0.3730 -0.7877
  630TMC3    C6 9383   2.426   4.357  16.484  0.0103  0.4746  0.1784
  630TMC3     C 9384   2.049   4.462  16.349 -0.5948  0.3861  0.6055
  630TMC3     O 9385   1.971   4.369  16.351 -0.1104 -0.1340 -0.5667
  630TMC3     H 9386   2.272   4.593  16.293  1.5289  1.6561  1.7653
  630TMC3    H1 9387   2.104   4.289  16.549 -0.8206  1.8104 -0.2082
  630TMC3    H2 9388   2.523   4.313  16.507  1.0449  1.6491 -1.9498
  630TMC3    C7 9389   2.314   4.184  16.616 -0.9780 -0.6204  0.2773
  630TMC3    C8 9390   2.533   4.535  16.371  0.1201  0.8398 -0.6237
  630TMC3    O1 9391   2.221   4.103  16.613 -0.0678 -0.5346 -0.1320
  630TMC3    O2 9392   2.622   4.524  16.456 -0.1821  0.1067  0.2458
  631MPD2     C 9393   0.260   3.940  15.951 -0.0602 -0.4705 -0.0576
  631MPD2    C1 9394   0.395   3.964  15.976  0.3793  0.5046  0.6519
  631MPD2    C2 9395   0.488   3.885  15.913 -0.2982 -0.8109 -0.2998
  631MPD2    C3 9396   0.439   3.789  15.821  0.1292 -0.1449 -0.7118
  631MPD2    C4 9397   0.304   3.777  15.789  0.2183 -0.0274  0.2407
  631MPD2    C5 9398   0.217   3.856  15.857  0.4707 -0.0003 -0.1130
  631MPD2     H 9399   0.593   3.906  15.924 -0.4369 -0.2168 -0.0560
  631MPD2    H1 9400   0.266   3.702  15.721  1.2509  0.3668 -0.7696
  631MPD2    H2 9401   0.187   3.997  16.007 -2.1577 -2.2549 -0.9991
  631MPD2    H3 9402   0.111   3.844  15.839  0.3617 -1.5508  1.4648
  631MPD2     N 9403   0.532   3.702  15.760 -0.0618 -0.2549 -0.5269
  631MPD2    H5 9404   0.629   3.729  15.768 -0.0510  0.1426 -2.0060
  631MPD2    N1 9405   0.438   4.079  16.063 -0.2792  0.1079 -0.3830
  631MPD2    H7 9406   0.366   4.148  16.083 -0.5092  0.2062 -1.5199
  632TMC3    C1 9407   0.609   4.247  16.071 -0.2554  0.0959  0.4586
  632TMC3    C2 9408   0.500   4.328  16.061  0.2937 -0.3920 -0.7071
  632TMC3    C3 9409   0.520   4.443  15.991 -0.1466  0.8463  0.1425
  632TMC3    C4 9410   0.730   4.276  16.015 -0.2065 -0.5053 -0.0824
  632TMC3    C5 9411   0.753   4.395  15.952  0.3932 -0.2051 -0.1459
  632TMC3    C6 9412   0.645   4.477  15.938  0.6826  0.4250  0.3720
  632TMC3     C 9413   0.576   4.105  16.094  0.3079 -0.2049 -0.7876
  632TMC3     O 9414   0.672   4.031  16.121 -0.0411  0.1147 -0.1292
  632TMC3     H 9415   0.401   4.308  16.098  1.3846 -1.1466  1.7653
  632TMC3    H1 9416   0.802   4.195  16.008 -0.4423 -0.6477 -0.9023
  632TMC3    H2 9417   0.657   4.573  15.891 -0.9790  0.8009  0.7214
  632TMC3    C7 9418   0.827   4.373  15.827  0.5096 -0.0958  0.1866
  632TMC3    C8 9419   0.415   4.461  15.898  0.3894  0.8338 -0.7227
  632TMC3    O1 9420   0.856   4.261  15.784  0.1441  0.4163 -0.2345
  632TMC3    O2 9421   0.319   4.390  15.915 -0.1974  0.2151 -0.7159
  633MPD2     C 9422   0.222   1.672  17.184 -1.1422 -0.1308  0.0852
  633MPD2    C1 9423   0.159   1.610  17.073  0.3829 -0.3069  0.9496
  633MPD2    C2 9424   0.107   1.482  17.090  0.4240 -0.2225  0.1950
  633MPD2    C3 9425   0.123   1.421  17.211 -0.3569 -0.4438 -0.3420
  633MPD2    C4 9426   0.179   1.490  17.314  0.7151  0.2369  0.5756
  633MPD2    C5 9427   0.228   1.612  17.299 -1.2155 -0.3513  0.2397
  633MPD2     H 9428   0.052   1.438  17.007 -1.0782 -1.1676  1.6796
  633MPD2    H1 9429   0.192   1.443  17.410 -1.3368  1.9645  1.7176
  633MPD2    H2 9430   0.272   1.768  17.179 -1.8605  0.3348  1.9849
  633MPD2    H3 9431   0.259   1.669  17.385 -0.6651  1.6804 -1.2979
  633MPD2     N 9432   0.085   1.285  17.232  0.2793 -0.0378  0.3051
  633MPD2    H5 9433   0.112   1.249  17.323  0.8851  1.5152  0.7448
  633MPD2    N1 9434   0.152   1.670  16.945 -0.2735 -0.1305  0.4265
  633MPD2    H7 9435   0.117   1.618  16.864 -0.6400  0.5054  0.1777
  634TMC3    C1 9436   0.219   1.827  16.777  0.6761  0.6174 -0.4652
  634TMC3    C2 9437   0.262   1.725  16.700  0.1044  0.3861  0.4860
  634TMC3    C3 9438   0.327   1.758  16.580  0.2581  0.6372 -0.8743
  634TMC3    C4 9439   0.255   1.957  16.749 -0.6122  0.4436 -0.0469
  634TMC3    C5 9440   0.324   1.983  16.636 -0.3170 -0.4162 -0.4296
  634TMC3    C6 9441   0.355   1.887  16.543  0.8215  0.1493 -0.4624
  634TMC3     C 9442   0.197   1.797  16.911  0.1795 -0.1107 -0.5653
  634TMC3     O 9443   0.208   1.888  16.987  0.1525  0.4730 -0.1868
  634TMC3     H 9444   0.260   1.621  16.730 -1.3394 -0.1935 -1.6085
  634TMC3    H1 9445   0.195   2.029  16.804 -0.5785 -0.2022  0.8378
  634TMC3    H2 9446   0.411   1.901  16.451  0.1253  0.4646 -0.8416
  634TMC3    C7 9447   0.359   2.119  16.625  0.3122  0.9558 -0.2921
  634TMC3    C8 9448   0.357   1.639  16.498  0.2504 -0.0666  0.5520
  634TMC3    O1 9449   0.392   2.150  16.511  0.1660  0.6361 -0.0343
  634TMC3    O2 9450   0.395   1.534  16.557  0.0134  0.3314 -0.0891
  635TMC3    C1 9451   0.513   2.973   0.011  0.7218 -0.4650 -0.1841
  635TMC3    C2 9452   0.586   2.984  17.639 -0.5367  0.1078 -0.9300
  635TMC3    C3 9453   0.659   2.871  17.605  0.5714  0.2138 -0.3926
  635TMC3    C4 9454   0.512   2.859   0.083  0.3541 -1.0124 -0.3047
  635TMC3    C5 9455   0.596   2.756   0.051  0.4980  0.0133 -0.1165
  635TMC3    C6 9456   0.675   2.759  17.677 -0.2143  0.1932  0.3775
  635TMC3     C 9457   0.485   3.096   0.082 -0.3551 -0.0712 -0.1818
  635TMC3     O 9458   0.478   3.083   0.202 -0.0018  0.1534 -0.8569
  635TMC3     H 9459   0.588   3.076  17.583  0.9507 -0.7398 -2.2423
  635TMC3    H1 9460   0.459   2.861   0.177  0.6210 -0.7993 -0.1556
  635TMC3    H2 9461   0.740   2.676  17.656  0.7190  1.1838 -0.6245
  635TMC3    C7 9462   0.624   2.644   0.133 -0.4407  0.4110  0.4915
  635TMC3    C8 9463   0.727   2.876  17.484  0.5518  0.5236 -0.1304
  635TMC3    O1 9464   0.678   2.541   0.090 -0.4732 -0.3576 -0.1745
  635TMC3    O2 9465   0.743   2.989  17.438 -0.5292 -0.2911  0.1103
  636MPD2     C 9466   1.409   2.216  16.200 -0.5918 -0.7500 -0.2172
  636MPD2    C1 9467   1.401   2.177  16.331  0.0272  0.4124 -0.4568
  636MPD2    C2 9468   1.327   2.061  16.365 -0.4572 -0.2532  0.9682
  636MPD2    C3 9469   1.258   1.987  16.270 -0.3643  0.2583 -0.3227
  636MPD2    C4 9470   1.258   2.043  16.138  0.8808 -0.4010 -0.0663
  636MPD2    C5 9471   1.327   2.151  16.112  0.8966  0.4929  0.0933
  636MPD2     H 9472   1.330   2.030  16.469  2.8149 -0.7279  0.7365
  636MPD2    H1 9473   1.195   2.009  16.057  1.4549  0.0735 -0.7217
  636MPD2    H2 9474   1.463   2.305  16.167 -1.4479 -0.9686 -2.2247
  636MPD2    H3 9475   1.333   2.192  16.011  1.2194 -4.8167 -2.0221
  636MPD2     N 9476   1.193   1.864  16.296 -0.4840 -0.0617 -0.5641
  636MPD2    H5 9477   1.200   1.844  16.395  1.2363  1.2064 -0.4399
  636MPD2    N1 9478   1.471   2.241  16.431  0.4164 -0.4780  0.1812
  636MPD2    H7 9479   1.474   2.199  16.523  0.1703 -2.0636 -0.5287
  637TMC3    C1 9480   1.084   1.653  16.260 -0.1895 -0.0239  0.1737
  637TMC3    C2 9481   1.111   1.645  16.394 -0.1673  0.1794  0.2520
  637TMC3    C3 9482   1.180   1.529  16.438  0.1272  0.0806  0.6442
  637TMC3    C4 9483   1.107   1.549  16.178 -0.2242  0.0161  0.1417
  637TMC3    C5 9484   1.181   1.439  16.216  0.7468 -0.5807  0.2220
  637TMC3    C6 9485   1.218   1.431  16.351 -0.5443  0.2498  0.1409
  637TMC3     C 9486   1.121   1.781  16.207 -0.4549  0.0906  0.7149
  637TMC3     O 9487   1.099   1.790  16.088 -0.9982  0.2141 -0.3633
  637TMC3     H 9488   1.083   1.725  16.461 -0.8052  0.9630 -0.9438
  637TMC3    H1 9489   1.077   1.568  16.076 -2.3009  0.7871  0.8936
  637TMC3    H2 9490   1.275   1.350  16.396 -0.9869  0.2044  0.6315
  637TMC3    C7 9491   1.310   1.433  16.148  0.3002 -0.0658 -0.9538
  637TMC3    C8 9492   1.284   1.555  16.537 -0.2114  0.1006 -0.8475
  637TMC3    O1 9493   1.407   1.414  16.223  0.5856 -0.1571  0.1634
  637TMC3    O2 9494   1.393   1.500  16.520 -0.5291 -0.2986 -0.5022
  638MPD2     C 9495   1.554   1.352  14.388 -0.5633 -0.9254  0.2315
  638MPD2    C1 9496   1.556   1.248  14.303 -0.3981  0.2294  0.6532
  638MPD2    C2 9497   1.505   1.122  14.334 -0.1578 -0.4311  0.0740
  638MPD2    C3 9498   1.468   1.091  14.457 -0.0867  0.9613 -0.6390
  638MPD2    C4 9499   1.472   1.194  14.547  0.2849 -0.4745 -0.6753
  638MPD2    C5 9500   1.518   1.322  14.516 -0.5020 -0.4546  0.0775
  638MPD2     H 9501   1.510   1.042  14.261 -0.0777 -1.4809  1.2282
  638MPD2    H1 9502   1.438   1.178  14.649  1.5778  0.3370 -0.1154
  638MPD2    H2 9503   1.581   1.452  14.357  1.2296 -1.4255  0.2035
  638MPD2    H3 9504   1.516   1.397  14.595  1.0675  1.2208 -1.4932
  638MPD2     N 9505   1.438   0.954  14.492  0.3917 -0.2242 -0.4093
  638MPD2    H5 9506   1.459   0.891  14.415 -1.6289  1.4507 -2.3578
  638MPD2    N1 9507   1.603   1.273  14.173  0.1972  0.1267 -0.1702
  638MPD2    H7 9508   1.672   1.347  14.173  1.0188 -0.6403 -1.2736
  639TMC3    C1 9509   1.403   0.762  14.616  0.0396 -0.2637  0.1983
  639TMC3    C2 9510   1.281   0.704  14.628 -0.4485  0.0935 -0.1415
  639TMC3    C3 9511   1.269   0.581  14.566  1.0826 -0.6772  0.6452
  639TMC3    C4 9512   1.510   0.697  14.557 -0.3830  0.1231  0.1033
  639TMC3    C5 9513   1.497   0.577  14.492 -0.7362 -0.4699 -0.5203
  639TMC3    C6 9514   1.371   0.522  14.491 -0.1165 -0.1379  0.1579
  639TMC3     C 9515   1.407   0.904  14.613 -0.3655  0.3622 -0.4201
  639TMC3     O 9516   1.348   0.953  14.706 -0.2374  0.0216  0.0405
  639TMC3     H 9517   1.193   0.762  14.656 -1.0298 -0.5791 -0.5725
  639TMC3    H1 9518   1.604   0.751  14.556  0.3312 -1.2676 -3.9572
  639TMC3    H2 9519   1.353   0.427  14.441 -2.3550 -0.0378  0.7596
  639TMC3    C7 9520   1.592   0.480  14.533 -0.0012  1.2829  0.0574
  639TMC3    C8 9521   1.145   0.517  14.543 -0.7857  0.0190  0.5553
  639TMC3    O1 9522   1.569   0.366  14.498 -0.0031 -0.3370 -0.0744
  639TMC3    O2 9523   1.110   0.484  14.431 -0.1283 -0.0555 -0.0204
  640MPD2     C 9524   2.798   4.260  10.097  0.0723  0.4577  0.7816
  640MPD2    C1 9525   2.660   4.245  10.096 -1.1242 -0.0245  0.6070
  640MPD2    C2 9526   2.575   4.355  10.089 -0.9716  0.0682 -0.0274
  640MPD2    C3 9527   2.630   4.482  10.092 -0.0094  0.5408 -0.2153
  640MPD2    C4 9528   2.769   4.503  10.099 -0.7071 -0.0327  0.3109
  640MPD2    C5 9529   2.852   4.391  10.099 -0.2472 -0.3168  0.0427
  640MPD2     H 9530   2.473   4.332  10.062 -0.6631 -1.6661  0.3145
  640MPD2    H1 9531   2.817   4.600  10.087 -1.1277  0.1913  0.4524
  640MPD2    H2 9532   2.860   4.171  10.087 -2.2483 -0.8393 -2.2863
  640MPD2    H3 9533   2.960   4.398  10.108 -0.5443  1.8477  2.0534
  640MPD2     N 9534   2.546   4.596  10.072  1.0351 -0.0367  0.1271
  640MPD2    H5 9535   2.587   4.689  10.063 -1.1773  1.0535  1.2397
  640MPD2    N1 9536   2.613   4.110  10.091  0.1726 -0.9566 -0.1137
  640MPD2    H7 9537   2.692   4.047  10.090 -0.3639 -1.6217 -0.0138
  641TMC3    C1 9538   2.477   3.926  10.057 -0.6698 -0.0950  0.0292
  641TMC3    C2 9539   2.556   3.841  10.120  0.5148 -0.4597 -0.2855
  641TMC3    C3 9540   2.534   3.709  10.090 -0.7845  1.2229 -0.2269
  641TMC3    C4 9541   2.385   3.898   9.962 -0.7105 -0.7799  0.2019
  641TMC3    C5 9542   2.368   3.762   9.939 -0.4778  0.0729  0.2038
  641TMC3    C6 9543   2.429   3.664  10.014  0.4859  0.3166 -0.1495
  641TMC3     C 9544   2.482   4.062  10.086 -0.6883  0.2300 -0.8187
  641TMC3     O 9545   2.378   4.124  10.064  0.6376 -0.0600  0.4413
  641TMC3     H 9546   2.630   3.873  10.192  0.0848  1.6417 -0.7466
  641TMC3    H1 9547   2.347   3.977   9.898  0.2478  0.3616  1.0348
  641TMC3    H2 9548   2.409   3.559  10.001  0.9518  0.1248  0.7115
  641TMC3    C7 9549   2.326   3.729   9.808  0.7852  0.1264 -0.0753
  641TMC3    C8 9550   2.642   3.617  10.089 -0.4321  0.0797  0.2687
  641TMC3    O1 9551   2.252   3.806   9.746  0.4061 -0.4330 -0.1687
  641TMC3    O2 9552   2.649   3.533   9.999  0.0232  1.1016 -0.5598
  642TMC3    C1 9553   3.100   0.502  12.200  0.3039 -0.3016 -0.2045
  642TMC3    C2 9554   3.225   0.472  12.148 -0.0150 -0.1466 -0.1451
  642TMC3    C3 9555   3.223   0.419  12.019 -0.4585  0.2118  0.2764
  642TMC3    C4 9556   2.977   0.493  12.133 -0.0051  0.0920  0.0860
  642TMC3    C5 9557   2.983   0.442  12.006  0.1658 -0.2550  0.5435
  642TMC3    C6 9558   3.104   0.394  11.959 -0.0000  0.5338  0.6147
  642TMC3     C 9559   3.107   0.588  12.316 -0.1166  0.6203  0.2686
  642TMC3     O 9560   3.217   0.621  12.367 -0.3546  0.1690  0.6931
  642TMC3     H 9561   3.315   0.479  12.207 -0.4876 -0.3489  0.5914
  642TMC3    H1 9562   2.891   0.553  12.161  0.3490  1.1711 -1.1565
  642TMC3    H2 9563   3.101   0.363  11.855  2.1826 -2.1208  1.3229
  642TMC3    C7 9564   2.866   0.364  11.966  0.6239  0.9381  0.5158
  642TMC3    C8 9565   3.338   0.451  11.937 -0.2553 -0.2412 -0.0832
  642TMC3    O1 9566   2.874   0.319  11.848  0.0047 -0.3064 -0.1748
  642TMC3    O2 9567   3.336   0.424  11.818 -0.1105 -0.0085 -0.1049
  643TMC3    C1 9568   2.456   4.675   0.534  0.0479  0.1991 -0.2351
  643TMC3    C2 9569   2.339   4.657   0.460 -0.7033  0.4136 -0.9058
  643TMC3    C3 9570   2.336   4.579   0.353  0.2037  0.6286 -0.4405
  643TMC3    C4 9571   2.569   4.618   0.489  0.6647  0.9092  0.0911
  643TMC3    C5 9572   2.568   4.545   0.373 -0.3873 -0.6695 -0.2558
  643TMC3    C6 9573   2.448   4.511   0.310 -0.1732  0.4672 -0.6353
  643TMC3     C 9574   2.470   0.080   0.570 -0.3827 -0.1233  1.0658
  643TMC3     O 9575   2.379   0.145   0.522  0.0585  0.1613 -0.5184
  643TMC3     H 9576   2.250   4.705   0.500 -1.6023  0.3327 -2.8056
  643TMC3    H1 9577   2.662   4.630   0.543  0.3832  0.2371  0.7164
  643TMC3    H2 9578   2.437   4.447   0.224  1.1384 -2.2312  1.2138
  643TMC3    C7 9579   2.663   4.601   0.279  0.5338 -0.1112  0.2693
  643TMC3    C8 9580   2.274   4.661   0.243  0.3335 -0.0482  0.0486
  643TMC3    O1 9581   2.710   4.710   0.305 -0.2736  0.2114  1.0953
  643TMC3    O2 9582   2.254   4.592   0.141 -0.2570  0.4311 -0.7741
  644MPD2     C 9583   1.653   0.097   9.398 -0.2517  0.5316 -0.0288
  644MPD2    C1 9584   1.629   4.697   9.407 -0.1430 -0.2986  0.2932
  644MPD2    C2 9585   1.499   4.654   9.436 -0.1366  0.1468  0.3720
  644MPD2    C3 9586   1.398   0.006   9.470 -0.8378  0.3411  0.4851
  644MPD2    C4 9587   1.430   0.143   9.466 -0.2331 -0.2339  0.3886
  644MPD2    C5 9588   1.555   0.189   9.431 -0.1625 -0.2916 -0.4534
  644MPD2     H 9589   1.480   4.548   9.434  0.5458  0.0078  1.0559
  644MPD2    H1 9590   1.355   0.214   9.497 -0.4096 -0.6361  0.8870
  644MPD2    H2 9591   1.747   0.138   9.363 -0.5981  1.5378  0.1955
  644MPD2    H3 9592   1.584   0.293   9.437 -0.2302 -0.2682 -0.5389
  644MPD2     N 9593   1.261   4.694   9.490 -0.2951  0.2085  0.1124
  644MPD2    H5 9594   1.255   4.594   9.504 -2.5958  0.3808  0.3880
  644MPD2    N1 9595   1.727   4.593   9.394 -0.3319  0.5524 -0.0347
  644MPD2    H7 9596   1.701   4.498   9.418 -0.8674  0.5149 -0.7411
  645TMC3    C1 9597   1.035   4.694   9.554 -0.1777 -0.8262  0.1389
  645TMC3    C2 9598   1.055   4.581   9.628 -0.1233  0.1330 -0.7398
  645TMC3    C3 9599   0.939   4.520   9.683  0.0995  0.3620  0.1382
  645TMC3    C4 9600   0.910   0.013   9.527 -0.3506 -0.3193 -0.2941
  645TMC3    C5 9601   0.806   4.690   9.589 -0.7046 -0.2236  0.0999
  645TMC3    C6 9602   0.812   4.568   9.652 -0.2986  0.7602 -0.3184
  645TMC3     C 9603   1.145   0.035   9.502  0.2298 -0.4659  0.7348
  645TMC3     O 9604   1.129   0.155   9.475 -0.5028 -0.2031 -0.3851
  645TMC3     H 9605   1.149   4.551   9.673 -0.9391  1.6508  2.0082
  645TMC3    H1 9606   0.887   0.108   9.481 -2.6767 -0.2713  0.9447
  645TMC3    H2 9607   0.727   4.526   9.703  0.4293 -2.0298 -1.3623
  645TMC3    C7 9608   0.676   0.011   9.570  0.5370  0.2668  0.2235
  645TMC3    C8 9609   0.957   4.393   9.745 -0.1940 -0.1082 -0.7742
  645TMC3    O1 9610   0.657   0.091   9.475 -0.2989  0.1057  0.4779
  645TMC3    O2 9611   1.077   4.360   9.762 -0.9778 -0.0695 -0.8953
  646MPD2     C 9612   1.643   4.320  14.619 -0.5964  0.0641 -0.4229
  646MPD2    C1 9613   1.559   4.326  14.728 -0.0435 -0.4127 -0.4168
  646MPD2    C2 9614   1.425   4.351  14.715  0.6439 -0.0276 -0.5090
  646MPD2    C3 9615   1.374   4.391  14.588  0.8377 -0.4528 -0.2156
  646MPD2    C4 9616   1.466   4.404  14.480  0.3062 -0.5830 -0.2847
  646MPD2    C5 9617   1.597   4.368  14.496  0.0582 -0.2155 -0.1335
  646MPD2     H 9618   1.359   4.330  14.798  2.7016 -1.7685  0.6794
  646MPD2    H1 9619   1.444   4.432  14.378 -2.5034 -1.6884  0.0305
  646MPD2    H2 9620   1.750   4.312  14.629 -0.7044  1.5369  1.8336
  646MPD2    H3 9621   1.664   4.369  14.411 -0.7176 -0.6559 -0.7497
  646MPD2     N 9622   1.235   4.421  14.576  0.2453 -1.5987  0.2549
  646MPD2    H5 9623   1.188   4.414  14.665 -1.5659 -1.2318 -0.6686
  646MPD2    N1 9624   1.616   4.278  14.846  0.0303 -0.8458  0.1316
  646MPD2    H7 9625   1.715   4.257  14.839  0.6000  1.7130  0.3301
  647TMC3    C1 9626   1.646   4.250  15.085  0.6093  0.1195  1.3107
  647TMC3    C2 9627   1.590   4.184  15.189 -0.9535 -0.2242 -0.1162
  647TMC3    C3 9628   1.663   4.173  15.309 -0.4150  0.3630  0.3378
  647TMC3    C4 9629   1.768   4.305  15.088  0.1058  0.1001 -0.5796
  647TMC3    C5 9630   1.842   4.294  15.204 -0.3448  0.1983 -0.0504
  647TMC3    C6 9631   1.790   4.223  15.309  0.0406 -0.7490  0.1646
  647TMC3     C 9632   1.555   4.267  14.974  0.0251 -1.3975  0.1329
  647TMC3     O 9633   1.441   4.301  15.002 -0.3421 -0.4581 -0.0745
  647TMC3     H 9634   1.497   4.130  15.178 -1.0373  0.2309 -1.5967
  647TMC3    H1 9635   1.819   4.342  15.000  3.1915  0.7197  1.4769
  647TMC3    H2 9636   1.850   4.205  15.397 -0.9934 -1.2106  0.7818
  647TMC3    C7 9637   1.983   4.339  15.224  1.3837 -0.1245  0.1569
  647TMC3    C8 9638   1.629   4.078  15.417 -0.0601 -0.1703  0.0814
  647TMC3    O1 9639   2.033   4.291  15.324  0.3087  0.2896  0.0134
  647TMC3    O2 9640   1.686   4.092  15.524 -0.2185 -1.0135  0.0114
  648TMC3    C1 9641   0.855   1.947  16.000 -0.6853 -0.0046  0.1860
  648TMC3    C2 9642   0.858   1.831  15.922 -0.0030 -0.2978 -0.6021
  648TMC3    C3 9643   0.900   1.845  15.792 -0.2271  0.2792  0.9832
  648TMC3    C4 9644   0.899   2.071  15.949 -0.0067  0.4437  0.0487
  648TMC3    C5 9645   0.927   2.079  15.820  0.3922 -0.3863  0.1919
  648TMC3    C6 9646   0.929   1.967  15.737  0.2000  0.2050  0.3023
  648TMC3     C 9647   0.836   1.941  16.144  0.6773 -0.2452 -0.0393
  648TMC3     O 9648   0.871   2.043  16.206  0.5507  0.7426  0.3758
  648TMC3     H 9649   0.839   1.733  15.964 -1.3995 -0.1451 -0.8904
  648TMC3    H1 9650   0.900   2.159  16.013 -0.3854  1.2130 -1.0032
  648TMC3    H2 9651   0.961   1.978  15.635 -2.2376 -0.5417 -0.5528
  648TMC3    C7 9652   0.909   2.212  15.759 -0.3429 -0.3792 -0.6300
  648TMC3    C8 9653   0.927   1.722  15.718 -0.1918 -0.2555 -0.0887
  648TMC3    O1 9654   0.979   2.240  15.661  0.5522 -0.4242 -0.6854
  648TMC3    O2 9655   0.872   1.622  15.767  0.3002 -0.1938 -0.5707
  649TMC3    C1 9656   4.362   2.950  13.327  0.1503  0.1936 -0.2375
  649TMC3    C2 9657   4.492   2.960  13.278  0.2460 -0.4608 -0.5763
  649TMC3    C3 9658   4.598   2.982  13.368  0.0770  0.3340  0.4505
  649TMC3    C4 9659   4.337   2.951  13.462  0.0454 -0.3047  0.3903
  649TMC3    C5 9660   4.446   2.962  13.548 -0.2433  0.4313 -0.4203
  649TMC3    C6 9661   4.577   2.973  13.504 -0.5200  0.2375  0.5143
  649TMC3     C 9662   4.246   2.934  13.241  0.3935  0.1009  0.1408
  649TMC3     O 9663   4.135   2.959  13.285  0.3562  0.1749 -0.1978
  649TMC3     H 9664   4.518   2.960  13.173 -1.4092  0.2095 -0.9845
  649TMC3    H1 9665   4.236   2.945  13.499 -0.1035 -0.1627  0.0103
  649TMC3    H2 9666   4.647   2.988  13.584  1.3658  1.9389 -1.4567
  649TMC3    C7 9667   4.409   2.925  13.684 -0.6034  0.5707  0.6253
  649TMC3    C8 9668   0.001   2.986  13.318 -0.2741  0.6174 -0.7736
  649TMC3    O1 9669   4.315   2.993  13.719  0.1854 -0.0593 -0.0851
  649TMC3    O2 9670   0.030   2.943  13.209  0.1807  0.1988 -0.1105
  650TMC3    C1 9671   2.671   4.404  12.903 -0.3143 -0.2002  0.9243
  650TMC3    C2 9672   2.655   4.524  12.966  0.5090  0.1767  0.2585
  650TMC3    C3 9673   2.529   4.576  12.974  0.2699  0.8350 -0.1410
  650TMC3    C4 9674   2.569   4.356  12.818 -0.2716 -0.0667 -0.7420
  650TMC3    C5 9675   2.458   4.432  12.810  0.8544 -0.3050 -0.1956
  650TMC3    C6 9676   2.426   4.528  12.901  0.0742  0.4676 -0.1177
  650TMC3     C 9677   2.791   4.327  12.923  0.7018  0.2713 -0.1738
  650TMC3     O 9678   2.898   4.388  12.936  0.3413  0.4753  0.5051
  650TMC3     H 9679   2.743   4.576  13.004  0.1677  0.6550  0.3927
  650TMC3    H1 9680   2.589   4.270  12.755 -1.1521 -0.7327 -0.1271
  650TMC3    H2 9681   2.325   4.568  12.903  0.2606  1.1005 -2.8317
  650TMC3    C7 9682   2.407   4.455  12.681 -0.0721 -0.1203  0.3404
  650TMC3    C8 9683   2.506   4.708  13.015  0.2197 -0.5752 -0.3232
  650TMC3    O1 9684   2.444   4.383  12.594  0.6197  0.2426  0.2753
  650TMC3    O2 9685   2.574   0.064  12.968  0.0569  0.3553 -0.3557
  651MPD2     C 9686   1.251   1.684  10.277 -0.2819 -0.0117 -0.3253
  651MPD2    C1 9687   1.253   1.784  10.375  0.6887  0.2629  0.8437
  651MPD2    C2 9688   1.368   1.854  10.394 -0.1126 -0.1556 -0.6990
  651MPD2    C3 9689   1.490   1.818  10.339 -0.4492 -0.0843 -0.6589
  651MPD2    C4 9690   1.487   1.714  10.248 -0.0500 -0.2030 -0.5529
  651MPD2    C5 9691   1.370   1.651  10.214 -0.3106  0.8352 -0.3159
  651MPD2     H 9692   1.373   1.933  10.469  0.8666  0.5791 -1.5466
  651MPD2    H1 9693   1.576   1.672  10.201 -1.7048 -2.6762 -1.4936
  651MPD2    H2 9694   1.165   1.623  10.253 -1.0308  0.0381  2.3347
  651MPD2    H3 9695   1.380   1.564  10.150 -0.2036  0.9412 -0.4418
  651MPD2     N 9696   1.604   1.888  10.387  0.7262  0.1545 -0.2948
  651MPD2    H5 9697   1.581   1.958  10.457  0.6479 -1.2628  1.0837
  651MPD2    N1 9698   1.137   1.821  10.448  0.2950 -0.2518 -0.1578
  651MPD2    H7 9699   1.134   1.914  10.487 -0.6701 -0.2626 -0.2069
  652TMC3    C1 9700   2.063   1.993  10.418 -0.4949  0.1756  0.4268
  652TMC3    C2 9701   1.962   1.921  10.359 -0.2444  0.0802 -0.6410
  652TMC3    C3 9702   1.839   1.932  10.415 -0.0044 -0.3006 -0.1596
  652TMC3    C4 9703   2.038   2.069  10.524  0.5997  0.8762  0.2526
  652TMC3    C5 9704   1.913   2.086  10.574 -0.0067  0.0333  0.0494
  652TMC3    C6 9705   1.813   2.011  10.525  0.1601 -0.1291  1.5597
  652TMC3     C 9706   2.196   1.967  10.369  0.4738 -0.4106 -0.1237
  652TMC3     O 9707   2.200   1.922  10.255  0.2972  0.1834 -0.4704
  652TMC3     H 9708   1.986   1.856  10.276  1.9139 -0.0925  0.1221
  652TMC3    H1 9709   2.121   2.121  10.570  0.8542  1.4140 -0.8197
  652TMC3    H2 9710   1.715   2.025  10.569 -0.1349 -1.6875  1.4161
  652TMC3    C7 9711   1.893   2.140  10.707 -1.1194 -1.0138  0.4077
  652TMC3    C8 9712   1.733   1.858  10.346 -0.0429  0.4126  0.7392
  652TMC3    O1 9713   1.811   2.081  10.780  0.1909 -0.5159 -0.5183
  652TMC3    O2 9714   1.769   1.791  10.253  0.1699 -0.1457  0.5453
  653MPD2     C 9715   0.342   2.034   0.010 -0.1767  1.0095 -0.3663
  653MPD2    C1 9716   0.242   2.103  17.689  0.1504 -0.2747 -0.6128
  653MPD2    C2 9717   0.138   2.041  17.621  0.2243 -0.2945 -0.4745
  653MPD2    C3 9718   0.133   1.904  17.623 -0.2352  0.2985 -0.2385
  653MPD2    C4 9719   0.229   1.836  17.700 -0.5363 -0.2490  0.2498
  653MPD2    C5 9720   0.334   1.899   0.020 -0.8719 -0.5022  0.7849
  653MPD2     H 9721   0.066   2.108  17.577 -0.5235  0.5810  2.1057
  653MPD2    H1 9722   0.225   1.729  17.716  0.3217 -0.3276 -0.0473
  653MPD2    H2 9723   0.435   2.080   0.041  1.3687 -1.4361 -1.3874
  653MPD2    H3 9724   0.411   1.842   0.071 -0.0344 -0.8710 -0.8960
  653MPD2     N 9725   0.041   1.831  17.548 -0.2316  0.4262  0.5307
  653MPD2    H5 9726   4.710   1.888  17.497  1.5978  1.9745 -0.0733
  653MPD2    N1 9727   0.258   2.238  17.690 -0.1998  0.2494 -0.6008
  653MPD2    H7 9728   0.189   2.293  17.640 -1.3377 -0.4316  0.2225
  654TMC3    C1 9729   4.643   1.661  17.462  0.1693  0.1341 -0.1144
  654TMC3    C2 9730   4.639   1.723  17.336 -0.5327 -0.0901 -0.0562
  654TMC3    C3 9731   4.556   1.676  17.235  0.1007  0.8390  0.5012
  654TMC3    C4 9732   4.577   1.545  17.482 -0.3178 -0.9704 -0.7945
  654TMC3    C5 9733   4.502   1.486  17.378 -0.3187  0.5211  0.5915
  654TMC3    C6 9734   4.479   1.556  17.258  0.0907  0.0595 -0.2417
  654TMC3     C 9735   0.020   1.698  17.548 -0.3890 -0.5276  0.2639
  654TMC3     O 9736   0.071   1.603  17.608 -0.2184  0.0248  0.1020
  654TMC3     H 9737   4.705   1.808  17.321 -0.1337 -0.0786  1.7971
  654TMC3    H1 9738   4.574   1.506  17.583 -0.0325  1.3372  0.1038
  654TMC3    H2 9739   4.411   1.510  17.187  0.4542 -1.1066  0.1571
  654TMC3    C7 9740   4.422   1.368  17.411  0.0781  0.0106 -0.4671
  654TMC3    C8 9741   4.536   1.747  17.114  0.0617 -0.1188 -1.1663
  654TMC3    O1 9742   4.309   1.354  17.374  0.2846  0.8517  0.1094
  654TMC3    O2 9743   4.567   1.867  17.120 -0.3911 -0.2954  0.2215
  655MPD2     C 9744   1.529   2.281  15.579 -0.1056 -0.7283 -0.3831
  655MPD2    C1 9745   1.445   2.385  15.561  0.0513 -0.3433  0.0147
  655MPD2    C2 9746   1.401   2.402  15.428  0.2813 -0.4871  0.1136
  655MPD2    C3 9747   1.441   2.330  15.321 -0.1071 -0.0028  0.3538
  655MPD2    C4 9748   1.527   2.227  15.353 -0.7471  0.0567 -0.2559
  655MPD2    C5 9749   1.567   2.202  15.477 -0.3427 -0.3970  0.7432
  655MPD2     H 9750   1.339   2.490  15.417  0.4681 -0.5918 -1.7361
  655MPD2    H1 9751   1.556   2.154  15.278  0.4279  0.4358 -0.1787
  655MPD2    H2 9752   1.559   2.248  15.678  0.0024  2.5723  0.6906
  655MPD2    H3 9753   1.626   2.112  15.488  0.7755  0.2997  0.4030
  655MPD2     N 9754   1.390   2.340  15.191  0.2814 -0.4414  0.1689
  655MPD2    H5 9755   1.436   2.285  15.119  1.3107  0.1933  0.3390
  655MPD2    N1 9756   1.395   2.469  15.657 -0.0370  0.7901  0.3433
  655MPD2    H7 9757   1.337   2.544  15.619  0.4978  1.8716  1.6594
  656TMC3    C1 9758   1.283   2.517  15.866  0.2767 -0.3980 -0.1787
  656TMC3    C2 9759   1.203   2.470  15.967 -0.1631  0.2056  0.0908
  656TMC3    C3 9760   1.097   2.543  16.005  0.6786 -0.3475  0.4793
  656TMC3    C4 9761   1.249   2.637  15.809  0.0640  0.9124  0.3257
  656TMC3    C5 9762   1.119   2.693  15.830 -0.4336 -0.1139  0.1341
  656TMC3    C6 9763   1.041   2.648  15.935 -0.0505  0.3042  0.6080
  656TMC3     C 9764   1.387   2.434  15.794 -0.3092  1.2402 -0.1427
  656TMC3     O 9765   1.441   2.335  15.844  0.0516  0.1829  0.2938
  656TMC3     H 9766   1.237   2.380  16.018 -0.3046  0.4139  0.5533
  656TMC3    H1 9767   1.314   2.694  15.743  2.2093 -1.5244  0.3658
  656TMC3    H2 9768   0.939   2.682  15.951 -0.4926 -0.2245 -1.0855
  656TMC3    C7 9769   1.088   2.815  15.760  0.1595 -0.4553 -0.5482
  656TMC3    C8 9770   1.007   2.476  16.095 -0.0597  0.0341 -0.3308
  656TMC3    O1 9771   1.174   2.860  15.686  0.0583 -1.0134  0.6538
  656TMC3    O2 9772   1.031   2.361  16.118  0.9784 -0.6043 -0.3782
  657TMC3    C1 9773   0.155   1.686  14.668 -0.1266  0.6451 -0.2185
  657TMC3    C2 9774   0.139   1.552  14.659 -0.1871  0.1132  0.4354
  657TMC3    C3 9775   0.035   1.495  14.718  0.6336 -0.1644  0.0536
  657TMC3    C4 9776   0.060   1.763  14.737 -0.5183  0.1245 -0.1256
  657TMC3    C5 9777   4.695   1.697  14.798 -0.4862 -0.0441  0.8088
  657TMC3    C6 9778   4.680   1.560  14.793 -0.2553 -0.0100 -0.2768
  657TMC3     C 9779   0.287   1.740  14.639 -0.0160 -1.0595  0.3413
  657TMC3     O 9780   0.287   1.860  14.608  0.3928 -0.4598 -0.0653
  657TMC3     H 9781   0.209   1.493  14.600  0.3854 -0.6945  1.9339
  657TMC3    H1 9782   0.073   1.870  14.744 -0.7991  0.1519 -0.0122
  657TMC3    H2 9783   4.584   1.520  14.823 -0.0005  1.0922  2.0738
  657TMC3    C7 9784   4.601   1.768  14.877 -0.1781  0.8490 -0.3472
  657TMC3    C8 9785   0.012   1.358  14.694  0.2060 -0.1142  0.5530
  657TMC3    O1 9786   4.570   1.705  14.977  0.0008 -0.1451 -0.2039
  657TMC3    O2 9787   0.077   1.311  14.602 -0.1056 -0.1644  0.1555
  658MPD2     C 9788   1.534   2.469  14.556 -0.0638 -0.0206  0.0914
  658MPD2    C1 9789   1.441   2.365  14.561  0.0794  1.1516 -0.4543
  658MPD2    C2 9790   1.429   2.287  14.446  1.0665  0.4811  0.2647
  658MPD2    C3 9791   1.505   2.313  14.336  0.1283 -0.0477 -0.4068
  658MPD2    C4 9792   1.597   2.411  14.337 -0.3506 -0.6489 -0.2615
  658MPD2    C5 9793   1.613   2.484  14.451 -0.3000  0.1104  0.1637
  658MPD2     H 9794   1.350   2.212  14.447 -1.0228  2.6878  0.2728
  658MPD2    H1 9795   1.660   2.438  14.253  1.1280 -1.7075  0.5020
  658MPD2    H2 9796   1.549   2.541  14.635  0.6251 -0.2195  0.1371
  658MPD2    H3 9797   1.683   2.567  14.446  0.1218 -0.1751  1.3394
  658MPD2     N 9798   1.485   2.226  14.223  0.1054 -0.4319 -0.0786
  658MPD2    H5 9799   1.415   2.153  14.232  0.1927 -0.3394  1.3130
  658MPD2    N1 9800   1.368   2.333  14.682 -0.0335  0.4775 -0.9125
  658MPD2    H7 9801   1.383   2.396  14.760 -0.9665 -3.2375  2.2167
  659TMC3    C1 9802   1.250   2.214  14.834 -0.8354  0.0563  0.1679
  659TMC3    C2 9803   1.299   2.294  14.936  0.8891  0.4380  0.5066
  659TMC3    C3 9804   1.211   2.341  15.034 -0.2736 -0.5082  0.0720
  659TMC3    C4 9805   1.122   2.163  14.850  0.4360  0.9042 -0.2836
  659TMC3    C5 9806   1.041   2.204  14.955 -0.4552  0.4614  0.5493
  659TMC3    C6 9807   1.077   2.304  15.039 -0.1932 -0.0025  0.2897
  659TMC3     C 9808   1.295   2.219  14.704  0.6088  0.6318 -0.2700
  659TMC3     O 9809   1.268   2.122  14.635  0.6750  0.3186  0.2080
  659TMC3     H 9810   1.401   2.331  14.935  1.2207 -0.4455  1.2855
  659TMC3    H1 9811   1.082   2.088  14.782 -1.0120  0.6656  0.8282
  659TMC3    H2 9812   1.017   2.325  15.127  0.9568 -1.0541  1.3376
  659TMC3    C7 9813   0.911   2.146  14.969  0.2019 -0.1784 -0.5326
  659TMC3    C8 9814   1.267   2.397  15.159 -1.3916  0.6554 -0.8155
  659TMC3    O1 9815   0.827   2.216  15.016 -0.4495  0.1931  0.4316
  659TMC3    O2 9816   1.186   2.455  15.227  0.1384  0.4719 -0.0446
  660MPD2     C 9817   3.980   0.758  12.821  0.2036 -0.0500 -0.0139
  660MPD2    C1 9818   3.847   0.771  12.780  0.5765 -0.4493 -0.4209
  660MPD2    C2 9819   3.750   0.745  12.870 -0.6632 -0.7290 -0.1162
  660MPD2    C3 9820   3.775   0.699  12.996 -0.1876  0.1506  1.2002
  660MPD2    C4 9821   3.901   0.683  13.040  0.3312  0.1116 -0.3952
  660MPD2    C5 9822   4.004   0.714  12.949  0.4919  0.0857 -0.8663
  660MPD2     H 9823   3.646   0.765  12.847 -0.8669  0.0646  1.4546
  660MPD2    H1 9824   3.935   0.648  13.137 -1.6537 -1.3506 -0.2396
  660MPD2    H2 9825   4.065   0.777  12.756 -0.8291  2.1602 -0.7167
  660MPD2    H3 9826   4.107   0.711  12.984  0.4145  2.5687 -0.4009
  660MPD2     N 9827   3.669   0.662  13.085 -1.1187 -0.1383 -0.4518
  660MPD2    H5 9828   3.694   0.625  13.176  0.2555  1.5587 -0.1428
  660MPD2    N1 9829   3.827   0.829  12.651 -0.7409  0.3149  0.4132
  660MPD2    H7 9830   3.910   0.855  12.599 -0.0441 -1.1203  0.7863
  661TMC3    C1 9831   3.700   0.913  12.467 -0.6584 -0.0013 -0.2386
  661TMC3    C2 9832   3.805   0.925  12.385 -0.1900 -0.3820  0.1962
  661TMC3    C3 9833   3.785   0.954  12.253  0.1124  0.2654 -0.1871
  661TMC3    C4 9834   3.574   0.937  12.423  0.2705 -0.6050  0.0723
  661TMC3    C5 9835   3.558   0.960  12.288  0.4764 -0.6659  0.3737
  661TMC3    C6 9836   3.666   0.975  12.196 -0.0211  0.4809 -1.1077
  661TMC3     C 9837   3.703   0.843  12.597 -0.1829 -0.1104  0.5890
  661TMC3     O 9838   3.591   0.805  12.638 -0.1643  0.2322 -0.1640
  661TMC3     H 9839   3.900   0.878  12.406  0.2134  1.6326  2.8751
  661TMC3    H1 9840   3.489   0.942  12.490  1.1525 -1.8959  1.2789
  661TMC3    H2 9841   3.660   1.015  12.095 -0.2352  1.9173 -0.5330
  661TMC3    C7 9842   3.420   0.971  12.242  0.1214  0.4191  0.2401
  661TMC3    C8 9843   3.903   1.009  12.188 -0.0575 -0.3166 -0.0622
  661TMC3    O1 9844   3.335   1.040  12.300  0.0868  0.5110  0.3043
  661TMC3    O2 9845   3.906   1.019  12.064 -0.5742 -0.7033  0.1473
  662MPD2     C 9846   4.099   0.780  17.305  0.7453 -0.2278  0.8795
  662MPD2    C1 9847   4.033   0.682  17.372  0.6046  0.4468  0.2301
  662MPD2    C2 9848   3.937   0.720  17.460  0.6644  0.1081 -0.3801
  662MPD2    C3 9849   3.905   0.851  17.483  0.3105 -0.0545  0.6076
  662MPD2    C4 9850   3.970   0.942  17.417 -0.4928 -0.4319  0.8038
  662MPD2    C5 9851   4.072   0.914  17.329 -0.0825  0.0545 -1.0378
  662MPD2     H 9852   3.879   0.641  17.507 -1.7832  1.2173 -1.4805
  662MPD2    H1 9853   3.951   1.049  17.425 -3.2611 -1.0520  2.5994
  662MPD2    H2 9854   4.151   0.751  17.215  0.3179  0.6007  0.3608
  662MPD2    H3 9855   4.130   0.982  17.268 -0.5330  0.5364 -0.9217
  662MPD2     N 9856   3.802   0.880  17.572 -0.7317  0.0845 -0.3983
  662MPD2    H5 9857   3.757   0.803  17.620 -0.6086 -0.7139 -1.5610
  662MPD2    N1 9858   4.077   0.549  17.348 -0.1350  0.0616 -0.1196
  662MPD2    H7 9859   4.151   0.533  17.280  0.5367 -1.8511  1.0741
  663TMC3    C1 9860   4.102   0.325  17.369  0.2134  0.1046 -0.0702
  663TMC3    C2 9861   4.165   0.251  17.464 -0.4721  0.2994 -0.1093
  663TMC3    C3 9862   4.253   0.154  17.419 -0.4438  0.4710 -0.0793
  663TMC3    C4 9863   4.107   0.296  17.234  0.5514  0.2286 -0.1001
  663TMC3    C5 9864   4.185   0.187  17.194  0.1029  0.5673  0.4673
  663TMC3    C6 9865   4.257   0.115  17.284 -0.1742  0.2469 -0.7449
  663TMC3     C 9866   4.028   0.438  17.413  0.2401  0.2010  0.1560
  663TMC3     O 9867   3.954   0.413  17.506 -0.4854 -0.7584 -0.0196
  663TMC3     H 9868   4.173   0.283  17.567  2.2909 -0.1296 -0.1883
  663TMC3    H1 9869   4.052   0.358  17.164  0.8483  0.0187 -0.5106
  663TMC3    H2 9870   4.336   0.053  17.245 -3.4676 -2.5066 -3.0445
  663TMC3    C7 9871   4.145   0.125  17.067 -0.0588  0.3909  0.1855
  663TMC3    C8 9872   4.240   0.032  17.504 -0.2542  0.2772 -0.4023
  663TMC3    O1 9873   4.068   0.187  16.997 -0.8756  0.0735  0.1470
  663TMC3    O2 9874   4.310   4.675  17.474 -0.1008 -0.5584  0.4303
  664MPD2     C 9875   2.547   3.302  17.445 -0.3963 -0.5565  0.7954
  664MPD2    C1 9876   2.487   3.421  17.481  0.6971 -0.1607  0.0900
  664MPD2    C2 9877   2.503   3.476  17.606 -0.3211  0.0810 -0.5296
  664MPD2    C3 9878   2.582   3.415  17.698  0.1869 -0.6172  0.1335
  664MPD2    C4 9879   2.652   3.305  17.661 -0.3583 -0.3288 -0.5602
  664MPD2    C5 9880   2.634   3.249  17.538  0.1489  0.3205  0.3339
  664MPD2     H 9881   2.448   3.565  17.635  3.9030  1.7889  2.2152
  664MPD2    H1 9882   2.725   3.255  17.724 -0.4760 -0.0293 -0.1845
  664MPD2    H2 9883   2.529   3.250  17.351 -0.6051  0.2698  0.3764
  664MPD2    H3 9884   2.683   3.156  17.514 -0.4412  0.2827 -0.7042
  664MPD2     N 9885   2.593   3.474   0.085 -0.3798 -0.7496  0.0038
  664MPD2    H5 9886   2.541   3.560   0.100 -0.1215 -0.5656 -0.1626
  664MPD2    N1 9887   2.403   3.490  17.391 -0.3384 -0.3926  0.1396
  664MPD2    H7 9888   2.350   3.570  17.424  0.5547  0.1657  0.2226
  665TMC3    C1 9889   2.650   3.477   0.319  0.4343  0.1135  0.0110
  665TMC3    C2 9890   2.617   3.402   0.430 -0.3471 -0.7245 -0.3082
  665TMC3    C3 9891   2.596   3.471   0.548  0.0587 -0.3267  0.0245
  665TMC3    C4 9892   2.672   3.610   0.331 -0.0183 -0.0066 -0.4524
  665TMC3    C5 9893   2.670   3.667   0.454  0.8717  0.0310 -0.4027
  665TMC3    C6 9894   2.632   3.598   0.567  0.5536 -0.2932 -0.5781
  665TMC3     C 9895   2.653   3.409   0.194 -0.2438 -0.5194  0.2211
  665TMC3     O 9896   2.690   3.295   0.210 -0.4051 -0.0668 -0.2195
  665TMC3     H 9897   2.589   3.297   0.424  2.3032 -1.3575 -1.6609
  665TMC3    H1 9898   2.691   3.656   0.235  1.0164  3.0780  1.2144
  665TMC3    H2 9899   2.621   3.645   0.665  0.4256  1.4172 -1.4245
  665TMC3    C7 9900   2.644   3.812   0.441 -0.2803  0.1226  0.3688
  665TMC3    C8 9901   2.531   3.407   0.664 -0.7646 -0.2173  0.2244
  665TMC3    O1 9902   2.616   3.852   0.329 -0.5674 -0.4261  0.3903
  665TMC3    O2 9903   2.540   3.463   0.772  0.0786 -0.1893  0.1197
  666TMC3    C1 9904   1.868   3.126  10.332 -0.5665  0.4150  0.4218
  666TMC3    C2 9905   1.988   3.101  10.391 -0.4732  0.7325  0.3174
  666TMC3    C3 9906   2.085   3.204  10.390 -0.2210 -0.4368 -0.1101
  666TMC3    C4 9907   1.839   3.250  10.274 -0.3727  0.0974  0.1982
  666TMC3    C5 9908   1.938   3.349  10.274 -0.2513 -0.2456  0.0380
  666TMC3    C6 9909   2.070   3.326  10.325 -0.2252 -0.3444 -0.2105
  666TMC3     C 9910   1.757   3.032  10.337  0.0633 -0.3465  0.1258
  666TMC3     O 9911   1.643   3.073  10.339  0.3617 -0.0661  0.1388
  666TMC3     H 9912   2.008   3.001  10.429  0.9042  0.3070 -1.5055
  666TMC3    H1 9913   1.738   3.280  10.248 -0.0749 -1.3051 -2.5726
  666TMC3    H2 9914   2.144   3.403  10.340 -0.6082 -0.2954  1.4170
  666TMC3    C7 9915   1.894   3.480  10.232 -0.7383  0.4470 -0.3919
  666TMC3    C8 9916   2.203   3.164  10.457 -0.5199  0.7196 -0.0011
  666TMC3    O1 9917   1.780   3.484  10.193  0.0321  0.0690  0.0710
  666TMC3    O2 9918   2.229   3.046  10.479 -0.5464  0.0668  0.1243
  667MPD2     C 9919   3.179   3.307  15.387 -0.1800  0.5999 -0.1061
  667MPD2    C1 9920   3.059   3.374  15.370 -0.6603 -0.2893  0.0701
  667MPD2    C2 9921   2.964   3.298  15.297 -0.1921  0.0866 -0.4247
  667MPD2    C3 9922   2.993   3.168  15.248  0.3096 -0.0337 -0.2548
  667MPD2    C4 9923   3.116   3.109  15.276 -0.8485 -0.9784 -0.2398
  667MPD2    C5 9924   3.203   3.180  15.348 -0.5518 -0.1491  0.2679
  667MPD2     H 9925   2.865   3.333  15.272  0.0732  0.6050 -0.7497
  667MPD2    H1 9926   3.151   3.010  15.249  2.1598 -0.4953  1.8832
  667MPD2    H2 9927   3.247   3.356  15.457 -1.4013 -1.2758  2.3725
  667MPD2    H3 9928   3.297   3.131  15.373 -0.1897  0.0483 -0.7017
  667MPD2     N 9929   2.897   3.089  15.175 -0.2287 -0.5181 -0.1991
  667MPD2    H5 9930   2.924   2.992  15.161  0.7690 -0.3208  0.3779
  667MPD2    N1 9931   3.026   3.492  15.435 -0.2437 -0.1223 -0.5479
  667MPD2    H7 9932   2.925   3.505  15.437  0.0019  1.5365  1.3922
  668TMC3    C1 9933   3.065   3.702  15.548  0.0644  0.0401 -0.3135
  668TMC3    C2 9934   3.145   3.811  15.535  0.5107 -0.1354 -0.5967
  668TMC3    C3 9935   3.141   3.898  15.634  0.4719  0.5630  0.3936
  668TMC3    C4 9936   2.978   3.679  15.646 -0.0928 -0.6661  0.4517
  668TMC3    C5 9937   2.974   3.777  15.746  0.1579 -0.2380  0.0550
  668TMC3    C6 9938   3.048   3.896  15.739 -0.6959  0.9225 -0.2203
  668TMC3     C 9939   3.119   3.591  15.466  0.4589  0.2549  0.4205
  668TMC3     O 9940   3.237   3.601  15.433  0.1140  0.3371 -0.6915
  668TMC3     H 9941   3.223   3.819  15.460  0.4011 -0.3368 -0.7320
  668TMC3    H1 9942   2.906   3.598  15.637  0.8727 -1.5154  0.3457
  668TMC3    H2 9943   3.045   3.969  15.819 -3.4414  0.2259  0.2910
  668TMC3    C7 9944   2.851   3.784  15.817 -0.5522 -0.0771  0.7898
  668TMC3    C8 9945   3.260   3.969  15.663  0.2716  0.6671 -0.2196
  668TMC3    O1 9946   2.828   3.668  15.862  0.3229  0.1180  0.1782
  668TMC3    O2 9947   3.285   3.999  15.780  0.1799 -0.0333 -0.8324
  669TMC3    C1 9948   1.364   3.565  15.078  0.2899  0.8261  0.2035
  669TMC3    C2 9949   1.263   3.577  14.986  0.1820 -1.0476  0.2137
  669TMC3    C3 9950   1.297   3.667  14.887 -1.2897  0.0514  0.4516
  669TMC3    C4 9951   1.480   3.633  15.082  1.0449 -0.2848  0.5494
  669TMC3    C5 9952   1.501   3.729  14.984  0.9140 -0.1244  0.2462
  669TMC3    C6 9953   1.411   3.746  14.888  0.1215 -0.3265 -0.2786
  669TMC3     C 9954   1.349   3.448  15.168  0.0877  0.1789  0.1305
  669TMC3     O 9955   1.235   3.410  15.204  0.2736  0.3785 -0.2648
  669TMC3     H 9956   1.193   3.496  14.969 -0.3837 -0.6332  0.5796
  669TMC3    H1 9957   1.540   3.622  15.171 -0.6905  2.4027  2.0427
  669TMC3    H2 9958   1.420   3.829  14.819  0.6346  0.3344  0.5880
  669TMC3    C7 9959   1.611   3.822  14.992  0.1855 -0.0533 -0.1765
  669TMC3    C8 9960   1.210   3.666  14.771  0.2122 -0.1276 -0.2123
  669TMC3    O1 9961   1.609   3.916  14.913  0.1387  0.5096  0.1426
  669TMC3    O2 9962   1.101   3.611  14.775 -0.1267  0.4141 -0.1908
  670MPD2     C 9963   4.161   1.351  14.178  0.0118  0.3570  0.2172
  670MPD2    C1 9964   4.149   1.264  14.076 -0.1097  0.8466 -1.0210
  670MPD2    C2 9965   4.105   1.133  14.102 -0.3307 -0.0286 -0.0842
  670MPD2    C3 9966   4.071   1.098  14.228  0.4603  0.2781 -0.1609
  670MPD2    C4 9967   4.095   1.193  14.338 -0.3603 -0.0168 -0.2618
  670MPD2    C5 9968   4.140   1.318  14.312  0.1222 -0.1476  1.4806
  670MPD2     H 9969   4.089   1.064  14.019  2.6923 -0.1551 -0.5459
  670MPD2    H1 9970   4.078   1.167  14.442 -1.7202 -2.2860 -1.0703
  670MPD2    H2 9971   4.188   1.454  14.156 -1.3882  0.8301  0.7433
  670MPD2    H3 9972   4.159   1.391  14.390  0.5191  1.8886 -0.5068
  670MPD2     N 9973   4.032   0.965  14.251 -0.7258 -0.1451  0.0806
  670MPD2    H5 9974   4.038   0.899  14.174  0.1512  0.1824 -0.1325
  670MPD2    N1 9975   4.180   1.299  13.944  0.0118 -0.3571 -0.0223
  670MPD2    H7 9976   4.182   1.223  13.877  0.0587 -1.2838  1.0305
  671TMC3    C1 9977   4.008   0.767  14.375  0.1751  0.4768  0.7153
  671TMC3    C2 9978   4.073   0.720  14.484  0.1468 -0.3930  0.2119
  671TMC3    C3 9979   4.154   0.615  14.466  0.4777 -0.2920 -0.6259
  671TMC3    C4 9980   4.011   0.705  14.253  0.8444 -0.0230 -0.3022
  671TMC3    C5 9981   4.100   0.604  14.238  0.4422  0.6540 -0.5685
  671TMC3    C6 9982   4.169   0.551  14.344 -0.7476  0.1467 -0.1640
  671TMC3     C 9983   3.988   0.914  14.372  0.1165 -0.2865  0.2744
  671TMC3     O 9984   3.993   0.963  14.486 -0.3155  0.6234 -0.3322
  671TMC3     H 9985   4.101   0.784  14.567  0.5943 -0.3036 -0.0068
  671TMC3    H1 9986   3.956   0.745  14.168  0.3195 -0.4755 -0.1756
  671TMC3    H2 9987   4.244   0.472  14.338 -0.2893  0.4954  0.9447
  671TMC3    C7 9988   4.104   0.539  14.106  0.5683  0.4648  0.1727
  671TMC3    C8 9989   4.270   0.605  14.551  0.8401  0.1856  0.5530
  671TMC3    O1 9990   4.028   0.594  14.025 -0.2979 -0.1156 -0.4048
  671TMC3    O2 9991   4.256   0.608  14.672  0.2333 -0.6038 -0.1115
  672MPD2     C 9992   0.451   1.948   0.365 -0.1152 -0.2292  0.3433
  672MPD2    C1 9993   0.432   1.874   0.479  0.0475 -0.2195 -0.2512
  672MPD2    C2 9994   0.535   1.869   0.575  0.3001 -0.0094 -0.5653
  672MPD2    C3 9995   0.639   1.961   0.566 -0.0724 -1.5940 -0.2973
  672MPD2    C4 9996   0.655   2.030   0.454  0.2759 -0.0598  0.1220
  672MPD2    C5 9997   0.563   2.027   0.348 -0.3926  0.0149 -0.5841
  672MPD2     H 9998   0.521   1.809   0.664  2.0987  1.9802  1.0537
  672MPD2    H1 9999   0.731   2.106   0.445 -0.3703  0.4641 -0.9543
  672MPD2    H210000   0.386   1.939   0.279  2.1182 -0.0246 -1.3870
  672MPD2    H310001   0.575   2.080   0.254  1.8454 -0.2181 -0.4134
  672MPD2     N10002   0.729   1.992   0.669 -0.1315  0.5985  0.0321
  672MPD2    H510003   0.790   2.072   0.654  0.4711 -0.1687 -1.4882
  672MPD2    N110004   0.314   1.798   0.507  0.0454  0.1271 -0.0295
  672MPD2    H710005   0.311   1.756   0.599 -0.6524  1.0658  0.3862
  673TMC3    C110006   0.099   1.697   0.491  0.6261  0.4918  0.5816
  673TMC3    C210007   0.145   1.579   0.546 -0.5614  0.7090  1.0954
  673TMC3    C310008   0.057   1.473   0.562 -0.6353  0.6004 -0.6674
  673TMC3    C410009   4.698   1.712   0.449  0.8238  0.5324  0.1017
  673TMC3    C510010   4.613   1.604   0.468 -0.0917  0.3299  0.2076
  673TMC3    C610011   4.661   1.483   0.519 -0.1348  0.5365 -0.4583
  673TMC3     C10012   0.195   1.789   0.434  0.3064 -0.1074 -0.2255
  673TMC3     O10013   0.164   1.854   0.337  0.3396 -0.5203 -0.4568
  673TMC3     H10014   0.252   1.564   0.557 -0.3603  0.8536 -0.6387
  673TMC3    H110015   4.676   1.811   0.411 -1.5028 -0.0339 -0.0040
  673TMC3    H210016   4.603   1.391   0.519  1.7240 -0.6463 -1.0815
  673TMC3    C710017   4.467   1.619   0.470  0.2997 -0.2305 -0.5811
  673TMC3    C810018   0.112   1.346   0.560 -0.3151 -0.2243  0.2931
  673TMC3    O110019   4.395   1.525   0.503 -0.1326 -0.0938 -0.3133
  673TMC3    O210020   0.060   1.269   0.475 -0.1593  0.1509  0.1467
  674MPD2     C10021   4.380   1.168   0.198 -0.3380  0.6443 -0.3963
  674MPD2    C110022   4.287   1.072   0.230  0.0351  0.3328  0.0466
  674MPD2    C210023   4.282   1.027   0.369  0.5083 -0.2574 -0.5198
  674MPD2    C310024   4.354   1.084   0.464 -0.7932 -0.7530 -0.2374
  674MPD2    C410025   4.450   1.178   0.432 -0.8632  0.3959  0.1330
  674MPD2    C510026   4.461   1.217   0.305  0.1209 -1.1300 -0.3313
  674MPD2     H10027   4.206   0.955   0.398 -1.3994  2.1261  0.4079
  674MPD2    H110028   4.524   1.208   0.505  0.1939 -0.3937 -0.6090
  674MPD2    H210029   4.393   1.206   0.098  1.3181 -1.0688 -0.8253
  674MPD2    H310030   4.535   1.293   0.282 -0.4200 -0.5225 -0.0681
  674MPD2     N10031   4.348   1.020   0.597  0.1248  0.4355  0.5329
  674MPD2    H510032   4.265   0.965   0.619  0.5213 -1.8025 -3.6433
  674MPD2    N110033   4.201   1.030   0.128  0.5411  0.1916 -0.8373
  674MPD2    H710034   4.211   1.080   0.040 -1.9467  2.7705  0.3591
  675TMC3    C110035   4.176   0.793   0.199  0.0963 -0.5061  0.5048
  675TMC3    C210036   4.087   0.734   0.282 -0.3720 -0.4963  0.2516
  675TMC3    C310037   4.134   0.646   0.375  0.3325 -0.0946  0.4598
  675TMC3    C410038   4.314   0.771   0.209 -0.2162 -0.0732 -0.5389
  675TMC3    C510039   4.359   0.696   0.314  0.4370  0.2146 -0.4639
  675TMC3    C610040   4.274   0.625   0.398  0.0701 -0.6180 -0.2956
  675TMC3     C10041   4.124   0.914   0.128 -0.1874  0.0625 -0.4148
  675TMC3     O10042   4.035   0.896   0.045 -0.3925  0.3587  0.3473
  675TMC3     H10043   3.982   0.760   0.287 -0.2515 -0.7768  4.1855
  675TMC3    H110044   4.384   0.833   0.155 -1.4762  2.5009  0.7448
  675TMC3    H210045   4.305   0.546   0.467 -0.9875 -0.0110  0.8706
  675TMC3    C710046   4.498   0.705   0.359 -0.5104  0.2170 -0.2494
  675TMC3    C810047   4.029   0.558   0.430 -0.7076  0.8196  0.4552
  675TMC3    O110048   4.522   0.645   0.463  0.0230 -0.4445 -0.2906
  675TMC3    O210049   3.927   0.540   0.362  0.4107  0.4688  0.0160
  676MPD2     C10050   2.889   4.509  11.264  0.3871  0.2544  0.0006
  676MPD2    C110051   2.778   4.436  11.234 -0.0152  0.2847  0.0068
  676MPD2    C210052   2.783   4.297  11.214  0.5015 -0.1638 -0.0436
  676MPD2    C310053   2.907   4.232  11.227  0.7020 -0.5591 -0.4192
  676MPD2    C410054   3.021   4.305  11.254 -0.0915  0.1659  0.0087
  676MPD2    C510055   3.014   4.449  11.270 -0.2654  0.0351 -0.1221
  676MPD2     H10056   2.701   4.232  11.187 -0.2655  0.1536  1.5111
  676MPD2    H110057   3.118   4.260  11.269 -1.1713 -1.4189  2.3264
  676MPD2    H210058   2.893   4.616  11.277 -0.8153  0.2505  0.3736
  676MPD2    H310059   3.102   4.508  11.288  0.5639 -1.1229 -0.3915
  676MPD2     N10060   2.932   4.086  11.211 -0.1479 -0.4461  0.7242
  676MPD2    H510061   3.031   4.065  11.205 -0.2504 -0.8375  0.4046
  676MPD2    N110062   2.648   4.494  11.204  0.4514 -0.4684  0.6206
  676MPD2    H710063   2.567   4.437  11.184 -0.0301  0.7320 -0.8479
  677TMC3    C110064   2.502   4.665  11.155  0.0141 -0.3936 -0.3576
  677TMC3    C210065   2.438   4.586  11.060 -0.4218 -0.6240  1.2890
  677TMC3    C310066   2.311   4.617  11.019 -0.4784  0.0734  0.4546
  677TMC3    C410067   2.448   0.048  11.202 -0.1570  0.3856  0.0530
  677TMC3    C510068   2.320   0.075  11.160 -0.0606  0.2161 -0.1267
  677TMC3    C610069   2.247   4.727  11.077 -0.9428  0.2456  0.1466
  677TMC3     C10070   2.635   4.627  11.188  0.2144 -0.3938 -0.4337
  677TMC3     O10071   2.718   4.716  11.192  0.0513 -0.4936 -0.3087
  677TMC3     H10072   2.492   4.510  11.004  0.8044  0.8574  0.4735
  677TMC3    H110073   2.500   0.096  11.283  0.5698 -1.6763  0.8030
  677TMC3    H210074   2.144   0.011  11.047 -1.4850 -0.9441  1.2862
  677TMC3    C710075   2.256   0.191  11.221  0.2199 -0.2433  0.3987
  677TMC3    C810076   2.245   4.528  10.928 -1.0116 -0.4368 -1.0713
  677TMC3    O110077   2.137   0.180  11.250  0.0599  0.2457  0.1180
  677TMC3    O210078   2.283   4.532  10.811 -0.8636  0.9618  0.3378
  678MPD2     C10079   3.137   4.375   1.630 -0.0899  0.0944 -0.0917
  678MPD2    C110080   3.181   4.386   1.496  0.8427  0.4709  0.0037
  678MPD2    C210081   3.079   4.419   1.401 -0.0261  0.1726 -0.5976
  678MPD2    C310082   2.944   4.430   1.433 -0.5072 -0.0303 -0.1071
  678MPD2    C410083   2.909   4.412   1.564  0.6299  0.2575  0.3424
  678MPD2    C510084   3.003   4.389   1.654 -0.3014  0.4593 -0.3499
  678MPD2     H10085   3.097   4.428   1.294  1.7148 -0.8805 -0.4038
  678MPD2    H110086   2.807   4.415   1.600  0.7360 -0.8768  0.7368
  678MPD2    H210087   3.199   4.330   1.707 -1.9031 -1.8262  0.2552
  678MPD2    H310088   2.969   4.367   1.755 -0.3721 -1.5188 -0.8085
  678MPD2     N10089   2.850   4.462   1.328 -0.2838 -0.1696  0.0750
  678MPD2    H510090   2.892   4.475   1.237 -1.0312  1.3845 -0.0445
  678MPD2    N110091   3.314   4.363   1.452 -0.5247 -0.0748 -0.5049
  678MPD2    H710092   3.335   4.384   1.355 -3.0549  1.4497 -0.7174
  679TMC3    C110093   3.745   4.177   1.439  0.1686  0.0068  0.2951
  679TMC3    C210094   3.618   4.179   1.500 -0.0338  0.2367  0.1496
  679TMC3    C310095   3.531   4.275   1.451  0.1852  0.1244 -0.0827
  679TMC3    C410096   3.774   4.268   1.341 -0.3326 -0.3133  1.0060
  679TMC3    C510097   3.683   4.361   1.303  0.1399 -1.0181 -0.5569
  679TMC3    C610098   3.555   4.364   1.350 -0.0297  0.2276  0.6235
  679TMC3     C10099   3.845   4.078   1.470 -0.3304 -0.2557 -0.0341
  679TMC3     O10100   3.942   4.082   1.394 -0.0095 -0.2699 -0.0836
  679TMC3     H10101   3.588   4.108   1.577 -1.4205  1.3422  0.6173
  679TMC3    H110102   3.863   4.257   1.280 -1.1203 -1.0849 -0.0107
  679TMC3    H210103   3.482   4.429   1.303 -1.2400  0.2491  2.5231
  679TMC3    C710104   3.706   4.449   1.187 -0.4509 -0.3968  0.8866
  679TMC3    C810105   3.411   4.300   1.528  0.4276 -0.6207 -0.0093
  679TMC3    O110106   3.610   4.481   1.116 -0.5575 -0.1738  1.0931
  679TMC3    O210107   3.399   4.244   1.637  0.7715 -0.9382  0.3527
  680MPD2     C10108   3.698   3.256  14.022 -0.6670 -0.3495  0.5276
  680MPD2    C110109   3.809   3.185  14.065  0.3043  0.2690  0.1492
  680MPD2    C210110   3.927   3.257  14.085 -0.2285 -0.1046  0.0948
  680MPD2    C310111   3.929   3.396  14.072  0.5319  0.3682  0.1345
  680MPD2    C410112   3.813   3.462  14.033 -1.2561 -0.4837 -0.5542
  680MPD2    C510113   3.694   3.397  14.008 -0.8025 -0.1531 -0.3616
  680MPD2     H10114   4.016   3.204  14.116  0.2149  0.8367  0.4332
  680MPD2    H110115   3.819   3.570  14.028 -0.7523 -0.5223 -0.7707
  680MPD2    H210116   3.615   3.193  13.990  1.6320 -1.7861 -2.6024
  680MPD2    H310117   3.611   3.454  13.969  0.0785  1.6674  0.4104
  680MPD2     N10118   4.041   3.473  14.107  0.5120 -0.1293 -0.2785
  680MPD2    H510119   4.033   3.571  14.083  1.2375 -0.3868 -1.5478
  680MPD2    N110120   3.819   3.051  14.096 -0.0187 -0.3387 -0.1298
  680MPD2    H710121   3.904   3.012  14.137 -0.5981  0.2131  1.5890
  681TMC3    C110122   3.758   2.839  14.153 -0.9542  0.1359  0.3180
  681TMC3    C210123   3.703   2.837  14.276 -0.0803  0.7009  0.2284
  681TMC3    C310124   3.780   2.795  14.379  0.2575 -0.3661 -0.0888
  681TMC3    C410125   3.889   2.800  14.135 -0.2062 -0.0543 -0.8524
  681TMC3    C510126   3.968   2.765  14.241 -1.1394 -0.4574 -0.2235
  681TMC3    C610127   3.914   2.756  14.369 -0.2701  0.4961  0.5348
  681TMC3     C10128   3.716   2.960  14.086 -0.4356 -0.2825  0.1753
  681TMC3     O10129   3.600   2.986  14.068  0.2790  0.1561 -0.4587
  681TMC3     H10130   3.608   2.886  14.294 -0.7218 -0.9423  1.3051
  681TMC3    H110131   3.926   2.795  14.033  1.8431  0.2358 -0.1155
  681TMC3    H210132   3.969   2.716  14.453 -0.6456 -0.8769  0.1375
  681TMC3    C710133   4.108   2.745  14.230 -0.3875 -0.4130 -0.4901
  681TMC3    C810134   3.740   2.864  14.502 -0.0542 -0.1229  0.0372
  681TMC3    O110135   4.170   2.728  14.336 -0.2144 -0.1886 -0.1478
  681TMC3    O210136   3.620   2.880  14.528 -0.0864 -0.0927 -0.1607
  682MPD2     C10137   1.262   4.447  10.689 -1.2520  0.2832  0.3028
  682MPD2    C110138   1.294   4.318  10.718  0.0602  0.0419 -0.3705
  682MPD2    C210139   1.285   4.274  10.841  0.6769  0.3072  1.2434
  682MPD2    C310140   1.259   4.357  10.950  0.3592 -0.1177 -0.4408
  682MPD2    C410141   1.229   4.496  10.920  0.3103  0.1362  0.3982
  682MPD2    C510142   1.224   4.529  10.792 -0.1786  0.4436 -0.0130
  682MPD2     H10143   1.325   4.174  10.854  2.5304  0.6663 -1.8182
  682MPD2    H110144   1.201   4.566  10.999 -1.2785 -0.8560  0.7121
  682MPD2    H210145   1.264   4.489  10.589 -0.1412 -2.4169 -0.7866
  682MPD2    H310146   1.191   4.630  10.771 -1.1979  0.1567  0.2206
  682MPD2     N10147   1.268   4.308  11.077  0.2541  0.4509  0.0281
  682MPD2    H510148   1.244   4.369  11.154  2.0589 -2.5829  3.0063
  682MPD2    N110149   1.349   4.231  10.625 -0.0316 -1.1248 -0.7845
  682MPD2    H710150   1.373   4.140  10.664  2.7793  0.4472  1.1324
  683TMC3    C110151   1.221   4.234  11.487  0.8493  0.0916 -0.5159
  683TMC3    C210152   1.166   4.115  11.515 -0.3206 -0.3803 -0.4984
  683TMC3    C310153   1.146   4.026  11.416  0.1009  0.2678 -0.8513
  683TMC3    C410154   1.271   4.250  11.357  0.1704 -0.2216 -0.0641
  683TMC3    C510155   1.245   4.155  11.253 -0.2587 -0.5864 -0.0610
  683TMC3    C610156   1.186   4.032  11.286 -0.6622 -0.3344  0.1844
  683TMC3     C10157   1.271   4.320  11.591  0.0564  0.5930  0.0005
  683TMC3     O10158   1.305   4.432  11.552 -0.1542 -0.3107 -0.1968
  683TMC3     H10159   1.135   4.096  11.617  0.5134 -3.5121 -0.8054
  683TMC3    H110160   1.323   4.337  11.319 -0.3698 -0.4189 -1.2714
  683TMC3    H210161   1.173   3.954  11.213 -3.0322  0.7031 -0.4852
  683TMC3    C710162   1.246   4.176  11.109 -0.2108  0.7387 -0.2089
  683TMC3    C810163   1.097   3.901  11.458 -0.3759 -0.0414 -0.0871
  683TMC3    O110164   1.223   4.076  11.040 -0.4967  0.6804 -0.2216
  683TMC3    O210165   1.007   3.899  11.541  0.5753 -0.6091  0.1438
  684MPD2     C10166   4.593   4.178  16.517 -0.0559 -0.1348 -0.3846
  684MPD2    C110167   4.466   4.177  16.464  0.4010  0.7248  0.5317
  684MPD2    C210168   4.392   4.293  16.483  0.2172 -0.3365 -0.5354
  684MPD2    C310169   4.438   4.397  16.564 -0.1378 -0.6998 -0.2682
  684MPD2    C410170   4.563   4.390  16.615  0.0942 -0.4067 -0.4811
  684MPD2    C510171   4.643   4.284  16.585 -0.5790  0.1544 -0.1811
  684MPD2     H10172   4.286   4.290  16.461  0.0642  0.1095  0.1274
  684MPD2    H110173   4.594   4.468  16.683  0.6997  0.1395 -1.3888
  684MPD2    H210174   4.664   4.096  16.515  0.3635  0.1993  0.5125
  684MPD2    H310175   0.004   4.280  16.634  0.3809  1.2031 -1.9639
  684MPD2     N10176   4.356   4.507  16.598 -1.2081 -0.2913  0.1004
  684MPD2    H510177   4.390   4.578  16.662 -2.3894 -0.2372  0.6702
  684MPD2    N110178   4.413   4.062  16.392 -0.0841 -0.5638  0.5545
  684MPD2    H710179   4.314   4.057  16.370  0.4269 -1.7481 -1.5166
  685TMC3    C110180   4.417   3.856  16.285 -0.5895 -0.3742  0.5700
  685TMC3    C210181   4.307   3.887  16.204  1.1302 -0.4012 -0.2011
  685TMC3    C310182   4.277   3.813  16.091  0.0340 -0.6501 -0.0091
  685TMC3    C410183   4.497   3.751  16.248 -0.5403 -0.4428 -0.1151
  685TMC3    C510184   4.455   3.677  16.130  0.0248  0.5465  1.0809
  685TMC3    C610185   4.351   3.707  16.048  1.0854 -0.1095  0.1431
  685TMC3     C10186   4.486   3.950  16.361  0.1031  0.6535  0.0793
  685TMC3     O10187   4.609   3.939  16.346  0.3160 -0.2986 -0.7627
  685TMC3     H10188   4.244   3.976  16.209 -0.1083 -1.3643  1.3744
  685TMC3    H110189   4.580   3.724  16.312  0.0817  0.2759 -0.6293
  685TMC3    H210190   4.323   3.648  15.962  0.4814  0.2022  0.1216
  685TMC3    C710191   4.555   3.587  16.073  0.8327 -0.1466 -0.0388
  685TMC3    C810192   4.168   3.860  16.001  0.5837 -0.0438  0.4442
  685TMC3    O110193   4.523   3.517  15.978 -0.5506  0.2302 -0.3326
  685TMC3    O210194   4.182   3.837  15.880  0.1848 -0.3769 -0.6502
  686MPD2     C10195   1.015   4.084  15.533  0.4966  0.0374  0.3561
  686MPD2    C110196   0.940   3.984  15.594 -0.9487 -0.4190 -0.3457
  686MPD2    C210197   0.870   3.895  15.513  0.2667  0.3790 -0.3681
  686MPD2    C310198   0.903   3.897  15.382 -0.4115 -0.5848  0.0244
  686MPD2    C410199   0.983   3.991  15.327  0.2386  0.3806 -0.4265
  686MPD2    C510200   1.032   4.090  15.402 -0.1627 -0.2338 -0.8146
  686MPD2     H10201   0.805   3.821  15.559  1.5955  0.5378  1.7691
  686MPD2    H110202   1.014   3.985  15.223 -2.3885 -1.7187 -1.0885
  686MPD2    H210203   1.062   4.167  15.585 -0.3829 -0.7680  2.4374
  686MPD2    H310204   1.091   4.165  15.350 -2.4512  3.0895  1.4053
  686MPD2     N10205   0.847   3.809  15.286  0.9752  0.4839  0.3067
  686MPD2    H510206   0.863   3.844  15.192 -1.1794  0.3467 -0.1147
  686MPD2    N110207   0.934   3.984  15.738  0.2870 -0.4629 -0.0016
  686MPD2    H710208   0.992   4.049  15.791 -2.2270  1.8402 -0.0525
  687TMC3    C110209   0.764   3.617  15.428 -0.2348 -0.6859 -0.0296
  687TMC3    C210210   0.640   3.593  15.480  0.3981  0.1098 -1.2512
  687TMC3    C310211   0.635   3.552  15.611 -0.4727 -0.6782 -0.2476
  687TMC3    C410212   0.881   3.588  15.493  0.2607 -0.2982  0.0335
  687TMC3    C510213   0.869   3.553  15.627  0.0216  0.6949 -0.3147
  687TMC3    C610214   0.744   3.527  15.688  0.7788  0.3904 -0.5737
  687TMC3     C10215   0.770   3.691  15.298  0.1478 -0.6424  0.1949
  687TMC3     O10216   0.703   3.641  15.211  0.2485  0.3474 -0.1955
  687TMC3     H10217   0.550   3.613  15.423 -1.0624 -0.3112  0.8806
  687TMC3    H110218   0.972   3.612  15.439  0.2923 -3.5283 -1.3055
  687TMC3    H210219   0.742   3.524  15.796 -1.6697 -0.4228 -0.6320
  687TMC3    C710220   0.986   3.569  15.717  0.2077  0.3870  0.1572
  687TMC3    C810221   0.508   3.595  15.670  0.6096  0.5260 -0.2757
  687TMC3    O110222   0.984   3.503  15.823 -0.5100 -0.2622 -0.3367
  687TMC3    O210223   0.410   3.535  15.641 -0.1841  0.0590  0.3591
  688MPD2     C10224   0.398   2.854  17.257  0.5671  0.3927 -0.7787
  688MPD2    C110225   0.429   2.734  17.313 -0.3766  0.1850 -0.2051
  688MPD2    C210226   0.513   2.648  17.238  0.1423 -0.4955 -0.2890
  688MPD2    C310227   0.556   2.677  17.117  0.5406  0.0023 -0.0584
  688MPD2    C410228   0.543   2.801  17.072 -0.4982  0.1578  0.2628
  688MPD2    C510229   0.460   2.889  17.139 -0.6765  0.2722  0.0467
  688MPD2     H10230   0.541   2.553  17.283  0.2254 -0.2974  0.0815
  688MPD2    H110231   0.584   2.824  16.975  1.6753  0.8564  1.3453
  688MPD2    H210232   0.334   2.926  17.306  1.1829 -0.7212  1.6985
  688MPD2    H310233   0.448   2.990  17.102  1.8744  0.5925  0.1139
  688MPD2     N10234   0.636   2.593  17.041 -0.0587  0.0818  0.3475
  688MPD2    H510235   0.686   2.627  16.959  1.9916  0.8859  1.9333
  688MPD2    N110236   0.383   2.683  17.438 -0.0584  0.1777  0.2585
  688MPD2    H710237   0.421   2.595  17.470 -0.7933 -0.0730  0.4565
  689TMC3    C110238   0.250   2.652  17.632  0.5153  1.1425 -0.2774
  689TMC3    C210239   0.218   2.721   0.005 -0.4869 -0.1230  0.0290
  689TMC3    C310240   0.208   2.648   0.119  0.2795 -0.1576  0.2852
  689TMC3    C410241   0.287   2.513  17.641 -0.2493 -0.2838 -0.4668
  689TMC3    C510242   0.277   2.454   0.023 -0.2842 -0.2235 -0.5208
  689TMC3    C610243   0.244   2.522   0.140  0.2544 -0.0580 -0.4623
  689TMC3     C10244   0.290   2.739  17.521  0.6809  0.1299 -0.3761
  689TMC3     O10245   0.232   2.849  17.505  0.0168  0.2229 -0.1449
  689TMC3     H10246   0.200   2.828   0.001  0.0695  0.0238  1.2692
  689TMC3    H110247   0.326   2.453  17.561  1.5912  2.6964 -1.7972
  689TMC3    H210248   0.235   2.471   0.235  1.0031 -1.3508 -1.0864
  689TMC3    C710249   0.331   2.317   0.041 -0.7176 -0.3297 -0.2771
  689TMC3    C810250   0.181   2.729   0.241  0.3388 -0.8814  0.3905
  689TMC3    O110251   0.394   2.284   0.140 -0.5234  0.3448 -0.5593
  689TMC3    O210252   0.285   2.764   0.294 -0.0941  0.0643  0.2311
  690MPD2     C10253   2.505   0.162  15.952  0.7273  0.5102  0.5625
  690MPD2    C110254   2.451   0.120  15.832  0.1030  1.0321 -0.6218
  690MPD2    C210255   2.512   0.147  15.713  0.1407  0.0727  0.0883
  690MPD2    C310256   2.622   0.231  15.706 -0.3232  0.7689 -0.3428
  690MPD2    C410257   2.671   0.283  15.833 -0.4889 -0.3054  0.3230
  690MPD2    C510258   2.617   0.248  15.954 -0.9715 -0.2868 -0.4244
  690MPD2     H10259   2.475   0.091  15.628 -1.6948  0.0869  0.8702
  690MPD2    H110260   2.745   0.362  15.842  0.3802 -0.9109 -1.4121
  690MPD2    H210261   2.461   0.139  16.048  2.6918 -1.0809  1.0601
  690MPD2    H310262   2.659   0.293  16.044 -0.2257 -2.0614  0.1082
  690MPD2     N10263   2.682   0.267  15.583 -0.4753 -0.3314 -0.4359
  690MPD2    H510264   2.634   0.241  15.497 -1.5353 -1.3002  0.4460
  690MPD2    N110265   2.347   0.020  15.827  0.1638 -0.3020 -0.3552
  690MPD2    H710266   2.305   4.724  15.739 -0.6394  0.5343 -0.2714
  691TMC3    C110267   2.206   4.583  15.902  0.4341 -0.1283 -0.8445
  691TMC3    C210268   2.089   4.618  15.832  0.0002  0.1962  0.5356
  691TMC3    C310269   1.989   4.517  15.826 -0.5223 -0.0880 -0.2341
  691TMC3    C410270   2.211   4.468  15.978  0.1490 -0.0609 -0.5212
  691TMC3    C510271   2.112   4.379  15.965  0.3010  0.1746 -0.5586
  691TMC3    C610272   1.994   4.401  15.896 -0.3333  0.0843  0.0184
  691TMC3     C10273   2.306   4.686  15.934 -0.7553 -0.1736 -0.3854
  691TMC3     O10274   2.331   4.688  16.054 -0.2869  0.3645 -0.3264
  691TMC3     H10275   2.074   4.715  15.788  0.7875  0.6124  1.1773
  691TMC3    H110276   2.306   4.443  16.024  0.8657  0.7415 -1.5752
  691TMC3    H210277   1.920   4.322  15.890  0.4209 -0.6168 -0.0337
  691TMC3    C710278   2.129   4.269  16.059 -0.2390  0.1312 -0.2134
  691TMC3    C810279   1.907   4.509  15.709  0.1209  0.1026  0.3826
  691TMC3    O110280   2.226   4.271  16.137 -0.0838 -0.4302  0.3127
  691TMC3    O210281   1.875   4.394  15.681 -0.4228 -0.1064  0.1795
  692TMC3    C110282   3.483   0.751  15.899  0.0490 -0.2422 -0.0656
  692TMC3    C210283   3.489   0.811  15.776  0.6232  0.3768  0.0719
  692TMC3    C310284   3.602   0.793  15.701 -0.0855 -0.1875 -0.3184
  692TMC3    C410285   3.565   0.652  15.950  0.5027  0.1282  0.4139
  692TMC3    C510286   3.668   0.631  15.867 -0.1019  0.1033 -0.1167
  692TMC3    C610287   3.703   0.716  15.761  0.3414  0.4631  0.8808
  692TMC3     C10288   3.424   0.846  15.992  0.0762  0.1867 -0.2241
  692TMC3     O10289   3.429   0.812  16.110  1.2308 -0.7240 -0.3014
  692TMC3     H10290   3.406   0.867  15.735 -1.3542 -0.8509  2.4129
  692TMC3    H110291   3.544   0.602  16.044  1.8562 -1.2067  0.0035
  692TMC3    H210292   3.769   0.670  15.688 -0.5289 -1.7515  1.4769
  692TMC3    C710293   3.759   0.516  15.879  0.6561  0.3239  1.0490
  692TMC3    C810294   3.642   0.927  15.677 -0.2990 -0.1072 -0.8498
  692TMC3    O110295   3.771   0.458  15.768  0.1511 -0.2212  0.2806
  692TMC3    O210296   3.574   0.993  15.601  0.4282  0.2762  0.1494
  693MPD2     C10297   3.552   3.433  11.337 -0.3723  0.2779  0.5932
  693MPD2    C110298   3.532   3.324  11.262 -0.0807 -0.0330 -0.5561
  693MPD2    C210299   3.637   3.221  11.260 -0.3228  0.1822 -0.6096
  693MPD2    C310300   3.765   3.250  11.311 -0.4085  0.7719  0.4436
  693MPD2    C410301   3.782   3.368  11.373  0.0304  0.1702 -0.3171
  693MPD2    C510302   3.670   3.449  11.400 -0.5202  0.1861 -0.1464
  693MPD2     H10303   3.615   3.122  11.222  0.1545 -1.2693  2.8528
  693MPD2    H110304   3.876   3.388  11.423  1.2204  1.7082 -3.1967
  693MPD2    H210305   3.477   3.511  11.344 -0.0024  0.6612  0.3321
  693MPD2    H310306   3.691   3.536  11.460 -1.4359  0.1260  0.2624
  693MPD2     N10307   3.872   3.159  11.319  0.2024 -0.3683  0.2317
  693MPD2    H510308   3.963   3.194  11.346 -0.6118  4.4642 -3.1614
  693MPD2    N110309   3.402   3.289  11.214  0.5444  0.1074  0.3427
  693MPD2    H710310   3.322   3.347  11.237 -2.0559 -3.9209  1.4748
  694TMC3    C110311   3.249   3.128  11.132 -0.1327 -0.1011  0.3014
  694TMC3    C210312   3.177   3.078  11.031 -0.3424  0.1920 -0.0508
  694TMC3    C310313   3.099   2.965  11.051  0.5374  0.2022 -0.4468
  694TMC3    C410314   3.255   3.058  11.248 -0.0373  0.6842 -0.2932
  694TMC3    C510315   3.170   2.953  11.266  0.5552  0.9837 -0.8235
  694TMC3    C610316   3.083   2.904  11.173  0.0699 -0.0956  0.3964
  694TMC3     C10317   3.383   3.187  11.115 -0.0427 -0.5304  0.0058
  694TMC3     O10318   3.457   3.129  11.039  0.2244  0.4556 -0.3941
  694TMC3     H10319   3.184   3.119  10.930  2.5558 -0.2040 -0.0280
  694TMC3    H110320   3.322   3.088  11.328 -0.9038  0.3854  0.5399
  694TMC3    H210321   3.034   2.809  11.193  2.1866 -0.9531  1.5569
  694TMC3    C710322   3.201   2.875  11.389 -0.1278 -0.4639 -0.0295
  694TMC3    C810323   3.016   2.914  10.943 -0.0315 -0.2159  0.3715
  694TMC3    O110324   3.313   2.884  11.444  0.1047 -0.3507 -0.3652
  694TMC3    O210325   2.966   2.807  10.963  0.4115  0.1498  0.5773
  695MPD2     C10326   0.241   0.694  13.553 -0.0834 -1.2545  0.4518
  695MPD2    C110327   0.148   0.707  13.657 -0.0147 -0.0920  0.5694
  695MPD2    C210328   0.015   0.707  13.623 -0.0946  0.5300  0.7404
  695MPD2    C310329   4.710   0.689  13.493  0.4986 -0.3445  0.5329
  695MPD2    C410330   0.070   0.665  13.394 -0.3979  0.3709  0.2653
  695MPD2    C510331   0.204   0.665  13.425  0.1950  0.5128 -0.3353
  695MPD2     H10332   4.677   0.711  13.704  0.0497 -0.0189  0.8987
  695MPD2    H110333   0.038   0.641  13.294  0.8160  0.0870 -0.0526
  695MPD2    H210334   0.346   0.713  13.572 -0.4759  2.9157 -1.3204
  695MPD2    H310335   0.274   0.665  13.342  0.5423  1.4330 -0.0426
  695MPD2     N10336   4.573   0.696  13.450 -0.2535  0.3116 -0.9244
  695MPD2    H510337   4.556   0.666  13.354 -1.5260  3.3666 -1.6439
  695MPD2    N110338   0.190   0.732  13.789 -0.0313 -0.2168 -0.0932
  695MPD2    H710339   0.119   0.738  13.862 -0.4441  0.9121 -0.5929
  696TMC3    C110340   4.341   0.702  13.454 -0.3316  0.4335  0.2566
  696TMC3    C210341   4.320   0.573  13.403 -0.6239 -0.1280  0.3928
  696TMC3    C310342   4.195   0.510  13.412 -0.4733 -0.3334  0.5138
  696TMC3    C410343   4.231   0.772  13.508 -0.0933 -0.2090 -0.8352
  696TMC3    C510344   4.109   0.712  13.499  0.6631  0.3076 -0.0215
  696TMC3    C610345   4.089   0.583  13.453  0.4972  0.1097 -0.2201
  696TMC3     C10346   4.458   0.727  13.525  0.2669  0.4467  0.9910
  696TMC3     O10347   4.458   0.786  13.632  0.3942  0.3043  0.7909
  696TMC3     H10348   4.406   0.518  13.369 -0.1797  0.8907 -0.1158
  696TMC3    H110349   4.252   0.862  13.564 -0.7016 -1.0465  0.7456
  696TMC3    H210350   3.988   0.542  13.453 -0.1484  1.6744  1.0472
  696TMC3    C710351   4.009   0.817  13.480 -0.0429 -0.2887 -0.2135
  696TMC3    C810352   4.226   0.393  13.490  1.2068  0.4195  0.5768
  696TMC3    O110353   3.923   0.815  13.387  0.1490 -0.6023 -0.4532
  696TMC3    O210354   4.313   0.319  13.440 -0.6012  0.3662 -0.3684
  697MPD2     C10355   3.747   2.317  15.796 -0.9163 -0.7117 -0.0209
  697MPD2    C110356   3.668   2.316  15.684  0.2369 -0.8363 -0.3213
  697MPD2    C210357   3.645   2.440  15.617 -0.3172  0.8929  0.1343
  697MPD2    C310358   3.707   2.555  15.664 -0.2514  0.6586  0.0149
  697MPD2    C410359   3.793   2.549  15.768 -0.3772 -0.2310 -0.3635
  697MPD2    C510360   3.815   2.428  15.834  0.3402  0.3111 -0.4408
  697MPD2     H10361   3.574   2.442  15.535 -2.0450  0.4846  1.6205
  697MPD2    H110362   3.851   2.630  15.812 -0.8643  0.1868 -0.4867
  697MPD2    H210363   3.770   2.232  15.859 -1.9673 -0.9491  0.0461
  697MPD2    H310364   3.896   2.416  15.905 -0.2079  0.5388  0.2213
  697MPD2     N10365   3.695   2.673  15.582 -0.3295  0.3084  0.0334
  697MPD2    H510366   3.616   2.664  15.518 -0.7158  0.2292  0.5187
  697MPD2    N110367   3.608   2.206  15.627 -0.0322  0.1661 -0.6758
  697MPD2    H710368   3.560   2.212  15.538  1.0373 -1.1336 -1.3403
  698TMC3    C110369   3.762   2.858  15.461 -0.1241  0.5732 -0.1851
  698TMC3    C210370   3.819   2.983  15.472  1.3397 -0.1909  0.0699
  698TMC3    C310371   3.835   3.047  15.347 -0.3954  0.1621 -0.6101
  698TMC3    C410372   3.733   2.798  15.348  0.3820 -0.2269  0.2466
  698TMC3    C510373   3.773   2.864  15.232  0.3585 -0.5222  0.1470
  698TMC3    C610374   3.813   2.992  15.224  0.0560  0.3909  0.0423
  698TMC3     C10375   3.760   2.795  15.587  0.4295  0.1850 -0.0441
  698TMC3     O10376   3.848   2.819  15.667  0.4104  0.3697  0.0735
  698TMC3     H10377   3.846   3.020  15.571  2.6008  0.5956 -0.5606
  698TMC3    H110378   3.711   2.692  15.346  0.3318 -0.2320  1.1830
  698TMC3    H210379   3.842   3.045  15.133  0.7175  0.2187  0.1596
  698TMC3    C710380   3.761   2.786  15.112 -0.2760  0.0800  0.1751
  698TMC3    C810381   3.851   3.193  15.346  0.6101 -0.3577 -0.4610
  698TMC3    O110382   3.675   2.697  15.126  0.6147 -0.3773  0.5124
  698TMC3    O210383   3.899   3.233  15.449  0.4165 -0.4357 -0.3830
  699TMC3    C110384   3.462   0.586  13.148  0.3536  0.2097 -0.7771
  699TMC3    C210385   3.516   0.470  13.198 -1.5378 -0.5127  0.7725
  699TMC3    C310386   3.431   0.388  13.277  0.0473  0.7561  0.4539
  699TMC3    C410387   3.328   0.623  13.177 -0.1756  0.1844  0.3405
  699TMC3    C510388   3.256   0.540  13.255 -0.6218 -0.4724 -1.0028
  699TMC3    C610389   3.305   0.426  13.314 -0.0303  0.7232 -0.2799
  699TMC3     C10390   3.534   0.674  13.066  0.1176 -0.8164 -0.6377
  699TMC3     O10391   3.482   0.758  12.996  0.2364 -0.5365 -0.0337
  699TMC3     H10392   3.613   0.434  13.166 -1.7002  0.8998 -1.2609
  699TMC3    H110393   3.296   0.716  13.132  1.8116  0.7898  0.1606
  699TMC3    H210394   3.238   0.362  13.371  1.0316  0.7737  1.0332
  699TMC3    C710395   3.119   0.564  13.275  0.0631  0.9002  0.7227
  699TMC3    C810396   3.495   0.296  13.367  0.1364  0.9804  0.3457
  699TMC3    O110397   3.062   0.490  13.354  0.4959 -0.0786 -0.8207
  699TMC3    O210398   3.428   0.215  13.426  0.8109 -0.4641  0.0625
  700TMC3    C110399   3.428   2.992  17.413 -0.0522 -0.1947  0.5295
  700TMC3    C210400   3.521   2.923  17.336  0.4621 -0.1116 -0.5312
  700TMC3    C310401   3.657   2.942  17.347 -0.0906  0.2675  0.6789
  700TMC3    C410402   3.474   3.096  17.492  0.2517  0.2389  0.1275
  700TMC3    C510403   3.607   3.116  17.500  0.3724 -0.1504 -0.8151
  700TMC3    C610404   3.700   3.047  17.424  0.2458 -0.1871  0.5105
  700TMC3     C10405   3.290   2.979  17.366  0.2422 -0.1822  0.2367
  700TMC3     O10406   3.241   2.876  17.330  0.1258  0.1669  0.1878
  700TMC3     H10407   3.482   2.855  17.261 -0.5640  1.6458 -1.6200
  700TMC3    H110408   3.407   3.159  17.549 -0.0209 -0.2570  0.3515
  700TMC3    H210409   3.804   3.077  17.423  0.3497 -0.5494  0.2412
  700TMC3    C710410   3.654   3.218  17.595 -0.2086 -0.5675 -0.3599
  700TMC3    C810411   3.753   2.857  17.278 -0.0070  0.1648  0.4561
  700TMC3    O110412   3.570   3.277  17.663  0.0648  0.1746  0.0298
  700TMC3    O210413   3.716   2.779  17.191 -0.3672 -0.2620  0.1558
  701TMC3    C110414   2.910   1.549  15.466  0.2269  0.0980  0.0858
  701TMC3    C210415   2.982   1.525  15.356 -1.0935  0.3925  0.4943
  701TMC3    C310416   3.067   1.626  15.321 -0.0643 -0.4695  0.3667
  701TMC3    C410417   2.913   1.665  15.539 -0.0553  0.1518 -0.9565
  701TMC3    C510418   3.007   1.754  15.504  0.0379  0.3060  0.2395
  701TMC3    C610419   3.080   1.738  15.392 -0.0165  0.1085 -0.6388
  701TMC3     C10420   2.807   1.451  15.499  0.2450  0.6696  0.4644
  701TMC3     O10421   2.703   1.493  15.557  0.0116  0.0537 -0.2694
  701TMC3     H10422   2.982   1.427  15.311 -1.4620  0.3493  0.5834
  701TMC3    H110423   2.854   1.679  15.629  0.3517 -1.0629 -0.4983
  701TMC3    H210424   3.146   1.814  15.353 -0.6025  0.2744 -1.3130
  701TMC3    C710425   3.016   1.892  15.558 -0.2828 -0.1282 -0.0524
  701TMC3    C810426   3.142   1.615  15.204 -1.3572 -0.3500  0.2536
  701TMC3    O110427   3.081   1.972  15.493 -0.2685  0.4679  0.4817
  701TMC3    O210428   3.243   1.688  15.195 -0.0973  0.5660 -0.0352
  702MPD2     C10429   3.162   3.811  10.625 -0.4312 -0.1175 -0.6878
  702MPD2    C110430   3.037   3.839  10.668  0.1633 -0.6356  1.1728
  702MPD2    C210431   2.960   3.922  10.586  0.7835 -0.0602 -0.1571
  702MPD2    C310432   3.009   3.968  10.468  0.3539 -0.5687  0.6050
  702MPD2    C410433   3.138   3.942  10.432  0.7174 -0.2848  0.0842
  702MPD2    C510434   3.217   3.863  10.512 -0.3967  0.1345  1.0299
  702MPD2     H10435   2.861   3.945  10.624 -0.5439 -2.5170 -2.0682
  702MPD2    H110436   3.187   3.997  10.353 -2.1596 -1.2258 -2.3044
  702MPD2    H210437   3.221   3.737  10.678 -0.3302  0.7821  0.4835
  702MPD2    H310438   3.319   3.835  10.488 -0.5468 -0.7802  1.4524
  702MPD2     N10439   2.943   4.062  10.388  0.1636 -0.1910 -0.4694
  702MPD2    H510440   2.993   4.114  10.317  1.1766  2.4109  2.1497
  702MPD2    N110441   2.985   3.799  10.794 -0.3075 -0.1323 -0.0362
  702MPD2    H710442   2.894   3.831  10.827 -0.9136 -0.4424 -1.4103
  703TMC3    C110443   2.764   4.213  10.421  0.0179 -0.5096  0.0353
  703TMC3    C210444   2.650   4.225  10.498  0.1019  0.0127  0.1358
  703TMC3    C310445   2.637   4.328  10.587  0.5292  0.3377  0.1898
  703TMC3    C410446   2.865   4.307  10.435 -0.5121  0.2459 -0.4738
  703TMC3    C510447   2.842   4.417  10.516  0.0996 -0.1098 -0.5385
  703TMC3    C610448   2.736   4.417  10.603 -0.7029  0.5911 -0.1773
  703TMC3     C10449   2.809   4.075  10.406  0.2607 -0.3206  0.0206
  703TMC3     O10450   2.725   3.988  10.436 -0.4890  0.1173 -0.4621
  703TMC3     H10451   2.575   4.147  10.506 -0.3356  0.2709 -1.4692
  703TMC3    H110452   2.959   4.294  10.383  0.1485  3.2458 -0.0164
  703TMC3    H210453   2.722   4.493  10.679  1.5552 -1.4383  2.2751
  703TMC3    C710454   2.965   4.473  10.564 -0.1443 -0.6351 -0.3159
  703TMC3    C810455   2.602   4.297  10.718  0.1470  0.5457  0.1042
  703TMC3    O110456   3.064   4.474  10.488 -0.3463  0.4771 -0.4138
  703TMC3    O210457   2.695   4.290  10.798 -0.2297 -0.0192  0.6717
  704TMC3    C110458   4.730   2.438  12.169  0.3852  0.1272  0.2201
  704TMC3    C210459   0.124   2.476  12.189  0.0515  0.2847  0.7233
  704TMC3    C310460   0.179   2.434  12.308  0.1579 -0.2508 -0.2591
  704TMC3    C410461   4.665   2.359  12.258 -0.2758 -1.4687 -0.5839
  704TMC3    C510462   4.717   2.337  12.380 -0.9600  0.4757 -0.8569
  704TMC3    C610463   0.111   2.382  12.411 -0.3925  0.4830  0.4562
  704TMC3     C10464   4.675   2.444  12.038  0.0558 -0.2488  0.8241
  704TMC3     O10465   4.552   2.449  12.041  0.4575 -0.8395  0.0296
  704TMC3     H10466   0.188   2.520  12.114 -0.3898  0.3555  0.3930
  704TMC3    H110467   4.575   2.305  12.230  0.3316 -2.7863  0.0121
  704TMC3    H210468   0.162   2.361  12.505  0.6085  0.4203 -0.1036
  704TMC3    C710469   4.683   2.203  12.433  0.4224  0.9481  0.1690
  704TMC3    C810470   0.327   2.432  12.308  0.4742 -0.2072  0.0975
  704TMC3    O110471   4.637   2.127  12.352  0.2316 -0.3084 -0.3701
  704TMC3    O210472   0.384   2.436  12.199 -0.3580  0.3826 -0.1133
  705MPD2     C10473   4.275   0.523  16.263  0.3129 -0.0147 -0.0383
  705MPD2    C110474   4.334   0.634  16.321 -0.5815  0.8343  0.2489
  705MPD2    C210475   4.270   0.695  16.433  0.4688 -0.2777 -0.1591
  705MPD2    C310476   4.142   0.655  16.476  0.0449  0.0797 -0.6173
  705MPD2    C410477   4.092   0.540  16.418 -0.5332  0.0825 -0.3613
  705MPD2    C510478   4.159   0.481  16.310  0.5542  0.1020  0.4430
  705MPD2     H10479   4.331   0.764  16.490  0.7177  0.7283 -1.6413
  705MPD2    H110480   4.000   0.493  16.451 -2.2485  2.4414 -1.7471
  705MPD2    H210481   4.322   0.473  16.179 -1.2357 -0.8954 -0.3904
  705MPD2    H310482   4.109   0.399  16.259  0.6198  1.0033 -1.0760
  705MPD2     N10483   4.069   0.702  16.588 -0.0645 -0.0896  0.1742
  705MPD2    H510484   3.984   0.650  16.606 -0.8978  0.9940 -0.6457
  705MPD2    N110485   4.457   0.684  16.274  0.4170  0.1141 -0.1674
  705MPD2    H710486   4.490   0.776  16.304 -0.5588 -0.0855  1.5085
  706TMC3    C110487   0.140   0.727  16.162 -0.0861  0.4699 -0.3231
  706TMC3    C210488   0.139   0.861  16.196 -0.3292 -0.4895 -0.3654
  706TMC3    C310489   0.013   0.915  16.192  0.5195  0.1148 -0.8287
  706TMC3    C410490   0.029   0.655  16.148  0.3998 -0.4804 -0.5957
  706TMC3    C510491   4.648   0.716  16.152 -0.3728  0.0047 -0.4475
  706TMC3    C610492   4.637   0.847  16.156  0.1318  0.4895 -0.2180
  706TMC3     C10493   0.263   0.683  16.100  0.3095  0.2159 -0.2535
  706TMC3     O10494   0.370   0.706  16.159  0.1566 -0.2511  0.1452
  706TMC3     H10495   0.223   0.929  16.201 -1.0585  0.4028 -0.2524
  706TMC3    H110496   0.041   0.548  16.137 -3.2507 -0.8879 -0.2867
  706TMC3    H210497   4.539   0.892  16.165 -1.2361 -2.3869 -0.6740
  706TMC3    C710498   4.531   0.624  16.178  0.3003  0.1926  0.3795
  706TMC3    C810499   0.004   1.057  16.178  0.3851  1.0233  0.2973
  706TMC3    O110500   4.543   0.510  16.135 -0.2244  0.1865  0.1168
  706TMC3    O210501   4.645   1.095  16.106 -0.0477 -0.6866  0.6849
  707TMC3    C110502   1.660   4.026   1.503 -0.5872  0.1314 -0.2819
  707TMC3    C210503   1.647   3.893   1.503  0.7606  0.2521 -0.6928
  707TMC3    C310504   1.529   3.844   1.557  0.5290  0.2847 -0.1508
  707TMC3    C410505   1.570   4.114   1.565  0.7651  0.2436 -0.2839
  707TMC3    C510506   1.472   4.056   1.630 -0.2555 -0.2394 -0.0753
  707TMC3    C610507   1.441   3.926   1.619  0.0648  0.0850  0.2308
  707TMC3     C10508   1.764   4.073   1.413 -0.8270  0.2812  0.0903
  707TMC3     O10509   1.854   3.992   1.379 -0.2180 -0.2388  0.0556
  707TMC3     H10510   1.715   3.832   1.444  0.1292 -0.3093 -0.8342
  707TMC3    H110511   1.591   4.220   1.575 -1.0037  0.5750 -0.0480
  707TMC3    H210512   1.355   3.884   1.669 -1.2200  0.7107 -1.4420
  707TMC3    C710513   1.370   4.146   1.683  0.3991  0.2359 -0.0623
  707TMC3    C810514   1.501   3.702   1.568  0.3108 -0.0276  0.3091
  707TMC3    O110515   1.298   4.099   1.769  0.3978 -0.0467  0.4907
  707TMC3    O210516   1.387   3.669   1.592 -1.2126 -0.1849  0.4972
  708MPD2     C10517   3.094   3.408  14.439 -0.3212 -0.2720 -0.1922
  708MPD2    C110518   2.977   3.488  14.452  0.6647  0.4341  0.4933
  708MPD2    C210519   2.924   3.506  14.585  0.3747  0.8276 -0.0685
  708MPD2    C310520   2.965   3.430  14.696 -0.2865 -0.2756 -0.1374
  708MPD2    C410521   3.076   3.356  14.673  0.1380  0.4960  0.0890
  708MPD2    C510522   3.140   3.352  14.552  0.2102 -0.3563 -0.2101
  708MPD2     H10523   2.843   3.573  14.610 -0.8695 -0.9394  0.6126
  708MPD2    H110524   3.118   3.304  14.759 -3.4430 -0.9322  0.9474
  708MPD2    H210525   3.131   3.380  14.341 -2.4479  0.3405 -1.1682
  708MPD2    H310526   3.227   3.289  14.542 -0.3550 -1.3404  1.1351
  708MPD2     N10527   2.913   3.463  14.821 -0.2547  0.1842 -0.4169
  708MPD2    H510528   2.830   3.522  14.820  0.5295  1.2596 -0.9036
  708MPD2    N110529   2.919   3.562  14.347  0.1360 -0.2351  0.2277
  708MPD2    H710530   2.849   3.629  14.378  1.0318  0.7483  0.0766
  709TMC3    C110531   2.859   3.652  14.158  0.3562  0.1858 -0.2428
  709TMC3    C210532   2.760   3.592  14.088 -0.8350  0.0757 -0.5910
  709TMC3    C310533   2.637   3.650  14.076  0.9462  0.0359 -0.2020
  709TMC3    C410534   2.825   3.765  14.229  0.8605 -0.3851 -0.3123
  709TMC3    C510535   2.695   3.799  14.253 -0.0456  0.4782  0.2261
  709TMC3    C610536   2.596   3.745  14.167  0.7012  0.1327  0.3524
  709TMC3     C10537   2.953   3.563  14.218  0.2275 -0.7209 -0.6616
  709TMC3     O10538   3.022   3.493  14.150  0.2916 -0.6983  0.0920
  709TMC3     H10539   2.768   3.496  14.038 -0.5090 -1.4000  2.2837
  709TMC3    H110540   2.903   3.811  14.289  0.4814 -2.1935  1.5381
  709TMC3    H210541   2.494   3.781  14.165 -0.4374 -3.1436 -0.4259
  709TMC3    C710542   2.668   3.838  14.389  0.9825  0.4427 -0.6721
  709TMC3    C810543   2.533   3.575  14.006  0.1991  0.0683  0.2309
  709TMC3    O110544   2.763   3.810  14.463 -0.5064 -0.2468  0.4999
  709TMC3    O210545   2.417   3.598  14.043  0.5730  0.1862  0.1948
  710TMC3    C110546   3.525   0.149   0.465  0.2961  0.0816  0.2423
  710TMC3    C210547   3.604   0.150   0.349 -0.2949  0.3449  0.4385
  710TMC3    C310548   3.725   0.083   0.360 -0.7633 -0.1731  0.0401
  710TMC3    C410549   3.560   0.075   0.570 -0.0995  0.2499 -0.1001
  710TMC3    C510550   3.687   0.028   0.581  0.2883 -0.6049  0.0690
  710TMC3    C610551   3.776   0.034   0.476  0.0396 -0.4461  0.5752
  710TMC3     C10552   3.443   0.274   0.486  0.0735 -0.4989  0.7666
  710TMC3     O10553   3.453   0.352   0.394  0.6563  0.0325  0.1162
  710TMC3     H10554   3.575   0.201   0.258 -0.1816 -2.0679 -0.9696
  710TMC3    H110555   3.489   0.055   0.649 -1.6395 -0.2071 -1.6065
  710TMC3    H210556   3.873   4.721   0.472  1.3906  2.2510  0.1454
  710TMC3    C710557   3.729   4.704   0.711 -0.0917 -0.3325 -0.1372
  710TMC3    C810558   3.793   0.061   0.233 -0.2166 -0.1599  0.4979
  710TMC3    O110559   3.643   4.706   0.798  0.2279 -0.0704  0.6427
  710TMC3    O210560   3.766   0.144   0.145  0.3511 -0.5068 -0.1926
  711TMC3    C110561   3.719   1.202  15.108 -0.1648  0.2642  0.1324
  711TMC3    C210562   3.762   1.327  15.147 -0.1194 -0.2997 -0.8340
  711TMC3    C310563   3.823   1.337  15.270  0.6329 -0.5297 -0.1815
  711TMC3    C410564   3.757   1.082  15.173  0.2820  0.7209  0.0768
  711TMC3    C510565   3.823   1.108  15.291 -0.2421  0.4938  0.1848
  711TMC3    C610566   3.859   1.225  15.347  0.5070  0.2599  0.4783
  711TMC3     C10567   3.654   1.183  14.979  0.2896  0.4388 -0.3974
  711TMC3     O10568   3.614   1.069  14.954  1.1529  0.2433 -0.0457
  711TMC3     H10569   3.731   1.418  15.098 -0.2929  0.5658  0.8727
  711TMC3    H110570   3.755   0.989  15.118 -1.0271 -0.3207  1.9441
  711TMC3    H210571   3.900   1.244  15.445  1.5452  2.8803 -0.4582
  711TMC3    C710572   3.868   0.987  15.358 -0.2194  0.2183 -0.1371
  711TMC3    C810573   3.816   1.472  15.333  0.2410 -0.2797 -0.9084
  711TMC3    O110574   3.942   1.018  15.449 -0.3927 -0.1982 -0.3111
  711TMC3    O210575   3.735   1.554  15.288  0.4031  0.1538 -0.1873
  712MPD2     C10576   0.142   2.153  14.112  0.0777  0.1055  0.0114
  712MPD2    C110577   0.055   2.252  14.068 -0.4884  0.5343 -0.6065
  712MPD2    C210578   0.118   2.369  14.028  1.1823 -0.2087 -0.0235
  712MPD2    C310579   0.258   2.390  14.026  0.4068 -0.6606 -0.0975
  712MPD2    C410580   0.341   2.289  14.069  0.5031  0.8211  0.1590
  712MPD2    C510581   0.281   2.174  14.110 -0.2171 -0.0639 -0.4458
  712MPD2     H10582   0.055   2.455  14.007  0.4664  0.0768  3.3493
  712MPD2    H110583   0.449   2.298  14.072  0.8610 -2.4837 -3.7674
  712MPD2    H210584   0.105   2.056  14.142  0.9388 -0.5521 -1.0560
  712MPD2    H310585   0.342   2.094  14.150 -0.6327 -0.9831 -1.6432
  712MPD2     N10586   0.320   2.507  13.971 -0.3996 -0.0575 -0.4823
  712MPD2    H510587   0.418   2.508  14.000 -0.6057  1.7940  0.0896
  712MPD2    N110588   4.652   2.244  14.061 -0.0548 -0.1930  0.2242
  712MPD2    H710589   4.608   2.324  14.015  2.7071  0.9570 -0.4173
  713TMC3    C110590   0.327   2.737  13.904 -0.4441 -0.0220  0.6061
  713TMC3    C210591   0.458   2.736  13.882  0.5602  0.2823 -0.5842
  713TMC3    C310592   0.515   2.861  13.877  0.4107 -0.0210 -0.6346
  713TMC3    C410593   0.253   2.852  13.920  0.0949  1.0146  0.1298
  713TMC3    C510594   0.312   2.972  13.915  0.5258  0.0354  0.0205
  713TMC3    C610595   0.445   2.977  13.906 -0.7918  0.0029  0.3760
  713TMC3     C10596   0.254   2.615  13.918 -0.3740 -0.7706 -0.1182
  713TMC3     O10597   0.142   2.619  13.864  0.3470  0.5976 -0.4497
  713TMC3     H10598   0.518   2.647  13.869  0.4527  0.2683 -0.9801
  713TMC3    H110599   0.145   2.841  13.914  0.4564 -1.9575 -1.2630
  713TMC3    H210600   0.488   3.071  13.874  0.4437 -0.5837  0.3036
  713TMC3    C710601   0.237   3.096  13.921 -0.3027 -0.0877 -0.5679
  713TMC3    C810602   0.641   2.871  13.820 -0.6763  0.3122 -0.3867
  713TMC3    O110603   0.299   3.201  13.941  0.5980 -0.5196  0.1483
  713TMC3    O210604   0.707   2.973  13.838 -0.0528 -0.2279 -0.2033
  714MPD2     C10605   2.041   1.550   1.177  0.7095  0.3382 -0.0724
  714MPD2    C110606   2.062   1.433   1.231  0.0240  0.5691 -0.2470
  714MPD2    C210607   1.959   1.348   1.239 -0.0190  1.3864 -0.2795
  714MPD2    C310608   1.838   1.368   1.178 -0.0058 -0.7335  0.3033
  714MPD2    C410609   1.819   1.487   1.112  0.6297 -0.5821  0.4005
  714MPD2    C510610   1.919   1.579   1.119 -0.6281 -1.0277  0.1313
  714MPD2     H10611   1.979   1.252   1.286 -0.9021  0.7074 -1.2937
  714MPD2    H110612   1.729   1.511   1.058 -0.0306 -0.1799  1.6770
  714MPD2    H210613   2.124   1.618   1.159  0.3002  1.0725  0.7636
  714MPD2    H310614   1.913   1.673   1.066 -2.1163 -0.9511  0.4351
  714MPD2     N10615   1.744   1.262   1.172 -0.0936  0.2301  0.0277
  714MPD2    H510616   1.774   1.183   1.229 -0.0614 -0.6511 -1.2306
  714MPD2    N110617   2.201   1.399   1.255  0.5130 -0.1011 -0.3512
  714MPD2    H710618   2.271   1.463   1.219  0.1394 -0.2606 -1.3463
  715TMC3    C110619   2.390   1.280   1.318 -0.0701  0.0546  0.4394
  715TMC3    C210620   2.444   1.168   1.376  0.1686  0.2421  0.4699
  715TMC3    C310621   2.577   1.146   1.371 -0.1116 -0.7923 -0.2482
  715TMC3    C410622   2.472   1.381   1.265  0.2559 -0.5744  0.3077
  715TMC3    C510623   2.609   1.353   1.266  0.2889 -0.1127  0.8010
  715TMC3    C610624   2.663   1.238   1.316  0.2239  0.1448 -0.1585
  715TMC3     C10625   2.248   1.287   1.323 -1.2431 -0.2375 -0.4566
  715TMC3     O10626   2.180   1.191   1.367  0.1955  0.2711  0.0211
  715TMC3     H10627   2.385   1.090   1.421 -1.4886  1.0988 -0.2226
  715TMC3    H110628   2.432   1.478   1.241  2.7922  0.5311  0.5615
  715TMC3    H210629   2.770   1.220   1.316 -0.0397 -1.4460 -2.5270
  715TMC3    C710630   2.705   1.453   1.244 -0.0659  0.4936  0.4992
  715TMC3    C810631   2.630   1.012   1.408 -0.2111  0.1485  0.0322
  715TMC3    O110632   2.804   1.457   1.318  0.0708  0.4332  0.0578
  715TMC3    O210633   2.573   0.909   1.373 -0.0843 -0.2355 -0.6111
  716MPD2     C10634   2.849   3.524  10.377 -0.1109  0.0561 -0.0133
  716MPD2    C110635   2.804   3.523  10.248 -0.2777  0.6386  0.4976
  716MPD2    C210636   2.844   3.420  10.172  0.6281 -0.1337 -0.3617
  716MPD2    C310637   2.929   3.320  10.212  0.2652  0.5539 -0.5690
  716MPD2    C410638   2.983   3.334  10.343 -0.0475 -0.0182  0.1508
  716MPD2    C510639   2.937   3.437  10.422 -0.1448  0.9815  0.6091
  716MPD2     H10640   2.815   3.410  10.068  0.1912  1.3369 -0.3883
  716MPD2    H110641   3.065   3.275  10.382 -0.1506 -0.6345 -0.5758
  716MPD2    H210642   2.826   3.613  10.434  1.4923  0.9564 -0.7627
  716MPD2    H310643   2.979   3.452  10.521  0.4543  0.0605  0.4967
  716MPD2     N10644   2.965   3.220  10.118 -0.2534  0.2279 -0.0199
  716MPD2    H510645   2.925   3.236  10.026 -0.0276  1.4727  0.0918
  716MPD2    N110646   2.704   3.620  10.210 -0.0690 -0.1694 -0.1555
  716MPD2    H710647   2.671   3.695  10.270 -0.4699 -2.3952  2.3945
  717TMC3    C110648   3.065   3.037  10.027  0.3422 -0.3190  0.2010
  717TMC3    C210649   3.036   3.086   9.904 -0.1046  0.0856  0.0989
  717TMC3    C310650   3.006   3.001   9.804 -0.3420 -0.3412 -0.3236
  717TMC3    C410651   3.076   2.901  10.044  0.0902  0.6365 -0.6985
  717TMC3    C510652   3.041   2.815   9.940  0.9276 -0.2148  0.7081
  717TMC3    C610653   2.989   2.868   9.823 -0.3451 -0.6557  0.1175
  717TMC3     C10654   3.048   3.118  10.144 -0.1474 -0.3656  0.2783
  717TMC3     O10655   3.091   3.074  10.248 -0.0163 -0.2009  0.2729
  717TMC3     H10656   3.037   3.194   9.887 -0.2603 -0.2106 -1.8302
  717TMC3    H110657   3.111   2.866  10.140  0.6834  0.2003 -1.0744
  717TMC3    H210658   2.964   2.792   9.749 -1.2958  0.6197 -0.8654
  717TMC3    C710659   3.043   2.673   9.953  0.1471 -0.8263  0.0814
  717TMC3    C810660   2.989   3.065   9.672 -0.2680  0.6634  0.3412
  717TMC3    O110661   3.009   2.610   9.858  0.4168  0.3465  0.2274
  717TMC3    O210662   2.964   3.183   9.676  0.0324  0.3475  0.3087
  718MPD2     C10663   1.441   1.919  12.973  0.0518 -0.5841  0.5129
  718MPD2    C110664   1.387   1.977  12.860  0.6016 -0.8226 -0.1148
  718MPD2    C210665   1.257   1.936  12.830 -0.4426 -0.3759 -0.1225
  718MPD2    C310666   1.188   1.833  12.899 -0.6615  0.4029 -0.0278
  718MPD2    C410667   1.240   1.775  13.009 -0.3786  0.2416 -0.5651
  718MPD2    C510668   1.369   1.821  13.036 -0.8295  0.7563  0.4929
  718MPD2     H10669   1.214   1.966  12.735 -0.6194 -2.9133 -0.8727
  718MPD2    H110670   1.192   1.690  13.057 -2.4092  1.1727 -0.9930
  718MPD2    H210671   1.544   1.939  13.000  0.4318 -2.7789  0.7328
  718MPD2    H310672   1.416   1.766  13.117 -0.6459  0.4719  0.1894
  718MPD2     N10673   1.066   1.804  12.839  0.6745  0.2572  0.0409
  718MPD2    H510674   1.057   1.839  12.744 -3.3342 -3.2365 -0.8986
  718MPD2    N110675   1.469   2.058  12.773 -0.6279 -0.2286 -0.2311
  718MPD2    H710676   1.563   2.079  12.803 -0.9519  0.0317  0.6226
  719TMC3    C110677   1.526   2.180  12.572 -1.0431 -0.8614  0.3687
  719TMC3    C210678   1.473   2.196  12.440 -0.0947 -0.2494  0.4259
  719TMC3    C310679   1.538   2.133  12.335  0.0151 -0.0563  0.1843
  719TMC3    C410680   1.652   2.128  12.592 -0.5625  0.7164  0.0744
  719TMC3    C510681   1.718   2.086  12.480  0.3596  0.2909  0.1641
  719TMC3    C610682   1.656   2.061  12.356  0.0152  0.2467  0.1107
  719TMC3     C10683   1.425   2.112  12.654  0.9007 -0.4001  0.2367
  719TMC3     O10684   1.315   2.094  12.599 -0.4733  0.1397  0.1848
  719TMC3     H10685   1.378   2.242  12.416 -0.5064 -0.4756  1.5972
  719TMC3    H110686   1.693   2.155  12.689  0.5360  0.8465 -0.4205
  719TMC3    H210687   1.697   2.003  12.274 -1.7645 -0.9343  0.0601
  719TMC3    C710688   1.865   2.092  12.486  0.4445 -0.5767 -0.3475
  719TMC3    C810689   1.449   2.064  12.244 -0.7852  0.1203 -0.7417
  719TMC3    O110690   1.929   2.075  12.388  0.0241 -0.0802  0.6310
  719TMC3    O210691   1.496   2.022  12.139 -0.2561  0.2073  0.4964
  720MPD2     C10692   0.070   4.340  14.710  0.0368  0.0779  0.0160
  720MPD2    C110693   0.175   4.341  14.618 -0.6755 -0.8569 -0.2086
  720MPD2    C210694   0.301   4.307  14.658 -0.2081  0.6813  0.1218
  720MPD2    C310695   0.329   4.305  14.797 -0.0728  0.4034 -0.0590
  720MPD2    C410696   0.222   4.303  14.891  0.3448  0.0471  0.6227
  720MPD2    C510697   0.093   4.326  14.845  0.0104 -0.2269 -0.7607
  720MPD2     H10698   0.380   4.296  14.586 -1.8472 -0.9100 -1.4214
  720MPD2    H110699   0.235   4.295  14.998 -2.9324 -1.8595  0.8694
  720MPD2    H210700   4.704   4.358  14.676  0.1536  1.0016  0.1509
  720MPD2    H310701   0.012   4.329  14.917  1.4143 -0.9877  0.8382
  720MPD2     N10702   0.463   4.299  14.833 -0.9068  0.1257 -0.3163
  720MPD2    H510703   0.526   4.293  14.753 -0.7671 -2.7992  0.0304
  720MPD2    N110704   0.162   4.376  14.485  0.5677 -0.3700  0.6501
  720MPD2    H710705   0.246   4.350  14.434  0.2940  3.0454 -1.5787
  721TMC3    C110706   0.653   4.284  14.974  0.2178 -0.4998 -0.4088
  721TMC3    C210707   0.718   4.311  15.087  0.1647  0.5010 -1.1876
  721TMC3    C310708   0.852   4.308  15.097  0.2604  0.2174  0.4400
  721TMC3    C410709   0.724   4.227  14.872 -0.5812 -0.2816 -0.2707
  721TMC3    C510710   0.856   4.214  14.890 -0.3726  0.1739  0.3617
  721TMC3    C610711   0.927   4.253  14.996  0.1650  0.2770 -0.0381
  721TMC3     C10712   0.517   4.318  14.958 -0.2193  0.0617  0.4581
  721TMC3     O10713   0.456   4.340  15.060 -0.1368 -0.2924  0.0195
  721TMC3     H10714   0.658   4.353  15.167  0.0988 -0.4305 -0.7421
  721TMC3    H110715   0.679   4.205  14.776 -2.3510  0.8455  0.3177
  721TMC3    H210716   1.032   4.231  15.013 -0.8737 -2.4775  2.6045
  721TMC3    C710717   0.929   4.188  14.769  0.4188 -0.1899  0.3265
  721TMC3    C810718   0.918   4.389  15.193  0.0497  0.7650 -0.7607
  721TMC3    O110719   1.042   4.236  14.764  0.2602 -0.3061  0.6047
  721TMC3    O210720   1.000   4.463  15.147 -0.5575  0.3653 -0.3413
  722MPD2     C10721   3.902   2.710  13.748  0.4455  0.5933  0.3234
  722MPD2    C110722   3.850   2.818  13.674  0.1811 -0.0664 -1.3322
  722MPD2    C210723   3.746   2.798  13.578 -0.3707 -0.3099 -0.5119
  722MPD2    C310724   3.692   2.673  13.561  0.2024 -0.0259  0.3509
  722MPD2    C410725   3.752   2.569  13.622 -0.4032 -0.2317  0.3174
  722MPD2    C510726   3.861   2.590  13.713  0.3180  0.6610 -0.6271
  722MPD2     H10727   3.719   2.883  13.518  2.2743  2.1413  1.7874
  722MPD2    H110728   3.721   2.468  13.596 -0.3013 -0.2902  0.4274
  722MPD2    H210729   3.981   2.715  13.822  1.6266  2.0995 -1.0283
  722MPD2    H310730   3.902   2.503  13.762  1.0523  1.1147 -0.4387
  722MPD2     N10731   3.591   2.670  13.455  0.1706 -0.8850 -0.6681
  722MPD2    H510732   3.575   2.758  13.407 -0.3330 -0.9926 -0.6873
  722MPD2    N110733   3.897   2.951  13.680 -0.3832 -0.1819 -0.0775
  722MPD2    H710734   3.861   3.009  13.605 -0.1478 -0.8318 -0.6984
  723TMC3    C110735   3.430   2.594  13.303  0.1429  0.5673  0.5571
  723TMC3    C210736   3.339   2.497  13.268 -1.2690  0.7981  0.9604
  723TMC3    C310737   3.232   2.547  13.193 -0.3055 -0.3285 -0.4671
  723TMC3    C410738   3.409   2.722  13.263  0.7521 -0.3081 -0.1808
  723TMC3    C510739   3.292   2.765  13.209 -0.0313 -0.3921 -0.4959
  723TMC3    C610740   3.198   2.676  13.172  0.1188 -0.9066 -0.3426
  723TMC3     C10741   3.515   2.559  13.412 -0.1132  0.1647 -0.2757
  723TMC3     O10742   3.541   2.442  13.428  0.3488 -0.1643  0.5995
  723TMC3     H10743   3.353   2.393  13.297 -1.7272  0.2154 -0.8904
  723TMC3    H110744   3.488   2.795  13.274 -0.4314  1.2050 -1.8297
  723TMC3    H210745   3.112   2.704  13.112 -0.0893  0.0110  0.3877
  723TMC3    C710746   3.270   2.903  13.217  0.6217 -0.5152  0.3286
  723TMC3    C810747   3.123   2.459  13.143 -0.0993  0.2877  0.3886
  723TMC3    O110748   3.348   2.976  13.284 -0.3612  0.3042 -0.1054
  723TMC3    O210749   3.007   2.499  13.121  0.3123  0.2768 -0.1055
  724TMC3    C110750   4.270   1.178   9.989 -0.4266 -0.2709  0.1332
  724TMC3    C210751   4.343   1.269  10.065 -0.3550 -0.0382  0.5349
  724TMC3    C310752   4.444   1.340  10.008  0.0012  0.1636 -0.3912
  724TMC3    C410753   4.314   1.139   9.860  0.0191 -1.1588 -0.3008
  724TMC3    C510754   4.424   1.202   9.814  0.4620 -0.4750 -0.3599
  724TMC3    C610755   4.482   1.311   9.881  0.6986  0.7272 -0.6426
  724TMC3     C10756   4.168   1.093  10.046 -0.6722  0.1078 -0.1123
  724TMC3     O10757   4.164   1.074  10.168 -0.3199 -0.0477  0.1606
  724TMC3     H10758   4.301   1.309  10.156 -0.0449  1.5060 -0.0056
  724TMC3    H110759   4.280   1.050   9.809 -1.7937  0.1240 -1.3197
  724TMC3    H210760   4.563   1.372   9.842  1.5596 -0.5903 -0.9057
  724TMC3    C710761   4.484   1.141   9.701 -0.2987  0.5097  0.4710
  724TMC3    C810762   4.505   1.455  10.074 -0.5401 -0.2363 -0.3293
  724TMC3    O110763   4.415   1.080   9.618  0.5407 -0.2955 -0.0491
  724TMC3    O210764   4.538   1.550  10.009  0.5877  0.3379  0.1649
  725TMC3    C110765   0.574   4.087  12.584 -0.4385  0.1265 -0.1632
  725TMC3    C210766   0.611   4.095  12.454  0.5934  0.1615  0.3365
  725TMC3    C310767   0.549   4.024  12.361  0.4740 -0.0734  0.0299
  725TMC3    C410768   0.483   3.999  12.626 -0.0355  0.3055 -0.3642
  725TMC3    C510769   0.433   3.920  12.533  0.3248  0.4997 -0.1152
  725TMC3    C610770   0.455   3.926  12.395  0.4093 -0.4527  0.7606
  725TMC3     C10771   0.611   4.189  12.675  0.3246  0.4374  0.0787
  725TMC3     O10772   0.698   4.262  12.635 -0.0128 -0.2191  0.3796
  725TMC3     H10773   0.682   4.171  12.425  0.6446  0.3932  1.0626
  725TMC3    H110774   0.434   3.999  12.723  1.6333  1.7120  0.4669
  725TMC3    H210775   0.397   3.861  12.331 -0.1560  1.2376 -0.4508
  725TMC3    C710776   0.302   3.855  12.561  0.5540 -0.2241  0.8761
  725TMC3    C810777   0.600   4.018  12.225 -0.0790  0.2116  0.0712
  725TMC3    O110778   0.209   3.900  12.497 -0.5205  0.1603  0.2955
  725TMC3    O210779   0.585   3.905  12.176  0.0405  0.5314 -0.5852
  726MPD2     C10780   3.493   1.691  10.008 -0.2697  0.2486  0.4091
  726MPD2    C110781   3.455   1.744  10.132  0.0041  0.3519  0.2452
  726MPD2    C210782   3.416   1.659  10.231 -0.4546 -0.8199 -0.5548
  726MPD2    C310783   3.403   1.525  10.208 -0.6976  0.8539 -0.6395
  726MPD2    C410784   3.423   1.483  10.081  0.3727 -0.1810 -1.1712
  726MPD2    C510785   3.458   1.563   9.985  0.1931  0.4173 -0.6123
  726MPD2     H10786   3.388   1.706  10.325  2.5804 -0.7865  0.3232
  726MPD2    H110787   3.418   1.379  10.049 -0.7132  0.1040 -1.9279
  726MPD2    H210788   3.532   1.741   9.920 -0.9764  1.9380  1.0531
  726MPD2    H310789   3.468   1.522   9.885 -1.3374  1.0183 -1.0184
  726MPD2     N10790   3.373   1.430  10.310  0.5667  0.1440 -0.6013
  726MPD2    H510791   3.354   1.333  10.287 -1.6440  0.6833 -0.9943
  726MPD2    N110792   3.448   1.878  10.156  0.2745  1.3655 -0.2491
  726MPD2    H710793   3.438   1.907  10.253 -1.0842  2.2821 -0.6596
  727TMC3    C110794   3.487   2.106  10.106 -0.2875 -0.7158 -0.3732
  727TMC3    C210795   3.556   2.126  10.225 -0.0746  0.6081  0.2800
  727TMC3    C310796   3.590   2.261  10.265  0.3912 -0.7156  0.4700
  727TMC3    C410797   3.433   2.215  10.039  0.3650 -0.1505  0.2482
  727TMC3    C510798   3.457   2.342  10.086  1.0311 -0.0396  0.2257
  727TMC3    C610799   3.538   2.370  10.192  0.2488  0.6791  0.3090
  727TMC3     C10800   3.459   1.969  10.055  0.4916  0.6914  0.3395
  727TMC3     O10801   3.417   1.956   9.940 -0.8029  0.2459 -0.8993
  727TMC3     H10802   3.603   2.048  10.285 -3.8393 -1.4300  0.6093
  727TMC3    H110803   3.372   2.189   9.953  2.0844 -0.9893 -0.7247
  727TMC3    H210804   3.567   2.471  10.216  0.1121  0.5790  0.8959
  727TMC3    C710805   3.421   2.455   9.998 -0.1220 -0.4547  0.5595
  727TMC3    C810806   3.702   2.284  10.353  0.4667 -1.0137  0.6411
  727TMC3    O110807   3.380   2.429   9.883 -0.0590 -0.8056 -0.6166
  727TMC3    O210808   3.786   2.194  10.349  0.6817 -0.2527 -0.3254
  728TMC3    C110809   2.853   0.338  15.438  0.0574  0.4761 -0.1864
  728TMC3    C210810   2.994   0.340  15.431  0.8671 -0.2843  0.2343
  728TMC3    C310811   3.045   0.348  15.307  0.0294 -0.3121 -0.7443
  728TMC3    C410812   2.771   0.356  15.328 -0.4844 -0.0567 -0.4256
  728TMC3    C510813   2.835   0.383  15.210 -0.1024  0.3862 -0.5104
  728TMC3    C610814   2.969   0.360  15.195  0.5002 -0.2450  0.3913
  728TMC3     C10815   2.799   0.336  15.572 -0.1322  0.0027  0.1642
  728TMC3     O10816   2.868   0.375  15.669 -0.1355  0.1231 -0.1109
  728TMC3     H10817   3.049   0.343  15.524 -0.4526  2.0233  0.9422
  728TMC3    H110818   2.663   0.364  15.340 -0.1209  0.5180  2.5828
  728TMC3    H210819   3.013   0.375  15.098  0.5781 -0.4296  0.4000
  728TMC3    C710820   2.754   0.429  15.097  0.3938 -1.0509  0.2960
  728TMC3    C810821   3.174   0.286  15.295 -0.0223 -0.2234  0.4058
  728TMC3    O110822   2.640   0.387  15.097  0.3372 -0.1220  0.1128
  728TMC3    O210823   3.216   0.266  15.184  0.4230  0.2234 -0.3871
  729MPD2     C10824   0.277   0.623  16.493 -0.0341 -0.0403  0.3835
  729MPD2    C110825   0.375   0.697  16.548  0.0075 -0.0330  0.0684
  729MPD2    C210826   0.362   0.741  16.674 -0.1722 -0.2994 -0.2784
  729MPD2    C310827   0.238   0.738  16.744 -0.4749 -0.1240 -1.0105
  729MPD2    C410828   0.137   0.656  16.693  0.2563  0.2054 -0.2757
  729MPD2    C510829   0.162   0.603  16.572 -0.2182  0.5325 -0.3497
  729MPD2     H10830   0.441   0.792  16.727 -0.0977  0.2746 -0.9403
  729MPD2    H110831   0.053   0.623  16.753 -0.5082 -0.6222 -1.8259
  729MPD2    H210832   0.291   0.598  16.388 -0.5163  2.0176 -0.1827
  729MPD2    H310833   0.088   0.536  16.530  2.7754 -3.1133  0.1973
  729MPD2     N10834   0.228   0.799  16.872  0.1960 -0.4596  0.2159
  729MPD2    H510835   0.303   0.855  16.911  0.9783 -0.2207 -1.6452
  729MPD2    N110836   0.487   0.723  16.466  0.1904  0.0362  0.1056
  729MPD2    H710837   0.485   0.692  16.369 -2.5948 -0.5317  0.3341
  730TMC3    C110838   0.126   0.856  17.070 -0.0801 -0.0263 -0.8302
  730TMC3    C210839   0.250   0.843  17.129  0.3908  0.1392  0.3559
  730TMC3    C310840   0.299   0.935  17.209 -0.0153 -0.1013  0.7886
  730TMC3    C410841   0.053   0.966  17.099  0.3203  0.3817 -0.0256
  730TMC3    C510842   0.099   1.062  17.174 -0.3277 -0.0774  0.3665
  730TMC3    C610843   0.227   1.050  17.232 -0.4593  0.3003  0.3460
  730TMC3     C10844   0.112   0.823  16.934 -0.3154  0.0616 -0.2593
  730TMC3     O10845   0.000   0.824  16.887 -0.1686 -0.4312 -0.0504
  730TMC3     H10846   0.305   0.753  17.103  1.8830  0.4181  2.5474
  730TMC3    H110847   4.705   0.995  17.036  1.3685  2.1692 -0.6192
  730TMC3    H210848   0.270   1.124  17.299  0.3351 -2.5644  2.9861
  730TMC3    C710849   0.051   1.193  17.138  0.3744  1.0571 -0.1135
  730TMC3    C810850   0.433   0.930  17.248 -0.4843 -0.1389  0.0260
  730TMC3    O110851   0.002   1.207  17.025 -0.3728  0.3647  0.6316
  730TMC3    O210852   0.493   0.824  17.276  0.6075  0.0371 -0.2997
  731MPD2     C10853   0.395   4.314  12.136  0.5460 -0.2916 -0.1401
  731MPD2    C110854   0.314   4.204  12.178 -0.4565 -0.3888  0.2257
  731MPD2    C210855   0.272   4.207  12.315 -0.6906  0.0382  0.3210
  731MPD2    C310856   0.310   4.308  12.398 -0.1031  1.0857  0.0199
  731MPD2    C410857   0.399   4.397  12.348 -0.0981 -0.9392 -0.4698
  731MPD2    C510858   0.441   4.407  12.224  0.1919  0.2898  0.2050
  731MPD2     H10859   0.216   4.130  12.367 -0.1389 -0.9297 -0.5135
  731MPD2    H110860   0.435   4.473  12.417  2.8552 -1.3217 -1.5946
  731MPD2    H210861   0.415   4.327  12.031  1.4675  0.3872  0.1229
  731MPD2    H310862   0.515   4.482  12.195 -0.7340  1.2679  0.3523
  731MPD2     N10863   0.265   4.305  12.539 -0.2487 -0.4342 -0.1909
  731MPD2    H510864   0.195   4.235  12.565 -0.0278 -0.2900  0.8133
  731MPD2    N110865   0.290   4.108  12.083  0.7802 -0.7056  0.1640
  731MPD2    H710866   0.341   4.114  11.996 -1.3616  3.5337 -0.7770
  732TMC3    C110867   0.203   3.922  11.981 -0.4354  0.7245  0.2077
  732TMC3    C210868   0.087   3.877  11.920  0.2955  0.1638 -0.2875
  732TMC3    C310869   0.105   3.781  11.823  0.1117 -0.0048  0.3711
  732TMC3    C410870   0.335   3.877  11.954  0.1711  0.1210  0.3970
  732TMC3    C510871   0.340   3.782  11.855 -0.1154 -0.1482  0.0558
  732TMC3    C610872   0.231   3.738  11.788  0.3568  0.3175 -0.2835
  732TMC3     C10873   0.192   4.010  12.088  0.1915  0.4883  0.2342
  732TMC3     O10874   0.088   4.016  12.151  0.6572  0.2877  0.5271
  732TMC3     H10875   4.725   3.922  11.937  0.8370  1.2986 -0.1340
  732TMC3    H110876   0.423   3.924  11.995  1.7446 -1.8136 -0.7396
  732TMC3    H210877   0.249   3.670  11.706  1.4203  0.3919 -0.1218
  732TMC3    C710878   0.467   3.737  11.816  0.7812  0.2440 -0.0268
  732TMC3    C810879   4.727   3.697  11.775  0.3693 -0.2827 -0.1047
  732TMC3    O110880   0.468   3.682  11.709 -0.3797 -0.4216  0.0516
  732TMC3    O210881   4.734   3.653  11.659 -0.2448 -0.7542  0.0033
  733TMC3    C110882   0.617   1.730  12.776 -0.0410 -0.5637  0.2779
  733TMC3    C210883   0.722   1.723  12.863 -0.7789  0.1021 -0.4751
  733TMC3    C310884   0.850   1.741  12.813  0.6731  0.0436 -0.0717
  733TMC3    C410885   0.629   1.752  12.642 -0.2362 -0.2880 -0.3952
  733TMC3    C510886   0.763   1.755  12.591  0.1265  0.0427  0.4797
  733TMC3    C610887   0.871   1.759  12.677 -0.0423 -0.1724 -0.1883
  733TMC3     C10888   0.498   1.784  12.833  0.6789  0.1168 -0.8569
  733TMC3     O10889   0.457   1.885  12.775 -0.0160  0.4608 -0.2947
  733TMC3     H10890   0.712   1.706  12.969  0.6254 -3.7950 -0.9843
  733TMC3    H110891   0.544   1.762  12.575 -1.2119 -1.5176  0.6631
  733TMC3    H210892   0.973   1.747  12.641  0.6990 -0.0681  1.8300
  733TMC3    C710893   0.789   1.803  12.460 -0.4392 -0.5623 -0.2286
  733TMC3    C810894   0.964   1.739  12.899 -0.0346 -0.1528  0.3684
  733TMC3    O110895   0.706   1.775  12.378 -0.0806  0.2301 -0.6320
  733TMC3    O210896   0.956   1.694  13.015 -0.2130 -0.4717  0.3737
  734MPD2     C10897   2.983   0.257  12.437  0.3811  0.5412  0.1824
  734MPD2    C110898   2.957   0.173  12.332  0.3418 -0.1112  0.0522
  734MPD2    C210899   3.065   0.122  12.259 -0.2184 -0.1329 -0.0591
  734MPD2    C310900   3.193   0.171  12.284 -0.0137  0.3462 -0.6152
  734MPD2    C410901   3.215   0.263  12.384  0.4874  0.4845  0.3596
  734MPD2    C510902   3.110   0.307  12.462 -0.3357  0.6384 -0.0954
  734MPD2     H10903   3.054   0.039  12.190 -2.3043  0.2790 -0.2387
  734MPD2    H110904   3.313   0.304  12.406  1.0733 -0.8550  0.2577
  734MPD2    H210905   2.901   0.291  12.499  0.6091  2.1722 -0.4287
  734MPD2    H310906   3.128   0.376  12.543 -0.1239 -2.3181  2.3675
  734MPD2     N10907   3.295   0.108  12.215 -0.7306 -0.1307 -0.1606
  734MPD2    H510908   3.255   0.036  12.155 -2.3224 -0.7199  1.5833
  734MPD2    N110909   2.831   0.117  12.317  0.2329  0.6114 -0.4273
  734MPD2    H710910   2.752   0.154  12.368 -0.6358  2.0066 -2.8390
  735TMC3    C110911   2.673   4.685  12.260 -0.2468 -0.7355  0.4728
  735TMC3    C210912   2.638   4.605  12.153 -0.0697 -0.5325  0.6108
  735TMC3    C310913   2.612   4.477  12.178  0.5824 -0.1433 -0.2293
  735TMC3    C410914   2.672   4.636  12.393  0.8251  0.3894 -0.4945
  735TMC3    C510915   2.642   4.504  12.405  0.1326 -1.3588 -0.3911
  735TMC3    C610916   2.602   4.426  12.302  0.0290 -0.3412  0.1483
  735TMC3     C10917   2.791   0.022  12.223 -0.4352 -0.4175 -0.7713
  735TMC3     O10918   2.844   4.720  12.120 -0.1910  0.0859  0.1367
  735TMC3     H10919   2.656   4.633  12.049 -1.7646  2.2519  1.0592
  735TMC3    H110920   2.709   4.690  12.480  1.0048  1.4335 -1.2167
  735TMC3    H210921   2.587   4.319  12.310  1.8907 -0.6243 -0.1156
  735TMC3    C710922   2.768   4.449  12.459 -0.2051  0.4409 -0.3400
  735TMC3    C810923   2.683   4.386  12.086  0.4282  0.0104  0.8171
  735TMC3    O110924   2.869   4.516  12.451  0.0364 -0.3727  0.1679
  735TMC3    O210925   2.649   4.271  12.069 -0.0783  0.4645  0.2153
  736MPD2     C10926   2.802   4.112  12.597 -0.5655  0.5043  0.4815
  736MPD2    C110927   2.852   4.236  12.561 -0.2462 -0.6257  0.5018
  736MPD2    C210928   2.985   4.263  12.577  0.7024 -0.1563  0.2046
  736MPD2    C310929   3.073   4.161  12.616 -0.4286 -0.3099 -0.0128
  736MPD2    C410930   3.023   4.034  12.652  0.4382  0.6322  0.4937
  736MPD2    C510931   2.885   4.013  12.643 -0.2372  0.3331  0.0259
  736MPD2     H10932   3.028   4.354  12.539  0.9295  0.6600  2.4002
  736MPD2    H110933   3.087   3.955  12.688  0.0613 -0.1989 -0.6684
  736MPD2    H210934   2.695   4.096  12.591  0.1549 -3.8078 -0.5570
  736MPD2    H310935   2.843   3.918  12.674  1.2536  0.9730  4.1263
  736MPD2     N10936   3.209   4.164  12.598 -0.5941 -0.6385 -0.6738
  736MPD2    H510937   3.257   4.076  12.616 -0.6094 -0.2495  1.3391
  736MPD2    N110938   2.753   4.324  12.516 -0.0006 -0.4319 -0.3624
  736MPD2    H710939   2.662   4.280  12.502  0.0959 -0.4023 -1.0720
  737TMC3    C110940   3.433   4.233  12.554 -0.0615  0.3787 -0.0110
  737TMC3    C210941   3.524   4.332  12.549  0.4701  0.6861 -0.0578
  737TMC3    C310942   3.651   4.320  12.496 -0.3791 -0.4926 -0.0361
  737TMC3    C410943   3.472   4.105  12.509  0.0523 -0.5166  0.6945
  737TMC3    C510944   3.599   4.104  12.447 -0.0729 -0.1831  0.4905
  737TMC3    C610945   3.693   4.201  12.452 -0.6641  0.1856 -0.0779
  737TMC3     C10946   3.289   4.270  12.559 -0.4999  0.4311 -0.5512
  737TMC3     O10947   3.253   4.383  12.524 -0.2905  0.2787  0.2150
  737TMC3     H10948   3.489   4.424  12.593 -0.8411 -0.2562  0.8858
  737TMC3    H110949   3.400   4.026  12.495 -0.1286 -0.5983  2.1050
  737TMC3    H210950   3.798   4.188  12.430 -0.0942  1.5258  1.8939
  737TMC3    C710951   3.636   3.975  12.386 -0.5321  0.6745  0.2633
  737TMC3    C810952   3.725   4.440  12.459 -0.6019 -0.4253  0.4651
  737TMC3    O110953   3.552   3.884  12.397 -0.9732  0.6947 -0.4804
  737TMC3    O210954   3.704   4.544  12.522  0.0258  0.2990  0.2158
  738MPD2     C10955   3.734   3.424  15.078  0.0320 -0.7646 -0.2659
  738MPD2    C110956   3.809   3.390  15.186  0.6400 -0.3105 -0.6566
  738MPD2    C210957   3.909   3.476  15.229  0.3199 -0.2617  0.2300
  738MPD2    C310958   3.944   3.586  15.155 -0.6781 -0.4456 -0.2600
  738MPD2    C410959   3.866   3.620  15.048 -0.7398 -0.2635  0.2048
  738MPD2    C510960   3.760   3.545  15.012  0.4042 -0.1595 -0.2107
  738MPD2     H10961   3.961   3.447  15.320  1.2430 -0.7165 -0.4359
  738MPD2    H110962   3.884   3.712  14.993 -0.7680 -0.3848 -0.0076
  738MPD2    H210963   3.654   3.361  15.041 -0.4229 -1.1050  1.3293
  738MPD2    H310964   3.692   3.576  14.934  0.4706 -0.6829 -0.4804
  738MPD2     N10965   4.060   3.663  15.178 -0.5017 -0.0403  0.9883
  738MPD2    H510966   4.078   3.742  15.117 -3.2280 -1.0792 -1.1435
  738MPD2    N110967   3.797   3.257  15.230 -0.1481 -0.7947 -0.2582
  738MPD2    H710968   3.729   3.212  15.169  0.5404 -1.3664 -0.6102
  739TMC3    C110969   4.274   3.719  15.248 -0.2331 -0.7333 -0.5891
  739TMC3    C210970   4.322   3.720  15.122  0.2518 -0.1593  0.0492
  739TMC3    C310971   4.454   3.748  15.105  0.3485 -0.2943 -0.1290
  739TMC3    C410972   4.350   3.752  15.356  0.0765 -0.0583  0.1123
  739TMC3    C510973   4.480   3.775  15.335 -0.0046 -0.1556  0.7976
  739TMC3    C610974   4.538   3.767  15.215  0.0695  0.6781 -0.1469
  739TMC3     C10975   4.164   3.628  15.258  0.7097 -0.4390  0.0075
  739TMC3     O10976   4.179   3.529  15.328 -0.5221 -0.2705  0.0710
  739TMC3     H10977   4.275   3.676  15.035 -0.1403 -0.1603  0.2628
  739TMC3    H110978   4.302   3.740  15.452  0.1891 -0.9969  0.0527
  739TMC3    H210979   4.645   3.783  15.209 -0.0693  1.5227 -0.3635
  739TMC3    C710980   4.550   3.847  15.434  0.3204 -0.5288  0.2548
  739TMC3    C810981   4.505   3.713  14.973  0.5155 -0.4955 -0.3511
  739TMC3    O110982   4.667   3.871  15.404 -0.0323  0.0354  0.1969
  739TMC3    O210983   4.421   3.734  14.885  0.1712  0.2518 -0.0664
  740TMC3    C110984   0.181   0.026  14.794  1.0899 -0.4393 -0.6184
  740TMC3    C210985   0.252   0.021  14.909  0.4771  0.2529 -0.3423
  740TMC3    C310986   0.378   4.704  14.900  0.5998  0.3386  0.0383
  740TMC3    C410987   0.236   4.725  14.673 -0.4006  0.0838 -0.0896
  740TMC3    C510988   0.362   4.679  14.669  0.0557  0.6699 -0.4415
  740TMC3    C610989   0.426   4.651  14.783  0.5728 -0.4511 -0.3607
  740TMC3     C10990   0.070   0.118  14.798  0.0509 -0.3230  0.2218
  740TMC3     O10991   0.061   0.212  14.720  0.3505  0.1779 -0.7637
  740TMC3     H10992   0.207   0.067  14.996 -0.6170  0.6577 -1.1283
  740TMC3    H110993   0.177   0.024  14.588  0.4172  0.3880 -0.5411
  740TMC3    H210994   0.527   4.610  14.785 -0.8084 -3.8431  0.2769
  740TMC3    C710995   0.415   4.616  14.550  0.5862 -0.0914  0.2887
  740TMC3    C810996   0.477   0.029  14.996 -0.3886  0.3326  0.4334
  740TMC3    O110997   0.508   4.536  14.555 -0.7554  0.2642 -0.4992
  740TMC3    O210998   0.427   0.105  15.080 -0.2912  0.2809  0.1120
  741TMC3    C110999   4.503   4.081  14.359  0.1297  0.2573  0.0734
  741TMC3    C211000   4.393   4.015  14.381  0.2565 -0.2891 -0.5158
  741TMC3    C311001   4.380   3.935  14.493  0.3465  0.6488 -0.2911
  741TMC3    C411002   4.612   4.058  14.442  0.4547 -0.1929  0.7714
  741TMC3    C511003   4.607   3.964  14.541 -0.3819  0.4195  0.2512
  741TMC3    C611004   4.486   3.913  14.577  0.0115 -0.1266 -0.2724
  741TMC3     C11005   4.521   4.175  14.249  0.5828 -0.3824  0.1855
  741TMC3     O11006   4.632   4.206  14.216 -0.4302 -0.1557 -0.1251
  741TMC3     H11007   4.303   4.032  14.324  0.4553  0.0033 -0.7410
  741TMC3    H111008   4.714   4.094  14.433  0.1096  0.2907 -1.1532
  741TMC3    H211009   4.493   3.832  14.648  0.0794 -1.4430 -1.7839
  741TMC3    C711010   4.717   3.952  14.628  0.5204  0.0659 -0.3637
  741TMC3    C811011   4.260   3.845  14.494  0.1673  0.0040 -0.7760
  741TMC3    O111012   0.091   3.962  14.577 -0.1276 -0.3409  0.1787
  741TMC3    O211013   4.173   3.866  14.408 -0.6716  0.3358  0.0749
  742TMC3    C111014   4.519   2.737  15.427 -0.0882 -0.0514  0.8686
  742TMC3    C211015   4.415   2.701  15.339 -0.6988 -0.1472  0.3370
  742TMC3    C311016   4.464   2.643  15.224 -0.3394  0.3870 -0.2962
  742TMC3    C411017   4.646   2.765  15.385  0.4717  0.3981 -0.1636
  742TMC3    C511018   4.677   2.732  15.256  0.0430  0.0560  0.3240
  742TMC3    C611019   4.590   2.673  15.164 -0.0653  0.1833  0.2314
  742TMC3     C11020   4.484   2.792  15.563  0.6053 -0.5772  0.1313
  742TMC3     O11021   4.581   2.807  15.637 -0.3710 -0.4596 -0.0081
  742TMC3     H11022   4.330   2.651  15.383 -0.3806  0.3380  1.4883
  742TMC3    H111023   4.715   2.806  15.458  0.5042 -0.6496  0.4018
  742TMC3    H211024   4.633   2.634  15.073  1.2363  0.2661  0.8000
  742TMC3    C711025   0.082   2.709  15.227  0.5945 -0.9158 -0.2430
  742TMC3    C811026   4.379   2.569  15.132  0.6579  0.4705  0.6619
  742TMC3    O111027   0.118   2.631  15.137  0.3450 -0.2538 -0.1218
  742TMC3    O211028   4.426   2.533  15.024  0.6821  0.0992 -0.0799
  743MPD2     C11029   2.588   3.391   1.846  0.3245  0.5510  0.1133
  743MPD2    C111030   2.611   3.398   1.708 -0.0550 -0.3993 -0.2781
  743MPD2    C211031   2.725   3.456   1.653 -0.5020 -0.1628  0.3998
  743MPD2    C311032   2.828   3.482   1.742  0.6038 -0.2695  0.2576
  743MPD2    C411033   2.811   3.465   1.877  0.3865  0.0838 -0.8412
  743MPD2    C511034   2.690   3.424   1.924  0.0162 -0.0273  0.3560
  743MPD2     H11035   2.736   3.480   1.548  0.3833 -3.6127 -0.2757
  743MPD2    H111036   2.894   3.476   1.945 -0.4661 -0.5937  0.3001
  743MPD2    H211037   2.491   3.361   1.887  0.1045 -0.1880 -0.9591
  743MPD2    H311038   2.674   3.412   2.031  2.2452  1.6697  0.8732
  743MPD2     N11039   2.946   3.538   1.689  0.0286 -0.2276  0.2178
  743MPD2    H511040   2.953   3.562   1.591 -2.3473 -0.8266 -0.0816
  743MPD2    N111041   2.500   3.347   1.631  0.0801 -0.2263  0.1601
  743MPD2    H711042   2.413   3.318   1.674 -0.2068 -0.7391 -0.7479
  744TMC3    C111043   2.374   3.294   1.442  0.4095 -0.1294  0.2189
  744TMC3    C211044   2.262   3.325   1.510  0.0253 -0.2218 -0.0222
  744TMC3    C311045   2.146   3.260   1.486 -0.3924 -0.0946 -0.0433
  744TMC3    C411046   2.372   3.221   1.325 -0.2978  0.4678 -0.0620
  744TMC3    C511047   2.248   3.161   1.296  0.1564 -0.0033  0.0566
  744TMC3    C611048   2.139   3.182   1.373  0.6352 -0.2515 -0.7116
  744TMC3     C11049   2.498   3.346   1.488 -0.2587 -0.0518  0.0599
  744TMC3     O11050   2.585   3.377   1.408 -0.6480 -0.7243 -0.0407
  744TMC3     H11051   2.269   3.390   1.597 -0.4313  0.0454 -0.1796
  744TMC3    H111052   2.464   3.189   1.277  0.2377  1.5269  0.2508
  744TMC3    H211053   2.043   3.143   1.338  0.1552 -2.4925  3.0979
  744TMC3    C711054   2.241   3.097   1.165 -0.7544 -0.1670  0.3325
  744TMC3    C811055   2.030   3.336   1.521 -0.1743 -0.1522 -0.0106
  744TMC3    O111056   2.160   3.006   1.147 -0.2300  0.4538 -0.2038
  744TMC3    O211057   2.045   3.450   1.566 -0.1061 -0.0571  0.4234
  745TMC3    C111058   4.433   2.179  14.078 -0.0014 -0.0395  0.4309
  745TMC3    C211059   4.349   2.158  14.185  0.3517 -0.5140 -0.0841
  745TMC3    C311060   4.239   2.247  14.202 -0.1059 -0.0774  0.0633
  745TMC3    C411061   4.412   2.279  13.991  0.1561 -0.1980  0.5146
  745TMC3    C511062   4.309   2.369  14.009 -0.6566 -0.4456 -0.0153
  745TMC3    C611063   4.222   2.354  14.118 -0.2519  0.1694  0.1211
  745TMC3     C11064   4.574   2.137  14.096  0.5857 -0.2074  0.3775
  745TMC3     O11065   4.603   2.046  14.176 -0.1184 -0.2306  0.2248
  745TMC3     H11066   4.358   2.069  14.247 -1.9050 -0.4092  0.4001
  745TMC3    H111067   4.474   2.280  13.902 -0.2971  0.7102  0.2135
  745TMC3    H211068   4.132   2.415  14.120 -1.1038 -0.9939 -2.9862
  745TMC3    C711069   4.265   2.457  13.898 -0.1320 -0.3225  0.4366
  745TMC3    C811070   4.227   2.291  14.342  0.2020  0.5372  0.3085
  745TMC3    O111071   4.148   2.500  13.906  0.1725  0.6398  0.0212
  745TMC3    O211072   4.131   2.366  14.371  0.4695  0.8767 -0.7674
  746TMC3    C111073   2.872   3.859  11.161 -0.0579 -0.5487  0.0873
  746TMC3    C211074   2.965   3.847  11.059 -0.4275  0.4063  0.6610
  746TMC3    C311075   2.981   3.721  11.002 -0.3291 -0.0546 -0.3226
  746TMC3    C411076   2.781   3.765  11.182  0.6147  0.4475  0.0043
  746TMC3    C511077   2.801   3.642  11.118  0.3412  0.4603 -0.3033
  746TMC3    C611078   2.903   3.614  11.033  0.4191  0.0630  0.0136
  746TMC3     C11079   2.828   3.993  11.200 -0.3627 -0.5383  0.4875
  746TMC3     O11080   2.705   4.009  11.203  0.4842 -0.8470 -0.2048
  746TMC3     H11081   3.028   3.927  11.022 -0.9835 -0.3064 -1.8861
  746TMC3    H111082   2.704   3.772  11.258 -0.1598 -2.3546 -0.5224
  746TMC3    H211083   2.907   3.519  10.981  1.4166 -0.2697  0.6826
  746TMC3    C711084   2.676   3.585  11.062  0.3178  0.2222 -0.2439
  746TMC3    C811085   3.046   3.710  10.875  0.2372 -0.1909  0.0531
  746TMC3    O111086   2.666   3.469  11.028  0.4983  0.3729 -0.1112
  746TMC3    O211087   3.131   3.624  10.852 -0.3590  0.1651 -0.4471
  747TMC3    C111088   4.348   3.844  11.614  0.0268  0.0247 -0.5471
  747TMC3    C211089   4.238   3.794  11.678  0.5207  0.2375 -0.1016
  747TMC3    C311090   4.220   3.837  11.801  0.2675  0.1598  0.0977
  747TMC3    C411091   4.437   3.932  11.674 -0.7146  0.2410 -1.1032
  747TMC3    C511092   4.428   3.965  11.804 -0.4507 -0.4780  0.1665
  747TMC3    C611093   4.325   3.909  11.874 -0.1743 -0.3925  0.1002
  747TMC3     C11094   4.345   3.826  11.469  0.4933  0.1457  0.0044
  747TMC3     O11095   4.331   3.717  11.413  0.5755 -0.2593 -0.3410
  747TMC3     H11096   4.169   3.735  11.619 -0.6596 -0.0489  1.5727
  747TMC3    H111097   4.503   3.989  11.608  1.3426 -0.0313  0.7035
  747TMC3    H211098   4.305   3.946  11.974  2.2231 -2.5631  1.3550
  747TMC3    C711099   4.516   4.069  11.854 -0.0665 -0.2039  0.2941
  747TMC3    C811100   4.125   3.758  11.882 -0.5955  0.1582  0.4263
  747TMC3    O111101   4.470   4.119  11.956 -0.0992 -0.1485  0.0230
  747TMC3    O211102   4.084   3.658  11.825  0.1064  0.0826 -0.0032
  748MPD2     C11103   0.943   0.224   1.305  0.0775  0.1747 -0.4457
  748MPD2    C111104   1.013   0.104   1.313  0.4744 -0.2192 -0.6691
  748MPD2    C211105   1.145   0.111   1.272  0.7849 -0.3705  0.9839
  748MPD2    C311106   1.209   0.221   1.222 -0.3268 -0.8074  0.3789
  748MPD2    C411107   1.131   0.337   1.211 -0.0657 -0.4971  0.5355
  748MPD2    C511108   1.000   0.342   1.260  0.4072  0.1096  0.3988
  748MPD2     H11109   1.202   0.020   1.259  1.7180  0.1879  1.2132
  748MPD2    H111110   1.168   0.434   1.183 -1.6444 -0.6868 -2.1728
  748MPD2    H211111   0.838   0.236   1.329  0.1315  0.8521 -0.5470
  748MPD2    H311112   0.933   0.427   1.247  0.3242  0.0904  0.7025
  748MPD2     N11113   1.344   0.213   1.175  0.2933  0.7258 -0.4750
  748MPD2    H511114   1.380   0.119   1.185  0.3388  0.7991  0.0400
  748MPD2    N111115   0.936   4.722   1.352 -0.4362  0.2135 -0.0138
  748MPD2    H711116   0.837   4.725   1.372 -0.3116 -1.2658  0.8624
  749TMC3    C111117   1.558   0.292   1.143 -0.0159  0.7708  0.0087
  749TMC3    C211118   1.596   0.184   1.223  0.6469 -0.0126 -0.8539
  749TMC3    C311119   1.723   0.140   1.198 -0.3566  0.3227 -0.1536
  749TMC3    C411120   1.642   0.345   1.050  0.5783 -0.4048 -0.1846
  749TMC3    C511121   1.766   0.309   1.035  0.5905 -0.0500 -0.5686
  749TMC3    C611122   1.810   0.205   1.115 -0.0665 -0.2329  0.1608
  749TMC3     C11123   1.418   0.325   1.143  0.5636  0.1143 -0.6221
  749TMC3     O11124   1.386   0.435   1.101  0.1293 -0.0432 -0.0135
  749TMC3     H11125   1.530   0.141   1.298  1.9811 -0.9847 -0.2500
  749TMC3    H111126   1.600   0.415   0.980 -0.4203  0.0736  0.8913
  749TMC3    H211127   1.912   0.168   1.102  0.1012  0.6209 -0.9280
  749TMC3    C711128   1.807   0.308   0.900 -0.0206 -0.3152  0.2370
  749TMC3    C811129   1.784   0.079   1.312 -0.7469  0.1676 -0.6810
  749TMC3    O111130   1.805   0.411   0.834  0.3669 -0.1415  0.1852
  749TMC3    O211131   1.734   0.090   1.423 -0.1929  0.1100  0.1764
  750MPD2     C11132   2.243   0.970  11.233  0.2609 -0.2895  0.4303
  750MPD2    C111133   2.133   0.890  11.251 -0.1636 -0.9440  0.6200
  750MPD2    C211134   2.120   0.777  11.172  0.6386  0.2717  0.3757
  750MPD2    C311135   2.219   0.734  11.091  0.1426  0.0075 -0.6672
  750MPD2    C411136   2.335   0.814  11.080  0.0811  0.5845  0.1965
  750MPD2    C511137   2.343   0.923  11.152 -0.1266  0.4809  0.1520
  750MPD2     H11138   2.027   0.722  11.176 -0.6578  2.4813  0.5149
  750MPD2    H111139   2.422   0.783  11.024 -0.3722  0.4842 -0.4541
  750MPD2    H211140   2.265   1.063  11.283  1.0224 -0.9367  1.2897
  750MPD2    H311141   2.433   0.984  11.148 -1.1380  1.6699 -4.3717
  750MPD2     N11142   2.212   0.615  11.008  0.7118 -0.0009 -0.0329
  750MPD2    H511143   2.290   0.594  10.947  0.2753  2.1188 -1.3324
  750MPD2    N111144   2.029   0.934  11.334 -0.0166  0.6213  0.6066
  750MPD2    H711145   2.041   1.029  11.367  1.4086  0.7997 -0.3967
  751TMC3    C111146   2.130   0.395  10.945 -0.7985  0.0835  0.0894
  751TMC3    C211147   2.021   0.309  10.956  0.7796  0.3366 -0.1466
  751TMC3    C311148   2.034   0.193  10.875  0.2321 -0.7197  0.5831
  751TMC3    C411149   2.251   0.354  10.878 -0.0616  0.1442 -0.5116
  751TMC3    C511150   2.252   0.237  10.803  0.3922 -0.0096  0.4976
  751TMC3    C611151   2.142   0.153  10.795  0.1253 -0.2598  0.0394
  751TMC3     C11152   2.111   0.523  11.016 -0.4065  0.3196 -0.0707
  751TMC3     O11153   1.998   0.534  11.077 -0.4215 -0.6793  0.3138
  751TMC3     H11154   1.935   0.329  11.018  0.1037 -1.7466 -0.4139
  751TMC3    H111155   2.334   0.423  10.880  1.4132 -1.6391  0.1738
  751TMC3    H211156   2.147   0.062  10.736 -2.0662 -1.2081  1.3271
  751TMC3    C711157   2.368   0.212  10.714 -0.2528  0.2577 -0.5019
  751TMC3    C811158   1.931   0.090  10.879 -0.0648  0.1206  0.1694
  751TMC3    O111159   2.469   0.279  10.737  0.4139  0.3872 -0.2513
  751TMC3    O211160   1.962   4.725  10.821 -0.3840  0.5504 -0.1113
  752TMC3    C111161   1.629   0.839  16.786 -0.6097 -0.9738  1.2041
  752TMC3    C211162   1.733   0.745  16.785 -0.1122 -0.1610 -0.5803
  752TMC3    C311163   1.753   0.692  16.908  0.2068  0.3795 -0.1237
  752TMC3    C411164   1.557   0.883  16.897 -0.3016  0.0700 -0.2179
  752TMC3    C511165   1.582   0.826  17.013 -0.5421 -0.0327  0.1814
  752TMC3    C611166   1.681   0.730  17.020 -0.6585 -0.4866 -0.0067
  752TMC3     C11167   1.592   0.894  16.656  0.1151  0.5036  0.0897
  752TMC3     O11168   1.680   0.904  16.567 -0.5011  0.7336 -0.2812
  752TMC3     H11169   1.773   0.712  16.691  2.1465  0.3233  0.2176
  752TMC3    H111170   1.472   0.947  16.875  0.3811  1.2937  0.7108
  752TMC3    H211171   1.705   0.686  17.116  2.2397 -0.8471 -0.9191
  752TMC3    C711172   1.498   0.838  17.125  0.2103  0.0209 -0.1530
  752TMC3    C811173   1.836   0.575  16.905  0.6158  0.1685  0.1416
  752TMC3    O111174   1.519   0.754  17.211  0.2024 -0.0236  0.6699
  752TMC3    O211175   1.888   0.548  16.800 -0.0835  0.4476 -0.1374
  753TMC3    C111176   3.190   2.115  13.467 -0.6598 -0.5464  0.5453
  753TMC3    C211177   3.286   2.065  13.554  0.1916  0.5340  0.2237
  753TMC3    C311178   3.323   1.936  13.551 -0.6089 -0.3320  0.3173
  753TMC3    C411179   3.122   2.023  13.380  0.4690  0.5737  0.3284
  753TMC3    C511180   3.164   1.895  13.373 -0.4516 -0.1344 -0.0607
  753TMC3    C611181   3.268   1.852  13.454  0.1216 -0.5187 -0.3851
  753TMC3     C11182   3.168   2.255  13.473  0.6409  0.0583  0.5410
  753TMC3     O11183   3.267   2.325  13.499  0.2959  0.0650  0.0624
  753TMC3     H11184   3.337   2.129  13.625  0.2656  0.4726  0.2261
  753TMC3    H111185   3.041   2.049  13.313 -0.6848  0.9719  1.8683
  753TMC3    H211186   3.308   1.752  13.447 -2.6369 -1.7795  1.7569
  753TMC3    C711187   3.088   1.804  13.293 -0.4401  0.1975 -0.8686
  753TMC3    C811188   3.401   1.878  13.661 -0.6946 -0.6289  0.0397
  753TMC3    O111189   2.971   1.815  13.290 -0.7370 -0.0803  0.2399
  753TMC3    O211190   3.453   1.773  13.635  0.0686  0.3534  0.2470
  754MPD2     C11191   1.719   0.362  12.871 -0.0014 -0.7595  0.3451
  754MPD2    C111192   1.692   0.228  12.896  0.1533  0.3239 -0.0203
  754MPD2    C211193   1.563   0.181  12.878  0.3161 -0.5817  0.0411
  754MPD2    C311194   1.457   0.263  12.854  0.4647 -0.6974  0.5272
  754MPD2    C411195   1.490   0.400  12.837  0.1508  0.3599  0.3000
  754MPD2    C511196   1.617   0.446  12.841  0.2890  0.1791 -0.2122
  754MPD2     H11197   1.540   0.077  12.900  0.7303 -0.5527  0.6044
  754MPD2    H111198   1.410   0.466  12.804 -1.5000 -0.9558  1.6550
  754MPD2    H211199   1.815   0.412  12.876  1.2706 -3.2371  0.3319
  754MPD2    H311200   1.635   0.549  12.816  0.8394  0.2559  0.5008
  754MPD2     N11201   1.315   0.233  12.840  0.2019  0.3540 -0.4383
  754MPD2    H511202   1.259   0.312  12.809  1.3517  1.8278  1.2333
  754MPD2    N111203   1.805   0.143  12.932 -0.0504  0.3243  0.1753
  754MPD2    H711204   1.890   0.181  12.892 -0.5726  1.0297 -0.2828
  755MPD2     C11205   0.827   0.848  13.051  0.7880  0.4001  0.7728
  755MPD2    C111206   0.729   0.753  13.044 -0.1418  0.1605  0.0867
  755MPD2    C211207   0.756   0.620  13.020  0.1868 -0.3826  0.2780
  755MPD2    C311208   0.887   0.579  13.022 -0.1048 -0.3125  0.2043
  755MPD2    C411209   0.993   0.670  13.022 -0.0376 -0.0766 -0.6233
  755MPD2    C511210   0.965   0.808  13.039  0.2461  0.5875 -0.2676
  755MPD2     H11211   0.672   0.552  13.014  0.5309 -0.8255  0.5569
  755MPD2    H111212   1.095   0.636  13.028 -0.3117 -0.5453  1.3579
  755MPD2    H211213   0.805   0.951  13.076  0.9007  0.1951  1.7292
  755MPD2    H311214   1.043   0.882  13.032  0.0535  0.6330 -1.9851
  755MPD2     N11215   0.929   0.445  13.018  0.2208 -0.8321  0.0916
  755MPD2    H511216   1.029   0.430  13.021  0.4354  0.5253 -0.4682
  755MPD2    N111217   0.593   0.782  13.065  0.4513 -0.0063 -0.1019
  755MPD2    H711218   0.528   0.704  13.061 -0.7721  1.0738 -1.0505
  756MPD2     C11219   2.937   1.396  10.157 -0.0327 -0.3366 -0.2738
  756MPD2    C111220   2.811   1.355  10.201  0.5261  0.4341  0.0564
  756MPD2    C211221   2.779   1.227  10.180  0.1703  0.0894  0.1062
  756MPD2    C311222   2.868   1.141  10.108 -0.3663  0.0367 -0.5490
  756MPD2    C411223   2.992   1.185  10.073 -0.3314 -0.2590 -0.3948
  756MPD2    C511224   3.027   1.319  10.094 -0.1848  0.1245  0.1248
  756MPD2     H11225   2.686   1.181  10.212  0.3552  0.7877  1.6116
  756MPD2    H111226   3.068   1.133  10.016  0.2934  1.3115 -0.9973
  756MPD2    H211227   2.976   1.495  10.178  1.5655 -0.9530 -0.3813
  756MPD2    H311228   3.128   1.346  10.067  0.0760  0.5490  1.5160
  756MPD2     N11229   2.822   1.015  10.076  0.0703 -0.5120  0.3082
  756MPD2    H511230   2.726   0.996  10.102  0.6007 -0.9411  1.9347
  756MPD2    N111231   2.728   1.423  10.288  0.0230  0.2603 -0.6457
  756MPD2    H711232   2.649   1.367  10.318  0.9828 -0.6070  0.2699
  757MPD2     C11233   1.965   0.597  10.077  0.5955 -0.0551 -0.2952
  757MPD2    C111234   2.033   0.522   9.986 -0.1004  0.0866  0.1998
  757MPD2    C211235   2.170   0.536   9.967 -0.2862  0.4014 -0.3339
  757MPD2    C311236   2.243   0.631  10.043  0.2247 -0.4475  0.2756
  757MPD2    C411237   2.174   0.706  10.140  0.6790 -0.9125 -0.8173
  757MPD2    C511238   2.033   0.692  10.151 -0.4128 -0.2499  0.0933
  757MPD2     H11239   2.235   0.476   9.903  1.2631  1.1887  0.4973
  757MPD2    H111240   2.222   0.778  10.205 -0.0986  0.5501 -1.8766
  757MPD2    H211241   1.858   0.587  10.087  0.2539  1.3339 -2.7373
  757MPD2    H311242   1.977   0.764  10.209  3.3280  1.7853  1.2230
  757MPD2     N11243   2.388   0.627  10.019  0.3719  0.1502  0.2985
  757MPD2    H511244   2.421   0.577   9.938 -0.5441 -0.3010  0.1970
  757MPD2    N111245   1.952   0.437   9.905  0.4874  0.0056  0.4822
  757MPD2    H711246   1.852   0.439   9.925 -0.0676 -1.2062 -2.2095
  758MPD2     C11247   1.799   0.851  16.032  0.4620 -0.0106 -0.6712
  758MPD2    C111248   1.833   0.737  16.105  0.5439  0.2961 -0.3634
  758MPD2    C211249   1.888   0.758  16.227 -0.2564 -0.2653 -0.9726
  758MPD2    C311250   1.880   0.883  16.291 -0.1611  0.0025  0.2860
  758MPD2    C411251   1.822   0.993  16.228 -0.1710 -0.4765  0.6655
  758MPD2    C511252   1.790   0.976  16.092  0.7942 -0.2955  0.3681
  758MPD2     H11253   1.935   0.681  16.287 -1.7609 -0.9149 -0.6357
  758MPD2    H111254   1.834   1.088  16.279 -1.4476 -0.1921  0.4418
  758MPD2    H211255   1.770   0.839  15.929 -0.2752 -0.5909 -0.3993
  758MPD2    H311256   1.765   1.066  16.038  1.2160  0.0444  0.7322
  758MPD2     N11257   1.935   0.912  16.419  0.0491 -0.4984  0.2460
  758MPD2    H511258   1.929   1.007  16.454  0.9358 -1.1656  2.1750
  758MPD2    N111259   1.844   0.605  16.036  0.2037 -0.4058 -0.3879
  758MPD2    H711260   1.827   0.603  15.936 -0.7530  1.5265 -0.2492
  759MPD2     C11261   1.968   3.009   9.986 -0.4835 -0.1799 -0.2617
  759MPD2    C111262   1.844   3.063   9.999  0.3969 -0.1877  0.1055
  759MPD2    C211263   1.813   3.193   9.961 -0.4029 -0.3642  0.0338
  759MPD2    C311264   1.921   3.269   9.926  0.3802  0.2100 -0.4474
  759MPD2    C411265   2.045   3.215   9.909  0.4046  0.2802  0.2651
  759MPD2    C511266   2.069   3.087   9.941 -1.1213  0.1984  0.0632
  759MPD2     H11267   1.717   3.233   9.992  0.4556  0.3286  1.8101
  759MPD2    H111268   2.124   3.273   9.862 -0.2648  1.1378  0.1836
  759MPD2    H211269   1.986   2.905  10.011 -2.3612 -0.6832 -1.0059
  759MPD2    H311270   2.164   3.038   9.921 -3.7589 -5.7971  2.1933
  759MPD2     N11271   1.883   3.407   9.904 -0.1321  0.5633  0.1249
  759MPD2    H511272   1.783   3.421   9.902  0.0518  2.1955  2.1151
  759MPD2    N111273   1.722   2.990  10.022 -0.1489 -0.4213 -0.1011
  759MPD2    H711274   1.634   3.039  10.017 -0.1490 -0.1684  2.1945
  760MPD2     C11275   0.303   0.358  12.024  0.1169 -0.6715  0.8593
  760MPD2    C111276   0.425   0.423  11.992 -0.3335 -0.0914  0.5969
  760MPD2    C211277   0.523   0.351  11.943  0.0599  0.4097  0.4061
  760MPD2    C311278   0.506   0.217  11.906 -0.3196  0.1024 -0.4550
  760MPD2    C411279   0.387   0.157  11.923 -1.1310  0.0568  0.6867
  760MPD2    C511280   0.287   0.227  11.985 -0.2640 -0.3719 -0.6373
  760MPD2     H11281   0.620   0.394  11.923 -0.8314  1.2441 -2.0320
  760MPD2    H111282   0.368   0.055  11.893  2.4155 -0.5855  0.5354
  760MPD2    H211283   0.216   0.401  12.071 -0.4656 -2.3072  1.2784
  760MPD2    H311284   0.197   0.178  12.021  0.4987 -1.8620 -0.7934
  760MPD2     N11285   0.620   0.141  11.860 -0.8960  0.4875 -0.3815
  760MPD2    H511286   0.615   0.040  11.867 -0.4245  0.4483 -0.5952
  760MPD2    N111287   0.450   0.562  12.004 -0.5935  0.1849  0.4654
  760MPD2    H711288   0.537   0.605  11.974 -0.7977  0.7084  0.6355
  761MPD2     C11289   1.523   4.614  11.064  0.2469  0.1760 -0.1954
  761MPD2    C111290   1.604   4.572  10.957 -0.5499  0.1299 -0.1578
  761MPD2    C211291   1.692   4.666  10.911  0.7705  0.0594 -0.5095
  761MPD2    C311292   1.707   0.048  10.971 -0.0648  0.0320  0.2932
  761MPD2    C411293   1.625   0.077  11.075  0.3956 -0.4163  0.0870
  761MPD2    C511294   1.529   0.003  11.120 -0.2303 -0.1834 -0.2327
  761MPD2     H11295   1.756   4.631  10.830 -1.0991  1.0836 -2.4309
  761MPD2    H111296   1.626   0.170  11.131 -1.6882  0.4658 -1.3150
  761MPD2    H211297   1.449   4.545  11.102  0.7852  0.9657  2.2971
  761MPD2    H311298   1.488   0.037  11.214  0.3373 -0.2904  0.0511
  761MPD2     N11299   1.815   0.133  10.941  0.0252 -0.2612 -0.6563
  761MPD2    H511300   1.830   0.222  10.986  0.7730 -0.6332 -0.1643
  761MPD2    N111301   1.592   4.437  10.908  0.2904  0.0070 -0.0300
  761MPD2    H711302   1.516   4.385  10.950  2.8770 -4.0666 -0.4151
  762MPD2     C11303   2.288   4.117  11.087  0.0611  0.2862  0.0555
  762MPD2    C111304   2.214   4.134  10.973  1.2279 -0.1442  0.6916
  762MPD2    C211305   2.279   4.188  10.860 -0.2712  0.1819 -0.0190
  762MPD2    C311306   2.418   4.217  10.851 -0.3671  0.4236  0.5392
  762MPD2    C411307   2.488   4.194  10.965 -0.6143 -0.0151  0.7686
  762MPD2    C511308   2.424   4.143  11.080 -0.4383  0.4886  0.0334
  762MPD2     H11309   2.222   4.207  10.770  0.9282 -1.0912 -1.0418
  762MPD2    H111310   2.594   4.212  10.980 -0.8054  1.4544  0.4416
  762MPD2    H211311   2.249   4.080  11.181  0.3150  1.6662  0.7008
  762MPD2    H311312   2.485   4.108  11.162  0.0285  1.6141  0.1639
  762MPD2     N11313   2.473   4.259  10.735 -0.5495  0.1595 -0.5532
  762MPD2    H511314   2.413   4.267  10.653 -1.4809 -1.0025  0.0129
  762MPD2    N111315   2.078   4.103  10.983  0.1141 -0.2136  0.2732
  762MPD2    H711316   2.032   4.077  11.069 -0.1263  0.0123  0.2144
  763MPD2     C11317   3.564   0.431  16.699  0.7643  0.5571  0.1483
  763MPD2    C111318   3.542   0.476  16.568 -0.2391 -0.2361 -0.5779
  763MPD2    C211319   3.551   0.612  16.545 -0.2363 -0.1126  0.4880
  763MPD2    C311320   3.593   0.692  16.646  0.2385  1.0924  0.1651
  763MPD2    C411321   3.602   0.645  16.776  0.0584 -0.4156  0.7009
  763MPD2    C511322   3.589   0.513  16.800  0.5890  0.3492  0.0170
  763MPD2     H11323   3.543   0.658  16.447  0.5098 -1.6667 -0.2951
  763MPD2    H111324   3.623   0.713  16.858  2.9201 -2.0201  1.3101
  763MPD2    H211325   3.559   0.323  16.710 -0.8450  0.2628 -3.4735
  763MPD2    H311326   3.609   0.479  16.901  2.3727  2.5888  0.4132
  763MPD2     N11327   3.649   0.821  16.602  0.1122 -0.3365 -0.2847
  763MPD2    H511328   3.646   0.837  16.501 -1.8050 -2.9813 -0.6360
  763MPD2    N111329   3.520   0.400  16.456  0.0889  0.2022  0.4889
  763MPD2    H711330   3.497   0.451  16.372 -0.1839  0.7270  0.8801
  764MPD2     C11331   1.676   2.229   0.402  0.6828  0.9346  0.2232
  764MPD2    C111332   1.592   2.180   0.303  0.1153  0.2329 -0.3262
  764MPD2    C211333   1.471   2.120   0.337  0.1037  0.2066  0.0130
  764MPD2    C311334   1.439   2.088   0.467  0.2950 -0.0866  0.4163
  764MPD2    C411335   1.522   2.146   0.559 -0.6040  0.6124  0.3548
  764MPD2    C511336   1.641   2.204   0.529 -0.0138  0.4851 -0.4889
  764MPD2     H11337   1.412   2.085   0.254  0.7606 -2.2571  0.5811
  764MPD2    H111338   1.503   2.126   0.664  1.6779 -0.1016  0.6484
  764MPD2    H211339   1.776   2.269   0.387 -0.4270  3.2182 -1.0783
  764MPD2    H311340   1.712   2.233   0.606 -0.4891 -0.6573  0.3851
  764MPD2     N11341   1.325   2.011   0.499 -0.3423 -0.2250 -0.3309
  764MPD2    H511342   1.281   1.965   0.420  0.9203 -1.6511 -0.2210
  764MPD2    N111343   1.627   2.192   0.168 -0.3517  0.0789  0.2006
  764MPD2    H711344   1.560   2.155   0.102 -0.3918  0.5497 -0.0219
  765MPD2     C11345   1.713   4.696  15.263  0.1522 -0.9927  0.6451
  765MPD2    C111346   1.760   0.070  15.335 -0.3561 -0.0647 -0.1986
  765MPD2    C211347   1.803   0.039  15.459 -0.2587  0.3017 -0.2424
  765MPD2    C311348   1.811   4.645  15.517  0.2238  0.6132 -0.7678
  765MPD2    C411349   1.763   4.538  15.441 -0.6166 -0.1668  0.2336
  765MPD2    C511350   1.711   4.570  15.320  0.1088  0.2104  0.5570
  765MPD2     H11351   1.842   0.119  15.520 -1.3995  0.0466  0.8247
  765MPD2    H111352   1.770   4.436  15.475 -0.4198 -0.4343 -0.6224
  765MPD2    H211353   1.687   4.704  15.158  0.8326  1.3630  0.6650
  765MPD2    H311354   1.659   4.493  15.264 -0.8413  1.8754 -0.8372
  765MPD2     N11355   1.882   4.628  15.643 -0.1079 -0.0537  1.3438
  765MPD2    H511356   1.921   4.711  15.685  0.7682 -0.1725  0.7722
  765MPD2    N111357   1.754   0.199  15.278  0.1172  0.3728  0.0976
  765MPD2    H711358   1.705   0.212  15.190 -0.6514 -0.2826  0.4269
  766MPD2     C11359   1.262   0.393  14.910  0.2764  0.2166 -0.6677
  766MPD2    C111360   1.395   0.384  14.870 -0.8379 -0.5816 -0.7272
  766MPD2    C211361   1.426   0.293  14.774  0.0918  0.5095  0.0951
  766MPD2    C311362   1.330   0.219  14.709  0.3821  0.5254  0.0039
  766MPD2    C411363   1.200   0.219  14.757 -0.5093  0.8110  0.6523
  766MPD2    C511364   1.169   0.306  14.866 -0.8431  0.4148  0.4660
  766MPD2     H11365   1.531   0.281  14.748  0.1048 -1.6722  1.1269
  766MPD2    H111366   1.134   0.135  14.734 -0.1857 -0.1587  3.2997
  766MPD2    H211367   1.235   0.459  14.992 -0.4353 -0.9470  0.0389
  766MPD2    H311368   1.072   0.292  14.912 -1.2307 -0.6853 -0.6677
  766MPD2     N11369   1.368   0.155  14.594  0.1142 -0.4923  0.3801
  766MPD2    H511370   1.466   0.161  14.566 -0.7024  0.0160 -2.3796
  766MPD2    N111371   1.501   0.446  14.936 -0.0399 -0.1592  0.0028
  766MPD2    H711372   1.592   0.418  14.902 -0.5725  0.6358 -2.0999
  767MPD2     C11373   0.864   0.462  14.770  0.4002  0.3586  0.0135
  767MPD2    C111374   0.964   0.432  14.677 -0.1422  0.6287  0.3248
  767MPD2    C211375   0.957   0.310  14.612 -0.1392 -0.5626  0.4243
  767MPD2    C311376   0.869   0.212  14.653  0.1865  0.4145  0.4122
  767MPD2    C411377   0.774   0.241  14.744  0.0374 -0.9057 -0.4572
  767MPD2    C511378   0.777   0.362  14.805  0.4744  0.2030  0.6421
  767MPD2     H11379   1.026   0.284  14.532  0.5294  1.3639  0.3689
  767MPD2    H111380   0.706   0.173  14.793 -1.5451  1.8276  1.1784
  767MPD2    H211381   0.870   0.556  14.823 -0.6572 -0.9000  2.3520
  767MPD2    H311382   0.702   0.394  14.878  0.6555 -0.8930  1.3040
  767MPD2     N11383   0.895   0.081  14.598 -0.1903 -0.7666 -0.1512
  767MPD2    H511384   0.967   0.072  14.527  1.7832 -0.6398  1.8163
  767MPD2    N111385   1.064   0.524  14.650 -0.2040 -0.0716 -0.0253
  767MPD2    H711386   1.091   0.582  14.730  1.0604 -2.2415  1.1327
  768MPD2     C11387   1.921   2.819  10.958 -0.1717  0.7849  0.1109
  768MPD2    C111388   2.009   2.927  10.973 -0.3481 -0.2083  0.5452
  768MPD2    C211389   2.089   2.934  11.082 -0.3128  0.1120 -0.3895
  768MPD2    C311390   2.092   2.834  11.178  0.1206  0.0772  0.2154
  768MPD2    C411391   2.014   2.727  11.161  0.0036  0.1658 -0.7708
  768MPD2    C511392   1.922   2.726  11.058  0.0102 -0.3518  0.1962
  768MPD2     H11393   2.140   3.028  11.097 -0.2626 -0.1879  1.2996
  768MPD2    H111394   2.012   2.646  11.233  1.7340  1.2277  0.4606
  768MPD2    H211395   1.847   2.815  10.880  1.7236  0.4220 -1.6608
  768MPD2    H311396   1.850   2.646  11.050 -0.6606  0.2231  0.4292
  768MPD2     N11397   2.182   2.830  11.283  0.5280  0.1634  0.0637
  768MPD2    H511398   2.164   2.757  11.352 -1.3126 -0.9727 -1.5844
  768MPD2    N111399   1.999   3.041  10.894  0.2477 -0.0462  0.1979
  768MPD2    H711400   2.054   3.122  10.921 -2.0519  1.9208 -0.9639
  769MPD2     C11401   3.148   1.476  14.709  0.5007  0.0923  0.3033
  769MPD2    C111402   3.024   1.493  14.752 -0.3133  0.4781  0.2181
  769MPD2    C211403   3.011   1.499  14.889 -0.5562  1.4591  0.2933
  769MPD2    C311404   3.108   1.528  14.975  0.1495  0.0890  0.4537
  769MPD2    C411405   3.236   1.537  14.927 -0.7249 -0.2028  1.0269
  769MPD2    C511406   3.250   1.496  14.796  0.8334  0.7964 -0.2134
  769MPD2     H11407   2.921   1.466  14.938 -0.3870  1.7653  0.8171
  769MPD2    H111408   3.323   1.560  14.988 -0.8830 -0.4989  1.3615
  769MPD2    H211409   3.160   1.454  14.603  0.2371  0.8610  0.1109
  769MPD2    H311410   3.351   1.494  14.757  0.7973  0.3274 -0.2820
  769MPD2     N11411   3.065   1.545  15.108  0.5410  0.0170 -0.0720
  769MPD2    H511412   2.971   1.521  15.136  1.3116 -0.7855  1.8412
  769MPD2    N111413   2.914   1.458  14.672 -0.2713 -0.1074  0.0364
  769MPD2    H711414   2.922   1.416  14.580  0.5738  0.0838  0.0274
  770MPD2     C11415   2.036   1.167  14.890  0.0257  0.1867  0.3462
  770MPD2    C111416   2.168   1.127  14.894 -0.6687  0.2572  0.3637
  770MPD2    C211417   2.259   1.211  14.829 -0.9934  0.7495  0.1578
  770MPD2    C311418   2.221   1.320  14.763 -0.1229 -0.2453 -0.2529
  770MPD2    C411419   2.088   1.345  14.741  0.9071 -0.6603 -0.0946
  770MPD2    C511420   1.999   1.267  14.806 -0.6163 -0.5063  0.2593
  770MPD2     H11421   2.365   1.189  14.836 -1.2051 -0.9275 -2.0104
  770MPD2    H111422   2.060   1.427  14.675  1.0405 -0.2067  0.4164
  770MPD2    H211423   1.957   1.112  14.941  1.4571 -1.5124  0.7257
  770MPD2    H311424   1.896   1.299  14.795 -0.4096  0.4678  1.1133
  770MPD2     N11425   2.329   1.395  14.700  1.1012 -0.1685 -0.5153
  770MPD2    H511426   2.417   1.348  14.717  0.0843 -1.0631  2.1429
  770MPD2    N111427   2.204   1.009  14.964  0.0497  0.3160 -0.5095
  770MPD2    H711428   2.130   0.939  14.969  0.4200 -0.1380 -1.2952
  771MPD2     C11429   3.729   3.895  13.871  0.5589 -0.0669  0.5937
  771MPD2    C111430   3.617   3.975  13.854  0.9218 -0.0092 -0.7047
  771MPD2    C211431   3.510   3.929  13.780 -0.2073  0.2074 -0.6515
  771MPD2    C311432   3.507   3.799  13.738  0.4344  0.3033 -0.0824
  771MPD2    C411433   3.606   3.709  13.756  0.5578 -0.2114  0.4383
  771MPD2    C511434   3.723   3.762  13.821  0.5157  0.7325 -0.3802
  771MPD2     H11435   3.418   3.985  13.786 -0.1550  0.2608 -0.3080
  771MPD2    H111436   3.610   3.612  13.707 -1.2233  0.7429 -1.6188
  771MPD2    H211437   3.825   3.929  13.909  0.7199  1.2321 -0.9585
  771MPD2    H311438   3.808   3.695  13.819  0.6779  0.8886  1.4112
  771MPD2     N11439   3.387   3.770  13.673  0.1985  0.2503  0.0309
  771MPD2    H511440   3.314   3.840  13.665  1.2344  1.3158  0.0534
  771MPD2    N111441   3.607   4.112  13.882  0.3428 -0.2098  0.7659
  771MPD2    H711442   3.528   4.169  13.856  0.2380 -0.8166 -0.2873
  772MPD2     C11443   3.202   4.666  14.159  0.4548 -0.1608 -0.0494
  772MPD2    C111444   3.197   4.579  14.052  0.4366 -0.8080  0.1167
  772MPD2    C211445   3.071   4.529  14.016  0.3076  0.1828  0.0516
  772MPD2    C311446   2.957   4.574  14.080  0.5773  0.1160 -0.1039
  772MPD2    C411447   2.966   4.674  14.181 -0.0467  0.3065  0.1824
  772MPD2    C511448   3.091   4.722  14.213  0.0105  0.5347 -0.1531
  772MPD2     H11449   3.073   4.458  13.934  0.3489 -1.2344  1.2787
  772MPD2    H111450   2.887   4.702  14.250  0.4042  3.1109 -0.4469
  772MPD2    H211451   3.296   4.701  14.200  0.6731  1.1507 -1.6585
  772MPD2    H311452   3.100   0.064  14.289  3.9053  0.2334 -0.3540
  772MPD2     N11453   2.825   4.529  14.058 -0.4938 -0.2023  0.9103
  772MPD2    H511454   2.753   4.583  14.105 -2.3631 -1.8241 -0.0603
  772MPD2    N111455   3.315   4.524  13.998  0.1486  0.5770 -0.2824
  772MPD2    H711456   3.305   4.445  13.935  1.0044  1.8287 -1.9683
  773MPD2     C11457   2.826   0.700   0.732 -0.4009 -0.1020 -0.9158
  773MPD2    C111458   2.830   0.621   0.624  0.1615 -0.8652 -0.4495
  773MPD2    C211459   2.868   0.492   0.638  0.0610 -0.2836  0.4999
  773MPD2    C311460   2.899   0.438   0.755 -0.5324 -0.0033 -0.3061
  773MPD2    C411461   2.889   0.515   0.868 -0.1507 -0.1887 -0.0615
  773MPD2    C511462   2.843   0.640   0.855 -0.0682 -0.6453  0.1549
  773MPD2     H11463   2.869   0.432   0.547  0.2793 -1.3298  1.1885
  773MPD2    H111464   2.915   0.474   0.965  2.6179  0.0215 -0.6977
  773MPD2    H211465   2.795   0.803   0.730  1.3315  0.4267 -0.8340
  773MPD2    H311466   2.815   0.707   0.935  0.0539 -0.8740  0.3845
  773MPD2     N11467   2.948   0.303   0.754  0.0231 -0.0089  0.0120
  773MPD2    H511468   2.934   0.252   0.667  1.5422 -0.4629  0.0313
  773MPD2    N111469   2.790   0.664   0.498  0.1910  0.2524  0.1001
  773MPD2    H711470   2.774   0.593   0.427 -1.0669  1.3167 -0.6796
  774MPD2     C11471   1.661   3.985  13.512  0.3379  0.7900  0.9317
  774MPD2    C111472   1.580   4.087  13.565  0.7383 -0.4100 -0.2416
  774MPD2    C211473   1.551   4.186  13.478  0.3350  0.2419  0.3570
  774MPD2    C311474   1.600   4.192  13.345 -0.0235 -0.3897  0.1777
  774MPD2    C411475   1.676   4.092  13.297  0.4285  0.2441 -0.4022
  774MPD2    C511476   1.703   3.986  13.379 -0.3593  0.0062 -0.3549
  774MPD2     H11477   1.485   4.261  13.519  2.1729  0.4891  2.8511
  774MPD2    H111478   1.722   4.095  13.199 -1.6113  0.9606 -1.3310
  774MPD2    H211479   1.692   3.895  13.563 -1.7666  0.2969  1.3366
  774MPD2    H311480   1.774   3.909  13.350 -0.7325 -1.1739  1.8765
  774MPD2     N11481   1.570   4.311  13.271  0.3793 -0.3752 -0.0661
  774MPD2    H511482   1.492   4.364  13.309 -1.4193 -0.3830 -3.6946
  774MPD2    N111483   1.538   4.075  13.698 -0.1394  0.3428 -0.5207
  774MPD2    H711484   1.579   3.996  13.747 -1.4846  0.2000  0.3877
  775MPD2     C11485   3.086   1.277  15.769  0.5351  0.1141 -0.5428
  775MPD2    C111486   3.072   1.409  15.815 -0.0239 -0.2391 -0.2874
  775MPD2    C211487   3.143   1.509  15.749  0.3723 -0.0891 -0.4625
  775MPD2    C311488   3.217   1.483  15.636 -0.1366  0.4745 -0.0285
  775MPD2    C411489   3.200   1.364  15.575  0.0137  0.4894 -0.0743
  775MPD2    C511490   3.146   1.261  15.649 -0.1988 -0.6364  0.0461
  775MPD2     H11491   3.139   1.607  15.793  0.0900 -0.7319  0.9389
  775MPD2    H111492   3.253   1.343  15.483 -1.8994 -3.4397 -0.2749
  775MPD2    H211493   3.040   1.191  15.816 -1.5918  0.6566 -1.6735
  775MPD2    H311494   3.152   1.160  15.610  1.5151 -0.8236  0.7919
  775MPD2     N11495   3.302   1.578  15.580 -0.2576  0.4042 -0.7945
  775MPD2    H511496   3.350   1.555  15.494 -1.8785  0.1407 -1.6293
  775MPD2    N111497   2.999   1.438  15.930  0.1239 -0.0407 -0.3181
  775MPD2    H711498   2.970   1.364  15.993 -1.0313  2.4977  2.1523
  776MPD2     C11499   1.587   1.588  11.602 -0.0711 -0.2340  0.0536
  776MPD2    C111500   1.703   1.518  11.607  0.7080 -0.9438  1.1112
  776MPD2    C211501   1.818   1.588  11.625 -0.2206 -0.3920 -0.6005
  776MPD2    C311502   1.818   1.734  11.639 -0.1675  0.5598  0.2810
  776MPD2    C411503   1.697   1.795  11.625  0.1245 -0.2503  0.2574
  776MPD2    C511504   1.585   1.720  11.618 -0.0427 -0.2536 -0.1108
  776MPD2     H11505   1.910   1.530  11.635 -0.1242 -0.3423 -1.2231
  776MPD2    H111506   1.677   1.899  11.648  1.2620  0.0099  0.1048
  776MPD2    H211507   1.494   1.533  11.597 -0.2431 -0.1240  2.1659
  776MPD2    H311508   1.488   1.765  11.634 -0.7645 -0.9552 -2.5591
  776MPD2     N11509   1.936   1.812  11.646  0.3068  0.1007  0.7824
  776MPD2    H511510   1.930   1.907  11.611 -1.6685 -0.9131 -1.6970
  776MPD2    N111511   1.700   1.378  11.590  0.4606  0.1845 -0.4070
  776MPD2    H711512   1.610   1.331  11.596 -0.2453  1.7771  1.4838
  777MPD2     C11513   2.482   4.241   0.657  0.5283  0.9743 -0.0176
  777MPD2    C111514   2.551   4.166   0.754  0.8010  0.1013 -0.0705
  777MPD2    C211515   2.623   4.056   0.712  0.7036 -0.2277 -0.2679
  777MPD2    C311516   2.602   4.009   0.585  0.1076  0.1572  0.2161
  777MPD2    C411517   2.519   4.074   0.492  1.4208  1.4053  0.0120
  777MPD2    C511518   2.473   4.201   0.522  0.8128 -0.1936  0.5411
  777MPD2     H11519   2.681   4.002   0.786 -3.0306 -0.7106  2.2942
  777MPD2    H111520   2.481   4.028   0.400 -1.7406  0.0949  1.9599
  777MPD2    H211521   2.434   4.336   0.677  1.3802  1.1754  1.0563
  777MPD2    H311522   2.410   4.250   0.448  2.6526  0.6779 -0.4604
  777MPD2     N11523   2.650   3.879   0.558 -0.4780  0.6882  0.5169
  777MPD2    H511524   2.684   3.827   0.639 -3.1859 -1.4997  0.2569
  777MPD2    N111525   2.541   4.210   0.897  0.3468  0.1804 -0.0770
  777MPD2    H711526   2.485   4.293   0.913 -1.3798 -0.9546 -0.2146
  778MPD2     C11527   3.515   4.129  15.664  0.3826  0.0562 -0.7241
  778MPD2    C111528   3.455   4.071  15.553 -0.3992  0.0022  0.6687
  778MPD2    C211529   3.500   4.109  15.425  0.1137  0.1461 -0.2578
  778MPD2    C311530   3.599   4.203  15.413 -0.0443 -0.2787  0.0937
  778MPD2    C411531   3.646   4.268  15.524  0.3841 -0.6070 -0.2047
  778MPD2    C511532   3.609   4.226  15.650  0.2238 -0.3428 -0.0837
  778MPD2     H11533   3.446   4.076  15.337 -1.2330 -0.7208  0.9039
  778MPD2    H111534   3.717   4.349  15.524 -0.3332  0.0096 -0.9218
  778MPD2    H211535   3.501   4.088  15.763  2.4199  1.8443  0.3038
  778MPD2    H311536   3.663   4.265  15.736 -0.1519  0.3397 -0.1586
  778MPD2     N11537   3.646   4.247  15.286  0.1413 -0.6683 -0.2578
  778MPD2    H511538   3.614   4.198  15.203 -0.0258 -0.5094 -0.2877
  778MPD2    N111539   3.336   4.000  15.551 -0.3062 -0.2345  0.1374
  778MPD2    H711540   3.300   3.978  15.458  0.0015 -0.9622  0.1896
  779MPD2     C11541   3.179   2.892  14.300 -0.4391 -0.4178  0.1651
  779MPD2    C111542   3.300   2.896  14.368 -0.9028 -0.6217  0.0446
  779MPD2    C211543   3.358   3.020  14.386 -0.2422  0.3217 -0.1278
  779MPD2    C311544   3.315   3.127  14.312  0.0800  0.1400 -0.1725
  779MPD2    C411545   3.196   3.112  14.242  0.3375  0.2542 -0.1123
  779MPD2    C511546   3.121   2.999  14.242 -0.2782  0.0238 -0.2391
  779MPD2     H11547   3.448   3.039  14.442  2.3832 -2.4328 -3.4122
  779MPD2    H111548   3.153   3.197  14.191 -0.2167 -1.1569 -2.0131
  779MPD2    H211549   3.121   2.803  14.278 -1.0188  0.4318 -1.7758
  779MPD2    H311550   3.033   2.994  14.179  1.7824  0.4429 -3.1480
  779MPD2     N11551   3.399   3.240  14.308  0.0875 -0.0021  0.4370
  779MPD2    H511552   3.480   3.250  14.369 -1.0877  0.6263  1.9195
  779MPD2    N111553   3.360   2.772  14.414  0.0335 -0.5693 -0.4399
  779MPD2    H711554   3.448   2.785  14.462  0.1349 -2.1734 -0.2070
  780MPD2     C11555   2.699   3.077   0.979 -0.4263 -0.0597 -0.0099
  780MPD2    C111556   2.722   3.046   0.845  0.0567  0.4656  0.3849
  780MPD2    C211557   2.845   3.075   0.791 -0.1977 -0.1739 -0.0687
  780MPD2    C311558   2.934   3.143   0.867  0.2263  0.0833 -0.2767
  780MPD2    C411559   2.916   3.173   1.000  0.8942  0.4726 -0.0815
  780MPD2    C511560   2.799   3.144   1.051  0.6866 -0.5491  0.0334
  780MPD2     H11561   2.866   3.057   0.686  0.5942 -1.3186  0.2853
  780MPD2    H111562   2.986   3.235   1.055  0.6187  0.8199 -0.1194
  780MPD2    H211563   2.614   3.034   1.031 -1.1943  1.0306 -0.3583
  780MPD2    H311564   2.783   3.158   1.157 -2.4536  1.1998 -0.6761
  780MPD2     N11565   3.053   3.164   0.799  0.1807  0.0118  0.8026
  780MPD2    H511566   3.071   3.104   0.719  0.1267  0.5038  0.4206
  780MPD2    N111567   2.621   2.967   0.779  0.5740  0.6214 -0.3077
  780MPD2    H711568   2.548   2.920   0.831  0.2451  0.5232 -0.8635
  781MPD2     C11569   4.136   4.383  12.530  0.6001 -0.0964  1.0514
  781MPD2    C111570   4.215   4.424  12.631 -0.4095 -0.5111  0.5542
  781MPD2    C211571   4.343   4.473  12.595 -0.0080 -0.8641  0.5424
  781MPD2    C311572   4.386   4.485  12.464 -0.6424 -0.2733 -0.0906
  781MPD2    C411573   4.300   4.456  12.362 -0.3307 -0.2698 -0.3181
  781MPD2    C511574   4.174   4.404  12.397 -0.1070  0.1086 -0.0961
  781MPD2     H11575   4.415   4.493  12.673  0.6718  2.4017 -0.9280
  781MPD2    H111576   4.335   4.447  12.259 -0.3217  1.1678 -0.4309
  781MPD2    H211577   4.036   4.344  12.541  0.5761 -0.2573  0.2936
  781MPD2    H311578   4.105   4.374  12.319  0.3900  1.4290 -1.0565
  781MPD2     N11579   4.518   4.512  12.424  0.2885 -0.0407  0.7298
  781MPD2    H511580   4.540   4.522  12.326 -2.5909  2.2618  0.3215
  781MPD2    N111581   4.181   4.402  12.767  0.4489  0.6837 -0.7116
  781MPD2    H711582   4.094   4.350  12.774  1.5636 -1.3908 -2.4997
  782MPD2     C11583   2.801   0.761  10.324 -1.1691  1.4346  1.2145
  782MPD2    C111584   2.937   0.770  10.303  0.3350  0.5322 -0.4638
  782MPD2    C211585   3.008   0.888  10.331 -0.1055  0.1661  0.7015
  782MPD2    C311586   2.935   0.992  10.391 -0.2530  0.0464 -0.5435
  782MPD2    C411587   2.800   0.983  10.403  0.2625 -0.7522 -0.0108
  782MPD2    C511588   2.736   0.874  10.358 -0.1319  0.4383  0.3850
  782MPD2     H11589   3.116   0.881  10.328  0.0049  1.6094  1.0243
  782MPD2    H111590   2.734   1.058  10.446  1.9547  1.9006 -1.9986
  782MPD2    H211591   2.735   0.683  10.287 -0.1078  0.1372  2.0727
  782MPD2    H311592   2.628   0.874  10.357 -0.0984  1.1585 -1.7044
  782MPD2     N11593   3.012   1.101  10.440 -0.1743  0.3036 -0.1535
  782MPD2    H511594   3.107   1.111  10.405 -0.0040 -3.1444 -0.6792
  782MPD2    N111595   3.017   0.660  10.269 -0.0647  0.3311 -0.0536
  782MPD2    H711596   3.118   0.663  10.267 -0.1418  0.8372 -2.5640
  783MPD2     C11597   2.423   4.696  10.449 -0.0315 -0.4284  0.0698
  783MPD2    C111598   2.458   0.060  10.538  0.3335 -0.5376 -0.3579
  783MPD2    C211599   2.597   0.103  10.544 -0.0467  0.0587 -0.8140
  783MPD2    C311600   2.697   0.044  10.469 -0.3732 -0.3067  1.0585
  783MPD2    C411601   2.659   4.672  10.387  0.3387 -0.5348  0.7781
  783MPD2    C511602   2.524   4.637  10.375 -0.4298  0.3765 -0.0492
  783MPD2     H11603   2.634   0.178  10.612  1.6293 -1.1787 -0.3594
  783MPD2    H111604   2.732   4.609  10.338 -0.6165 -0.1959 -1.0883
  783MPD2    H211605   2.327   4.645  10.450 -0.8360  1.0400 -1.4565
  783MPD2    H311606   2.509   4.546  10.318 -0.5792  0.7118 -0.5418
  783MPD2     N11607   2.834   0.103  10.469  0.0634  0.3264  0.0310
  783MPD2    H511608   2.861   0.167  10.543  0.5569  0.5575 -0.3456
  783MPD2    N111609   2.359   0.108  10.630 -1.0867  0.8936  0.4732
  783MPD2    H711610   2.264   0.074  10.618 -0.5594 -1.0982  1.8991
  784MPD2     C11611   0.375   0.952   0.755 -0.9588 -0.2862  0.5573
  784MPD2    C111612   0.425   1.067   0.814 -0.4092 -0.0264  0.5201
  784MPD2    C211613   0.370   1.189   0.781 -0.9919 -0.2071  0.2127
  784MPD2    C311614   0.270   1.202   0.683  0.7188  0.0832  0.1510
  784MPD2    C411615   0.216   1.081   0.634  0.6387 -0.5190 -0.2598
  784MPD2    C511616   0.273   0.963   0.669 -0.8978 -0.7529 -0.2916
  784MPD2     H11617   0.417   1.274   0.828  0.7109 -0.7972 -0.3952
  784MPD2    H111618   0.131   1.075   0.566  0.4783 -2.2206  0.1039
  784MPD2    H211619   0.394   0.849   0.783 -1.5589 -1.0930 -1.9497
  784MPD2    H311620   0.213   0.877   0.644 -1.0422 -0.7640  0.0929
  784MPD2     N11621   0.205   1.326   0.652 -0.3840  0.1395  0.3148
  784MPD2    H511622   0.234   1.406   0.708  2.8458  0.1751 -1.4167
  784MPD2    N111623   0.520   1.061   0.913 -0.5218 -0.0764  0.5342
  784MPD2    H711624   0.530   1.150   0.961 -2.0625  0.6206 -0.4466
  785MPD2     C11625   0.907   3.800  11.143  0.5445  0.2554  0.2209
  785MPD2    C111626   0.782   3.790  11.082 -0.0040  0.2100 -0.1900
  785MPD2    C211627   0.749   3.697  10.992  0.0144  0.2480 -0.1425
  785MPD2    C311628   0.846   3.602  10.958  0.1653  0.2244  0.2125
  785MPD2    C411629   0.973   3.605  11.006 -0.6276  0.3766 -0.3057
  785MPD2    C511630   0.998   3.709  11.094 -0.0035  0.5367 -0.2713
  785MPD2     H11631   0.650   3.683  10.950 -0.2307 -1.4067  1.0019
  785MPD2    H111632   1.049   3.530  10.988 -0.0855  0.5091  1.3938
  785MPD2    H211633   0.928   3.861  11.230  0.2167  1.8067 -0.7938
  785MPD2    H311634   1.099   3.705  11.132 -0.1850  0.4659  0.2023
  785MPD2     N11635   0.794   3.482  10.896 -0.7724 -0.0129  0.1632
  785MPD2    H511636   0.696   3.497  10.873 -0.3228 -0.0425 -1.7964
  785MPD2    N111637   0.685   3.891  11.109 -0.1575 -0.6479 -0.1145
  785MPD2    H711638   0.594   3.873  11.067 -0.7699  0.5883  0.7014
  786MPD2     C11639   3.927   2.372  15.000 -0.3247  0.4947 -0.1853
  786MPD2    C111640   4.055   2.351  14.952 -0.6018 -0.1743 -0.0009
  786MPD2    C211641   4.156   2.415  15.013  0.0512  0.2427 -0.4306
  786MPD2    C311642   4.141   2.495  15.121  0.1175  0.5860  0.5015
  786MPD2    C411643   4.014   2.513  15.176 -0.0017 -0.2028 -0.1300
  786MPD2    C511644   3.909   2.457  15.109  0.2074 -0.0225 -0.7652
  786MPD2     H11645   4.259   2.399  14.980 -0.6851 -0.7349 -2.2806
  786MPD2    H111646   4.002   2.589  15.253 -0.7107 -1.5130  1.0646
  786MPD2    H211647   3.834   2.337  14.958  0.6617  1.8918 -3.5899
  786MPD2    H311648   3.806   2.479  15.135 -0.0224 -1.0868 -0.7649
  786MPD2     N11649   4.243   2.567  15.179  0.7067  0.5442  0.0326
  786MPD2    H511650   4.223   2.623  15.260  1.3645  1.0055 -0.1196
  786MPD2    N111651   4.085   2.275  14.837 -0.8727 -0.0604 -0.6781
  786MPD2    H711652   4.180   2.261  14.807 -0.3405 -0.7340  1.3167
  787MPD2     C11653   4.266   1.621  14.771  0.1987 -0.3406  0.0037
  787MPD2    C111654   4.312   1.697  14.669 -0.0914  0.0844  0.5600
  787MPD2    C211655   4.387   1.629  14.569  0.6517 -0.1611  0.3923
  787MPD2    C311656   4.406   1.489  14.583 -0.6380  0.4622 -0.8918
  787MPD2    C411657   4.364   1.419  14.700 -0.2288  0.3425 -0.3596
  787MPD2    C511658   4.295   1.487  14.792 -0.5411  0.6411  0.5763
  787MPD2     H11659   4.433   1.686  14.489 -0.9805  1.5283  0.6398
  787MPD2    H111660   4.390   1.315  14.712  2.3592  1.0901  0.7460
  787MPD2    H211661   4.228   1.680  14.854 -0.7959 -0.2270 -0.5298
  787MPD2    H311662   4.259   1.433  14.878  2.9221  1.0681  2.2702
  787MPD2     N11663   4.482   1.428  14.495 -0.1353  0.3562 -0.3927
  787MPD2    H511664   4.513   1.483  14.415  1.3026  2.4915  1.6482
  787MPD2    N111665   4.280   1.837  14.670  0.1120 -0.1881 -0.0581
  787MPD2    H711666   4.210   1.875  14.733  1.7985  2.4731  0.2054
  788MPD2     C11667   1.788   0.904   0.834 -0.2467 -0.6192  0.1443
  788MPD2    C111668   1.671   0.854   0.780 -0.0037  0.3453  0.2929
  788MPD2    C211669   1.584   0.945   0.734 -0.0931 -0.0279  0.1721
  788MPD2    C311670   1.597   1.083   0.746  0.1142  0.0523  0.5803
  788MPD2    C411671   1.719   1.128   0.788 -0.4897 -1.0209 -0.5503
  788MPD2    C511672   1.818   1.039   0.831  0.9223  0.4406  0.3267
  788MPD2     H11673   1.491   0.912   0.691  1.0840  0.1072 -2.4528
  788MPD2    H111674   1.741   1.234   0.787  0.0784 -1.1195  1.3230
  788MPD2    H211675   1.858   0.827   0.864  0.6745  0.0736 -0.2210
  788MPD2    H311676   1.899   1.087   0.883  0.3513 -0.2061  1.8252
  788MPD2     N11677   1.502   1.173   0.697  0.6941 -0.4895 -0.6580
  788MPD2    H511678   1.527   1.271   0.705 -1.3110  0.0237 -0.4994
  788MPD2    N111679   1.642   0.714   0.765  0.3399 -0.3665 -0.3659
  788MPD2    H711680   1.718   0.647   0.760  0.3348 -0.4987  1.6161
  789MPD2     C11681   1.124   4.623  17.029 -0.8163 -0.0012 -0.0424
  789MPD2    C111682   0.990   4.649  17.047 -0.6110  0.1741 -0.1550
  789MPD2    C211683   0.947   0.045  17.022 -0.0017 -0.1663  0.7415
  789MPD2    C311684   1.029   0.146  16.967  0.5648  0.5781  0.6072
  789MPD2    C411685   1.163   0.116  16.946  0.0129 -0.4674 -0.7761
  789MPD2    C511686   1.199   4.723  16.977  0.2307 -0.3661  1.0706
  789MPD2     H11687   0.841   0.061  17.042 -0.2121 -0.1862 -0.3400
  789MPD2    H111688   1.236   0.188  16.909  0.1040 -1.7013 -3.0212
  789MPD2    H211689   1.172   4.528  17.047 -0.1953 -0.0338 -1.8628
  789MPD2    H311690   1.304   4.707  16.954 -0.3824  0.3017 -2.1724
  789MPD2     N11691   0.981   0.275  16.933 -0.1825  0.3364  0.2684
  789MPD2    H511692   1.043   0.331  16.876 -1.4236  0.6914 -0.7329
  789MPD2    N111693   0.903   4.552  17.087 -0.5731 -0.0578  0.4604
  789MPD2    H711694   0.822   4.591  17.134 -1.4263 -0.3631 -0.7569
  790MPD2     C11695   2.118   1.728  13.407  0.3498 -0.0563 -0.4742
  790MPD2    C111696   2.221   1.642  13.385 -0.2843  0.1610 -0.3056
  790MPD2    C211697   2.252   1.622  13.248  0.7067 -0.4668  0.9452
  790MPD2    C311698   2.181   1.672  13.145  0.0313 -0.2534  0.4082
  790MPD2    C411699   2.072   1.750  13.168 -0.7463  0.2139  0.0217
  790MPD2    C511700   2.046   1.778  13.305  0.5080  0.5091 -0.2628
  790MPD2     H11701   2.341   1.563  13.228  1.1403  1.0705 -1.6872
  790MPD2    H111702   2.002   1.797  13.099 -2.3955 -0.9937  0.8773
  790MPD2    H211703   2.090   1.756  13.507  0.6344 -0.2330 -0.3458
  790MPD2    H311704   1.966   1.844  13.335  1.6308  2.4794 -1.5945
  790MPD2     N11705   2.215   1.630  13.021 -0.1700 -0.6201 -0.4984
  790MPD2    H511706   2.274   1.548  13.025 -0.9737 -1.3230 -3.4827
  790MPD2    N111707   2.288   1.591  13.494 -0.2278  0.0922  0.4793
  790MPD2    H711708   2.237   1.608  13.580  1.2283  0.2186  1.3080
  791MPD2     C11709   1.777   1.681  12.371  0.2191 -0.1851  0.4730
  791MPD2    C111710   1.812   1.561  12.434  0.4267  0.5960 -0.0299
  791MPD2    C211711   1.714   1.463  12.451 -0.6499  0.3833  0.2524
  791MPD2    C311712   1.597   1.474  12.386  0.7320  0.4939  0.0662
  791MPD2    C411713   1.558   1.599  12.331 -0.0845 -0.7549  0.1261
  791MPD2    C511714   1.656   1.696  12.319 -0.1015 -0.2440  0.8846
  791MPD2     H11715   1.728   1.368  12.501 -0.4466 -0.0595 -0.6335
  791MPD2    H111716   1.462   1.616  12.283  0.1306  0.1897  0.0135
  791MPD2    H211717   1.846   1.764  12.370  2.1208 -1.7645 -1.7473
  791MPD2    H311718   1.643   1.791  12.270 -1.7801 -0.9427 -0.0144
  791MPD2     N11719   1.511   1.367  12.407  0.9315  0.7995  0.4782
  791MPD2    H511720   1.546   1.295  12.470  1.3025  1.4480  1.0097
  791MPD2    N111721   1.941   1.561  12.499 -0.5373 -0.2789 -0.7392
  791MPD2    H711722   1.985   1.652  12.499  2.0588 -1.5262 -1.5511
  792MPD2     C11723   2.526   1.484  11.418  0.5671 -0.4464  0.4223
  792MPD2    C111724   2.505   1.563  11.309  0.1383 -0.0222 -0.0135
  792MPD2    C211725   2.373   1.609  11.286  0.1174  0.4012  0.1169
  792MPD2    C311726   2.266   1.572  11.371  0.7924  0.4952  0.3050
  792MPD2    C411727   2.298   1.505  11.488  0.5652  0.3161  0.2713
  792MPD2    C511728   2.424   1.454  11.510  0.3801 -0.3240  0.1501
  792MPD2     H11729   2.356   1.684  11.210  0.8540  0.5202  0.0743
  792MPD2    H111730   2.229   1.457  11.557 -0.0768  1.1523  0.2151
  792MPD2    H211731   2.626   1.449  11.441  0.7227 -0.1441  0.2122
  792MPD2    H311732   2.433   1.379  11.588 -1.2670  1.2163  1.8383
  792MPD2     N11733   2.126   1.598  11.346 -0.2936 -0.1636  0.2835
  792MPD2    H511734   2.070   1.564  11.423 -0.5859  1.3037  0.7091
  792MPD2    N111735   2.618   1.597  11.236  0.3735 -0.6066 -0.1614
  792MPD2    H711736   2.706   1.555  11.264 -1.3470 -2.8513  1.8470
  793MPD2     C11737   1.995   1.602  10.534  0.7610 -0.2086 -0.9149
  793MPD2    C111738   2.095   1.645  10.627  0.3496  0.1365  0.5073
  793MPD2    C211739   2.054   1.699  10.747 -0.0309  0.1865  0.1122
  793MPD2    C311740   1.922   1.706  10.774 -0.0049 -0.4980  0.3191
  793MPD2    C411741   1.820   1.655  10.687  0.4880  0.3396  0.6754
  793MPD2    C511742   1.861   1.602  10.572  0.0604 -0.2084 -0.4387
  793MPD2     H11743   2.124   1.725  10.826  0.6861 -2.3199  0.3055
  793MPD2    H111744   1.714   1.666  10.707 -0.1414 -0.0805 -2.4186
  793MPD2    H211745   2.011   1.555  10.438  0.3169 -1.2608 -0.4630
  793MPD2    H311746   1.786   1.577  10.499  0.2184 -1.9212 -0.0150
  793MPD2     N11747   1.890   1.755  10.904  0.3655 -0.2029  0.4462
  793MPD2    H511748   1.977   1.756  10.956  1.4352  0.9370 -1.3445
  793MPD2    N111749   2.233   1.637  10.611 -0.0798 -0.0638 -0.6150
  793MPD2    H711750   2.296   1.657  10.688 -0.7903  0.5395 -0.1917
  794MPD2     C11751   2.269   1.271   0.129 -0.2782 -0.1922  0.0750
  794MPD2    C111752   2.360   1.222   0.049  0.3345 -0.6140  0.6439
  794MPD2    C211753   2.365   1.274  17.661 -0.3339 -0.1110 -0.0381
  794MPD2    C311754   2.269   1.364  17.618 -0.4907  0.0924 -0.5548
  794MPD2    C411755   2.168   1.403  17.704  0.3767  0.0367  0.1855
  794MPD2    C511756   2.166   1.351   0.087  0.1730 -0.4533  0.2305
  794MPD2     H11757   2.441   1.231  17.597 -3.5294 -1.5337 -2.8924
  794MPD2    H111758   2.081   1.463  17.679  1.5762  2.0795  0.9193
  794MPD2    H211759   2.270   1.251   0.236  1.0636  0.4729  0.1951
  794MPD2    H311760   2.091   1.385   0.158  1.9828  0.4888  1.6851
  794MPD2     N11761   2.250   1.413  17.488 -0.1525  0.1706  0.1864
  794MPD2    H511762   2.169   1.474  17.481  0.2937  0.7415 -0.0620
  794MPD2    N111763   2.446   1.120   0.091  0.1602  0.4056  0.1482
  794MPD2    H711764   2.510   1.076   0.025  0.0185  1.2625 -0.5630
  795MPD2     C11765   4.541   3.362  13.962  0.0268  0.3790  0.1474
  795MPD2    C111766   4.503   3.258  13.878  0.2937 -0.6093  0.4318
  795MPD2    C211767   4.612   3.175  13.851  0.9214 -0.8752 -0.0419
  795MPD2    C311768   0.004   3.190  13.906  0.4312  0.3805 -0.5315
  795MPD2    C411769   0.030   3.286  13.999  0.2959  0.3512 -0.3816
  795MPD2    C511770   4.666   3.374  14.025 -0.3663  0.0137  0.1716
  795MPD2     H11771   4.597   3.089  13.787  2.1411 -0.6952 -0.5785
  795MPD2    H111772   0.124   3.296  14.053 -0.0440  4.7549 -0.6046
  795MPD2    H211773   4.467   3.432  13.998 -0.1941  1.2621 -2.0464
  795MPD2    H311774   4.681   3.448  14.102  1.2024  0.3748 -0.4756
  795MPD2     N11775   0.105   3.091  13.880 -0.6496 -0.5420  0.2468
  795MPD2    H511776   0.077   3.001  13.842 -2.6217  0.4147 -0.5321
  795MPD2    N111777   4.369   3.250  13.826  0.6898  0.4971 -0.0035
  795MPD2    H711778   4.341   3.169  13.772  0.3472  1.0037 -0.6046
  796MPD2     C11779   3.977   0.115  16.077  0.5883 -0.0453  0.3989
  796MPD2    C111780   3.935   0.192  16.183  0.1613  0.5862  0.0874
  796MPD2    C211781   3.871   0.309  16.164  0.2863  0.2971  0.1741
  796MPD2    C311782   3.857   0.358  16.036 -0.1757  0.2958 -0.6000
  796MPD2    C411783   3.922   0.289  15.929  0.4893  0.7065 -0.2925
  796MPD2    C511784   3.977   0.167  15.953 -0.3003  0.1658  0.9791
  796MPD2     H11785   3.828   0.368  16.244 -0.6030  0.5618 -0.4996
  796MPD2    H111786   3.923   0.318  15.825  0.6737 -1.1209 -0.7866
  796MPD2    H211787   4.041   0.031  16.102  1.3212  0.1753 -0.6970
  796MPD2    H311788   4.028   0.107  15.879  0.3155 -1.0753  2.4223
  796MPD2     N11789   3.786   0.475  16.007 -0.1431  0.1173  0.4430
  796MPD2    H511790   3.748   0.523  16.088  1.9086  1.7772  0.4236
  796MPD2    N111791   3.971   0.133  16.308 -0.2220 -0.0584  0.5532
  796MPD2    H711792   4.016   0.042  16.314  2.5783  1.2854 -0.3938
  797MPD2     C11793   4.563   4.381  17.657  0.0594 -0.0624  0.6279
  797MPD2    C111794   4.532   4.485   0.006  0.2126  0.4474  0.1106
  797MPD2    C211795   4.579   4.607  17.716 -0.1422  0.1665  0.5204
  797MPD2    C311796   4.650   4.638  17.596  0.3403 -0.0129 -0.0889
  797MPD2    C411797   4.661   4.543  17.500 -0.4025  0.3745 -0.8518
  797MPD2    C511798   4.631   4.412  17.537  0.0073 -0.4172  0.3215
  797MPD2     H11799   4.561   4.693   0.039 -0.3379  0.1892  0.4344
  797MPD2    H111800   4.722   4.562  17.412 -1.7972  1.6300 -1.5463
  797MPD2    H211801   4.532   4.279  17.672 -0.8745  0.0079 -0.7907
  797MPD2    H311802   4.663   4.327  17.479 -1.4678 -0.7669  0.0449
  797MPD2     N11803   4.688   0.035  17.578  1.0291  0.4486 -0.2632
  797MPD2    H511804   4.651   0.094  17.652 -1.4596 -0.9318 -0.3894
  797MPD2    N111805   4.468   4.468   0.131  0.0451 -0.2667 -0.7234
  797MPD2    H711806   4.458   4.555   0.183 -0.0936  1.8122 -4.2102
  798MPD2     C11807   4.218   0.354   0.175  0.5858  0.3104  0.2607
  798MPD2    C111808   4.337   0.293   0.172 -0.8859  0.0084 -0.6381
  798MPD2    C211809   4.363   0.189   0.259  0.3187 -0.1525 -0.0174
  798MPD2    C311810   4.268   0.128   0.340 -0.7673  0.1594  0.0058
  798MPD2    C411811   4.151   0.188   0.335  0.3596  0.0789 -0.7151
  798MPD2    C511812   4.120   0.292   0.251  0.3588  0.3645  0.6085
  798MPD2     H11813   4.459   0.139   0.260 -0.2671 -1.2663  0.1566
  798MPD2    H111814   4.086   0.151   0.413 -1.4598 -0.3000 -2.3984
  798MPD2    H211815   4.192   0.441   0.117  0.0872  0.4406  0.6831
  798MPD2    H311816   4.023   0.338   0.267 -0.9738 -1.7100 -1.3754
  798MPD2     N11817   4.297   0.004   0.400 -0.0863  0.5955  0.3486
  798MPD2    H511818   4.392   4.707   0.388 -0.3884  0.1892 -0.9564
  798MPD2    N111819   4.438   0.351   0.086 -0.0618 -0.1075 -0.5384
  798MPD2    H711820   4.407   0.430   0.030  1.0735  2.2910  2.2646
  799MPD2     C11821   3.962   1.383  14.813 -0.0111  0.1166 -0.0677
  799MPD2    C111822   3.936   1.288  14.714 -0.2514  0.3052  0.5529
  799MPD2    C211823   3.902   1.326  14.589  1.4884 -0.1342  0.0301
  799MPD2    C311824   3.895   1.461  14.556 -0.0965  0.7176 -0.6166
  799MPD2    C411825   3.924   1.555  14.655 -0.4685 -0.6436 -0.2468
  799MPD2    C511826   3.961   1.512  14.781 -0.4832  0.3777 -0.3639
  799MPD2     H11827   3.876   1.253  14.514 -1.6145  0.9940 -0.0017
  799MPD2    H111828   3.921   1.661  14.633  0.9494 -1.0034 -2.1434
  799MPD2    H211829   3.988   1.358  14.915 -0.2559  1.5042  0.3330
  799MPD2    H311830   3.982   1.589  14.855 -0.5074 -0.6936  0.7732
  799MPD2     N11831   3.879   1.509  14.425  0.1665  0.0511 -0.0671
  799MPD2    H511832   3.872   1.610  14.421 -1.1948 -0.1572 -2.3706
  799MPD2    N111833   3.943   1.146  14.729  0.3254 -0.6611 -0.2794
  799MPD2    H711834   3.922   1.082  14.654 -0.3976 -2.4283  1.4290
  800MPD2     C11835   4.508   2.429  14.743  0.4268 -0.6401 -0.7455
  800MPD2    C111836   4.589   2.371  14.649 -0.4697  0.6707  0.2111
  800MPD2    C211837   4.528   2.312  14.538 -0.7638 -1.2278  0.2728
  800MPD2    C311838   4.389   2.317  14.518  0.4225 -0.4024  0.1061
  800MPD2    C411839   4.313   2.379  14.617 -0.0219  0.4545 -0.0066
  800MPD2    C511840   4.374   2.420  14.730 -0.2131 -0.5622 -0.5338
  800MPD2     H11841   4.594   2.279  14.459  0.4915 -1.2833  1.3406
  800MPD2    H111842   4.205   2.385  14.608 -0.0974 -1.4088 -0.3967
  800MPD2    H211843   4.550   2.477  14.830 -0.5362  0.8860 -1.1299
  800MPD2    H311844   4.303   2.469  14.795 -1.1255 -3.1927  0.4812
  800MPD2     N11845   4.350   2.272  14.395  0.1150  0.3058  0.1864
  800MPD2    H511846   4.416   2.217  14.341  0.1897  2.1795 -1.5965
  800MPD2    N111847   4.724   2.379  14.676 -0.5797  0.4410  0.5473
  800MPD2    H711848   0.020   2.449  14.743 -1.5332 -0.5531  2.0386
  801MPD2     C11849   4.684   2.972  14.291  0.6140 -0.5784 -0.1463
  801MPD2    C111850   4.715   2.926  14.417 -0.0021 -0.2991  0.4917
  801MPD2    C211851   4.697   3.013  14.524 -0.1852  0.0560  0.4954
  801MPD2    C311852   4.631   3.133  14.510  0.7370  0.8009 -0.2586
  801MPD2    C411853   4.600   3.173  14.389 -0.3425  0.7828  0.0777
  801MPD2    C511854   4.633   3.101  14.277 -0.4581  0.0692  0.1565
  801MPD2     H11855   0.004   2.979  14.618 -2.0491 -2.8558  0.2897
  801MPD2    H111856   4.551   3.270  14.386 -0.6126  0.6509  0.2203
  801MPD2    H211857   4.700   2.909  14.204  0.0356  0.5361 -1.0633
  801MPD2    H311858   4.609   3.139  14.179 -1.5020 -2.3872 -0.5404
  801MPD2     N11859   4.592   3.222  14.615 -0.4138 -0.0235  0.2443
  801MPD2    H511860   4.546   3.310  14.596 -1.5652 -0.7189 -0.1846
  801MPD2    N111861   0.043   2.803  14.439  0.0491  0.1597 -0.5268
  801MPD2    H711862   0.052   2.761  14.531  0.6046 -0.7166 -0.9736
  802MPD2     C11863   4.661   3.359   0.002  0.6326 -0.7373 -0.0835
  802MPD2    C111864   4.537   3.410  17.701  0.5222  0.5295  0.7672
  802MPD2    C211865   4.492   3.372  17.577 -1.1610  0.3916  0.2052
  802MPD2    C311866   4.557   3.279  17.493  0.3689  0.0746  0.6373
  802MPD2    C411867   4.678   3.229  17.535 -0.5489  0.3218  0.1346
  802MPD2    C511868   4.730   3.290  17.646 -0.1778 -0.6212 -0.8302
  802MPD2     H11869   4.398   3.422  17.552 -1.0491 -0.2869 -1.6356
  802MPD2    H111870   4.735   3.149  17.488  1.4428  0.7847  1.8034
  802MPD2    H211871   4.708   3.389   0.094 -0.8097  2.2426 -0.3108
  802MPD2    H311872   0.089   3.240  17.663 -0.4411 -1.3303 -1.4397
  802MPD2     N11873   4.483   3.235  17.380  0.1095  0.5698 -0.2882
  802MPD2    H511874   4.394   3.277  17.356  0.9115  1.7262 -1.2202
  802MPD2    N111875   4.464   3.492   0.039  0.2423  1.0644  0.7072
  802MPD2    H711876   4.394   3.544  17.727  1.5877  3.1597  1.0141
  803MPD2     C11877   0.795   1.778  11.774 -0.4614 -0.0664 -0.3627
  803MPD2    C111878   0.751   1.843  11.888  0.7650 -0.0408 -0.4119
  803MPD2    C211879   0.642   1.793  11.955 -0.1066  0.6793  0.3959
  803MPD2    C311880   0.586   1.674  11.925  0.0189 -0.3430 -0.3413
  803MPD2    C411881   0.643   1.598  11.824 -0.2151  0.4017 -0.2264
  803MPD2    C511882   0.744   1.650  11.753 -0.7323 -0.4342  0.0586
  803MPD2     H11883   0.607   1.847  12.043 -2.6081  0.5446 -0.5212
  803MPD2    H111884   0.607   1.506  11.782  0.2947  0.7420 -1.4048
  803MPD2    H211885   0.878   1.806  11.711  0.4463  1.0271  1.3373
  803MPD2    H311886   0.794   1.592  11.677 -0.9962  0.3177 -0.6832
  803MPD2     N11887   0.490   1.611  12.015  0.0192  0.1364 -0.1830
  803MPD2    H511888   0.476   1.512  11.998 -1.8230  0.5953 -1.3603
  803MPD2    N111889   0.805   1.966  11.931  0.4194  0.9852  0.1407
  803MPD2    H711890   0.758   2.014  12.007 -1.9588 -1.0344 -0.0378
  804MPD2     C11891   4.711   3.043  16.763  0.1004  0.6442  0.3790
  804MPD2    C111892   0.015   3.017  16.897 -0.1365  0.0581 -0.0504
  804MPD2    C211893   0.028   3.121  16.990  0.1979 -0.1732  0.2307
  804MPD2    C311894   4.718   3.245  16.952  0.4363  0.4637 -0.0100
  804MPD2    C411895   4.675   3.270  16.824  0.2597 -0.6299  0.3176
  804MPD2    C511896   4.681   3.175  16.729 -0.0943  0.3709  0.1702
  804MPD2     H11897   0.066   3.095  17.088  2.0549  0.8328 -0.2255
  804MPD2    H111898   4.651   3.371  16.793  1.7307 -0.5608 -0.5914
  804MPD2    H211899   4.695   2.963  16.691  1.5661  1.4217 -0.8136
  804MPD2    H311900   4.663   3.195  16.624 -0.5930  0.3411  0.2535
  804MPD2     N11901   4.716   3.339  17.053  0.2637  0.1358  0.4971
  804MPD2    H511902   0.025   3.314  17.141 -0.2989 -3.1759 -0.1480
  804MPD2    N111903   0.053   2.886  16.942  0.1541  0.2903 -0.2665
  804MPD2    H711904   0.071   2.883  17.042 -0.5980  1.5060 -0.1020
  805MPD2     C11905   3.799   1.643  15.594 -0.4832  0.6081  0.1170
  805MPD2    C111906   3.909   1.574  15.552 -1.4202 -1.2423 -0.1576
  805MPD2    C211907   4.029   1.584  15.633 -0.2874 -0.4159  0.8995
  805MPD2    C311908   4.036   1.662  15.743  0.3598 -0.2514  0.1738
  805MPD2    C411909   3.918   1.732  15.779  0.0417  0.7887 -0.4797
  805MPD2    C511910   3.803   1.720  15.707 -0.1255  0.3808 -0.5881
  805MPD2     H11911   4.114   1.530  15.592 -0.7807 -1.7477  1.6245
  805MPD2    H111912   3.912   1.802  15.861  0.9075  2.3624 -1.7525
  805MPD2    H211913   3.701   1.635  15.548 -1.2075  0.8643  1.5990
  805MPD2    H311914   3.723   1.786  15.742 -1.8555 -2.6853  1.2165
  805MPD2     N11915   4.151   1.663  15.817  0.3650 -0.3404 -0.9903
  805MPD2    H511916   4.224   1.602  15.781 -0.7367 -0.4730 -2.9807
  805MPD2    N111917   3.906   1.477  15.445  0.6417 -0.3585  0.5359
  805MPD2    H711918   3.985   1.414  15.436  0.4950 -0.5946  0.9249
  806MPD2     C11919   3.821   0.274   0.807 -0.3280 -0.0700 -0.1990
  806MPD2    C111920   3.956   0.287   0.824 -0.0420 -0.5720  0.0761
  806MPD2    C211921   4.039   0.351   0.728 -0.1738 -0.7590 -0.4200
  806MPD2    C311922   3.983   0.421   0.621  0.8453  0.1614  0.2936
  806MPD2    C411923   3.847   0.421   0.613  0.1647  0.3372  0.4081
  806MPD2    C511924   3.770   0.351   0.699 -0.0693  0.4122 -0.2970
  806MPD2     H11925   4.145   0.359   0.749 -0.5870 -0.2242  1.4196
  806MPD2    H111926   3.792   0.485   0.545  0.2769  0.8119  0.7718
  806MPD2    H211927   3.759   0.217   0.875 -0.4349 -0.2544 -0.4495
  806MPD2    H311928   3.664   0.372   0.689 -0.5664  0.2072  4.3647
  806MPD2     N11929   4.072   0.489   0.539 -0.1447 -0.4633 -0.3541
  806MPD2    H511930   4.168   0.497   0.570 -0.1630 -0.4866 -0.2905
  806MPD2    N111931   4.002   0.213   0.933 -0.1950  0.3845  0.0099
  806MPD2    H711932   3.931   0.163   0.986 -0.0408  1.5706  1.3268
  807MPD2     C11933   3.719   4.647   1.545 -0.2390  0.2519 -0.6326
  807MPD2    C111934   3.852   4.611   1.550 -0.1095 -0.2920 -0.1966
  807MPD2    C211935   3.891   4.500   1.624 -0.2091  0.3325  0.7809
  807MPD2    C311936   3.793   4.436   1.695  0.7731  0.2281  0.9083
  807MPD2    C411937   3.657   4.467   1.689  0.0464 -0.0493  0.2346
  807MPD2    C511938   3.629   4.575   1.619  0.2319  0.6468 -0.0229
  807MPD2     H11939   3.995   4.471   1.637 -0.1704  0.7940  1.4863
  807MPD2    H111940   3.583   4.401   1.735 -0.1813 -0.2653 -0.4318
  807MPD2    H211941   3.675   4.730   1.491 -1.4330 -0.0914 -0.1806
  807MPD2    H311942   3.524   4.599   1.610 -0.2958 -0.8364  2.2210
  807MPD2     N11943   3.839   4.325   1.766  1.0389 -0.2365  0.6810
  807MPD2    H511944   3.937   4.300   1.755  0.1158 -3.1339 -0.7762
  807MPD2    N111945   3.942   4.678   1.467 -0.8719  0.3442  0.0016
  807MPD2    H711946   4.037   4.645   1.479 -0.8951  0.7730  1.3392
  808MPD2     C11947   0.331   2.519   9.912  0.0149 -0.1651 -0.3224
  808MPD2    C111948   0.395   2.483  10.029  0.2185  0.6571  0.3104
  808MPD2    C211949   0.477   2.575  10.090  0.4508  0.8034 -0.1959
  808MPD2    C311950   0.499   2.697  10.039  0.3747 -0.4872  0.0956
  808MPD2    C411951   0.431   2.733   9.918 -0.1365  0.9418  0.6020
  808MPD2    C511952   0.347   2.643   9.857 -0.3840  0.2575 -0.2627
  808MPD2     H11953   0.524   2.546  10.184 -1.0808 -1.6209 -0.1577
  808MPD2    H111954   0.439   2.824   9.860  0.3454  1.3560  1.3050
  808MPD2    H211955   0.272   2.449   9.855  1.6255 -2.5298  0.9034
  808MPD2    H311956   0.302   2.656   9.758  1.6796 -1.9466 -1.4723
  808MPD2     N11957   0.578   2.790  10.102 -0.2648 -0.3051 -0.0296
  808MPD2    H511958   0.638   2.743  10.170  1.5679  1.3710 -0.4935
  808MPD2    N111959   0.395   2.359  10.091  0.0012 -0.0301 -0.1298
  808MPD2    H711960   0.455   2.348  10.172 -0.2513  0.8373  0.1758
  809MPD2     C11961   1.461   3.357  10.079 -0.2889  0.3768 -0.4942
  809MPD2    C111962   1.384   3.287   9.987  0.2012 -0.9322  0.2350
  809MPD2    C211963   1.266   3.237  10.019  0.0550  0.1385  0.4904
  809MPD2    C311964   1.204   3.277  10.136 -0.4106  0.4598  0.2343
  809MPD2    C411965   1.274   3.357  10.225  0.0704 -0.2142 -0.2250
  809MPD2    C511966   1.409   3.389  10.200  0.6333  0.0126 -0.8407
  809MPD2     H11967   1.209   3.175   9.951  0.5428  1.0444 -0.7397
  809MPD2    H111968   1.239   3.396  10.320 -1.7886 -0.1392 -0.9424
  809MPD2    H211969   1.567   3.373  10.065  0.4206 -0.7495  3.5686
  809MPD2    H311970   1.464   3.448  10.273  0.6825 -3.4687  1.9575
  809MPD2     N11971   1.075   3.237  10.178  0.6951 -0.5537  0.0633
  809MPD2    H511972   1.046   3.286  10.262 -0.5442 -3.1389  1.1729
  809MPD2    N111973   1.440   3.240   9.864 -0.6458  0.8532  0.0821
  809MPD2    H711974   1.397   3.160   9.818  1.6657 -2.8475  4.3841
  810MPD2     C11975   4.389   1.462  10.900 -1.0326 -1.0315 -0.4797
  810MPD2    C111976   4.320   1.530  10.807 -0.6003 -0.2168 -0.7593
  810MPD2    C211977   4.320   1.669  10.805  0.0319  0.7496  0.2484
  810MPD2    C311978   4.382   1.743  10.901  0.6967 -0.2199 -0.0813
  810MPD2    C411979   4.441   1.676  11.004  0.8801  0.2765  0.0130
  810MPD2    C511980   4.438   1.536  11.007 -0.0136  0.2272 -0.3216
  810MPD2     H11981   4.261   1.716  10.728 -0.8751  1.1678  1.1948
  810MPD2    H111982   4.476   1.733  11.089  0.8796 -0.3558  0.4395
  810MPD2    H211983   4.387   1.354  10.909  1.9573 -1.0909 -0.3774
  810MPD2    H311984   4.489   1.482  11.085 -0.4206  0.4107  0.0674
  810MPD2     N11985   4.401   1.880  10.904 -0.0510  0.6410 -0.2449
  810MPD2    H511986   4.460   1.917  10.978 -0.8571  1.2042  0.1104
  810MPD2    N111987   4.238   1.452  10.717  0.3482  0.5493  0.5787
  810MPD2    H711988   4.241   1.351  10.727  1.6014  0.4599 -0.6834
  811MPD2     C11989   3.652   1.195  10.033  0.5810 -0.1877 -0.3778
  811MPD2    C111990   3.765   1.267  10.064 -0.3596 -0.1824  0.8751
  811MPD2    C211991   3.809   1.356   9.968  0.3238 -0.3129 -0.3177
  811MPD2    C311992   3.735   1.382   9.853 -0.3668 -0.2798  0.2741
  811MPD2    C411993   3.621   1.314   9.829 -0.0730  0.2012  0.1928
  811MPD2    C511994   3.575   1.222   9.924 -0.0239 -0.6592  0.1667
  811MPD2     H11995   3.901   1.412   9.979 -0.8086  1.3755  0.5348
  811MPD2    H111996   3.574   1.332   9.732 -1.6683 -2.2877  0.5326
  811MPD2    H211997   3.609   1.129  10.106 -1.4830 -0.0948 -1.5205
  811MPD2    H311998   3.476   1.177   9.919  0.4617 -1.3783 -2.8211
  811MPD2     N11999   3.787   1.480   9.763 -0.5139 -0.2121  0.5842
  811MPD2    H512000   3.875   1.523   9.790 -1.9870  2.0568  1.7300
  811MPD2    N112001   3.812   1.262  10.193  0.5139 -0.1690 -0.4447
  811MPD2    H712002   3.763   1.207  10.263 -1.0983  1.3785 -0.3476
  812MPD2     C12003   3.562   1.330  12.097 -0.7039 -0.2322  0.2338
  812MPD2    C112004   3.459   1.334  12.188 -0.4184  0.9351 -0.1531
  812MPD2    C212005   3.492   1.322  12.327  0.6693 -0.2304  1.0212
  812MPD2    C312006   3.623   1.319  12.374  0.8864 -0.8226  0.3675
  812MPD2    C412007   3.720   1.315  12.273  0.2088 -0.0398 -0.6652
  812MPD2    C512008   3.693   1.325  12.145  0.3302  0.6068  0.0584
  812MPD2     H12009   3.408   1.318  12.396  0.7348  3.3425  1.2817
  812MPD2    H112010   3.825   1.326  12.300 -0.2634 -1.7767  1.8902
  812MPD2    H212011   3.539   1.333  11.991  0.6446 -2.0408 -0.1192
  812MPD2    H312012   3.772   1.335  12.071 -0.2791  0.9178 -0.5576
  812MPD2     N12013   3.649   1.301  12.515 -0.0477 -0.3341 -0.1095
  812MPD2    H512014   3.568   1.299  12.577  0.7984 -1.1357  0.9759
  812MPD2    N112015   3.328   1.357  12.137 -0.1820 -0.0727  0.0783
  812MPD2    H712016   3.308   1.362  12.038  1.1575 -1.0259 -0.2329
  813MPD2     C12017   2.248   3.016  12.901 -0.1173 -0.1308 -0.0179
  813MPD2    C112018   2.247   3.146  12.939  0.7038 -0.6530 -1.0349
  813MPD2    C212019   2.126   3.202  12.966 -0.6072  0.6766 -0.5150
  813MPD2    C312020   2.011   3.129  12.934 -0.3579  0.6534 -0.5236
  813MPD2    C412021   2.019   3.000  12.878  0.5720  0.1246  0.0513
  813MPD2    C512022   2.142   2.940  12.865 -0.0474 -0.3668  0.6066
  813MPD2     H12023   2.115   3.298  13.014 -1.1228  0.4048 -0.0851
  813MPD2    H112024   1.934   2.940  12.846 -0.7029  1.5408  0.8224
  813MPD2    H212025   2.341   2.960  12.899  0.1513  0.3355 -0.5901
  813MPD2    H312026   2.156   2.840  12.826 -0.5015 -0.4117  0.5532
  813MPD2     N12027   1.886   3.188  12.959 -0.1901  0.2062  0.0638
  813MPD2    H512028   1.894   3.284  12.992  2.9279  0.7941 -2.4083
  813MPD2    N112029   2.367   3.203  12.976 -0.2272  1.0620  0.2505
  813MPD2    H712030   2.450   3.146  12.962 -1.2482  0.0805 -1.7401
  814MPD2     C12031   2.429   0.109  12.016  0.0134  1.0117 -0.2019
  814MPD2    C112032   2.525   0.104  11.921 -0.1329 -0.0899  0.1553
  814MPD2    C212033   2.631   0.194  11.928 -0.8144 -1.1175 -0.1337
  814MPD2    C312034   2.644   0.274  12.037 -0.2360 -0.9668  0.9547
  814MPD2    C412035   2.551   0.274  12.136 -0.1933  0.7089  0.5552
  814MPD2    C512036   2.440   0.195  12.119 -0.3820 -0.5202  0.5489
  814MPD2     H12037   2.706   0.173  11.852  0.1349  1.0045  0.2244
  814MPD2    H112038   2.558   0.325  12.231 -1.9078  0.8070  0.6266
  814MPD2    H212039   2.348   0.037  12.024  0.5805  0.1744 -1.9975
  814MPD2    H312040   2.368   0.197  12.201 -0.6531 -1.4206  0.3296
  814MPD2     N12041   2.763   0.350  12.061 -0.2038  0.5090  0.0054
  814MPD2    H512042   2.778   0.382  12.156  0.6401 -0.8470  0.3242
  814MPD2    N112043   2.525   0.003  11.827  0.5098  0.1572 -0.4491
  814MPD2    H712044   2.605   4.729  11.766  1.2318 -0.9498  0.6694
  815MPD2     C12045   3.266   1.991  12.055  0.7819  0.0301  0.0174
  815MPD2    C112046   3.190   2.080  11.978  0.1908  0.3282  0.0015
  815MPD2    C212047   3.070   2.103  12.039  0.3545  0.0538 -0.3538
  815MPD2    C312048   3.035   2.061  12.166 -0.2341  0.0786 -0.3647
  815MPD2    C412049   3.114   1.976  12.239  0.2651  0.3282 -0.2443
  815MPD2    C512050   3.230   1.934  12.183  0.0496 -0.3666 -0.9522
  815MPD2     H12051   2.990   2.159  11.991  0.0242  0.1675  0.3145
  815MPD2    H112052   3.088   1.926  12.332 -3.7086 -0.9309 -1.9998
  815MPD2    H212053   3.361   1.957  12.017  0.3227 -0.7676 -0.4297
  815MPD2    H312054   3.297   1.883  12.252  2.3759  1.7534 -1.6665
  815MPD2     N12055   2.903   2.096  12.197  0.2060  0.1994 -0.8701
  815MPD2    H512056   2.853   2.167  12.145  3.9885  1.7036 -2.4361
  815MPD2    N112057   3.229   2.138  11.858 -0.5754 -0.3134 -0.4913
  815MPD2    H712058   3.324   2.121  11.826 -0.2362  1.2550 -0.3369
  816MPD2     C12059   4.117   2.873  17.351  0.0118 -0.5488 -0.5615
  816MPD2    C112060   4.002   2.825  17.285  0.3092 -0.1200 -0.0179
  816MPD2    C212061   4.009   2.736  17.185  0.4948 -0.1708 -0.4441
  816MPD2    C312062   4.131   2.685  17.138  0.4613 -0.2463 -0.2247
  816MPD2    C412063   4.242   2.741  17.190  0.4488  0.1385 -0.2839
  816MPD2    C512064   4.234   2.841  17.290 -0.0950  0.2834 -0.2208
  816MPD2     H12065   3.919   2.690  17.147 -0.0226 -0.4863  1.1705
  816MPD2    H112066   4.343   2.715  17.159 -0.1298 -1.2622 -0.9715
  816MPD2    H212067   4.111   2.953  17.424  0.4689  0.6172 -1.7820
  816MPD2    H312068   4.327   2.888  17.321 -1.0777  2.1124 -0.0381
  816MPD2     N12069   4.132   2.590  17.040 -0.1518 -0.2852  0.0130
  816MPD2    H512070   4.046   2.557  16.996  0.4257 -3.6225  1.4202
  816MPD2    N112071   3.879   2.874  17.336  0.8489 -0.1848  0.3979
  816MPD2    H712072   3.881   2.939  17.414  0.8017 -2.1269  1.9993
  817MPD2     C12073   2.618   4.066   9.728 -0.5850  0.2259  0.3455
  817MPD2    C112074   2.548   3.991   9.631  0.1375 -0.0136 -0.1176
  817MPD2    C212075   2.436   4.049   9.563  0.6563 -0.3580 -0.0768
  817MPD2    C312076   2.404   4.181   9.580  0.1330 -1.0935  0.3863
  817MPD2    C412077   2.480   4.250   9.674 -0.2212  0.2968 -0.0004
  817MPD2    C512078   2.576   4.191   9.751  0.2134  0.5726 -0.0090
  817MPD2     H12079   2.385   3.988   9.489  0.0459 -0.8234  0.7245
  817MPD2    H112080   2.464   4.356   9.693  0.3806  0.2029  1.0490
  817MPD2    H212081   2.706   4.035   9.785 -0.1349  1.0988  0.1347
  817MPD2    H312082   2.646   4.246   9.813  1.6861 -0.9377 -0.3401
  817MPD2     N12083   2.301   4.235   9.504 -0.5549  0.0294 -0.1648
  817MPD2    H512084   2.240   4.160   9.471 -2.0837  0.2754  2.1578
  817MPD2    N112085   2.585   3.857   9.610  0.3704  0.1807  0.1544
  817MPD2    H712086   2.545   3.806   9.532  0.8594  0.0499 -0.0106
  818MPD2     C12087   1.975   3.971  10.126  0.3291  0.5968 -0.4547
  818MPD2    C112088   1.852   3.899  10.153  0.1449 -0.3819  0.4912
  818MPD2    C212089   1.865   3.765  10.197  0.3209  0.2119 -0.2982
  818MPD2    C312090   1.987   3.700  10.190  0.2112  0.3917  0.1123
  818MPD2    C412091   2.103   3.767  10.158  0.2398 -0.2282 -0.2810
  818MPD2    C512092   2.099   3.906  10.140  0.1579  0.1579  0.5861
  818MPD2     H12093   1.775   3.715  10.228  1.2797  0.1232  2.3532
  818MPD2    H112094   2.195   3.714  10.179  0.4932 -0.6324 -2.4347
  818MPD2    H212095   1.980   4.079  10.136  0.5463  0.3642  1.9528
  818MPD2    H312096   2.191   3.963  10.133 -1.0529  1.8782 -1.1035
  818MPD2     N12097   1.994   3.561  10.220 -0.2849 -0.3738 -0.6472
  818MPD2    H512098   2.089   3.526  10.234  0.0737  0.3278 -1.2946
  818MPD2    N112099   1.731   3.964  10.172 -0.0593  0.6773  0.5440
  818MPD2    H712100   1.660   3.902  10.208  0.0168 -0.7433 -1.7234
  819MPD2     C12101   4.682   1.056  15.779  0.5473 -0.4653  0.0382
  819MPD2    C112102   4.711   0.926  15.783 -0.2696 -0.2974  0.3641
  819MPD2    C212103   0.106   0.882  15.793 -0.8926  0.3510 -0.0825
  819MPD2    C312104   0.207   0.971  15.812  0.4018  1.0304 -0.3837
  819MPD2    C412105   0.170   1.104  15.829  0.3436  0.4511 -0.4885
  819MPD2    C512106   0.046   1.151  15.803  0.7502 -0.5323  0.2451
  819MPD2     H12107   0.137   0.778  15.796  0.9206  0.8813 -0.0982
  819MPD2    H112108   0.245   1.180  15.842  1.7040 -0.4573 -2.9804
  819MPD2    H212109   4.584   1.092  15.748  0.3343  0.0519  1.2942
  819MPD2    H312110   0.029   1.258  15.802 -1.2364 -0.8454 -0.5467
  819MPD2     N12111   0.338   0.921  15.801 -0.2833 -0.3988  0.3067
  819MPD2    H512112   0.344   0.821  15.786  0.0554 -0.1682 -1.0517
  819MPD2    N112113   4.600   0.831  15.781  0.5880 -0.4446 -0.1805
  819MPD2    H712114   4.509   0.875  15.775  0.5900 -0.1542  1.9717
  820MPD2     C12115   3.770   0.637  15.344  0.0352  0.0750  0.5863
  820MPD2    C112116   3.851   0.743  15.384 -0.5349 -0.2064 -0.2308
  820MPD2    C212117   3.940   0.727  15.489  0.5772  0.5690  0.1359
  820MPD2    C312118   3.971   0.606  15.543 -1.2285  0.0480 -0.0819
  820MPD2    C412119   3.898   0.501  15.493 -0.2226 -0.3267 -0.4413
  820MPD2    C512120   3.799   0.512  15.397 -0.1026  0.5990  0.6053
  820MPD2     H12121   4.008   0.806  15.518  1.0873  0.4780 -0.8063
  820MPD2    H112122   3.924   0.402  15.530 -0.8299 -0.8219 -1.3444
  820MPD2    H212123   3.698   0.647  15.264 -0.6817 -1.8692  0.9726
  820MPD2    H312124   3.734   0.429  15.374  1.8584 -0.0004 -2.7781
  820MPD2     N12125   4.065   0.580  15.637  0.2459  0.1303 -0.6629
  820MPD2    H512126   4.080   0.482  15.659  2.3013  0.6247  0.0985
  820MPD2    N112127   3.820   0.868  15.317  0.8303 -0.1206  0.4163
  820MPD2    H712128   3.757   0.868  15.238 -0.3857  0.4006  1.3894
  821MPD2     C12129   4.227   2.582  13.626 -0.3835 -0.1157 -0.1586
  821MPD2    C112130   4.338   2.516  13.667 -0.0267  0.1925 -0.2397
  821MPD2    C212131   4.439   2.500  13.574 -0.2667  0.3367  0.0325
  821MPD2    C312132   4.426   2.542  13.442  1.3152  0.1417 -0.1387
  821MPD2    C412133   4.328   2.628  13.416  0.0183 -0.7448  0.0476
  821MPD2    C512134   4.223   2.647  13.501 -0.1396 -0.0995 -0.1143
  821MPD2     H12135   4.532   2.455  13.606  0.4952  1.1736 -0.9831
  821MPD2    H112136   4.328   2.660  13.312 -1.1751  0.8916  0.5463
  821MPD2    H212137   4.141   2.587  13.692 -1.5021  0.0702 -1.6397
  821MPD2    H312138   4.131   2.695  13.469  1.1149  1.8508 -0.7866
  821MPD2     N12139   4.519   2.515  13.333 -0.7915 -0.2735  0.5699
  821MPD2    H512140   4.516   2.582  13.257  0.7333  0.2204  0.9365
  821MPD2    N112141   4.357   2.463  13.797 -0.1287  0.1872  0.0012
  821MPD2    H712142   4.451   2.432  13.818 -0.8548 -2.7402 -1.0832
  822MPD2     C12143   0.800   2.483  15.684  0.3635  0.7516  0.2305
  822MPD2    C112144   0.763   2.417  15.795 -0.8672  0.1603 -0.4923
  822MPD2    C212145   0.685   2.479  15.889 -0.4516 -0.5452 -0.8099
  822MPD2    C312146   0.633   2.604  15.865 -0.3431 -0.5771  0.2544
  822MPD2    C412147   0.661   2.663  15.746  0.2091 -0.2256  0.2896
  822MPD2    C512148   0.746   2.605  15.653  0.3761 -0.2129  0.2995
  822MPD2     H12149   0.656   2.431  15.982 -0.5089  3.0210  1.0468
  822MPD2    H112150   0.626   2.763  15.722  0.3377 -0.5762 -1.3156
  822MPD2    H212151   0.854   2.441  15.600 -0.2469  0.1611  0.1317
  822MPD2    H312152   0.773   2.655  15.561 -1.1594 -0.9520 -0.5551
  822MPD2     N12153   0.557   2.658  15.974  0.3464  0.2825  0.3988
  822MPD2    H512154   0.552   2.598  16.056 -0.1600 -0.5575 -0.2556
  822MPD2    N112155   0.808   2.285  15.824 -1.0469 -0.4900  0.0618
  822MPD2    H712156   0.764   2.237  15.902  1.1126 -0.0753  1.5142
  823MPD2     C12157   0.354   2.613  16.759 -0.1680  0.4674 -0.0699
  823MPD2    C112158   0.352   2.555  16.634 -0.1565 -0.2885  0.3336
  823MPD2    C212159   0.346   2.420  16.621 -0.4251  0.0543 -0.7518
  823MPD2    C312160   0.348   2.343  16.742  1.0065  0.0869 -0.6695
  823MPD2    C412161   0.345   2.398  16.873  0.5612 -0.4467 -0.4526
  823MPD2    C512162   0.352   2.534  16.875  0.2293 -0.3010 -0.1919
  823MPD2     H12163   0.339   2.363  16.529  0.5017  1.6917 -1.8258
  823MPD2    H112164   0.352   2.335  16.960  0.1333 -0.9380 -0.7764
  823MPD2    H212165   0.379   2.718  16.770  1.3148  0.0581  0.4478
  823MPD2    H312166   0.346   2.585  16.971 -3.1508  0.9560 -1.0505
  823MPD2     N12167   0.364   2.200  16.740  0.0442 -0.2123 -0.0104
  823MPD2    H512168   0.362   2.149  16.828 -0.5834  1.1262  0.7330
  823MPD2    N112169   0.373   2.655  16.534 -0.4338 -0.0243 -0.2566
  823MPD2    H712170   0.385   2.752  16.562  0.0005 -0.6606  1.7676
  824MPD2     C12171   1.026   1.512  15.536  0.0114  0.1263  0.4600
  824MPD2    C112172   1.090   1.632  15.556  0.3521  0.1918 -0.4550
  824MPD2    C212173   1.217   1.661  15.506 -1.0098  0.1537 -0.1294
  824MPD2    C312174   1.284   1.566  15.435 -0.3348  0.4314 -0.4901
  824MPD2    C412175   1.230   1.437  15.432  0.0398  0.1134  0.4925
  824MPD2    C512176   1.102   1.415  15.478 -0.2980  0.2991 -0.3809
  824MPD2     H12177   1.263   1.757  15.527 -2.3708  0.4782  1.4320
  824MPD2    H112178   1.286   1.353  15.393  0.2622  0.4893  0.0006
  824MPD2    H212179   0.926   1.493  15.574  0.0975  2.0018  1.6495
  824MPD2    H312180   1.053   1.319  15.470 -1.4469  0.7886  0.8492
  824MPD2     N12181   1.406   1.598  15.374 -0.0013 -0.3022  0.4101
  824MPD2    H512182   1.441   1.691  15.395  0.3404 -0.8444  2.1959
  824MPD2    N112183   1.027   1.737  15.628 -0.2012  0.1522 -0.4071
  824MPD2    H712184   1.075   1.827  15.629  1.3975 -0.7046  0.6054
  825MPD2     C12185   2.019   1.978  14.875 -0.2625 -0.0112 -0.7427
  825MPD2    C112186   1.924   1.978  14.967 -0.1214  0.2585 -1.0021
  825MPD2    C212187   1.872   2.101  15.003 -0.7329 -0.1432  0.4454
  825MPD2    C312188   1.916   2.226  14.971  0.0622  0.1232  0.2685
  825MPD2    C412189   2.023   2.228  14.881  0.8496  0.1305 -0.2411
  825MPD2    C512190   2.069   2.104  14.835 -0.8217 -0.3119  0.6678
  825MPD2     H12191   1.784   2.095  15.066 -0.7659 -0.2061  0.3932
  825MPD2    H112192   2.077   2.319  14.858  2.3694 -1.0100 -1.1372
  825MPD2    H212193   2.058   1.883  14.839 -0.5028 -0.1336 -0.6796
  825MPD2    H312194   2.152   2.107  14.765 -0.8748  2.7291  0.7128
  825MPD2     N12195   1.856   2.343  15.020 -0.5576 -0.2136  0.6290
  825MPD2    H512196   1.874   2.432  14.974 -1.0875 -0.2431  0.3676
  825MPD2    N112197   1.866   1.854  15.001  0.2769  0.0100 -0.3212
  825MPD2    H712198   1.924   1.771  14.988  2.2146  1.2818  0.2289
  826MPD2     C12199   0.755   0.948  13.397 -0.3723 -0.0563 -0.3186
  826MPD2    C112200   0.853   1.036  13.354 -0.6322  0.2084 -0.2770
  826MPD2    C212201   0.824   1.176  13.370  0.5796  0.1748 -0.6403
  826MPD2    C312202   0.704   1.222  13.420  0.1888 -0.3133  0.3943
  826MPD2    C412203   0.619   1.132  13.483 -0.2745  0.4613  0.4290
  826MPD2    C512204   0.649   0.994  13.467  0.3527 -0.2585 -0.4151
  826MPD2     H12205   0.896   1.252  13.342 -0.9683  0.8051 -2.8737
  826MPD2    H112206   0.528   1.156  13.536  1.2097  1.2794  2.5663
  826MPD2    H212207   0.764   0.843  13.374  0.9617 -0.1492  0.6448
  826MPD2    H312208   0.583   0.920  13.512 -0.1838  0.3707 -0.1630
  826MPD2     N12209   0.684   1.361  13.435  0.1654  0.6849 -0.0256
  826MPD2    H512210   0.621   1.393  13.509 -0.4609  1.7519 -1.0304
  826MPD2    N112211   0.976   0.990  13.320 -0.6316  0.0883 -0.0702
  826MPD2    H712212   0.998   0.891  13.324  2.3437  0.8018  0.7082
  827MPD2     C12213   2.335   2.733  10.051 -0.3090 -0.7178 -0.4554
  827MPD2    C112214   2.347   2.608  10.102  0.4370 -0.0121  0.1088
  827MPD2    C212215   2.339   2.498  10.014  0.9784  0.1265  0.1730
  827MPD2    C312216   2.336   2.518   9.872  0.4685 -0.0781  0.0441
  827MPD2    C412217   2.298   2.647   9.830 -0.3933 -0.4148  0.0917
  827MPD2    C512218   2.311   2.753   9.913  0.2082 -0.3653 -0.2768
  827MPD2     H12219   2.349   2.399  10.057  0.2375 -0.5312 -1.1924
  827MPD2    H112220   2.285   2.677   9.726 -0.0676 -0.4752  0.0349
  827MPD2    H212221   2.337   2.823  10.112 -1.2918  0.4289 -2.0901
  827MPD2    H312222   2.294   2.855   9.882 -3.6353 -1.0954 -0.6220
  827MPD2     N12223   2.344   2.412   9.782  0.0950 -0.1478 -0.1350
  827MPD2    H512224   2.329   2.318   9.819  0.7855 -0.2552 -0.1269
  827MPD2    N112225   2.369   2.595  10.244  0.5564 -0.7389  0.5174
  827MPD2    H712226   2.392   2.680  10.293  1.5897 -2.1480  2.4972
  828MPD2     C12227   0.073   2.900  12.493  0.0494 -0.8763  0.4065
  828MPD2    C112228   0.110   2.853  12.366 -0.0957 -0.2644 -0.2319
  828MPD2    C212229   0.242   2.824  12.343 -0.3536  0.2521  0.4545
  828MPD2    C312230   0.342   2.840  12.437 -0.5508 -0.2255  0.5214
  828MPD2    C412231   0.310   2.897  12.552 -0.1707 -0.5740  0.9427
  828MPD2    C512232   0.176   2.923  12.583 -0.6996  0.0794  0.4861
  828MPD2     H12233   0.272   2.782  12.247 -1.5169 -0.9546  0.6147
  828MPD2    H112234   0.381   2.914  12.633 -1.3644 -0.1685  1.9125
  828MPD2    H212235   4.708   2.928  12.520 -0.8670 -1.0713 -2.7748
  828MPD2    H312236   0.156   2.950  12.686 -0.1722  0.5165  0.4748
  828MPD2     N12237   0.473   2.800  12.420 -1.0736  0.0171 -0.5280
  828MPD2    H512238   0.541   2.832  12.489 -0.7222 -0.0288 -0.8490
  828MPD2    N112239   0.018   2.818  12.266 -0.8338 -0.1572  0.3758
  828MPD2    H712240   0.048   2.787  12.174 -0.8860  2.2802 -0.4768
  829MPD2     C12241   4.648   2.738  11.298 -0.7224  0.6995 -0.7962
  829MPD2    C112242   4.710   2.820  11.388 -0.3803 -0.5631  0.5321
  829MPD2    C212243   4.681   2.833  11.517 -0.3756  0.1037 -0.5177
  829MPD2    C312244   4.591   2.748  11.570 -0.4068 -0.5861  0.6737
  829MPD2    C412245   4.523   2.660  11.486  0.5635  0.0450 -0.0690
  829MPD2    C512246   4.551   2.661  11.348  0.0354  0.5392 -0.0809
  829MPD2     H12247   4.721   2.912  11.580 -0.8918  0.0994 -0.1833
  829MPD2    H112248   4.436   2.604  11.519  1.4491 -1.8975 -0.9989
  829MPD2    H212249   4.663   2.739  11.191  1.3759 -0.1289 -0.5175
  829MPD2    H312250   4.494   2.596  11.283  0.6297 -1.3597  1.2949
  829MPD2     N12251   4.547   2.752  11.700  0.8118 -0.3993  0.8812
  829MPD2    H512252   4.478   2.682  11.723 -0.2209  0.1888 -0.4568
  829MPD2    N112253   0.072   2.916  11.333  0.0471 -0.1499 -0.4792
  829MPD2    H712254   0.112   2.980  11.401  1.1808  0.5474 -1.8073
  830MPD2     C12255   1.223   0.825  15.520  0.7740  0.3450 -0.3401
  830MPD2    C112256   1.110   0.906  15.516  0.1708  0.1384 -0.0745
  830MPD2    C212257   1.103   1.006  15.421  0.0206  0.2711 -0.7467
  830MPD2    C312258   1.200   1.014  15.321  0.3241 -0.0895 -0.4771
  830MPD2    C412259   1.321   0.943  15.333 -0.2493 -0.3600  0.6268
  830MPD2    C512260   1.326   0.842  15.429  0.0682 -0.8414 -0.3540
  830MPD2     H12261   1.023   1.079  15.419  0.2197  0.4809 -1.0073
  830MPD2    H112262   1.393   0.959  15.253 -1.1325 -1.3177 -0.3568
  830MPD2    H212263   1.224   0.741  15.588  2.2027  0.6028 -0.0550
  830MPD2    H312264   1.413   0.778  15.440 -0.1379 -0.8794  1.0800
  830MPD2     N12265   1.188   1.106  15.213  0.6211  0.1149  0.2693
  830MPD2    H512266   1.269   1.129  15.157  1.7158  0.3334  1.9472
  830MPD2    N112267   1.004   0.881  15.604 -0.3235  0.4612  0.0916
  830MPD2    H712268   1.017   0.805  15.669  2.0292  0.0616 -0.8383
  831MPD2     C12269   0.790   2.591  16.358 -0.0328  0.0748  0.5075
  831MPD2    C112270   0.824   2.512  16.248  0.2322 -0.4956 -0.3507
  831MPD2    C212271   0.754   2.400  16.210  0.6037 -0.0683 -0.0911
  831MPD2    C312272   0.643   2.364  16.292  0.0478 -0.0538 -0.1174
  831MPD2    C412273   0.636   2.424  16.417 -0.0251 -0.2348 -0.5412
  831MPD2    C512274   0.702   2.542  16.447  0.9231 -0.0349 -0.3567
  831MPD2     H12275   0.782   2.344  16.121 -1.3399 -0.8913 -0.1889
  831MPD2    H112276   0.558   2.399  16.488  1.8396 -3.3868  0.4211
  831MPD2    H212277   0.849   2.675  16.394  0.3580  0.6505 -1.4911
  831MPD2    H312278   0.682   2.599  16.537  0.9574  3.6664 -2.7273
  831MPD2     N12279   0.557   2.255  16.251  0.4498  0.2585 -0.1331
  831MPD2    H512280   0.486   2.241  16.323  0.9120  0.7296  0.4094
  831MPD2    N112281   0.926   2.562  16.166 -0.2976  0.3102  0.1689
  831MPD2    H712282   0.950   2.660  16.169 -0.9884  0.4067  2.4658
  832MPD2     C12283   3.699   3.623  17.450  0.1489  0.1064 -0.6353
  832MPD2    C112284   3.691   3.748  17.389 -0.1880  0.0108 -0.0808
  832MPD2    C212285   3.571   3.793  17.339  0.8181 -0.2773  0.5000
  832MPD2    C312286   3.450   3.729  17.375  0.0745  0.1072 -0.1483
  832MPD2    C412287   3.461   3.607  17.432  0.5278  0.2294 -0.1511
  832MPD2    C512288   3.582   3.562  17.473  0.6016  0.3686 -0.3186
  832MPD2     H12289   3.563   3.896  17.307  0.1761 -0.2072  0.8788
  832MPD2    H112290   3.376   3.547  17.464 -0.5356  1.6123 -0.3520
  832MPD2    H212291   3.793   3.576  17.472 -0.6816 -2.6379 -2.9667
  832MPD2    H312292   3.577   3.475  17.537 -2.0858  0.2863 -0.6483
  832MPD2     N12293   3.319   3.776  17.348 -0.5976  0.1546  0.4251
  832MPD2    H512294   3.252   3.700  17.360  0.3152 -0.8964 -1.0818
  832MPD2    N112295   3.815   3.798  17.351 -0.1732 -0.1386  0.2630
  832MPD2    H712296   3.898   3.749  17.386 -0.8675 -0.6898  1.1407
  833MPD2     C12297   0.814   0.108  12.654 -0.3534  0.3851  0.0835
  833MPD2    C112298   0.868   0.233  12.635  0.1965  0.1563 -0.1306
  833MPD2    C212299   0.990   0.252  12.586 -0.4182 -0.1624  0.4426
  833MPD2    C312300   1.060   0.137  12.552  0.2926  0.2013 -0.0315
  833MPD2    C412301   1.010   0.011  12.568 -0.3900 -0.3526 -0.0934
  833MPD2    C512302   0.881   4.731  12.613  0.1822  0.8955 -0.8762
  833MPD2     H12303   1.019   0.350  12.551 -0.0526 -0.4592 -0.0789
  833MPD2    H112304   1.060   4.657  12.532  2.3723  1.8660 -1.6852
  833MPD2    H212305   0.709   0.103  12.681 -0.6931  2.4534 -0.8689
  833MPD2    H312306   0.843   4.630  12.630 -0.4002  1.1019 -0.9411
  833MPD2     N12307   1.175   0.142  12.476  0.8754  0.1741  0.2566
  833MPD2    H512308   1.195   0.059  12.422 -0.9495 -0.7262  0.9806
  833MPD2    N112309   0.790   0.344  12.667 -0.2921 -0.3378 -0.7273
  833MPD2    H712310   0.693   0.317  12.682 -0.2670  0.6223  1.1216
  834MPD2     C12311   1.481   4.235  11.872  0.4709  0.8804 -0.3155
  834MPD2    C112312   1.378   4.309  11.809  0.6914  0.3561  0.1645
  834MPD2    C212313   1.347   4.436  11.844  0.0094  0.2614  0.5445
  834MPD2    C312314   1.406   4.489  11.959 -0.1089  0.6523 -0.0127
  834MPD2    C412315   1.511   4.419  12.011  0.7780  0.2292 -0.1021
  834MPD2    C512316   1.551   4.291  11.971  0.4144  0.9032  0.2975
  834MPD2     H12317   1.264   4.479  11.791  0.6358  0.7904 -0.0002
  834MPD2    H112318   1.563   4.451  12.101 -0.0813 -0.4467  0.6378
  834MPD2    H212319   1.504   4.137  11.830  0.0369 -0.2700  2.1393
  834MPD2    H312320   1.629   4.241  12.027 -1.3528 -1.8844  0.2699
  834MPD2     N12321   1.358   4.611  12.011  0.0999  0.6596  0.2021
  834MPD2    H512322   1.274   4.651  11.970 -1.2197 -2.7723 -0.4056
  834MPD2    N112323   1.308   4.248  11.701  0.5317  0.0053 -0.1038
  834MPD2    H712324   1.310   4.147  11.698 -0.2979  0.0329 -2.2690
  835MPD2     C12325   1.625   2.872  11.309  0.0070 -0.2693 -0.2275
  835MPD2    C112326   1.488   2.884  11.330 -0.3174  0.2640  0.3520
  835MPD2    C212327   1.434   2.871  11.455 -0.5266  0.0848  0.3809
  835MPD2    C312328   1.512   2.846  11.560 -0.4101  0.1498 -0.4646
  835MPD2    C412329   1.646   2.836  11.543  0.1023 -0.1439 -0.3282
  835MPD2    C512330   1.699   2.844  11.417 -0.0016 -0.8684  0.6591
  835MPD2     H12331   1.333   2.899  11.482  0.2751  1.1043  2.3121
  835MPD2    H112332   1.706   2.827  11.633  0.7993  0.9919 -0.6790
  835MPD2    H212333   1.672   2.888  11.212 -2.0923 -1.0042 -1.3770
  835MPD2    H312334   1.803   2.818  11.398  0.3044 -0.0092  1.1604
  835MPD2     N12335   1.462   2.840  11.685 -0.5142 -0.0110  0.1587
  835MPD2    H512336   1.534   2.830  11.757  1.0968  0.1324 -1.4413
  835MPD2    N112337   1.385   2.897  11.225  0.3659  0.0791  0.4523
  835MPD2    H712338   1.286   2.895  11.246 -0.0291  2.6267 -1.1356
  836MPD2     C12339   0.749   2.980  11.990 -0.3779 -0.6432 -0.8830
  836MPD2    C112340   0.840   2.985  12.088 -0.2530 -0.0408  0.4489
  836MPD2    C212341   0.799   3.038  12.205  0.0531 -0.2746 -0.1698
  836MPD2    C312342   0.676   3.085  12.218 -0.4046 -0.0517  0.0502
  836MPD2    C412343   0.584   3.082  12.112 -0.2300  0.0169  0.2313
  836MPD2    C512344   0.619   3.020  11.998 -0.4426 -0.2111  0.1252
  836MPD2     H12345   0.871   3.064  12.282  1.2194 -3.2351 -0.2865
  836MPD2    H112346   0.479   3.100  12.136  0.1829  1.9347  0.6290
  836MPD2    H212347   0.776   2.937  11.895  0.0115  0.9973 -1.5165
  836MPD2    H312348   0.540   3.009  11.924 -0.6517  1.2168  0.1330
  836MPD2     N12349   0.622   3.144  12.334 -0.5765 -0.1679  0.2364
  836MPD2    H512350   0.528   3.182  12.324  0.0580  0.5082 -3.1348
  836MPD2    N112351   0.969   2.931  12.055  0.1038  0.6793  0.0388
  836MPD2    H712352   0.979   2.885  11.965  0.7907 -0.4047  0.6658
  837MPD2     C12353   4.269   1.783  10.034 -0.3199 -0.1896  0.2710
  837MPD2    C112354   4.215   1.886   9.963  0.4918  0.4115  0.1253
  837MPD2    C212355   4.222   2.013  10.012 -0.0799  0.1690  0.2041
  837MPD2    C312356   4.303   2.043  10.118  0.3316  1.0478 -0.4985
  837MPD2    C412357   4.367   1.944  10.186 -0.4187  0.2201 -0.5872
  837MPD2    C512358   4.348   1.811  10.146  0.5353 -0.2617 -0.0275
  837MPD2     H12359   4.160   2.088   9.965  0.3529  0.9031  0.8045
  837MPD2    H112360   4.434   1.957  10.269 -0.0942 -2.3421 -0.4463
  837MPD2    H212361   4.248   1.680  10.007 -1.9738  0.3463 -0.5230
  837MPD2    H312362   4.399   1.725  10.189  0.5522  0.8198  2.1094
  837MPD2     N12363   4.312   2.179  10.153 -0.2799 -0.3821  0.1862
  837MPD2    H512364   4.258   2.241  10.094  1.7988 -2.0524 -3.4489
  837MPD2    N112365   4.131   1.864   9.853 -0.0995  0.3922  0.1613
  837MPD2    H712366   4.124   1.950   9.799 -1.6562  0.3668  0.3066
  838MPD2     C12367   2.776   1.006  11.998 -0.3707 -0.8969  0.2332
  838MPD2    C112368   2.733   0.908  11.911  0.2771  0.1208 -0.4219
  838MPD2    C212369   2.652   0.815  11.973  0.0272  0.7759  0.3424
  838MPD2    C312370   2.623   0.807  12.107  0.1209 -0.0477 -0.0342
  838MPD2    C412371   2.683   0.897  12.193  0.2162  0.2823  0.3289
  838MPD2    C512372   2.751   1.001  12.134 -0.2802  0.2707  0.6359
  838MPD2     H12373   2.613   0.736  11.909  0.1676  1.7264 -0.9139
  838MPD2    H112374   2.661   0.895  12.299 -1.9861 -0.6125 -0.1446
  838MPD2    H212375   2.820   1.091  11.948 -3.0871  0.0605 -0.5303
  838MPD2    H312376   2.790   1.077  12.200  0.7600  1.1133 -0.9268
  838MPD2     N12377   2.528   0.709  12.148 -0.3502 -0.6554  0.1345
  838MPD2    H512378   2.478   0.653  12.080 -1.5099 -0.4023  0.7754
  838MPD2    N112379   2.753   0.899  11.772 -0.4194  0.1342 -0.3254
  838MPD2    H712380   2.713   0.818  11.726  0.0014 -0.3741  0.2001
  839MPD2     C12381   2.201   0.444  11.352 -0.2528 -0.3693  0.1444
  839MPD2    C112382   2.322   0.416  11.295  0.2636  0.0729 -0.3387
  839MPD2    C212383   2.427   0.505  11.309 -0.0807 -0.9574 -0.4259
  839MPD2    C312384   2.408   0.627  11.367  0.5755  0.2112  0.0942
  839MPD2    C412385   2.289   0.653  11.424  0.6580  0.4909 -0.3048
  839MPD2    C512386   2.192   0.563  11.409  0.2822  0.0553 -0.3227
  839MPD2     H12387   2.516   0.467  11.259 -0.4395 -0.8896 -1.1071
  839MPD2    H112388   2.265   0.752  11.462 -0.5193  0.6774 -1.5074
  839MPD2    H212389   2.119   0.375  11.363 -0.0448 -0.8000 -1.0060
  839MPD2    H312390   2.098   0.598  11.450  1.9995 -0.0759  3.7274
  839MPD2     N12391   2.512   0.721  11.392 -0.2316 -0.2985  0.6942
  839MPD2    H512392   2.486   0.801  11.448  0.0483  0.6280 -0.5136
  839MPD2    N112393   2.349   0.292  11.240  0.3339  0.0436 -0.2704
  839MPD2    H712394   2.441   0.285  11.197 -0.4539 -0.3221 -1.8613
  840MPD2     C12395   2.735   2.985  10.518  0.2754  0.0412  0.0318
  840MPD2    C112396   2.737   2.879  10.609  0.7016  0.8701 -0.3365
  840MPD2    C212397   2.821   2.884  10.712  0.3728 -0.2607  0.1045
  840MPD2    C312398   2.904   2.993  10.736 -0.1167  0.2973 -0.3528
  840MPD2    C412399   2.903   3.100  10.642 -0.2385  0.3078  0.7916
  840MPD2    C512400   2.828   3.089  10.530 -0.7890 -0.2861 -0.0078
  840MPD2     H12401   2.817   2.809  10.791  2.2323 -0.2410  0.2113
  840MPD2    H112402   2.969   3.183  10.663 -1.5235  1.7543 -0.9585
  840MPD2    H212403   2.676   2.980  10.427  0.6277  0.1436 -0.2073
  840MPD2    H312404   2.819   3.175  10.465 -1.8966 -0.4803 -0.1187
  840MPD2     N12405   2.994   3.001  10.842  0.1862  0.0506 -0.2195
  840MPD2    H512406   3.047   3.087  10.840  0.5949 -0.1349  2.4252
  840MPD2    N112407   2.642   2.773  10.591 -0.2075  0.0888  0.0906
  840MPD2    H712408   2.576   2.788  10.515 -0.9360  0.0476  0.7105
  841MPD2     C12409   1.954   2.770  14.728  0.4102  0.3041  0.2521
  841MPD2    C112410   2.037   2.663  14.719  0.6016  0.3670 -0.2854
  841MPD2    C212411   2.169   2.681  14.752  0.0711 -0.1221 -0.4254
  841MPD2    C312412   2.222   2.802  14.784  0.2138 -0.1750 -0.3362
  841MPD2    C412413   2.138   2.906  14.786  0.3871  0.1125  0.1208
  841MPD2    C512414   2.001   2.891  14.772  0.1506  0.2348 -0.0562
  841MPD2     H12415   2.230   2.592  14.751  0.7480  0.3253  1.1804
  841MPD2    H112416   2.174   3.007  14.794  0.1018  0.2517 -0.3192
  841MPD2    H212417   1.848   2.753  14.720  1.0597 -3.9092  0.6783
  841MPD2    H312418   1.937   2.978  14.777  1.8172  1.5009 -0.7785
  841MPD2     N12419   2.356   2.806  14.824 -0.0915 -0.1089 -0.0942
  841MPD2    H512420   2.411   2.721  14.830  0.4046  0.1856 -0.4477
  841MPD2    N112421   1.999   2.535  14.683  0.0261  1.0857  0.0065
  841MPD2    H712422   2.068   2.464  14.660 -0.6403  0.3673  0.1961
  842MPD2     C12423   2.608   4.086  16.808 -0.1942  0.1392  0.1291
  842MPD2    C112424   2.479   4.071  16.768 -0.3101  0.2622  0.3494
  842MPD2    C212425   2.405   3.959  16.801  0.1382 -0.0220  0.0323
  842MPD2    C312426   2.458   3.870  16.897  0.0743  0.7402 -0.1558
  842MPD2    C412427   2.582   3.901  16.952  0.0197  0.1603 -0.3852
  842MPD2    C512428   2.658   3.995  16.889 -0.8758 -0.7393 -0.4945
  842MPD2     H12429   2.304   3.946  16.766  0.0044  1.2392 -0.0222
  842MPD2    H112430   2.622   3.837  17.030  2.3892  0.6707 -1.1941
  842MPD2    H212431   2.681   4.157  16.771 -0.4204  0.8696  1.1141
  842MPD2    H312432   2.755   4.004  16.937 -0.1998  0.5496 -2.0866
  842MPD2     N12433   2.385   3.757  16.946  0.3446  0.2879 -0.0253
  842MPD2    H512434   2.421   3.699  17.022  0.3731  1.2045  0.6645
  842MPD2    N112435   2.431   4.180  16.687  0.3354 -0.0622 -0.1922
  842MPD2    H712436   2.498   4.254  16.665  1.8809 -0.4862  3.0232
  843MPD2     C12437   0.618   4.467   0.926 -0.4870 -0.1096 -0.6692
  843MPD2    C112438   0.514   4.557   0.912  0.0974  0.5123  0.1774
  843MPD2    C212439   0.550   4.680   0.842 -0.8776  0.1619 -0.8677
  843MPD2    C312440   0.668   4.695   0.779 -0.2480  0.2813  1.0973
  843MPD2    C412441   0.764   4.599   0.795  0.3286 -0.6084  0.4729
  843MPD2    C512442   0.740   4.490   0.877 -0.3380  0.1594 -0.6162
  843MPD2     H12443   0.474   0.021   0.830  1.2689  2.4762  0.2835
  843MPD2    H112444   0.868   4.622   0.773  0.1909  0.6028  1.0710
  843MPD2    H212445   0.603   4.377   0.985  1.7775  1.1796  1.8720
  843MPD2    H312446   0.823   4.420   0.886  0.6526  1.8199  3.1851
  843MPD2     N12447   0.717   0.069   0.702  0.2571  0.5985  0.1763
  843MPD2    H512448   0.810   0.070   0.662  1.6449 -0.2682  3.3685
  843MPD2    N112449   0.388   4.516   0.950  0.2118 -0.2804 -0.2473
  843MPD2    H712450   0.377   4.417   0.967 -2.0273  0.1407  0.8612
  844MPD2     C12451   3.214   3.061  16.744  0.2824 -0.1612  0.1627
  844MPD2    C112452   3.248   3.160  16.651 -0.1803  0.2351 -0.2786
  844MPD2    C212453   3.271   3.288  16.705  0.2447 -0.0548 -0.3327
  844MPD2    C312454   3.252   3.319  16.840  0.7027  0.0818  0.8411
  844MPD2    C412455   3.214   3.216  16.924  0.5866  0.1755  0.1953
  844MPD2    C512456   3.197   3.088  16.876 -0.4215 -0.1945 -0.9603
  844MPD2     H12457   3.300   3.377  16.652  0.1912  0.5101  0.5822
  844MPD2    H112458   3.204   3.230  17.031 -2.0901 -1.0268  0.1049
  844MPD2    H212459   3.202   2.956  16.717 -2.5259  0.7085 -1.9207
  844MPD2    H312460   3.177   3.015  16.954  1.0802  0.8455  0.4206
  844MPD2     N12461   3.295   3.452  16.876  0.5571  0.3858 -0.8924
  844MPD2    H512462   3.304   3.520  16.801  1.4373  1.7415  0.4366
  844MPD2    N112463   3.278   3.134  16.516  0.4733  0.3868  0.1748
  844MPD2    H712464   3.315   3.219  16.474  0.7570  1.6714  3.0227
  845MPD2     C12465   3.632   4.430  16.908  0.3832 -0.2085  0.5651
  845MPD2    C112466   3.687   4.366  17.016  0.4605 -0.4048  0.8648
  845MPD2    C212467   3.651   4.235  17.042 -0.3372  0.2244  0.2343
  845MPD2    C312468   3.572   4.169  16.956  0.0374  0.8889  0.0009
  845MPD2    C412469   3.516   4.232  16.849  0.3410 -0.3091  0.0176
  845MPD2    C512470   3.551   4.361  16.826 -0.4952 -0.0476  0.0588
  845MPD2     H12471   3.674   4.190  17.138  0.6700 -2.2826 -1.1935
  845MPD2    H112472   3.439   4.185  16.788  0.9233 -0.9797 -0.1972
  845MPD2    H212473   3.647   4.533  16.879 -2.0265 -0.6173 -2.1371
  845MPD2    H312474   3.499   4.411  16.746  0.9352  0.4136 -0.5740
  845MPD2     N12475   3.548   4.035  16.975  0.2214  0.3434  0.0849
  845MPD2    H512476   3.607   3.998  17.048  1.6283  0.0175 -1.2153
  845MPD2    N112477   3.774   4.449  17.097 -0.2597 -0.5949  0.3553
  845MPD2    H712478   3.779   4.548  17.072  2.6749 -0.4167  1.6658
  846MPD2     C12479   0.452   4.542  14.040  0.1619  1.0255  0.2118
  846MPD2    C112480   0.388   4.656  14.064  0.6980  0.5704 -0.0322
  846MPD2    C212481   0.347   4.686  14.192  0.1653 -0.2437 -0.3450
  846MPD2    C312482   0.395   4.613  14.301  0.8003  0.0128  1.0877
  846MPD2    C412483   0.476   4.502  14.279  0.0049  0.2282 -0.1424
  846MPD2    C512484   0.505   4.469  14.145 -0.5048  0.0028  0.1852
  846MPD2     H12485   0.283   0.036  14.214 -0.2402 -0.8628  0.8849
  846MPD2    H112486   0.511   4.434  14.356 -1.7302 -0.6131 -0.0914
  846MPD2    H212487   0.476   4.509  13.939  0.1121  1.4113  0.0766
  846MPD2    H312488   0.556   4.374  14.131  0.7437  0.8589 -1.0764
  846MPD2     N12489   0.353   4.660  14.431 -0.1550 -0.3906 -0.3994
  846MPD2    H512490   0.290   0.005  14.429  1.4100  0.8407 -0.5299
  846MPD2    N112491   0.337   0.001  13.954  0.3002 -0.9217  0.3590
  846MPD2    H712492   0.300   0.091  13.982 -0.3419 -0.9022 -0.5228
  847MPD2     C12493   0.827   1.116  13.778  0.0236 -0.5176  0.2232
  847MPD2    C112494   0.904   1.158  13.881  0.3979  0.5412 -0.5228
  847MPD2    C212495   0.963   1.079  13.979  0.1359 -0.6570  0.3047
  847MPD2    C312496   0.909   0.948  13.987 -0.0114 -0.1757  0.3856
  847MPD2    C412497   0.834   0.901  13.880  0.0270  0.5967  0.1849
  847MPD2    C512498   0.794   0.980  13.783  0.3277 -0.6957  0.5435
  847MPD2     H12499   1.021   1.118  14.062  0.5908 -0.7889  0.0550
  847MPD2    H112500   0.793   0.801  13.890 -0.9609  1.2675  3.0104
  847MPD2    H212501   0.773   1.180  13.710  1.2166 -1.3938 -1.5701
  847MPD2    H312502   0.729   0.933  13.711 -0.2479  1.2960 -0.2332
  847MPD2     N12503   0.930   0.883  14.107 -0.2690  0.0771 -0.2975
  847MPD2    H512504   0.972   0.937  14.182  0.5624 -0.3466 -0.4667
  847MPD2    N112505   0.926   1.297  13.908 -0.2545 -0.1676  0.3382
  847MPD2    H712506   0.995   1.316  13.980  0.5714  1.0252 -0.7982
  848MPD2     C12507   2.963   3.928  16.642  0.6132 -0.4576  0.0453
  848MPD2    C112508   3.041   3.995  16.735  0.4946 -0.2691 -0.4711
  848MPD2    C212509   3.111   4.105  16.695  0.3346  0.0736 -0.1995
  848MPD2    C312510   3.099   4.166  16.572  0.0582  0.6504  0.2799
  848MPD2    C412511   3.028   4.090  16.477  0.2930  0.0138 -0.2531
  848MPD2    C512512   2.963   3.976  16.511  0.1690 -0.1292 -0.2236
  848MPD2     H12513   3.185   4.156  16.755 -2.3216  1.6465  1.7664
  848MPD2    H112514   3.007   4.130  16.378  2.1965 -1.3396 -1.2128
  848MPD2    H212515   2.910   3.838  16.671  2.2444 -0.9598  1.4431
  848MPD2    H312516   2.911   3.919  16.436 -1.0521 -0.0858  0.5837
  848MPD2     N12517   3.157   4.284  16.525  0.6239 -0.5860 -0.3252
  848MPD2    H512518   3.158   4.297  16.425 -0.1634 -0.4288 -0.3157
  848MPD2    N112519   3.053   3.970  16.869  0.2109  0.0709  0.3414
  848MPD2    H712520   3.128   4.021  16.916  0.0131 -1.0436  1.8837
  849MPD2     C12521   2.344   3.927  14.544 -0.0749  0.3959 -0.1099
  849MPD2    C112522   2.470   3.874  14.533  0.0003 -0.6616  0.4243
  849MPD2    C212523   2.536   3.825  14.651 -0.1319  0.0253  0.7896
  849MPD2    C312524   2.478   3.830  14.778  0.1631  0.2187  0.1431
  849MPD2    C412525   2.356   3.889  14.782 -0.2966 -0.0900  0.6899
  849MPD2    C512526   2.288   3.932  14.676 -0.0269  1.1015  0.3910
  849MPD2     H12527   2.636   3.784  14.640  0.1512  0.7981  0.4746
  849MPD2    H112528   2.308   3.900  14.879  1.3026  3.4481  1.0873
  849MPD2    H212529   2.279   3.961  14.464  2.0663  1.7042 -1.2907
  849MPD2    H312530   2.196   3.988  14.690 -1.3939 -1.0915  0.1342
  849MPD2     N12531   2.536   3.777  14.899 -0.0633 -0.2577  0.7017
  849MPD2    H512532   2.503   3.808  14.990 -2.1175 -1.6676  0.4191
  849MPD2    N112533   2.530   3.868  14.406 -0.4895 -0.4746 -0.7385
  849MPD2    H712534   2.472   3.884  14.325 -1.4807 -1.8577 -0.2808
  850MPD2     C12535   0.591   1.756  15.034 -0.1767 -0.6450 -0.1662
  850MPD2    C112536   0.571   1.893  15.060  0.6061  0.1569  0.0564
  850MPD2    C212537   0.676   1.982  15.030  0.0856  0.2855  0.0763
  850MPD2    C312538   0.794   1.934  14.974 -0.7113 -0.9710 -0.4063
  850MPD2    C412539   0.808   1.802  14.948 -0.5860 -0.1666  0.6024
  850MPD2    C512540   0.709   1.715  14.981  0.7443 -0.3597 -0.4031
  850MPD2     H12541   0.656   2.086  15.051 -0.0766  0.6129 -1.6873
  850MPD2    H112542   0.900   1.754  14.918 -1.4150 -0.2294 -1.7949
  850MPD2    H212543   0.515   1.682  15.056  0.5810 -0.9591  1.3580
  850MPD2    H312544   0.728   1.608  14.975 -1.1902 -0.7613  0.7524
  850MPD2     N12545   0.905   2.014  14.944 -0.0452 -0.4819  0.2457
  850MPD2    H512546   0.980   1.972  14.890  1.1035  0.6035  0.9892
  850MPD2    N112547   0.442   1.927  15.109 -0.3179 -0.2474 -0.3811
  850MPD2    H712548   0.376   1.852  15.089  0.2390 -1.1267  1.0626
  851MPD2     C12549   1.184   2.059  15.242  0.4980  0.1299  0.3458
  851MPD2    C112550   1.066   1.987  15.267 -0.2019  0.0087  0.1222
  851MPD2    C212551   1.057   1.858  15.215 -0.4360  0.0476  0.8986
  851MPD2    C312552   1.159   1.801  15.143  0.2024  0.0960 -0.3466
  851MPD2    C412553   1.273   1.880  15.123 -0.6064  0.0551  0.5651
  851MPD2    C512554   1.281   2.006  15.165  0.3456  0.6947 -0.3131
  851MPD2     H12555   0.962   1.806  15.219 -0.9677  0.8512 -1.6999
  851MPD2    H112556   1.358   1.838  15.070 -0.0299  0.1840  1.3896
  851MPD2    H212557   1.204   2.163  15.265  2.7157 -0.0243 -0.8230
  851MPD2    H312558   1.370   2.067  15.153  0.0476  1.1794 -0.0884
  851MPD2     N12559   1.141   1.669  15.105 -0.3367 -0.0377 -0.0469
  851MPD2    H512560   1.045   1.638  15.116 -0.5522  0.2013 -1.3213
  851MPD2    N112561   0.946   2.049  15.323 -0.0532  0.0048 -0.2388
  851MPD2    H712562   0.949   2.150  15.329  0.8862 -0.0206 -0.2361
  852MPD2     C12563   1.042   3.620  10.209 -0.4929  0.1738 -0.0859
  852MPD2    C112564   0.990   3.688  10.314 -0.6637  0.5314  0.5618
  852MPD2    C212565   0.995   3.821  10.327 -0.1124  0.2642 -0.3412
  852MPD2    C312566   1.066   3.892  10.223 -0.6011  0.3211 -0.1252
  852MPD2    C412567   1.121   3.829  10.114  0.3927 -0.1799 -0.5371
  852MPD2    C512568   1.103   3.696  10.108  0.7214 -0.6357 -0.0707
  852MPD2     H12569   0.957   3.879  10.411 -0.7338 -0.0090 -0.4356
  852MPD2    H112570   1.177   3.875  10.034 -1.6111 -0.3586 -2.0332
  852MPD2    H212571   1.022   3.515  10.191 -2.8898  0.6502 -0.2210
  852MPD2    H312572   1.144   3.644  10.023 -0.0894 -0.4377 -0.5878
  852MPD2     N12573   1.055   4.028  10.242 -0.0521 -0.2737  0.6828
  852MPD2    H512574   0.991   4.047  10.318  1.2128  0.8912  1.4522
  852MPD2    N112575   0.932   3.630  10.428 -0.0087 -0.0125  0.3567
  852MPD2    H712576   0.899   3.692  10.501 -1.7945  0.1300 -0.5940
  853MPD2     C12577   2.375   4.088  12.549  0.1146  0.5933  0.0484
  853MPD2    C112578   2.260   4.124  12.485 -0.6004  0.1185  0.0721
  853MPD2    C212579   2.227   4.076  12.357 -0.0722  0.2926 -0.1801
  853MPD2    C312580   2.303   3.973  12.303 -0.8064 -0.1344  0.3408
  853MPD2    C412581   2.420   3.937  12.366  0.3009 -0.2591  0.0834
  853MPD2    C512582   2.462   4.006  12.483 -0.3395 -0.6883  0.8546
  853MPD2     H12583   2.136   4.109  12.307 -0.1763  0.1608 -0.0791
  853MPD2    H112584   2.483   3.861  12.323 -1.9241 -0.9046 -2.0824
  853MPD2    H212585   2.395   4.116  12.651  4.3392  0.1787 -0.6668
  853MPD2    H312586   2.551   3.978  12.539 -0.0886  2.5811  2.1383
  853MPD2     N12587   2.268   3.901  12.186  0.5731  0.3762  0.4786
  853MPD2    H512588   2.351   3.854  12.151  0.2535  0.3205 -0.1957
  853MPD2    N112589   2.175   4.201  12.567  0.0057 -0.7655  0.7320
  853MPD2    H712590   2.201   4.218  12.664 -1.8038  0.9306  0.9364
  854MPD2     C12591   3.510   4.273  12.915 -0.3765 -0.0763 -0.2228
  854MPD2    C112592   3.640   4.317  12.912  0.2760 -0.3562 -0.3208
  854MPD2    C212593   3.737   4.247  12.985  0.4071  0.2224  0.0050
  854MPD2    C312594   3.698   4.128  13.049 -0.5682 -0.4318 -0.5492
  854MPD2    C412595   3.568   4.097  13.053 -0.3513  0.4162  0.4727
  854MPD2    C512596   3.473   4.166  12.991  0.8198 -0.1523  0.0647
  854MPD2     H12597   3.843   4.266  12.973  0.7771 -1.0602  1.2410
  854MPD2    H112598   3.529   4.012  13.109 -1.3600  0.5904  0.0344
  854MPD2    H212599   3.432   4.325  12.860 -1.0411 -0.6354  0.1843
  854MPD2    H312600   3.368   4.139  12.992  0.6387  0.5077 -0.9232
  854MPD2     N12601   3.781   4.038  13.121 -0.7903  0.3392  0.1213
  854MPD2    H512602   3.742   3.949  13.151 -0.8803 -0.4292 -2.2633
  854MPD2    N112603   3.666   4.443  12.853 -0.1677  0.6053  0.1151
  854MPD2    H712604   3.590   4.490  12.805 -0.3135  0.5005  0.2429
  855MPD2     C12605   4.474   4.009  13.874  0.3055  0.1349 -0.2164
  855MPD2    C112606   4.385   3.902  13.862 -0.4130 -0.2217  0.0829
  855MPD2    C212607   4.314   3.893  13.747 -0.4632  0.0111  0.2596
  855MPD2    C312608   4.332   3.969  13.635 -0.6781  0.4236  0.6138
  855MPD2    C412609   4.432   4.061  13.646  0.0267 -0.0761  0.2908
  855MPD2    C512610   4.494   4.085  13.761  0.1178 -0.2875 -0.1716
  855MPD2     H12611   4.231   3.823  13.755 -0.4711  0.2079  1.9373
  855MPD2    H112612   4.456   4.125  13.562  2.3648  1.2160  1.9481
  855MPD2    H212613   4.529   4.046  13.959  0.7426 -1.0078  0.0028
  855MPD2    H312614   4.573   4.160  13.766 -0.7350  0.6871 -1.2146
  855MPD2     N12615   4.257   3.958  13.518 -0.0023 -0.1229  0.5202
  855MPD2    H512616   4.274   4.023  13.441 -1.5295 -0.1721  0.1381
  855MPD2    N112617   4.371   3.806  13.964 -0.1088  0.2116 -0.0344
  855MPD2    H712618   4.308   3.729  13.941 -2.4921  1.4854  2.1367
  856MPD2     C12619   1.497   0.079  13.787  0.2168  0.3096  0.3247
  856MPD2    C112620   1.568   0.198  13.794 -0.6814 -0.2905  0.0573
  856MPD2    C212621   1.507   0.326  13.773 -0.5045  0.0885 -0.4983
  856MPD2    C312622   1.376   0.324  13.735 -0.6130 -0.0943  0.2126
  856MPD2    C412623   1.308   0.204  13.723 -0.3094  0.1095 -0.1254
  856MPD2    C512624   1.365   0.084  13.748  0.2757 -0.6695 -0.8304
  856MPD2     H12625   1.569   0.413  13.794 -0.6571 -0.4960  2.3286
  856MPD2    H112626   1.206   0.195  13.690  0.2147 -0.8506 -1.4712
  856MPD2    H212627   1.542   4.716  13.792  0.7012  0.5073 -0.1167
  856MPD2    H312628   1.308   4.727  13.744  1.8820 -1.7074  0.0608
  856MPD2     N12629   1.304   0.442  13.699 -0.0447 -0.5747  0.5431
  856MPD2    H512630   1.203   0.435  13.690  0.0740 -1.4126 -0.1155
  856MPD2    N112631   1.702   0.194  13.839  0.5367 -0.8214  0.4274
  856MPD2    H712632   1.747   0.284  13.851  1.7360 -1.2898 -0.6081
  857MPD2     C12633   2.977   1.987  13.026  0.2332 -0.3353 -0.2562
  857MPD2    C112634   3.106   1.996  12.979  0.7934 -0.1396 -0.3717
  857MPD2    C212635   3.176   2.119  13.009  0.0437  0.5578 -0.8311
  857MPD2    C312636   3.109   2.225  13.072  0.5273 -0.7445 -0.0076
  857MPD2    C412637   2.978   2.205  13.105 -0.5216 -0.2769 -0.0887
  857MPD2    C512638   2.915   2.088  13.086  0.0624 -0.3766  0.4196
  857MPD2     H12639   3.269   2.139  12.957 -1.0426  1.7920 -2.3079
  857MPD2    H112640   2.920   2.276  13.163  0.0127 -0.1811  0.3252
  857MPD2    H212641   2.918   1.897  13.012 -1.7720  1.2039 -1.6154
  857MPD2    H312642   2.811   2.089  13.115  0.6769  1.0930  2.6020
  857MPD2     N12643   3.183   2.340  13.110 -0.1038 -0.1876 -0.0616
  857MPD2    H512644   3.284   2.339  13.104 -0.0307  1.5885  0.7127
  857MPD2    N112645   3.160   1.885  12.903  0.4138  0.4523 -0.1216
  857MPD2    H712646   3.098   1.810  12.873 -0.1227  0.3977  1.0983
  858MPD2     C12647   3.799   1.717  16.560  0.4976  0.8451 -0.8740
  858MPD2    C112648   3.840   1.619  16.647 -0.1337 -0.1502  0.7302
  858MPD2    C212649   3.919   1.650  16.754 -0.3076 -0.5616  0.0421
  858MPD2    C312650   3.947   1.779  16.781  0.1093 -0.0543 -0.2742
  858MPD2    C412651   3.908   1.875  16.691 -0.4076  0.1152 -0.3248
  858MPD2    C512652   3.840   1.841  16.580 -0.3016  0.3679  0.1871
  858MPD2     H12653   3.959   1.565  16.809 -0.5384 -0.5345  0.2514
  858MPD2    H112654   3.931   1.980  16.696 -2.0871  0.3500  2.4161
  858MPD2    H212655   3.740   1.703  16.470  2.3339 -1.2634 -1.7405
  858MPD2    H312656   3.818   1.918  16.506 -0.2056 -1.4739 -1.7583
  858MPD2     N12657   4.014   1.822  16.895 -0.3521  0.0079 -0.0563
  858MPD2    H512658   4.045   1.918  16.884  2.1257 -0.8301 -0.5746
  858MPD2    N112659   3.801   1.484  16.617  0.2314 -0.3837  0.0712
  858MPD2    H712660   3.748   1.468  16.533 -1.3398 -1.0843  1.2050
  859MPD2     C12661   2.298   3.902  15.528  0.2512  0.3015 -0.6261
  859MPD2    C112662   2.427   3.846  15.531  0.1302  0.2751 -0.6705
  859MPD2    C212663   2.450   3.729  15.601  0.4292 -0.0776  0.7269
  859MPD2    C312664   2.352   3.687  15.684  0.5532 -0.4105  0.4489
  859MPD2    C412665   2.230   3.751  15.695 -0.0117 -0.6759 -0.0703
  859MPD2    C512666   2.203   3.860  15.619  0.3752  0.0226  0.7160
  859MPD2     H12667   2.552   3.695  15.618  0.2616 -0.4555  0.9867
  859MPD2    H112668   2.149   3.708  15.753 -0.2100  0.6681  0.6371
  859MPD2    H212669   2.286   3.996  15.475  0.2924  0.1638 -0.8774
  859MPD2    H312670   2.110   3.916  15.620  0.4700  0.2113 -1.2263
  859MPD2     N12671   2.369   3.574  15.764 -1.3567 -0.8639 -0.5382
  859MPD2    H512672   2.309   3.564  15.846  0.1670 -1.3735  0.5082
  859MPD2    N112673   2.524   3.924  15.457 -0.0065 -0.5230 -0.4118
  859MPD2    H712674   2.496   4.018  15.429  1.2608  0.6755  2.4215
  860MPD2     C12675   4.488   3.507  11.747  0.0871 -0.4960  0.3773
  860MPD2    C112676   4.533   3.583  11.860  0.4639 -0.4060  0.2514
  860MPD2    C212677   4.455   3.576  11.974  0.6394  0.3767  0.2710
  860MPD2    C312678   4.342   3.499  11.981  0.1439  0.3124 -0.2365
  860MPD2    C412679   4.314   3.411  11.879  0.2193 -1.1585  0.8898
  860MPD2    C512680   4.384   3.420  11.763 -0.2483  0.0274  0.3253
  860MPD2     H12681   4.476   3.639  12.059  0.9955  0.3195  0.2243
  860MPD2    H112682   4.221   3.355  11.878  1.5318 -3.2895 -1.7616
  860MPD2    H212683   4.539   3.511  11.651  0.9070  0.3647  0.8462
  860MPD2    H312684   4.344   3.365  11.679  1.3858  0.3100 -0.6258
  860MPD2     N12685   4.265   3.517  12.099  0.1386  0.6183  0.1714
  860MPD2    H512686   4.286   3.605  12.145  1.8614 -0.4862  1.4739
  860MPD2    N112687   4.638   3.675  11.876 -0.0429  0.1192 -0.1127
  860MPD2    H712688   4.646   3.719  11.967  0.9340 -1.2572  0.4678
  861MPD2     C12689   4.060   1.661  11.038  1.1257  0.3042  0.8858
  861MPD2    C112690   4.074   1.799  11.050  0.1810 -0.6453 -0.0319
  861MPD2    C212691   4.000   1.873  10.958  0.2837 -0.8631 -0.3952
  861MPD2    C312692   3.929   1.817  10.848  0.0308  0.2706 -0.1291
  861MPD2    C412693   3.926   1.681  10.839 -0.0088  0.4508  0.5947
  861MPD2    C512694   3.982   1.608  10.940  0.2077 -0.1985  0.0820
  861MPD2     H12695   4.014   1.981  10.959 -2.2336 -0.5370  1.2975
  861MPD2    H112696   3.881   1.622  10.760  0.8819 -1.5042  1.5518
  861MPD2    H212697   4.116   1.595  11.103  3.0337  1.8746  0.8526
  861MPD2    H312698   3.967   1.501  10.931  3.2937 -0.3917 -2.3712
  861MPD2     N12699   3.847   1.896  10.754  0.2767 -0.0194 -0.1504
  861MPD2    H512700   3.773   1.840  10.712  1.4096 -0.1955 -1.9206
  861MPD2    N112701   4.143   1.866  11.152  0.1163  0.3833  0.6934
  861MPD2    H712702   4.137   1.967  11.161 -1.4345  0.6570 -3.4946
  862MPD2     C12703   3.209   1.751  10.590  0.1233 -0.0777 -0.0435
  862MPD2    C112704   3.301   1.787  10.686 -1.0480 -0.4398  0.3988
  862MPD2    C212705   3.293   1.752  10.820 -0.4606 -0.4268 -0.1215
  862MPD2    C312706   3.192   1.664  10.856 -1.0049  0.2004 -0.8155
  862MPD2    C412707   3.101   1.624  10.758 -0.1606 -0.0038  0.8622
  862MPD2    C512708   3.104   1.669  10.628 -0.5479  0.3933  0.4667
  862MPD2     H12709   3.365   1.792  10.891  1.7451 -0.6298 -2.2400
  862MPD2    H112710   3.020   1.559  10.789  0.5611 -0.7823  1.1139
  862MPD2    H212711   3.221   1.773  10.485  0.4542 -0.0222  0.0045
  862MPD2    H312712   3.025   1.635  10.563 -0.1552 -1.2037  0.8090
  862MPD2     N12713   3.186   1.606  10.987  0.3627 -0.9089 -0.5773
  862MPD2    H512714   3.133   1.520  11.000  1.3923 -1.3995  0.3945
  862MPD2    N112715   3.406   1.871  10.658 -0.0320 -0.4218 -0.0993
  862MPD2    H712716   3.466   1.889  10.738  0.2327 -0.1535 -0.3562
  863MPD2     C12717   2.410   0.447  16.854 -0.3967  0.0835  0.0285
  863MPD2    C112718   2.354   0.547  16.935  0.6026 -0.0861  0.4102
  863MPD2    C212719   2.410   0.556  17.059 -0.1536 -0.1047  0.1309
  863MPD2    C312720   2.510   0.482  17.117 -0.0451 -0.2684  0.2034
  863MPD2    C412721   2.566   0.380  17.031 -0.2704  0.2597  0.0303
  863MPD2    C512722   2.509   0.365  16.912  1.2183 -0.3734  0.3898
  863MPD2     H12723   2.368   0.631  17.125 -0.8038 -1.9152  1.7734
  863MPD2    H112724   2.646   0.315  17.065  0.0692  1.3715  1.3794
  863MPD2    H212725   2.376   0.425  16.754  0.2641 -0.7903  0.0003
  863MPD2    H312726   2.543   0.282  16.852  1.5909 -0.4673  0.7328
  863MPD2     N12727   2.560   0.497  17.251  0.1348  0.1897 -0.3146
  863MPD2    H512728   2.629   0.431  17.285  0.0018 -0.6109 -1.6074
  863MPD2    N112729   2.261   0.635  16.877 -0.4174 -0.6661  0.5167
  863MPD2    H712730   2.233   0.614  16.781 -1.6487  0.2650  0.6639
  864MPD2     C12731   2.858   2.267  17.414  0.5539 -0.2647 -0.4831
  864MPD2    C112732   2.890   2.186  17.307  0.0744 -0.5565  0.5485
  864MPD2    C212733   2.975   2.233  17.211 -0.1909  0.7191  0.2308
  864MPD2    C312734   3.024   2.363  17.217  0.6186  0.0840  0.5019
  864MPD2    C412735   2.987   2.444  17.321 -0.4555  0.1014  0.3255
  864MPD2    C512736   2.902   2.396  17.418 -0.0843 -0.6949 -0.2922
  864MPD2     H12737   3.015   2.173  17.130 -0.9609  0.8705 -0.2536
  864MPD2    H112738   3.026   2.544  17.337 -1.2972  0.5106 -0.1426
  864MPD2    H212739   2.796   2.225  17.492 -1.3713 -0.3976 -2.0862
  864MPD2    H312740   2.879   2.454  17.506 -2.2972 -0.3605 -1.0747
  864MPD2     N12741   3.112   2.411  17.119 -0.1842 -0.3537 -0.2372
  864MPD2    H512742   3.181   2.479  17.150 -0.2013 -1.1712  1.5923
  864MPD2    N112743   2.844   2.054  17.318 -1.1153 -0.1630 -0.2126
  864MPD2    H712744   2.794   2.038  17.405 -0.0757 -1.8343  0.0802
  865MPD2     C12745   2.794   2.147  16.334  0.2948 -0.8896  1.2733
  865MPD2    C112746   2.901   2.068  16.342  0.4412 -0.2538  0.3789
  865MPD2    C212747   3.012   2.115  16.409  0.4538  0.3277 -0.3977
  865MPD2    C312748   3.012   2.247  16.450 -0.2064  0.5382 -0.0988
  865MPD2    C412749   2.902   2.324  16.440 -0.0434 -0.3479 -0.3153
  865MPD2    C512750   2.790   2.281  16.372 -0.2093  0.6786 -0.0995
  865MPD2     H12751   3.098   2.050  16.421 -0.3902 -0.9403 -1.2707
  865MPD2    H112752   2.893   2.423  16.483 -0.0228 -0.7662  0.6385
  865MPD2    H212753   2.697   2.117  16.295  0.0978  1.5996 -0.1546
  865MPD2    H312754   2.693   2.330  16.372 -0.3712  0.3491 -0.8779
  865MPD2     N12755   3.110   2.302  16.530  0.1967  0.2344  0.3361
  865MPD2    H512756   3.095   2.397  16.563  1.9899  0.7814 -0.4562
  865MPD2    N112757   2.903   1.934  16.301 -0.0710 -0.2644 -0.4082
  865MPD2    H712758   2.995   1.892  16.304 -0.7038 -1.6592 -0.5318
  866MPD2     C12759   4.639   2.380  11.124 -0.1544  0.3550 -0.5084
  866MPD2    C112760   4.571   2.263  11.140  0.1805 -0.0193 -0.1988
  866MPD2    C212761   4.437   2.251  11.111  0.0651  0.6078 -0.4461
  866MPD2    C312762   4.379   2.359  11.051 -0.0340  0.1167 -0.4362
  866MPD2    C412763   4.448   2.471  11.016 -0.2067  0.7901  0.4263
  866MPD2    C512764   4.582   2.484  11.047  0.8700  0.4955 -1.1118
  866MPD2     H12765   4.380   2.168  11.152  0.9561  0.9661  1.5028
  866MPD2    H112766   4.395   2.546  10.958 -0.4893  0.8324  0.7427
  866MPD2    H212767   0.011   2.389  11.128 -0.3535  0.9886  2.7677
  866MPD2    H312768   4.644   2.564  11.009  2.8230 -1.0553 -1.1807
  866MPD2     N12769   4.240   2.378  11.038  0.4130 -0.3799  0.6764
  866MPD2    H512770   4.205   2.473  11.037 -0.2461 -0.6350 -0.5207
  866MPD2    N112771   4.655   2.162  11.190  0.4067 -0.4142  0.2885
  866MPD2    H712772   0.020   2.176  11.197  0.2597 -0.0316  1.6624
  867MPD2     C12773   1.998   2.014  16.956  0.4586 -1.0566 -0.6366
  867MPD2    C112774   2.023   1.956  17.083 -0.1076  0.7095 -0.2324
  867MPD2    C212775   1.958   2.019  17.188  0.5257 -0.1815 -0.0851
  867MPD2    C312776   1.880   2.135  17.170  0.1795  0.2647 -0.2077
  867MPD2    C412777   1.848   2.180  17.040 -0.0259  0.8589 -0.1464
  867MPD2    C512778   1.914   2.119  16.936 -0.3729 -0.0109  1.2578
  867MPD2     H12779   1.970   1.978  17.288 -0.5337 -0.0868  0.0835
  867MPD2    H112780   1.775   2.260  17.032 -1.1819 -0.3555 -1.7275
  867MPD2    H212781   2.043   1.968  16.869  0.2025 -1.6103 -0.4806
  867MPD2    H312782   1.895   2.146  16.833  1.1717  1.0966  1.2578
  867MPD2     N12783   1.805   2.192  17.276 -0.0753  0.0464 -0.3532
  867MPD2    H512784   1.747   2.273  17.254  1.4740  1.2263 -0.1687
  867MPD2    N112785   2.101   1.845  17.098 -0.4871 -0.0205  0.2996
  867MPD2    H712786   2.144   1.810  17.013 -0.2564 -0.2537  0.5111
  868MPD2     C12787   2.883   0.770  13.073 -0.2944  0.4637  0.3709
  868MPD2    C112788   2.923   0.677  13.167 -0.7036  0.2973 -0.1941
  868MPD2    C212789   2.820   0.597  13.217 -0.4698 -0.4770 -0.3794
  868MPD2    C312790   2.688   0.608  13.188  0.1383 -0.9811  0.0873
  868MPD2    C412791   2.655   0.702  13.094  0.3782 -0.9463 -0.2089
  868MPD2    C512792   2.753   0.775  13.033 -0.0644 -0.2327  0.4744
  868MPD2     H12793   2.845   0.522  13.291 -2.4582 -2.6677 -1.9433
  868MPD2    H112794   2.552   0.718  13.065  0.4361  0.7005  0.4844
  868MPD2    H212795   2.956   0.836  13.027  0.3597 -1.6632 -1.6888
  868MPD2    H312796   2.723   0.846  12.957  3.1651  0.9609  0.2880
  868MPD2     N12797   2.600   0.535  13.272 -0.4850 -0.0839 -0.3035
  868MPD2    H512798   2.640   0.464  13.332  0.3124  1.7855  1.3605
  868MPD2    N112799   3.065   0.661  13.188 -0.2794  0.1503 -0.1953
  868MPD2    H712800   3.132   0.705  13.125  0.3668 -1.7852 -0.8932
  869MPD2     C12801   0.069   3.210   0.814  0.6423  0.4522 -0.1934
  869MPD2    C112802   4.669   3.220   0.848 -0.3024 -0.2193 -0.0811
  869MPD2    C212803   4.628   3.254   0.974 -0.2731  0.2400 -0.5101
  869MPD2    C312804   4.718   3.305   1.068 -0.3747 -0.0078  0.4926
  869MPD2    C412805   0.119   3.306   1.035  0.4240 -0.6166 -0.0439
  869MPD2    C512806   0.151   3.254   0.910 -0.2311  0.2300 -0.6260
  869MPD2     H12807   4.521   3.267   0.987 -0.2851 -1.0539  0.7359
  869MPD2    H112808   0.193   3.342   1.106 -0.3667 -3.1279  2.0622
  869MPD2    H212809   0.116   3.184   0.720  0.5596 -0.4580  0.0160
  869MPD2    H312810   0.257   3.250   0.889 -0.5143  1.6627 -2.3185
  869MPD2     N12811   4.684   3.345   1.201  0.1420  0.0028  0.0043
  869MPD2    H512812   0.021   3.369   1.269 -0.7885 -0.6281  1.2229
  869MPD2    N112813   4.571   3.186   0.747  0.3345 -0.1652  0.1240
  869MPD2    H712814   4.474   3.177   0.777  0.2860  0.0452  0.0277
  870MPD2     C12815   3.404   2.752   0.971 -0.4225  0.2493 -0.3307
  870MPD2    C112816   3.468   2.692   0.870 -0.2250 -0.5289  0.5653
  870MPD2    C212817   3.426   2.700   0.741 -0.3315 -0.2447  0.0911
  870MPD2    C312818   3.313   2.772   0.711 -0.2029  0.3713 -0.4135
  870MPD2    C412819   3.242   2.831   0.813 -0.1760  0.3665  0.0909
  870MPD2    C512820   3.294   2.824   0.942  0.2047  0.6355 -0.5866
  870MPD2     H12821   3.474   2.639   0.665  0.8283 -1.9504  2.1821
  870MPD2    H112822   3.150   2.888   0.802  0.8952  2.2400  0.7457
  870MPD2    H212823   3.448   2.756   1.070  0.9061  0.8468 -0.9430
  870MPD2    H312824   3.256   2.886   1.022  0.3924 -1.7134  1.3248
  870MPD2     N12825   3.265   2.778   0.580 -0.0409 -0.4214  0.3115
  870MPD2    H512826   3.328   2.727   0.519 -0.4183  0.6334 -0.9630
  870MPD2    N112827   3.595   2.637   0.908  0.6568 -0.0243 -0.2954
  870MPD2    H712828   3.627   2.650   1.003 -1.8988 -3.2604  0.9998
  871MPD2     C12829   0.254   1.552  16.161  0.0143  0.0189 -0.0788
  871MPD2    C112830   0.340   1.546  16.267  0.2641  0.1033 -0.2031
  871MPD2    C212831   0.433   1.450  16.281 -0.3551  0.2297 -0.5150
  871MPD2    C312832   0.437   1.344  16.190 -0.1330 -0.4274  0.8056
  871MPD2    C412833   0.360   1.348  16.078  0.5468 -0.3486 -0.4171
  871MPD2    C512834   0.270   1.456  16.057  0.0635 -0.0218  1.0749
  871MPD2     H12835   0.501   1.453  16.366  0.3615  2.0050 -1.1429
  871MPD2    H112836   0.361   1.266  16.008 -1.9204 -1.6787  1.0906
  871MPD2    H212837   0.190   1.640  16.158  2.3875  1.7555  0.4065
  871MPD2    H312838   0.200   1.468  15.974  1.2974 -1.1188 -0.1294
  871MPD2     N12839   0.527   1.231  16.218 -0.4373  0.0638  0.2048
  871MPD2    H512840   0.594   1.234  16.294  0.2357 -3.8634 -0.2350
  871MPD2    N112841   0.315   1.650  16.363  0.2380 -0.1001  0.5434
  871MPD2    H712842   0.261   1.732  16.339  2.0944  0.6496 -1.0412
  872MPD2     C12843   0.927   4.011  14.283  0.0958 -0.4423 -0.3344
  872MPD2    C112844   1.027   4.086  14.341  0.4697 -0.1930  0.1723
  872MPD2    C212845   1.008   4.125  14.473 -0.1084 -0.4980  0.4547
  872MPD2    C312846   0.895   4.081  14.546 -0.2660 -1.0292  0.1060
  872MPD2    C412847   0.805   4.000  14.481  0.1290 -0.0830  0.0172
  872MPD2    C512848   0.818   3.974  14.346 -0.0995  0.2448 -0.1500
  872MPD2     H12849   1.091   4.171  14.525  2.1589 -2.3187 -1.6080
  872MPD2    H112850   0.713   3.962  14.526  2.0453 -0.7980  3.3218
  872MPD2    H212851   0.930   3.967  14.184  0.1510 -0.6848 -0.2250
  872MPD2    H312852   0.742   3.913  14.299  0.7617 -0.6544 -0.3742
  872MPD2     N12853   0.859   4.104  14.681  0.1176 -0.0089  0.1650
  872MPD2    H512854   0.775   4.062  14.720  0.3328 -0.0100  0.6377
  872MPD2    N112855   1.139   4.134  14.267 -0.2653  0.0585 -0.0761
  872MPD2    H712856   1.223   4.169  14.312 -0.1694 -0.5779  0.2434
  873MPD2     C12857   2.863   4.459   0.615 -0.2726  0.2815 -0.3979
  873MPD2    C112858   2.853   4.380   0.728  0.3796 -0.3889 -0.6519
  873MPD2    C212859   2.890   4.248   0.718 -0.1887  0.5598  0.0455
  873MPD2    C312860   2.935   4.202   0.596 -0.1738 -0.0709 -0.1247
  873MPD2    C412861   2.929   4.272   0.479 -0.1549 -0.2050 -1.2049
  873MPD2    C512862   2.893   4.407   0.495 -0.1166 -0.2252 -0.2045
  873MPD2     H12863   2.878   4.175   0.797  2.5609  1.5696  1.4048
  873MPD2    H112864   2.966   4.235   0.384  2.1692  0.2003 -0.4683
  873MPD2    H212865   2.859   4.568   0.619 -1.5496  0.2918 -1.9360
  873MPD2    H312866   2.900   4.476   0.412 -1.3796  0.2179  0.0559
  873MPD2     N12867   2.995   4.073   0.580 -0.5016  0.5513 -0.1652
  873MPD2    H512868   3.007   4.040   0.485  1.9450 -0.1139  0.3907
  873MPD2    N112869   2.791   4.417   0.845  0.1939  0.1064 -0.2193
  873MPD2    H712870   2.795   4.353   0.924 -0.6135  0.1961 -0.1109
  874MPD2     C12871   2.674   4.660  16.051  0.8699 -0.1751  0.3675
  874MPD2    C112872   2.665   4.637  16.186 -0.3005 -0.2540  0.4803
  874MPD2    C212873   2.782   4.644  16.258  0.0747 -0.1081 -0.2826
  874MPD2    C312874   2.905   4.681  16.203  0.0190 -0.0261 -0.5962
  874MPD2    C412875   2.908   4.723  16.071  0.1280 -0.1886  0.0783
  874MPD2    C512876   2.791   4.702  15.993  0.4554 -0.0387 -0.7013
  874MPD2     H12877   2.787   4.619  16.364 -1.4889 -2.1216 -0.6880
  874MPD2    H112878   3.004   0.012  16.025  0.2384  1.3360  1.1190
  874MPD2    H212879   2.589   4.654  15.984 -0.2374  0.4928  1.7122
  874MPD2    H312880   2.798   4.727  15.888  2.4737 -1.3418 -0.8748
  874MPD2     N12881   3.021   4.670  16.285 -0.0007  0.1739  0.1606
  874MPD2    H512882   3.017   4.630  16.378  1.1416 -0.6437 -0.1350
  874MPD2    N112883   2.540   4.602  16.248  0.1012 -0.3655 -0.2316
  874MPD2    H712884   2.460   4.617  16.188 -0.9899  0.5599  1.4508
  875MPD2     C12885   3.951   2.592  14.685 -0.0939 -0.2290  0.0740
  875MPD2    C112886   3.827   2.592  14.737 -0.1883  0.1791 -0.0121
  875MPD2    C212887   3.796   2.654  14.851  0.3850  0.5819 -0.7118
  875MPD2    C312888   3.890   2.732  14.909  0.0428  0.7758  0.0113
  875MPD2    C412889   4.017   2.735  14.853  0.3451  0.2052 -0.4458
  875MPD2    C512890   4.048   2.654  14.749  0.0148  0.2495  0.4616
  875MPD2     H12891   3.692   2.670  14.876  1.0645  3.4301  0.3830
  875MPD2    H112892   4.101   2.778  14.906  0.0519  0.0018  0.1845
  875MPD2    H212893   3.975   2.540  14.593  3.3994  0.3360  0.6493
  875MPD2    H312894   4.148   2.656  14.709  0.1207 -1.6012  0.6458
  875MPD2     N12895   3.870   2.798  15.031  0.5351 -0.5257  0.4776
  875MPD2    H512896   3.935   2.872  15.057  0.0882  0.0503 -0.0507
  875MPD2    N112897   3.719   2.549  14.660  0.1712 -0.0221  0.5922
  875MPD2    H712898   3.628   2.574  14.697 -0.3987 -1.6083  0.2704
  876MPD2     C12899   2.500   3.908  16.391  0.0204  0.4604  0.0993
  876MPD2    C112900   2.625   3.890  16.327  0.2268 -0.1934 -1.2421
  876MPD2    C212901   2.696   3.771  16.349  0.0751 -0.6607  0.7977
  876MPD2    C312902   2.651   3.682  16.449  0.7412 -0.0002 -0.1201
  876MPD2    C412903   2.530   3.705  16.506 -0.5701  1.0825  0.9090
  876MPD2    C512904   2.454   3.818  16.481 -0.0810  0.0450 -0.0957
  876MPD2     H12905   2.786   3.737  16.299 -0.3699 -2.3620  1.1580
  876MPD2    H112906   2.491   3.633  16.578 -2.5029 -0.3645 -1.5745
  876MPD2    H212907   2.436   3.988  16.356  0.2644  0.1197 -1.1235
  876MPD2    H312908   2.353   3.819  16.521  0.1710  0.9720  0.5091
  876MPD2     N12909   2.726   3.565  16.475 -0.1008  0.7381 -0.1952
  876MPD2    H512910   2.797   3.532  16.411  0.5238  1.1660  0.2753
  876MPD2    N112911   2.671   3.982  16.226 -0.8714  0.0291  0.3354
  876MPD2    H712912   2.619   4.068  16.212 -0.3377 -0.0392 -1.9994
  877MPD2     C12913   2.566   4.477  15.674 -1.0040  0.3125  0.0881
  877MPD2    C112914   2.703   4.479  15.702  0.0066  0.2926  0.0796
  877MPD2    C212915   2.780   4.549  15.611  0.5890  0.3281 -0.1342
  877MPD2    C312916   2.732   4.613  15.489 -0.4049  0.1389  0.9069
  877MPD2    C412917   2.599   4.605  15.470  0.3058  0.1097  0.5053
  877MPD2    C512918   2.519   4.537  15.559  0.0788  0.1701 -0.7853
  877MPD2     H12919   2.879   4.571  15.649  0.3106 -0.7329  1.1870
  877MPD2    H112920   2.548   4.668  15.398 -0.9599 -0.8714  0.5429
  877MPD2    H212921   2.496   4.434  15.745 -2.6104 -1.5974 -2.6624
  877MPD2    H312922   2.413   4.545  15.539  0.6842  0.7861 -3.6270
  877MPD2     N12923   2.818   4.678  15.393 -0.1917  0.0001  0.2762
  877MPD2    H512924   2.783   4.706  15.302  0.5105 -0.9382 -0.2772
  877MPD2    N112925   2.763   4.420  15.818 -0.0514  0.2832  0.2011
  877MPD2    H712926   2.865   4.419  15.820 -0.1173 -5.2286  0.0030
  878MPD2     C12927   2.347   3.334  13.594 -0.5271 -0.8693  0.0414
  878MPD2    C112928   2.474   3.383  13.563  0.1931 -0.0226 -0.2988
  878MPD2    C212929   2.550   3.444  13.665 -0.7747  0.5423  0.0598
  878MPD2    C312930   2.497   3.451  13.791  0.7535  0.8520 -0.3677
  878MPD2    C412931   2.372   3.402  13.816  0.0285  0.1864 -0.1510
  878MPD2    C512932   2.288   3.353  13.715  0.1983 -0.0591  0.1753
  878MPD2     H12933   2.647   3.483  13.637 -1.1533  0.9608 -0.6728
  878MPD2    H112934   2.342   3.391  13.919  2.2136  1.9955  0.6635
  878MPD2    H212935   2.290   3.275  13.523  0.2565 -1.1741 -0.3220
  878MPD2    H312936   2.189   3.316  13.737 -0.1686 -1.2970 -3.4840
  878MPD2     N12937   2.572   3.517  13.888 -0.4681 -0.0210 -0.1059
  878MPD2    H512938   2.670   3.530  13.864 -0.1180 -2.2383  0.1210
  878MPD2    N112939   2.525   3.373  13.426 -0.3454 -0.3475  0.7988
  878MPD2    H712940   2.468   3.315  13.366  1.8759  0.0712 -1.7031
  879MPD2     C12941   2.870   4.239  17.329 -0.1225  0.0540 -0.2834
  879MPD2    C112942   2.852   4.370  17.292  0.3791 -0.1212 -0.4308
  879MPD2    C212943   2.746   4.405  17.210  0.6344 -0.6485  0.1583
  879MPD2    C312944   2.646   4.320  17.176  0.3821  0.2614  0.3144
  879MPD2    C412945   2.660   4.187  17.211  0.1107 -0.1919 -0.1948
  879MPD2    C512946   2.776   4.150  17.280 -0.2635 -0.3555 -0.0465
  879MPD2     H12947   2.726   4.509  17.191  0.8823 -0.5587  0.3816
  879MPD2    H112948   2.594   4.107  17.179  0.4401 -1.2519  1.7717
  879MPD2    H212949   2.960   4.217  17.386 -0.2113  2.8789  0.9662
  879MPD2    H312950   2.791   4.045  17.302  1.0079  0.1728  1.6842
  879MPD2     N12951   2.540   4.356  17.091 -0.3360 -0.2606  0.3576
  879MPD2    H512952   2.462   4.291  17.082 -0.9588  0.6091 -0.5020
  879MPD2    N112953   2.940   4.464  17.348  0.2354  0.9105 -0.4278
  879MPD2    H712954   3.010   4.429  17.413 -0.2450  1.1061  0.2016
  880MPD2     C12955   4.034   1.866   0.315 -0.5805  0.1763  0.5070
  880MPD2    C112956   4.138   1.960   0.325 -0.1153 -1.1444 -0.2925
  880MPD2    C212957   4.267   1.911   0.354  0.4657  0.1461 -0.2898
  880MPD2    C312958   4.291   1.778   0.385  0.2519 -0.2869 -0.7621
  880MPD2    C412959   4.182   1.685   0.374 -0.1253 -0.6672 -0.3235
  880MPD2    C512960   4.060   1.737   0.337  0.3132 -0.3228  0.3548
  880MPD2     H12961   4.348   1.982   0.365 -0.1296  0.4706  2.0704
  880MPD2    H112962   4.198   1.578   0.379  0.2099 -0.6060 -0.0736
  880MPD2    H212963   3.932   1.898   0.296  0.1599  0.2143 -3.5507
  880MPD2    H312964   3.978   1.666   0.333 -0.0158  0.0192  1.0330
  880MPD2     N12965   4.425   1.735   0.413  0.3155 -0.2812  0.3717
  880MPD2    H512966   4.501   1.798   0.389  2.0866 -2.2792  0.7641
  880MPD2    N112967   4.114   2.092   0.282  0.4183 -0.0626 -0.1308
  880MPD2    H712968   4.021   2.112   0.245  0.7294  2.6769  0.5852
  881MPD2     C12969   4.640   2.812  17.518  0.3498  0.2649  0.4622
  881MPD2    C112970   4.610   2.684  17.470  0.1281 -0.5036 -0.1523
  881MPD2    C212971   4.517   2.610  17.540 -0.6297 -0.5521  0.6294
  881MPD2    C312972   4.454   2.668  17.655  0.1292  0.3346  0.3684
  881MPD2    C412973   4.483   2.798  17.703 -0.0688  0.2340  0.2669
  881MPD2    C512974   4.583   2.860  17.628 -0.2286 -0.2890 -0.7992
  881MPD2     H12975   4.481   2.513  17.509  0.3938 -0.8539  0.3599
  881MPD2    H112976   4.440   2.848   0.049  1.5743 -0.4055  1.4723
  881MPD2    H212977   4.711   2.873  17.464 -1.4135  0.4122 -1.6754
  881MPD2    H312978   4.608   2.963  17.652 -0.0663 -0.6367  0.5445
  881MPD2     N12979   4.358   2.590  17.724 -0.4375 -0.5395  0.1315
  881MPD2    H512980   4.326   2.504  17.680 -2.2259  0.2830 -0.1827
  881MPD2    N112981   4.647   2.661  17.334  0.6697 -0.3404  0.2367
  881MPD2    H712982   4.706   2.726  17.283  1.0636 -2.3381 -1.8409
  882MPD2     C12983   2.894   4.693  14.665 -0.1719 -0.0715 -0.4673
  882MPD2    C112984   2.875   4.589  14.750  0.4844 -0.1130 -0.2773
  882MPD2    C212985   2.772   4.505  14.739 -0.3265  0.2159 -0.8724
  882MPD2    C312986   2.673   4.515  14.641 -0.6727  0.0511 -0.1302
  882MPD2    C412987   2.691   4.626  14.555 -0.2746  0.5658  0.8478
  882MPD2    C512988   2.799   4.712  14.572  0.0958 -0.2291  0.0185
  882MPD2     H12989   2.759   4.429  14.816 -0.9215  1.4636  0.2700
  882MPD2    H112990   2.617   4.652  14.481  0.1446  1.1187  0.6195
  882MPD2    H212991   2.979   0.023  14.679 -0.8047  0.8308 -0.8956
  882MPD2    H312992   2.807   0.062  14.506  1.2288 -0.4623 -0.1554
  882MPD2     N12993   2.557   4.439  14.628  0.4684  0.5764 -0.2137
  882MPD2    H512994   2.490   4.465  14.557 -0.5448 -1.1822  0.0844
  882MPD2    N112995   2.955   4.578  14.865  0.0628  0.2083 -0.3083
  882MPD2    H712996   2.952   4.491  14.918 -1.1602  1.2467  1.3143
  883MPD2     C12997   4.257   4.529  15.838 -0.4086 -0.2501  0.4600
  883MPD2    C112998   4.382   4.482  15.830  0.7964 -0.0990 -0.1759
  883MPD2    C212999   4.458   4.515  15.944  0.1940 -0.1572  0.5462
  883MPD2    C313000   4.410   4.571  16.057 -0.1485 -0.3925 -0.5241
  883MPD2    C413001   4.272   4.599  16.069  0.6224 -0.8117 -0.0889
  883MPD2    C513002   4.207   4.584  15.953 -0.3419 -0.8068  0.7189
  883MPD2     H13003   4.562   4.487  15.931 -0.4085 -2.1336  0.0027
  883MPD2    H113004   4.224   4.631  16.161  0.1127 -0.2482 -0.5538
  883MPD2    H213005   4.176   4.515  15.766  0.0021  2.8779 -0.6315
  883MPD2    H313006   4.103   4.613  15.949  0.4040  1.8619  1.2382
  883MPD2     N13007   4.505   4.593  16.162  0.1763  0.3874  0.3828
  883MPD2    H513008   4.604   4.579  16.144  0.1929  0.4127  0.4538
  883MPD2    N113009   4.429   4.413  15.713  0.9566  0.1858  0.4378
  883MPD2    H713010   4.527   4.388  15.714  0.3974 -1.9901 -0.5695
  884MPD2     C13011   2.007   0.344  14.804  0.7762  0.1234 -0.0491
  884MPD2    C113012   1.989   0.479  14.823 -0.3659 -0.5643  0.3623
  884MPD2    C213013   1.873   0.532  14.779 -0.1558  0.4042 -0.6678
  884MPD2    C313014   1.783   0.464  14.698 -0.0719  0.4684 -0.5172
  884MPD2    C413015   1.806   0.333  14.680 -0.0729 -0.3473  0.2900
  884MPD2    C513016   1.916   0.269  14.730  0.3569  0.2270 -0.1699
  884MPD2     H13017   1.851   0.633  14.810 -0.6600 -0.3274  1.3769
  884MPD2    H113018   1.743   0.262  14.627 -0.2227 -0.5816  0.7859
  884MPD2    H213019   2.103   0.302  14.832  1.3557  0.7387 -1.1187
  884MPD2    H313020   1.931   0.165  14.705  2.2756  0.9376 -1.9681
  884MPD2     N13021   1.675   0.530  14.636  0.8544  0.1858  0.6178
  884MPD2    H513022   1.654   0.628  14.652  0.7932  0.0176  1.5341
  884MPD2    N113023   2.077   0.563  14.902 -0.3043 -0.4365  0.4733
  884MPD2    H713024   2.066   0.664  14.900  0.4402 -0.4004 -1.6379
  885MPD2     C13025   0.288   0.218   0.593 -0.0346 -0.6560 -0.0322
  885MPD2    C113026   0.274   0.351   0.603 -0.7870  0.5298 -0.2098
  885MPD2    C213027   0.234   0.424   0.491  1.0769  0.6186 -0.0695
  885MPD2    C313028   0.223   0.365   0.364 -0.2319 -0.0783 -0.5866
  885MPD2    C413029   0.221   0.229   0.365  0.4993 -1.2313 -0.0536
  885MPD2    C513030   0.250   0.155   0.477  0.1733 -0.1420  0.0511
  885MPD2     H13031   0.248   0.531   0.500 -0.8874  0.8984 -0.2606
  885MPD2    H113032   0.196   0.184   0.269  1.6377  0.1696 -1.0012
  885MPD2    H213033   0.319   0.159   0.678 -1.8239 -0.8803  0.4657
  885MPD2    H313034   0.246   0.047   0.474 -0.0869 -0.0698 -1.8023
  885MPD2     N13035   0.195   0.445   0.255 -0.1071  0.0281 -0.4621
  885MPD2    H513036   0.183   0.545   0.265 -0.5261  0.0673 -1.3225
  885MPD2    N113037   0.306   0.409   0.731 -0.0838  0.2489 -0.0512
  885MPD2    H713038   0.348   0.362   0.811 -1.9961 -1.8419 -0.2553
  886MPD2     C13039   1.426   3.609  15.510  0.0046  0.8553  0.4891
  886MPD2    C113040   1.527   3.675  15.579 -0.5243 -1.2679  0.3786
  886MPD2    C213041   1.562   3.807  15.536 -0.6247 -0.2572 -0.1185
  886MPD2    C313042   1.492   3.866  15.444  0.0331 -0.6562 -0.0697
  886MPD2    C413043   1.376   3.807  15.392  0.2980  0.1386 -0.0342
  886MPD2    C513044   1.337   3.683  15.429 -0.0119  0.8004  0.1213
  886MPD2     H13045   1.650   3.855  15.578 -1.3311  0.0205  1.0290
  886MPD2    H113046   1.314   3.853  15.317  0.8300 -0.6848 -0.9756
  886MPD2    H213047   1.387   3.513  15.540  1.2350  0.0732 -0.4484
  886MPD2    H313048   1.252   3.637  15.379  0.5888 -0.3701  0.1689
  886MPD2     N13049   1.527   3.991  15.384  0.5349 -0.0935 -0.1859
  886MPD2    H513050   1.479   4.014  15.298 -0.5613  0.1883  0.4969
  886MPD2    N113051   1.592   3.616  15.691  0.3247 -0.2628 -0.5720
  886MPD2    H713052   1.660   3.664  15.748 -1.3261  1.8916 -0.4171
  887MPD2     C13053   2.009   3.811  16.253 -0.4644 -0.1478 -0.7874
  887MPD2    C113054   1.942   3.826  16.130  0.6058 -0.2173 -0.4650
  887MPD2    C213055   1.962   3.947  16.063  0.2964 -0.5788  0.3355
  887MPD2    C313056   2.058   4.040  16.106 -0.3297  0.0245  0.0989
  887MPD2    C413057   2.125   4.016  16.228 -0.3207 -0.0245  0.9322
  887MPD2    C513058   2.095   3.907  16.304 -0.5113  0.2342 -0.7538
  887MPD2     H13059   1.910   3.965  15.970  1.1765 -0.9490 -0.2220
  887MPD2    H113060   2.193   4.089  16.269 -0.4557 -0.4909  1.9931
  887MPD2    H213061   1.995   3.723  16.314 -2.3598  0.7336  0.0681
  887MPD2    H313062   2.132   3.904  16.406  0.1814 -0.4007 -1.0249
  887MPD2     N13063   2.059   4.158  16.027 -0.5578  0.2499  0.2666
  887MPD2    H513064   1.989   4.167  15.955  0.3811  2.4015 -0.3870
  887MPD2    N113065   1.852   3.727  16.085 -0.3318 -0.9138  0.0403
  887MPD2    H713066   1.818   3.732  15.989 -2.4608  3.8976  1.0691
  888MPD2     C13067   3.713   3.879  15.135 -0.6855 -0.2659  0.2335
  888MPD2    C113068   3.751   3.878  15.271 -0.2385 -0.2580 -0.6206
  888MPD2    C213069   3.848   3.970  15.313  0.4165  0.6976 -0.0376
  888MPD2    C313070   3.913   4.055  15.224 -0.3046  0.2442  0.4086
  888MPD2    C413071   3.884   4.042  15.088  0.2835 -0.3274  0.2117
  888MPD2    C513072   3.789   3.951  15.039 -0.2865 -0.3715  0.6978
  888MPD2     H13073   3.864   3.977  15.420  2.6235 -0.3934 -0.2963
  888MPD2    H113074   3.935   4.089  15.005 -0.5845  2.1999  1.1070
  888MPD2    H213075   3.650   3.803  15.090 -1.9776  1.1804 -0.4072
  888MPD2    H313076   3.780   3.937  14.932 -1.0444  2.2361  0.3969
  888MPD2     N13077   4.006   4.158  15.265  0.2246  0.0680  0.0235
  888MPD2    H513078   4.025   4.173  15.363 -0.3969  0.5663  0.0629
  888MPD2    N113079   3.702   3.789  15.372  0.2267  0.2224  0.4705
  888MPD2    H713080   3.744   3.801  15.464  2.3444 -4.0196  0.0549
  889MPD2     C13081   3.081   3.097  12.973  0.1906  0.2275 -0.1048
  889MPD2    C113082   3.133   3.074  13.098  0.1992 -0.4826 -0.2074
  889MPD2    C213083   3.189   3.183  13.169 -0.5706 -0.5113 -0.7725
  889MPD2    C313084   3.131   3.302  13.146  0.3912 -0.7435 -0.0836
  889MPD2    C413085   3.065   3.329  13.020  0.3992  0.1896 -0.2128
  889MPD2    C513086   3.052   3.222  12.934 -0.6404 -0.2139  0.1239
  889MPD2     H13087   3.240   3.169  13.264 -1.8366  1.5987  0.2063
  889MPD2    H113088   3.018   3.421  12.986 -2.6532 -1.5193 -0.6097
  889MPD2    H213089   3.043   3.016  12.912  0.7199 -1.3898  1.7036
  889MPD2    H313090   3.017   3.243  12.834 -0.8269 -2.8415 -0.3551
  889MPD2     N13091   3.142   3.400  13.248  0.2057  0.8229 -0.3447
  889MPD2    H513092   3.190   3.371  13.332  1.5412  0.3426 -1.2751
  889MPD2    N113093   3.170   2.943  13.123  0.0095 -0.8250  0.3771
  889MPD2    H713094   3.132   2.880  13.053  0.4882 -0.1508 -0.4962
  890MPD2     C13095   2.701   0.624  14.621 -0.9868  0.0389 -0.2758
  890MPD2    C113096   2.823   0.653  14.659  0.2922  0.3396 -0.1946
  890MPD2    C213097   2.865   0.614  14.786  1.0398  0.0747  0.2562
  890MPD2    C313098   2.783   0.539  14.866 -0.6083 -0.9387  0.4009
  890MPD2    C413099   2.651   0.508  14.829 -0.3148  0.1080  0.2011
  890MPD2    C513100   2.615   0.563  14.708  0.4439 -0.3456 -0.1947
  890MPD2     H13101   2.966   0.627  14.822  0.4908  0.3437  1.7294
  890MPD2    H113102   2.577   0.460  14.892 -0.0400 -0.3282  0.1901
  890MPD2    H213103   2.654   0.650  14.527  0.3952 -3.0805 -1.8399
  890MPD2    H313104   2.515   0.553  14.669  1.3790 -0.5633 -2.5856
  890MPD2     N13105   2.826   0.501  14.995  0.2842 -0.2630  0.5647
  890MPD2    H513106   2.922   0.528  15.011  0.3046  0.7463 -1.1552
  890MPD2    N113107   2.908   0.715  14.559 -0.2301  1.3416 -0.3062
  890MPD2    H713108   2.880   0.729  14.463 -2.2367 -2.1604 -0.2344
  891MPD2     C13109   0.747   3.261  16.685  1.1595  0.6883  1.0332
  891MPD2    C113110   0.750   3.390  16.734 -0.7013 -0.7958 -1.1918
  891MPD2    C213111   0.812   3.412  16.855  0.2943 -0.0477 -0.0987
  891MPD2    C313112   0.868   3.304  16.928 -0.4316 -0.4516 -0.8551
  891MPD2    C413113   0.866   3.173  16.872  0.6724  0.3766  0.2148
  891MPD2    C513114   0.803   3.154  16.755 -0.6615  0.2015  0.5772
  891MPD2     H13115   0.818   3.511  16.897 -0.9511  0.2112 -0.5412
  891MPD2    H113116   0.908   3.089  16.927  2.1967  0.1177 -1.3230
  891MPD2    H213117   0.695   3.244  16.591  2.7954 -1.5863  0.5462
  891MPD2    H313118   0.812   3.054  16.714 -4.6456 -0.4715  1.2862
  891MPD2     N13119   0.928   3.327  17.053 -0.3393  0.1403 -0.6239
  891MPD2    H513120   0.921   3.423  17.087  1.0608  0.7904 -2.1635
  891MPD2    N113121   0.700   3.485  16.642  0.1830 -0.9867  0.2852
  891MPD2    H713122   0.653   3.457  16.556  2.8708 -0.6944 -1.2641
  892MPD2     C13123   1.976   0.189  14.336 -0.2610  0.1731  0.1398
  892MPD2    C113124   1.901   0.085  14.381  0.4594  0.0733 -1.1839
  892MPD2    C213125   1.947   4.724  14.468 -0.4144 -0.6793  0.4173
  892MPD2    C313126   2.080   4.716  14.505  0.4599  0.7598  0.8096
  892MPD2    C413127   2.159   0.084  14.460 -0.3237 -0.5584 -0.2054
  892MPD2    C513128   2.107   0.184  14.378 -0.1039  0.4964 -0.0912
  892MPD2     H13129   1.879   4.641  14.486 -1.8847  0.3958 -0.1431
  892MPD2    H113130   2.265   0.091  14.480 -0.6741 -0.3331  1.5571
  892MPD2    H213131   1.938   0.264  14.269 -0.3572  0.8421  0.9409
  892MPD2    H313132   2.175   0.261  14.342  0.7144  0.5017  1.4666
  892MPD2     N13133   2.142   4.611  14.580  0.4986 -0.9470 -0.1409
  892MPD2    H513134   2.236   4.640  14.606 -1.1177  2.2952  2.0838
  892MPD2    N113135   1.764   0.088  14.351 -0.3455  0.5075  0.2445
  892MPD2    H713136   1.707   0.012  14.387  1.3312 -1.1014 -0.5087
  893MPD2     C13137   3.705   3.384   1.801  0.4734  0.2587 -0.4552
  893MPD2    C113138   3.649   3.296   1.713  0.0057 -0.5136 -0.7559
  893MPD2    C213139   3.514   3.261   1.718 -0.1384 -0.4776  1.0971
  893MPD2    C313140   3.426   3.332   1.803 -0.4561 -0.4636 -0.5492
  893MPD2    C413141   3.485   3.420   1.884  0.0331  0.6351 -0.4798
  893MPD2    C513142   3.624   3.443   1.891 -0.0655 -0.4610  0.2777
  893MPD2     H13143   3.473   3.181   1.656  1.8243 -1.8397  1.5539
  893MPD2    H113144   3.432   3.485   1.952  3.1073  1.2136  1.4122
  893MPD2    H213145   3.814   3.388   1.803  0.4897 -0.8319  0.8392
  893MPD2    H313146   3.668   3.511   1.964 -0.3005  1.2489 -1.1600
  893MPD2     N13147   3.285   3.318   1.820 -0.0173 -0.1516 -0.5467
  893MPD2    H513148   3.238   3.373   1.890 -1.3526 -1.7791 -0.1549
  893MPD2    N113149   3.740   3.229   1.632  0.4756  0.2126 -0.1417
  893MPD2    H713150   3.841   3.238   1.641  0.3355  2.9563 -1.3605
  894MPD2     C13151   1.620   0.391   1.525 -0.6183  0.5528 -0.1060
  894MPD2    C113152   1.487   0.425   1.507 -0.4464  0.2985  0.3205
  894MPD2    C213153   1.461   0.536   1.424 -0.3491  0.3863  0.4523
  894MPD2    C313154   1.556   0.612   1.360  0.0920  0.5693 -0.2763
  894MPD2    C413155   1.687   0.566   1.371 -0.4833  0.3107 -0.6595
  894MPD2    C513156   1.714   0.463   1.457 -0.1492 -0.1828 -0.2099
  894MPD2     H13157   1.360   0.566   1.400 -0.4889 -0.2760  0.2159
  894MPD2    H113158   1.773   0.615   1.326 -0.5576  0.1453 -0.9792
  894MPD2    H213159   1.653   0.309   1.588  2.5154  1.0050 -1.1786
  894MPD2    H313160   1.815   0.434   1.479  0.3215  1.5014 -0.1437
  894MPD2     N13161   1.506   0.711   1.277  0.1876  0.5277  0.3256
  894MPD2    H513162   1.408   0.734   1.289  0.2261  0.6763  0.3526
  894MPD2    N113163   1.379   0.346   1.557 -0.0091 -0.1199 -0.1065
  894MPD2    H713164   1.286   0.386   1.542  1.1252  2.8215  0.7859
  895MPD2     C13165   1.154   4.011  13.450  0.2294 -0.1931  0.2192
  895MPD2    C113166   1.022   3.982  13.464  0.1442  0.4162 -0.2982
  895MPD2    C213167   0.966   3.867  13.416 -0.2583  0.2364 -0.1951
  895MPD2    C313168   1.049   3.772  13.358  0.7645 -0.0159 -0.0997
  895MPD2    C413169   1.190   3.791  13.355  0.2107  0.4557 -0.1634
  895MPD2    C513170   1.233   3.913  13.396  0.2739  0.2706 -0.4024
  895MPD2     H13171   0.858   3.865  13.412 -0.3185 -0.2664  1.8512
  895MPD2    H113172   1.266   3.727  13.311 -0.1809 -1.1415  1.4358
  895MPD2    H213173   1.200   4.097  13.497  3.2001 -0.8843 -1.4816
  895MPD2    H313174   1.337   3.936  13.377  0.7769 -1.5618  0.1412
  895MPD2     N13175   0.988   3.668  13.288  0.0260 -0.1769  0.0229
  895MPD2    H513176   0.887   3.667  13.296  0.0405  0.6231  0.3379
  895MPD2    N113177   0.929   4.063  13.537  0.1396 -0.7816  0.1733
  895MPD2    H713178   0.838   4.020  13.552 -0.4252 -0.2858 -1.7311
  896MPD2     C13179   3.158   1.762   0.696  0.0491  0.5097 -0.1222
  896MPD2    C113180   3.141   1.675   0.804 -0.1631  0.2387 -0.1809
  896MPD2    C213181   3.017   1.606   0.803 -0.1758  0.2259  0.3424
  896MPD2    C313182   2.921   1.625   0.707  0.2549  0.4460 -0.4643
  896MPD2    C413183   2.938   1.713   0.602 -0.1757 -1.0751 -0.4608
  896MPD2    C513184   3.053   1.783   0.606 -0.4744 -0.1124  0.0315
  896MPD2     H13185   3.005   1.533   0.882  2.0271  0.3371  0.7855
  896MPD2    H113186   2.868   1.717   0.519  0.6933 -1.4650 -1.2048
  896MPD2    H213187   3.246   1.824   0.697 -1.1579  2.2307 -3.9642
  896MPD2    H313188   3.067   1.855   0.527  2.6807 -2.1736 -1.2518
  896MPD2     N13189   2.809   1.541   0.715 -0.6255 -0.6811 -0.2315
  896MPD2    H513190   2.820   1.462   0.779  2.4507 -1.0953 -1.3125
  896MPD2    N113191   3.243   1.658   0.895 -0.5259 -0.1798 -0.0567
  896MPD2    H713192   3.329   1.707   0.872 -1.4081  1.0290 -0.7528
  897MPD2     C13193   4.401   2.995  10.662  0.0732 -0.3151 -0.2885
  897MPD2    C113194   4.415   3.089  10.762 -0.4429 -0.2664 -0.4970
  897MPD2    C213195   4.393   3.052  10.892 -0.1151  0.0624  0.1957
  897MPD2    C313196   4.358   2.922  10.921 -0.7544  0.3813  0.3340
  897MPD2    C413197   4.342   2.832  10.821 -0.0578  0.0952  0.4634
  897MPD2    C513198   4.378   2.860  10.689 -0.6339 -0.1083  0.3077
  897MPD2     H13199   4.377   3.130  10.966 -0.1149  0.7299 -0.5124
  897MPD2    H113200   4.322   2.726  10.836  1.2499 -0.3358 -0.8027
  897MPD2    H213201   4.419   3.012  10.557  1.3953 -0.0615 -0.0210
  897MPD2    H313202   4.370   2.786  10.610 -2.1691 -0.3913  0.7280
  897MPD2     N13203   4.324   2.892  11.056  0.0520 -0.0496  0.3984
  897MPD2    H513204   4.322   2.977  11.110 -1.1577  0.3000 -0.1973
  897MPD2    N113205   4.454   3.225  10.724 -0.2854 -0.0818 -0.5263
  897MPD2    H713206   4.450   3.242  10.624 -0.4913 -1.1142 -0.6992
  898MPD2     C13207   1.524   3.935  17.378  0.1674 -0.2646 -0.2910
  898MPD2    C113208   1.584   4.047  17.429 -0.5952  0.4085 -0.5357
  898MPD2    C213209   1.519   4.168  17.427 -0.2832 -0.8911  0.2650
  898MPD2    C313210   1.393   4.179  17.379 -0.8165 -0.3919 -0.0472
  898MPD2    C413211   1.327   4.062  17.326 -0.9099  0.5939 -0.7974
  898MPD2    C513212   1.399   3.943  17.320 -0.3570  0.0538 -0.0230
  898MPD2     H13213   1.565   4.250  17.481 -1.4745 -1.4380  2.1418
  898MPD2    H113214   1.237   4.077  17.267 -1.2846  1.5482  0.0160
  898MPD2    H213215   1.569   3.837  17.381  0.9374  0.0829 -0.6481
  898MPD2    H313216   1.343   3.860  17.280 -0.2764 -0.9346  1.8983
  898MPD2     N13217   1.325   4.308  17.389  0.6514  0.4910  0.0307
  898MPD2    H513218   1.373   4.390  17.425 -0.1969  1.5781 -1.2973
  898MPD2    N113219   1.708   4.045  17.490  0.1743  0.6266  0.0797
  898MPD2    H713220   1.746   4.138  17.499  1.1178  0.1678  0.8572
  899MPD2     C13221   2.701   4.726  17.513  0.1394  0.6717  0.2717
  899MPD2    C113222   2.708   0.075  17.626 -0.8012  0.5702 -1.0899
  899MPD2    C213223   2.686   0.026   0.016  0.7060  0.3957  0.5233
  899MPD2    C313224   2.659   4.621   0.031  0.1115 -0.2376  0.6748
  899MPD2    C413225   2.644   4.550  17.657  0.2149 -0.2358  0.3104
  899MPD2    C513226   2.659   4.593  17.529 -1.5107  0.2236  0.2931
  899MPD2     H13227   2.693   0.091   0.102 -1.0388  2.3095 -0.7856
  899MPD2    H113228   2.612   4.446  17.662 -2.2059  0.5429  1.2193
  899MPD2    H213229   2.708   0.032  17.413  0.0026 -0.4025 -0.1747
  899MPD2    H313230   2.657   4.522  17.447  1.0701  0.7309 -0.2474
  899MPD2     N13231   2.640   4.546   0.149  0.3187  0.4924  0.6794
  899MPD2    H513232   2.602   4.452   0.139  2.4582 -0.3757  0.7389
  899MPD2    N113233   2.721   0.212  17.591 -0.2126  0.0298 -0.3182
  899MPD2    H713234   2.724   0.227  17.491  0.8241 -1.7022 -0.5525
  900MPD2     C13235   2.297   0.987  12.232 -0.8267 -0.4098  1.0334
  900MPD2    C113236   2.209   0.947  12.332  0.1354  0.6870  0.3830
  900MPD2    C213237   2.070   0.970  12.313 -0.2520 -0.1655  0.2677
  900MPD2    C313238   2.025   1.044  12.207 -0.6106 -0.1175  0.2855
  900MPD2    C413239   2.117   1.089  12.118  0.4083 -0.3006 -0.2604
  900MPD2    C513240   2.252   1.056  12.124  0.2831  0.7740 -0.8488
  900MPD2     H13241   1.997   0.937  12.387  0.0105  0.2374  0.7015
  900MPD2    H113242   2.096   1.160  12.039 -2.7319 -0.5038  0.3873
  900MPD2    H213243   2.400   0.981  12.267  1.3741  2.8584 -4.8382
  900MPD2    H313244   2.313   1.096  12.045  1.4788  0.7177  0.0493
  900MPD2     N13245   1.889   1.089  12.199  0.3046  0.7264 -0.0476
  900MPD2    H513246   1.824   1.051  12.267  2.8334 -0.5031  1.6445
  900MPD2    N113247   2.257   0.890  12.452  0.2853  0.4440  0.2630
  900MPD2    H713248   2.358   0.879  12.451  0.1277 -1.0297 -2.0463
  901MPD2     C13249   2.188   0.083  13.164  0.7845  0.0430  0.3270
  901MPD2    C113250   2.306   0.092  13.098  0.7524  0.2067 -0.0464
  901MPD2    C213251   2.337   0.212  13.028  0.7549  0.5524 -0.6236
  901MPD2    C313252   2.238   0.312  13.025  0.4173  0.7273 -0.1640
  901MPD2    C413253   2.123   0.297  13.102 -0.0656 -0.0271  0.0019
  901MPD2    C513254   2.094   0.180  13.168  0.1892  0.3927 -0.7452
  901MPD2     H13255   2.431   0.225  12.977 -0.0219 -1.2098 -2.4938
  901MPD2    H113256   2.048   0.375  13.095  1.6511  2.0960  5.2065
  901MPD2    H213257   2.167   4.728  13.221  2.9720 -0.8115 -0.2370
  901MPD2    H313258   2.002   0.171  13.224  0.4662  0.6143 -0.2618
  901MPD2     N13259   2.275   0.419  12.941 -0.0851 -0.2269 -0.2052
  901MPD2    H513260   2.366   0.413  12.898  0.5897 -1.3781  1.3567
  901MPD2    N113261   2.383   4.709  13.084 -0.0615  0.8385  0.0952
  901MPD2    H713262   2.346   4.620  13.117  1.1820  0.0611 -0.5960
  902MPD2     C13263   0.384   3.640  12.851  0.1123  0.2218 -0.7090
  902MPD2    C113264   0.409   3.700  12.727  0.6443  0.7302 -0.4932
  902MPD2    C213265   0.526   3.664  12.666 -0.3392 -0.5546  0.1188
  902MPD2    C313266   0.624   3.580  12.721 -0.0315 -0.1323  0.2414
  902MPD2    C413267   0.597   3.523  12.848  0.3196 -0.2218 -0.4212
  902MPD2    C513268   0.479   3.555  12.904  0.0924 -0.3691 -0.3901
  902MPD2     H13269   0.538   3.701  12.565  1.7045 -0.3165  0.4589
  902MPD2    H113270   0.667   3.462  12.903 -0.1774 -0.1038  0.3439
  902MPD2    H213271   0.293   3.655  12.906 -0.0177  1.0465 -1.1483
  902MPD2    H313272   0.444   3.518  13.000  1.1066  0.1594  0.1816
  902MPD2     N13273   0.753   3.582  12.664  1.0223 -0.4923  0.2711
  902MPD2    H513274   0.770   3.642  12.584  1.1907  0.3231  0.9219
  902MPD2    N113275   0.299   3.773  12.669  0.2789 -0.0179 -0.0516
  902MPD2    H713276   0.207   3.767  12.711  0.5629 -1.0706  0.4155
  903MPD2     C13277   0.972   3.652  11.917 -0.3178 -0.1542  0.2052
  903MPD2    C113278   0.905   3.673  12.035  0.4914 -0.5424 -0.0787
  903MPD2    C213279   0.769   3.703  12.033  0.4947 -0.4635 -0.3095
  903MPD2    C313280   0.704   3.714  11.910  0.0145  0.6042  0.4614
  903MPD2    C413281   0.771   3.681  11.797  0.0807  0.2628 -0.2169
  903MPD2    C513282   0.907   3.647  11.804  0.0623 -0.1615  0.1149
  903MPD2     H13283   0.715   3.721  12.126  0.1634 -0.2740 -0.5391
  903MPD2    H113284   0.724   3.685  11.699 -0.7430  2.0943  0.2548
  903MPD2    H213285   1.078   3.631  11.921 -0.2939 -0.1036 -0.1755
  903MPD2    H313286   0.962   3.623  11.714 -0.0787 -0.2536  0.0545
  903MPD2     N13287   0.565   3.742  11.918  0.1849 -0.6124 -0.3742
  903MPD2    H513288   0.529   3.783  12.004  0.3307  1.8995 -1.4858
  903MPD2    N113289   0.976   3.643  12.153  0.0113 -0.4975  0.0450
  903MPD2    H713290   1.062   3.589  12.144 -0.6380 -0.9675 -3.1812
  904MPD2     C13291   0.527   2.952  14.235  0.2707 -0.2892 -0.6458
  904MPD2    C113292   0.624   3.045  14.208 -0.7825 -0.2484 -0.1476
  904MPD2    C213293   0.743   2.999  14.170 -0.1921  0.8917 -0.4701
  904MPD2    C313294   0.771   2.861  14.147 -0.5817 -0.2333  0.3769
  904MPD2    C413295   0.678   2.772  14.183  0.9400  0.1636 -0.1779
  904MPD2    C513296   0.556   2.820  14.228 -0.3403  0.6760  0.4352
  904MPD2     H13297   0.824   3.066  14.142 -1.2153  1.9181 -0.9598
  904MPD2    H113298   0.690   2.665  14.188 -1.6958  0.0182  3.2023
  904MPD2    H213299   0.425   2.981  14.257  0.3223 -0.4318 -0.2191
  904MPD2    H313300   0.475   2.753  14.250  1.6422 -0.6462  3.6282
  904MPD2     N13301   0.898   2.820  14.099 -0.2797 -0.1023 -0.1207
  904MPD2    H513302   0.963   2.893  14.072  3.2814 -3.0418  0.5924
  904MPD2    N113303   0.592   3.180  14.222 -0.7085  0.3668  0.0996
  904MPD2    H713304   0.495   3.200  14.246 -0.6764  0.0438  0.4920
  905MPD2     C13305   0.280   3.469  13.669  0.3020 -0.2913 -0.3448
  905MPD2    C113306   0.407   3.497  13.692 -0.7437  0.8643 -0.1868
  905MPD2    C213307   0.495   3.505  13.589  0.0473  0.2769  0.3937
  905MPD2    C313308   0.453   3.467  13.463 -0.3668  0.3036  0.2851
  905MPD2    C413309   0.326   3.450  13.445  0.7929  0.0016 -0.4849
  905MPD2    C513310   0.228   3.459  13.542  0.6581  0.0909  0.0302
  905MPD2     H13311   0.603   3.516  13.600  0.2792  0.6072 -2.2294
  905MPD2    H113312   0.291   3.421  13.347 -1.4310  0.4448  0.1848
  905MPD2    H213313   0.213   3.465  13.754  2.2614 -0.7281  1.2006
  905MPD2    H313314   0.124   3.434  13.524  0.6254  0.9037 -0.8918
  905MPD2     N13315   0.538   3.443  13.355 -0.2540  0.2399 -0.1007
  905MPD2    H513316   0.500   3.379  13.286  0.1557  0.6326 -0.6913
  905MPD2    N113317   0.444   3.512  13.824 -0.1310  1.0378  0.3033
  905MPD2    H713318   0.366   3.515  13.889  0.4284  2.9404  0.9046
  906MPD2     C13319   3.179   2.715  11.660  0.2722  0.0070 -0.1726
  906MPD2    C113320   3.076   2.731  11.559  0.3489  0.1714  0.0606
  906MPD2    C213321   2.966   2.657  11.576  0.5376 -0.2376  0.4547
  906MPD2    C313322   2.953   2.569  11.680  0.0796 -0.2465  0.0892
  906MPD2    C413323   3.046   2.565  11.781  0.1259  0.6704  1.0765
  906MPD2    C513324   3.163   2.633  11.764 -0.3937 -0.1797 -0.1898
  906MPD2     H13325   2.887   2.673  11.504  0.5580 -0.2829  0.4224
  906MPD2    H113326   3.048   2.491  11.860 -1.1275  1.8156  2.1844
  906MPD2    H213327   3.272   2.770  11.657  1.6583 -2.3246 -0.2332
  906MPD2    H313328   3.244   2.616  11.835 -0.3349 -0.6749 -0.3756
  906MPD2     N13329   2.838   2.488  11.699 -0.1811  0.4706  0.5277
  906MPD2    H513330   2.836   2.429  11.782 -1.4351  1.5241  1.2511
  906MPD2    N113331   3.086   2.814  11.438  0.1005  0.7467 -0.1217
  906MPD2    H713332   2.999   2.828  11.387 -0.4707  0.4420  0.7688
  907MPD2     C13333   1.883   2.640  15.788 -0.6354 -0.2004 -0.5962
  907MPD2    C113334   1.810   2.535  15.740  0.4836  0.2052 -0.1651
  907MPD2    C213335   1.793   2.417  15.806 -0.0755 -0.5065  0.2323
  907MPD2    C313336   1.855   2.404  15.930  0.7321  0.3448  0.5751
  907MPD2    C413337   1.943   2.502  15.973  0.3069  0.4560  0.2283
  907MPD2    C513338   1.946   2.623  15.908  0.4119 -1.0631  0.4297
  907MPD2     H13339   1.722   2.339  15.782  0.4385 -0.2872 -1.9912
  907MPD2    H113340   2.009   2.489  16.058  0.7065 -3.1516 -0.6483
  907MPD2    H213341   1.899   2.734  15.737 -2.3711  0.7497  0.6360
  907MPD2    H313342   2.008   2.708  15.938 -2.5399  2.0563 -2.3227
  907MPD2     N13343   1.811   2.295  16.008 -0.0317 -0.7626  0.6450
  907MPD2    H513344   1.735   2.240  15.971 -0.1810  0.1001 -0.3436
  907MPD2    N113345   1.760   2.538  15.608  0.3659  0.7220  0.0926
  907MPD2    H713346   1.723   2.453  15.567  2.2703  1.1561 -2.5680
  908MPD2     C13347   0.457   3.204  10.403  1.0026 -0.1412 -0.5910
  908MPD2    C113348   0.425   3.189  10.539 -0.1615  0.3044 -0.1141
  908MPD2    C213349   0.325   3.268  10.590  0.7640  0.4615 -0.0280
  908MPD2    C313350   0.252   3.359  10.508  0.1729  0.0083  0.0248
  908MPD2    C413351   0.292   3.376  10.376  0.7043 -0.6347 -0.1963
  908MPD2    C513352   0.389   3.291  10.325 -0.1072 -0.6286  0.2649
  908MPD2     H13353   0.295   3.269  10.694 -2.7615  1.7239 -1.0293
  908MPD2    H113354   0.244   3.451  10.314 -1.7771 -1.7136  0.4251
  908MPD2    H213355   0.531   3.144  10.352 -0.7663 -0.6973 -2.4673
  908MPD2    H313356   0.412   3.284  10.219 -0.8020 -1.0182  0.1428
  908MPD2     N13357   0.139   3.418  10.572  0.2499  0.2763  0.1370
  908MPD2    H513358   0.127   3.402  10.672  0.7888 -1.8149 -0.1486
  908MPD2    N113359   0.482   3.085  10.614  0.2224  0.6760  0.1605
  908MPD2    H713360   0.539   3.016  10.565 -0.6003 -0.4542  0.7949
  909MPD2     C13361   4.719   0.946  11.690  0.0574 -0.6933  0.1153
  909MPD2    C113362   0.062   1.062  11.688  0.1365  0.5226 -0.4231
  909MPD2    C213363   0.074   1.132  11.806 -0.5107 -0.2828 -0.3846
  909MPD2    C313364   4.732   1.108  11.918 -0.1683 -0.6337  0.2208
  909MPD2    C413365   4.659   0.996  11.919  0.7736 -0.2910 -0.2186
  909MPD2    C513366   4.654   0.913  11.803  0.2607  0.1727 -0.5590
  909MPD2     H13367   0.139   1.218  11.814 -0.0286 -0.5052 -2.0531
  909MPD2    H113368   4.589   0.963  11.995 -0.8149  2.2219 -0.5998
  909MPD2    H213369   4.703   0.879  11.606  1.0772  0.2627 -0.8433
  909MPD2    H313370   4.601   0.819  11.802  2.5622 -1.1586  0.6191
  909MPD2     N13371   4.723   1.203  12.014 -0.1853  0.0048 -0.0153
  909MPD2    H513372   0.045   1.286  12.002 -0.0943  0.0643  0.7913
  909MPD2    N113373   0.131   1.107  11.572 -0.0776  0.3554  0.1207
  909MPD2    H713374   0.186   1.192  11.582  2.5445 -1.1296 -1.3318
  910MPD2     C13375   1.462   3.047  16.610  0.8584 -0.0655 -0.0204
  910MPD2    C113376   1.474   2.941  16.521  0.3204  0.0588  0.0132
  910MPD2    C213377   1.456   2.974  16.386  0.1349  0.7891  0.0556
  910MPD2    C313378   1.413   3.103  16.345 -0.2184 -0.0321 -0.1921
  910MPD2    C413379   1.388   3.199  16.442  0.0945  0.2193 -0.1644
  910MPD2    C513380   1.409   3.163  16.570  0.6563  0.0265  0.2784
  910MPD2     H13381   1.484   2.900  16.312 -1.6358  0.7872 -0.6101
  910MPD2    H113382   1.349   3.299  16.424  1.1564  0.3276 -1.8053
  910MPD2    H213383   1.472   3.023  16.715 -1.1520 -1.4979 -0.1604
  910MPD2    H313384   1.394   3.237  16.647  0.6204  1.1706 -0.8203
  910MPD2     N13385   1.386   3.141  16.210  0.2536 -0.3273 -0.1501
  910MPD2    H513386   1.347   3.235  16.199  2.1787  0.7932  2.5291
  910MPD2    N113387   1.521   2.809  16.552  0.6794  0.1374 -0.5195
  910MPD2    H713388   1.512   2.742  16.477  2.0081 -0.7782  0.1325
  911MPD2     C13389   3.807   3.384  16.715  0.4419  0.7490 -0.1484
  911MPD2    C113390   3.879   3.500  16.690  0.1063 -0.0970  0.3097
  911MPD2    C213391   3.808   3.622  16.673  0.2473  0.0145 -0.1597
  911MPD2    C313392   3.670   3.623  16.676 -0.1124 -0.1866  0.1351
  911MPD2    C413393   3.606   3.505  16.676 -0.0974  0.3026 -0.3480
  911MPD2    C513394   3.672   3.384  16.697 -0.7017 -0.4485  0.0694
  911MPD2     H13395   3.874   3.699  16.637  1.3991 -1.5861 -1.5000
  911MPD2    H113396   3.501   3.483  16.663 -0.3495  0.7823  0.8203
  911MPD2    H213397   3.855   3.291  16.744 -0.4556 -0.4468 -2.5529
  911MPD2    H313398   3.612   3.294  16.687 -0.3969 -0.6026 -0.3923
  911MPD2     N13399   3.586   3.739  16.654  0.1202  0.6876  0.3132
  911MPD2    H513400   3.487   3.722  16.638  1.0961 -3.8210 -0.8079
  911MPD2    N113401   4.021   3.485  16.685  0.1931  0.7433  0.1943
  911MPD2    H713402   4.055   3.392  16.704  0.2525  0.9577  1.1367
  912MPD2     C13403   3.299   3.771  16.006 -0.2422 -1.1905  0.2664
  912MPD2    C113404   3.323   3.736  16.139 -0.3837 -0.0683 -0.0504
  912MPD2    C213405   3.329   3.597  16.166 -0.0810 -0.2699  0.1002
  912MPD2    C313406   3.318   3.505  16.064 -0.1789  0.5172 -0.0202
  912MPD2    C413407   3.297   3.544  15.938  0.1084  0.1747  0.0594
  912MPD2    C513408   3.285   3.679  15.906  0.1429 -0.5763  0.0855
  912MPD2     H13409   3.360   3.566  16.265 -1.2556 -2.2796 -0.1677
  912MPD2    H113410   3.296   3.472  15.857 -0.5112  0.1080  0.1237
  912MPD2    H213411   3.304   3.874  15.971  0.7423 -1.3207  0.0247
  912MPD2    H313412   3.254   3.711  15.807  0.6955  0.5152  0.2572
  912MPD2     N13413   3.337   3.372  16.113  0.2589  0.2483  0.3318
  912MPD2    H513414   3.334   3.358  16.213 -1.8497  0.7392  0.3409
  912MPD2    N113415   3.342   3.841  16.231 -0.2631 -0.4095  0.3230
  912MPD2    H713416   3.351   3.934  16.191 -1.1153 -0.1343  0.7672
  913MPD2     C13417   4.544   0.176  10.625 -0.1202 -0.0363  0.0467
  913MPD2    C113418   4.553   0.061  10.696 -0.6659 -0.6858 -0.7441
  913MPD2    C213419   4.679   0.001  10.711 -0.4478 -0.0650 -0.2927
  913MPD2    C313420   0.059   0.054  10.647  0.4687 -0.0775 -0.0931
  913MPD2    C413421   0.049   0.174  10.578  0.0802 -0.4372  0.1330
  913MPD2    C513422   4.662   0.236  10.573 -0.4664  0.1741  0.1467
  913MPD2     H13423   4.693   4.651  10.776 -1.7876 -0.7903 -0.9484
  913MPD2    H113424   0.135   0.230  10.543  0.4785  0.4949  2.6007
  913MPD2    H213425   4.453   0.231  10.608  0.1958  0.4400 -0.1117
  913MPD2    H313426   4.661   0.331  10.520  0.6720 -0.6233 -1.3018
  913MPD2     N13427   0.188   4.729  10.658  0.0288  0.8980  0.0098
  913MPD2    H513428   0.258   0.034  10.597 -0.8509  0.2963 -1.3954
  913MPD2    N113429   4.433   0.019  10.755  0.1725  0.0232  0.0677
  913MPD2    H713430   4.352   0.074  10.726  0.8013  0.2354 -1.2614
  914MPD2     C13431   2.187   4.733  12.311  0.3995 -0.3811  0.4180
  914MPD2    C113432   2.213   0.080  12.410 -0.1860 -0.0758  1.1807
  914MPD2    C213433   2.260   0.026  12.525 -0.6447  0.7919  0.0796
  914MPD2    C313434   2.286   4.627  12.540  0.2211 -0.8271 -0.2649
  914MPD2    C413435   2.255   4.540  12.437 -0.6034 -0.2002  0.2133
  914MPD2    C513436   2.209   4.599  12.324  0.1002 -0.1962 -0.6174
  914MPD2     H13437   2.279   0.094  12.608 -1.9083 -1.2435  2.0259
  914MPD2    H113438   2.269   4.432  12.440  0.3017 -0.0783  0.3851
  914MPD2    H213439   2.139   0.028  12.219  0.5174 -0.0647  0.4582
  914MPD2    H313440   2.174   4.544  12.238 -0.1667 -1.7240  0.4826
  914MPD2     N13441   2.344   4.578  12.662 -0.7023 -0.8574 -1.2482
  914MPD2    H513442   2.348   4.648  12.736  0.8675 -1.3744 -0.8449
  914MPD2    N113443   2.198   0.221  12.391 -0.1913  0.2448 -0.0894
  914MPD2    H713444   2.139   0.252  12.315 -1.5070  1.3294  1.3591
  915MPD2     C13445   0.513   0.469  15.710 -0.0031 -0.1886  0.5715
  915MPD2    C113446   0.389   0.504  15.669  0.0503  0.2610  0.3364
  915MPD2    C213447   0.292   0.547  15.762  0.3265 -0.3038 -0.5388
  915MPD2    C313448   0.327   0.562  15.894  0.1452  0.0813  0.0995
  915MPD2    C413449   0.466   0.542  15.929 -0.0667  0.2331 -0.4062
  915MPD2    C513450   0.556   0.484  15.837  0.2838 -0.0023 -0.6172
  915MPD2     H13451   0.188   0.564  15.734  0.4136  0.5684 -0.3281
  915MPD2    H113452   0.495   0.573  16.029  0.1518  1.3716 -0.8232
  915MPD2    H213453   0.584   0.434  15.636 -0.0829  2.6952 -0.8432
  915MPD2    H313454   0.660   0.468  15.860 -0.1045 -0.1842  0.9986
  915MPD2     N13455   0.231   0.616  15.986 -0.2987  0.1387 -0.0284
  915MPD2    H513456   0.137   0.625  15.949 -0.3565 -1.2388 -0.1939
  915MPD2    N113457   0.350   0.479  15.534  0.1368  0.7600 -0.1507
  915MPD2    H713458   0.417   0.433  15.473 -1.7969  1.0962 -2.5101
  916MPD2     C13459   3.014   3.369  15.967  0.3764  0.6037 -0.2150
  916MPD2    C113460   2.988   3.256  16.044  0.4300  0.2934  1.4468
  916MPD2    C213461   2.964   3.142  15.975  0.8993 -0.1940  0.0513
  916MPD2    C313462   2.966   3.140  15.840  0.8965  0.3126  0.4454
  916MPD2    C413463   2.994   3.249  15.762 -0.0896 -0.5745  0.3581
  916MPD2    C513464   3.032   3.355  15.833  0.4263  0.5227 -0.7987
  916MPD2     H13465   2.920   3.060  16.030 -0.3025 -0.7372 -1.7258
  916MPD2    H113466   2.998   3.250  15.654 -0.9232 -0.2759  0.3319
  916MPD2    H213467   3.021   3.470  16.006 -0.8309  0.7286 -0.3042
  916MPD2    H313468   3.071   3.445  15.787  2.6576 -0.1455 -0.1946
  916MPD2     N13469   2.947   3.013  15.780 -0.5554 -0.5519  0.1557
  916MPD2    H513470   2.943   2.930  15.839  2.5457 -0.8551 -0.0566
  916MPD2    N113471   2.952   3.277  16.176 -0.3586 -0.1929 -0.4340
  916MPD2    H713472   2.936   3.372  16.207 -0.7175  0.0166 -1.2593
  917MPD2     C13473   3.487   0.742  11.131  0.6544 -0.0176  0.5115
  917MPD2    C113474   3.533   0.680  11.244  0.5960 -0.0235 -0.1463
  917MPD2    C213475   3.673   0.682  11.276 -0.3956  0.0912  0.3867
  917MPD2    C313476   3.753   0.761  11.194  0.3940 -0.7158 -0.0199
  917MPD2    C413477   3.704   0.815  11.081  0.1409 -0.0553  0.2438
  917MPD2    C513478   3.572   0.815  11.052 -0.0170 -0.1819 -0.6436
  917MPD2     H13479   3.711   0.626  11.361  0.1475  0.7950  0.5989
  917MPD2    H113480   3.777   0.869  11.022 -1.1621  1.0292 -0.3917
  917MPD2    H213481   3.382   0.742  11.104  1.0127 -0.0217 -0.8872
  917MPD2    H313482   3.546   0.861  10.958  0.3559 -1.6868 -1.4815
  917MPD2     N13483   3.887   0.788  11.232  0.0278  0.1004  0.0906
  917MPD2    H513484   3.932   0.858  11.174  1.2246  0.7022  1.7420
  917MPD2    N113485   3.432   0.617  11.330  0.4778 -0.0061  0.2575
  917MPD2    H713486   3.335   0.625  11.301  0.6030  1.2934  0.1734
  918MPD2     C13487   3.171   0.847  12.136 -0.8545 -0.4746  0.1956
  918MPD2    C113488   3.291   0.853  12.065 -0.7736 -0.0967  0.4242
  918MPD2    C213489   3.297   0.796  11.940  0.1880 -0.0777  0.7694
  918MPD2    C313490   3.176   0.759  11.881 -0.6999  0.2425  0.0175
  918MPD2    C413491   3.059   0.766  11.952  0.1693 -0.0040  0.9880
  918MPD2    C513492   3.059   0.805  12.078  0.9021 -0.5432 -0.4159
  918MPD2     H13493   3.382   0.800  11.872 -1.1127 -0.1464 -0.8812
  918MPD2    H113494   2.966   0.746  11.900 -0.1429 -1.8548  2.2568
  918MPD2    H213495   3.160   0.883  12.237  0.6931  2.6975 -0.7573
  918MPD2    H313496   2.965   0.815  12.130  1.8115  0.2372  1.0530
  918MPD2     N13497   3.184   0.711  11.752  0.3880 -0.3303  0.1251
  918MPD2    H513498   3.275   0.712  11.707 -0.0505 -0.7846 -0.7592
  918MPD2    N113499   3.412   0.903  12.118 -0.2126 -0.2535 -0.0523
  918MPD2    H713500   3.499   0.878  12.072 -0.6644 -0.7694 -0.6344
  919MPD2     C13501   3.890   4.639  12.311  0.1183  0.0009  0.2811
  919MPD2    C113502   3.833   4.530  12.257 -0.0588  0.0420  0.7169
  919MPD2    C213503   3.843   4.506  12.122  0.3819 -0.9562  0.1326
  919MPD2    C313504   3.915   4.586  12.038 -0.0729  0.1262  0.7017
  919MPD2    C413505   3.968   4.706  12.091 -0.1246 -0.3065 -0.3098
  919MPD2    C513506   3.949   4.731  12.225  0.3713 -0.0498 -0.5194
  919MPD2     H13507   3.805   4.410  12.090 -2.1977  1.1187 -3.0927
  919MPD2    H113508   4.014   0.050  12.033 -3.0236  0.9969 -0.8319
  919MPD2    H213509   3.891   4.663  12.417  0.2019  1.9472 -0.1568
  919MPD2    H313510   3.990   0.086  12.269 -1.1647  1.0462 -1.3364
  919MPD2     N13511   3.924   4.567  11.894  0.1379  0.8526  0.4270
  919MPD2    H513512   3.983   4.633  11.844 -0.4493  1.6512  0.7828
  919MPD2    N113513   3.777   4.426  12.331  0.3036 -0.8696  0.0258
  919MPD2    H713514   3.758   4.337  12.286 -0.4487 -1.2677  1.1330
  920MPD2     C13515   4.078   0.183  10.968  0.0023 -0.3088 -0.0603
  920MPD2    C113516   3.949   0.130  10.971 -0.0242 -0.2656  0.2953
  920MPD2    C213517   3.902   0.062  11.083 -0.6120  0.9318  0.2106
  920MPD2    C313518   3.979   0.042  11.196 -0.1922  0.7804 -0.0507
  920MPD2    C413519   4.101   0.106  11.198  0.4891 -0.5670 -0.1193
  920MPD2    C513520   4.154   0.159  11.082 -0.1197  0.2028 -0.6477
  920MPD2     H13521   3.798   0.031  11.074 -0.2088 -0.7337  1.2878
  920MPD2    H113522   4.179   0.095  11.272  0.4521 -1.5676 -0.2286
  920MPD2    H213523   4.113   0.238  10.882 -1.6408  2.3083  0.9342
  920MPD2    H313524   4.254   0.196  11.101 -1.1240  1.7117  1.7045
  920MPD2     N13525   3.930   4.688  11.294  0.5202 -0.0991  0.0030
  920MPD2    H513526   3.837   4.651  11.278  0.1649  0.7082  0.1833
  920MPD2    N113527   3.850   0.139  10.870 -0.2053  0.5034 -0.2378
  920MPD2    H713528   3.757   0.107  10.892 -0.4659  0.5321 -1.3005
  921MPD2     C13529   0.168   4.048  16.786  0.0721  0.2305  0.5440
  921MPD2    C113530   0.188   3.950  16.687 -0.0713  0.4430 -0.0835
  921MPD2    C213531   0.089   3.864  16.651  0.3171 -0.3934  0.0611
  921MPD2    C313532   4.698   3.892  16.703 -0.2963 -0.2619 -0.3336
  921MPD2    C413533   4.670   3.991  16.798 -0.2379  0.2309 -0.3814
  921MPD2    C513534   0.040   4.075  16.829  0.0758  0.4388 -0.3947
  921MPD2     H13535   0.112   3.781  16.585 -0.0884 -0.8301  0.4665
  921MPD2    H113536   4.569   4.006  16.835 -0.0896  1.4405 -0.4670
  921MPD2    H213537   0.259   4.103  16.808  0.5464 -0.9264  1.5181
  921MPD2    H313538   0.027   4.154  16.901  0.9443 -0.4354  0.7308
  921MPD2     N13539   4.588   3.811  16.660 -0.2741 -0.3853 -0.4753
  921MPD2    H513540   4.501   3.851  16.694  2.0795  2.7470  1.8981
  921MPD2    N113541   0.324   3.936  16.637 -0.1801  0.0477  0.0750
  921MPD2    H713542   0.402   3.981  16.684 -1.2150  0.6336  1.2185
  922MPD2     C13543   0.888   1.172  17.194 -0.3371  0.7305 -0.6864
  922MPD2    C113544   0.792   1.266  17.222 -0.2887 -0.2729 -0.0233
  922MPD2    C213545   0.663   1.227  17.239  0.6790  0.0222 -0.4008
  922MPD2    C313546   0.632   1.088  17.242  0.7503  0.1577  0.1731
  922MPD2    C413547   0.730   0.993  17.204 -0.2398 -0.1089  0.1890
  922MPD2    C513548   0.857   1.034  17.184 -0.2473  0.2674  0.4429
  922MPD2     H13549   0.580   1.296  17.253 -1.0379 -1.6916 -1.9891
  922MPD2    H113550   0.711   0.888  17.191  2.2498 -0.5479 -0.0296
  922MPD2    H213551   0.992   1.197  17.176  0.1201 -1.5674 -1.2052
  922MPD2    H313552   0.934   0.964  17.153 -0.2220  0.6116 -0.2738
  922MPD2     N13553   0.488   1.063  17.249  0.2736  0.3573  0.3724
  922MPD2    H513554   0.420   1.136  17.226 -0.1668 -0.5061 -1.0287
  922MPD2    N113555   0.822   1.402  17.239 -0.7720 -0.2387  0.5854
  922MPD2    H713556   0.741   1.455  17.271  0.1136 -0.4265  3.1195
  923MPD2     C13557   2.934   3.066   9.158 -0.6653 -0.5319  0.6718
  923MPD2    C113558   2.886   3.155   9.253  0.8845  0.0490 -0.3240
  923MPD2    C213559   2.905   3.123   9.392  0.2793 -0.2670  0.1527
  923MPD2    C313560   2.978   3.010   9.431 -0.4658  0.4918  0.4604
  923MPD2    C413561   3.025   2.922   9.333 -0.7908 -0.7349 -0.0150
  923MPD2    C513562   2.998   2.950   9.201 -0.3698 -0.3626 -0.2172
  923MPD2     H13563   2.862   3.192   9.464 -0.0216 -1.8925  1.5380
  923MPD2    H113564   3.073   2.826   9.348 -1.4740 -1.1478 -0.4354
  923MPD2    H213565   2.927   3.088   9.053  0.3601  0.9219  0.9051
  923MPD2    H313566   3.040   2.877   9.133  1.5188  0.9374 -0.4607
  923MPD2     N13567   3.004   2.976   9.565 -0.1209 -0.6164 -0.2453
  923MPD2    H513568   3.035   2.880   9.569 -0.9284 -0.9059 -0.8434
  923MPD2    N113569   2.824   3.271   9.204 -0.1022  0.1025 -0.7682
  923MPD2    H713570   2.826   3.280   9.103  0.5921  2.2602 -0.5478
  924MPD2     C13571   1.411   1.532  15.816  0.6518 -0.3582 -0.3651
  924MPD2    C113572   1.401   1.549  15.955  0.0017 -0.0218  0.1362
  924MPD2    C213573   1.479   1.641  16.023  0.6045 -0.2144  0.2082
  924MPD2    C313574   1.588   1.699  15.957 -0.5020  0.1165 -0.6546
  924MPD2    C413575   1.597   1.697  15.821  0.5724  0.3313  0.2691
  924MPD2    C513576   1.512   1.611  15.755 -0.4576  0.2566  0.7492
  924MPD2     H13577   1.470   1.654  16.130 -0.4012 -2.0949  0.3404
  924MPD2    H113578   1.668   1.756  15.764  1.0527  0.6920  1.2374
  924MPD2    H213579   1.331   1.483  15.761 -0.2070 -1.4410  1.8879
  924MPD2    H313580   1.531   1.599  15.649  2.0204 -0.0838  1.2242
  924MPD2     N13581   1.679   1.785  16.020 -0.0376 -0.6224 -0.2434
  924MPD2    H513582   1.747   1.835  15.963 -2.1231  2.4474 -0.0374
  924MPD2    N113583   1.299   1.479  16.020 -0.3715 -0.0264  0.6920
  924MPD2    H713584   1.214   1.452  15.972 -0.2080  2.2451 -0.8807
  925MPD2     C13585   0.994   4.582  15.405 -0.0345 -0.4986 -0.3148
  925MPD2    C113586   0.921   4.467  15.423  0.0874 -0.8029  0.4097
  925MPD2    C213587   0.891   4.433  15.555 -0.1391  0.0473  0.5636
  925MPD2    C313588   0.927   4.519  15.655 -0.0392 -0.2470 -0.0324
  925MPD2    C413589   1.000   4.631  15.639  0.3761 -0.2525  0.3487
  925MPD2    C513590   1.028   4.661  15.511 -0.0465  0.4287  0.1376
  925MPD2     H13591   0.824   4.348  15.561 -0.8577  0.6804  1.5357
  925MPD2    H113592   1.027   4.699  15.719  0.4765  1.0135 -0.7487
  925MPD2    H213593   1.017   4.622  15.307  0.3356  0.9895  0.3780
  925MPD2    H313594   1.074   0.021  15.489 -1.8017  1.4390  0.8638
  925MPD2     N13595   0.886   4.491  15.787 -0.2378 -0.2318 -1.1898
  925MPD2    H513596   0.898   4.565  15.856  0.5102  0.1883 -1.7644
  925MPD2    N113597   0.872   4.383  15.319 -1.0222  0.0682 -0.2218
  925MPD2    H713598   0.810   4.306  15.341 -0.1314 -1.0178 -1.5410
  926MPD2     C13599   4.400   2.707  14.133  0.0372  0.1519  0.0152
  926MPD2    C113600   4.297   2.769  14.066 -0.3572 -0.5399  0.1817
  926MPD2    C213601   4.333   2.810  13.942 -0.5672  0.3542 -0.7026
  926MPD2    C313602   4.462   2.795  13.884  0.2378  0.2927 -0.2234
  926MPD2    C413603   4.555   2.725  13.957 -0.0303 -0.3989 -0.1212
  926MPD2    C513604   4.528   2.678  14.078 -0.3672  0.6654  0.7347
  926MPD2     H13605   4.257   2.865  13.888  0.7913  1.1504 -1.8004
  926MPD2    H113606   4.654   2.704  13.920 -0.2524  0.1948 -1.0466
  926MPD2    H213607   4.378   2.666  14.231  0.5546  2.2401  0.9964
  926MPD2    H313608   4.612   2.650  14.140 -2.1121  0.6361  3.0994
  926MPD2     N13609   4.500   2.851  13.759  0.2737 -0.2102  0.5862
  926MPD2    H513610   4.587   2.817  13.721  1.3815  3.7383 -0.3918
  926MPD2    N113611   4.162   2.783  14.108 -0.1176 -0.0021 -0.3968
  926MPD2    H713612   4.095   2.821  14.042  0.5777  0.1797 -0.9994
  927MPD2     C13613   3.997   4.504   0.127 -0.1051  0.6024  0.8129
  927MPD2    C113614   3.945   4.628   0.122 -0.0661 -0.7760  0.1385
  927MPD2    C213615   3.985   4.717   0.024  0.8914  0.0117  0.3161
  927MPD2    C313616   4.081   4.675  17.676 -0.0292 -0.3742 -0.5312
  927MPD2    C413617   4.142   4.553  17.689 -0.1242  0.2619 -0.2292
  927MPD2    C513618   4.106   4.474   0.049 -0.9954 -1.0535 -0.7463
  927MPD2     H13619   3.946   0.083   0.021 -0.2201 -0.4476 -0.7673
  927MPD2    H113620   4.223   4.516  17.627 -0.9039  0.2502 -1.2489
  927MPD2    H213621   3.970   4.439   0.209  0.4565  1.3939  1.6161
  927MPD2    H313622   4.154   4.378   0.066  2.7134  0.7526 -1.0454
  927MPD2     N13623   4.126   0.037  17.586 -0.2398  0.6983  0.1250
  927MPD2    H513624   4.072   0.122  17.580  0.3630  0.9199 -2.0421
  927MPD2    N113625   3.854   4.672   0.222 -0.5706 -0.5501  0.2404
  927MPD2    H713626   3.841   4.601   0.293 -0.2462  0.8062  1.6612
  928MPD2     C13627   2.236   3.044   0.869 -0.2021  0.6259  0.3630
  928MPD2    C113628   2.303   3.145   0.929 -0.2417  0.6014  0.0858
  928MPD2    C213629   2.365   3.233   0.847  0.3011  0.3480  0.2825
  928MPD2    C313630   2.366   3.222   0.706  1.0324  0.6276  0.4276
  928MPD2    C413631   2.295   3.125   0.645 -0.1476 -0.4331 -0.2382
  928MPD2    C513632   2.234   3.034   0.730  0.2137 -0.3717  0.4347
  928MPD2     H13633   2.419   3.313   0.896  0.7333  0.0717  0.2676
  928MPD2    H113634   2.292   3.120   0.537 -0.7141 -0.3325 -0.2280
  928MPD2    H213635   2.187   2.960   0.918  1.1046 -0.8859 -0.9143
  928MPD2    H313636   2.183   2.956   0.675  0.8775  0.1219 -0.8915
  928MPD2     N13637   2.452   3.295   0.622 -0.2641 -0.2063 -0.1205
  928MPD2    H513638   2.437   3.285   0.522  0.8480 -1.1902 -0.1868
  928MPD2    N113639   2.315   3.163   1.067 -0.6579  0.3191  0.2188
  928MPD2    H713640   2.366   3.246   1.098  0.5245 -1.3909  2.8187
  929MPD2     C13641   2.603   3.272  10.760 -0.9934 -0.1355  0.2432
  929MPD2    C113642   2.511   3.161  10.762  0.9138  0.7000  0.1351
  929MPD2    C213643   2.406   3.157  10.671 -0.3784  0.4708  0.0709
  929MPD2    C313644   2.382   3.269  10.586  0.5407 -0.7912  0.3816
  929MPD2    C413645   2.462   3.383  10.592  0.2347 -0.0620  0.1827
  929MPD2    C513646   2.575   3.379  10.678 -0.4457  0.9431 -0.6963
  929MPD2     H13647   2.346   3.068  10.661  1.4436 -0.8644  1.1526
  929MPD2    H113648   2.444   3.477  10.541  2.6133 -0.8941 -2.1879
  929MPD2    H213649   2.690   3.274  10.824 -1.1977 -1.9520  0.5771
  929MPD2    H313650   2.624   3.473  10.699  0.0937  0.3335  0.7382
  929MPD2     N13651   2.275   3.271  10.503  0.4458  0.2821 -0.5710
  929MPD2    H513652   2.254   3.356  10.451 -1.0360  2.3697  3.4148
  929MPD2    N113653   2.533   3.054  10.861  0.5944  0.5268 -0.1405
  929MPD2    H713654   2.609   3.072  10.925  0.6103  0.6200 -0.1867
  930MPD2     C13655   4.259   0.236  13.976 -0.4916 -0.0688  0.3326
  930MPD2    C113656   4.196   0.359  13.968 -0.1437 -0.0824 -0.1588
  930MPD2    C213657   4.169   0.411  13.846  1.0388  0.0414  0.5254
  930MPD2    C313658   4.208   0.342  13.731  0.5209 -0.1510  0.8029
  930MPD2    C413659   4.276   0.219  13.736  0.6073 -0.5757  0.2044
  930MPD2    C513660   4.300   0.170  13.863  0.2239  0.6036  0.2304
  930MPD2     H13661   4.112   0.502  13.835 -0.2229 -0.9282 -1.0779
  930MPD2    H113662   4.330   0.174  13.653 -1.1114 -0.2437 -1.0987
  930MPD2    H213663   4.277   0.177  14.065  0.0618  0.5675  0.6452
  930MPD2    H313664   4.342   0.070  13.870 -0.5077  0.1964 -1.3087
  930MPD2     N13665   4.175   0.407  13.613 -0.3757  0.5625  0.2392
  930MPD2    H513666   4.113   0.487  13.617  1.5683  2.1469 -0.8066
  930MPD2    N113667   4.166   0.423  14.094 -0.0862 -0.1150 -0.0413
  930MPD2    H713668   4.188   0.372  14.179 -0.9204  1.2792  1.0033
  931MPD2     C13669   4.060   4.622   0.863  0.7450  0.1238 -0.0687
  931MPD2    C113670   3.922   4.631   0.853 -0.0535 -0.5507  1.3428
  931MPD2    C213671   3.850   4.576   0.958  0.1340  0.0547  0.0656
  931MPD2    C313672   3.911   4.527   1.071  0.5215 -0.6528 -0.0373
  931MPD2    C413673   4.046   4.506   1.073 -0.4218 -0.4780  0.1600
  931MPD2    C513674   4.117   4.558   0.966 -0.7914 -0.0206 -0.2105
  931MPD2     H13675   3.743   4.590   0.964  0.4318  1.4739  2.0424
  931MPD2    H113676   4.110   4.467   1.151 -1.3364 -0.2366  1.0199
  931MPD2    H213677   4.124   4.651   0.781 -0.6226 -0.9979 -1.5425
  931MPD2    H313678   4.225   4.553   0.977 -0.7369  0.3986 -0.5449
  931MPD2     N13679   3.843   4.473   1.187  0.5050  0.0716 -0.0879
  931MPD2    H513680   3.905   4.437   1.259 -0.0071  1.4721  1.0339
  931MPD2    N113681   3.866   4.681   0.734 -0.8407 -0.1135 -0.2820
  931MPD2    H713682   3.934   4.686   0.659  0.2300  0.3967  0.7138
  932MPD2     C13683   0.995   3.625  11.435  0.0182  0.0034  0.4504
  932MPD2    C113684   1.125   3.661  11.414 -0.2696  0.2107 -0.0512
  932MPD2    C213685   1.227   3.570  11.401 -0.2101 -0.1276  0.1625
  932MPD2    C313686   1.185   3.437  11.406 -0.3519  0.5374  0.6120
  932MPD2    C413687   1.051   3.402  11.432 -0.1715 -0.1474  0.4395
  932MPD2    C513688   0.961   3.497  11.450 -0.1022 -0.2161 -0.1221
  932MPD2     H13689   1.329   3.596  11.376 -0.9674  0.1314 -2.6458
  932MPD2    H113690   1.025   3.297  11.436 -1.1638  0.1431  1.5858
  932MPD2    H213691   0.917   3.698  11.455 -1.5464 -1.3595 -0.6314
  932MPD2    H313692   0.860   3.465  11.472 -1.0582  0.4046 -3.7178
  932MPD2     N13693   1.284   3.331  11.403 -0.0610 -0.2089 -0.2101
  932MPD2    H513694   1.242   3.244  11.435 -0.2751 -0.0404 -0.0350
  932MPD2    N113695   1.166   3.794  11.404  0.3726  0.3289 -0.2100
  932MPD2    H713696   1.262   3.816  11.377  0.9415  0.0787  1.5571
  933MPD2     C13697   1.680   3.223   1.563 -0.8821  0.1626 -1.0077
  933MPD2    C113698   1.790   3.308   1.548 -0.3010  0.7214  0.3408
  933MPD2    C213699   1.762   3.445   1.554  0.0506  0.1912  0.1923
  933MPD2    C313700   1.636   3.489   1.572 -0.4698 -0.5031 -0.1265
  933MPD2    C413701   1.528   3.403   1.588  0.0725 -0.1406  0.2222
  933MPD2    C513702   1.551   3.268   1.589  0.4241  0.3386 -0.2463
  933MPD2     H13703   1.841   3.515   1.528 -0.3247 -0.5296 -2.8916
  933MPD2    H113704   1.428   3.439   1.611  0.5844  0.3865  1.5896
  933MPD2    H213705   1.698   3.117   1.549  1.2467  0.3345  0.3905
  933MPD2    H313706   1.473   3.194   1.601 -0.9097  2.0275  1.6055
  933MPD2     N13707   1.621   3.633   1.570  0.3573  0.8731 -0.7297
  933MPD2    H513708   1.705   3.690   1.562 -0.1847  2.0418  1.8521
  933MPD2    N113709   1.916   3.252   1.522  0.1559 -0.4445  0.1296
  933MPD2    H713710   1.919   3.153   1.500 -0.4565  0.0008 -2.0213
  934MPD2     C13711   2.876   1.885   1.040  0.0210  0.0294 -0.3257
  934MPD2    C113712   2.918   1.820   1.149  0.0299 -0.2955 -0.7703
  934MPD2    C213713   2.851   1.704   1.176  0.0356 -0.6281  0.5527
  934MPD2    C313714   2.749   1.652   1.101 -0.3603 -0.3155  0.2952
  934MPD2    C413715   2.708   1.730   1.000 -0.6279  0.8285 -0.0873
  934MPD2    C513716   2.769   1.844   0.962  0.6476 -0.1302  0.2351
  934MPD2     H13717   2.909   1.640   1.241 -0.0253 -0.1483  1.0824
  934MPD2    H113718   2.628   1.704   0.932 -1.3880  0.9245  0.7844
  934MPD2    H213719   2.941   1.965   1.007 -1.1920  1.4004  0.6338
  934MPD2    H313720   2.739   1.893   0.870 -0.0755 -0.0035  0.5359
  934MPD2     N13721   2.681   1.534   1.132  0.0199 -0.0073 -0.4484
  934MPD2    H513722   2.609   1.497   1.070 -0.7313  1.7354 -0.6112
  934MPD2    N113723   3.034   1.860   1.220  0.2430 -0.4687 -0.2205
  934MPD2    H713724   3.065   1.801   1.296 -0.7141  1.0358  1.3295
  935MPD2     C13725   3.089   0.783   1.483 -0.2846 -0.2807  0.7456
  935MPD2    C113726   2.971   0.727   1.431  0.3527 -0.5612  0.2857
  935MPD2    C213727   2.853   0.803   1.440  0.2688  0.1099  0.0921
  935MPD2    C313728   2.858   0.939   1.468  0.4350  0.1485 -0.4251
  935MPD2    C413729   2.978   0.990   1.522  0.3339 -0.2122  0.2715
  935MPD2    C513730   3.092   0.913   1.532  0.0473 -1.5845  0.5775
  935MPD2     H13731   2.756   0.761   1.413  1.1697 -1.4933 -0.6473
  935MPD2    H113732   2.996   1.096   1.532  1.2089  0.0572 -4.1356
  935MPD2    H213733   3.185   0.736   1.464 -0.5232 -0.1176 -0.8659
  935MPD2    H313734   3.185   0.957   1.563 -0.3720  0.4367 -1.0760
  935MPD2     N13735   2.758   1.032   1.456 -0.0496 -0.2119  0.2282
  935MPD2    H513736   2.778   1.131   1.468 -0.3999 -0.5916  4.0300
  935MPD2    N113737   2.955   0.591   1.378 -0.1521  0.0776 -0.3813
  935MPD2    H713738   2.867   0.559   1.340 -1.2464 -0.0536  2.2640
  936MPD2     C13739   0.980   1.825  12.226  0.7031 -0.8746 -0.0989
  936MPD2    C113740   0.995   1.886  12.347 -0.5291 -0.3337  0.6932
  936MPD2    C213741   1.119   1.953  12.369  0.4344 -0.4885 -0.1398
  936MPD2    C313742   1.219   1.960  12.273 -0.4025 -0.1403  0.1427
  936MPD2    C413743   1.196   1.907  12.149 -0.4207  0.6193  0.4325
  936MPD2    C513744   1.083   1.833  12.131  0.8943  0.1792 -0.5729
  936MPD2     H13745   1.140   1.995  12.467  2.3818 -2.1369  0.1644
  936MPD2    H113746   1.277   1.909  12.077 -0.8304  1.5158 -0.0143
  936MPD2    H213747   0.887   1.777  12.198  0.2381  1.7070 -2.9940
  936MPD2    H313748   1.080   1.789  12.032  1.4331  1.3294 -1.1049
  936MPD2     N13749   1.330   2.037  12.313  0.1809  0.3292  0.2906
  936MPD2    H513750   1.326   2.079  12.406 -1.8820  1.5498 -0.3496
  936MPD2    N113751   0.907   1.878  12.453 -0.4262 -0.3539 -0.1547
  936MPD2    H713752   0.932   1.926  12.539  0.3147 -1.4367  0.2449
  937MPD2     C13753   3.724   3.758  12.208 -0.2960 -0.3108 -1.0894
  937MPD2    C113754   3.785   3.883  12.214 -0.1903  0.2135  0.2580
  937MPD2    C213755   3.909   3.904  12.154  0.5449  0.6022 -0.4159
  937MPD2    C313756   3.958   3.804  12.068  0.1790  0.2358 -0.1262
  937MPD2    C413757   3.893   3.681  12.057  0.3596  0.2147 -0.0375
  937MPD2    C513758   3.781   3.659  12.126 -0.0806 -0.7341 -0.4659
  937MPD2     H13759   3.964   3.996  12.164 -1.5184  1.5859  1.9073
  937MPD2    H113760   3.930   3.604  11.990 -3.4156 -2.1602  0.6384
  937MPD2    H213761   3.623   3.741  12.243 -0.2982  0.3087 -0.7944
  937MPD2    H313762   3.732   3.562  12.117  0.9384 -1.1745 -1.2664
  937MPD2     N13763   4.076   3.834  11.988  0.1915 -0.1325  0.6951
  937MPD2    H513764   4.121   3.925  11.997  0.2472 -0.0398 -0.4929
  937MPD2    N113765   3.746   3.982  12.300  0.2217 -0.6355  0.0479
  937MPD2    H713766   3.802   4.065  12.288  0.8545 -1.3507 -1.8099
  938MPD2     C13767   1.911   0.057   0.471 -0.1301 -0.0809  0.3845
  938MPD2    C113768   1.906   0.193   0.499  0.7616  0.0475 -0.0656
  938MPD2    C213769   1.886   0.230   0.630 -0.6357 -0.1612  0.0381
  938MPD2    C313770   1.864   0.142   0.728  0.3566  0.2236 -0.0088
  938MPD2    C413771   1.865   0.011   0.699  0.1310 -0.0485  0.3804
  938MPD2    C513772   1.887   4.708   0.571 -0.4207 -0.5310  0.4151
  938MPD2     H13773   1.875   0.338   0.635  0.6322 -0.0574  0.4990
  938MPD2    H113774   1.836   4.671   0.772  0.9355 -1.8016 -1.1013
  938MPD2    H213775   1.915   0.012   0.372 -0.5479 -1.5869  1.0455
  938MPD2    H313776   1.875   4.601   0.557 -2.8091 -0.0205 -1.4370
  938MPD2     N13777   1.834   0.179   0.860 -1.0119 -0.3339  0.0229
  938MPD2    H513778   1.834   0.099   0.922  0.9025 -1.2211 -1.1174
  938MPD2    N113779   1.936   0.293   0.405  0.9841 -0.4916  0.0751
  938MPD2    H713780   1.930   0.390   0.437  0.7119 -0.5990  0.3514
  939MPD2     C13781   3.248   1.892   0.289 -0.0162 -0.3009 -0.1038
  939MPD2    C113782   3.325   1.894   0.404 -0.5387 -0.0463  0.0689
  939MPD2    C213783   3.421   1.791   0.411  0.0445 -0.4669 -0.9972
  939MPD2    C313784   3.440   1.702   0.306 -0.5615 -0.1816  0.2602
  939MPD2    C413785   3.351   1.700   0.200 -0.5890  0.0064  0.3610
  939MPD2    C513786   3.259   1.796   0.196  0.5124  0.3716 -0.4048
  939MPD2     H13787   3.489   1.784   0.495 -2.0344 -1.1137  0.6177
  939MPD2    H113788   3.350   1.626   0.121 -0.4775  0.3325  0.0549
  939MPD2    H213789   3.171   1.966   0.269  0.5590 -0.5654 -3.1818
  939MPD2    H313790   3.189   1.800   0.114  0.7332 -0.9984 -0.6575
  939MPD2     N13791   3.548   1.608   0.326  0.2775  0.1026  0.0055
  939MPD2    H513792   3.589   1.606   0.418  0.9340  0.6739 -0.2709
  939MPD2    N113793   3.302   1.985   0.510  0.1469  0.5534 -0.3630
  939MPD2    H713794   3.221   2.045   0.498 -1.2894 -1.5244 -1.0181
  940MPD2     C13795   2.571   2.483  13.185 -0.0622  0.2962  0.6544
  940MPD2    C113796   2.479   2.379  13.200  0.8811 -0.1259 -0.4828
  940MPD2    C213797   2.496   2.268  13.116 -0.4334 -0.4961 -0.8597
  940MPD2    C313798   2.598   2.264  13.031  0.9744 -1.0420 -0.4127
  940MPD2    C413799   2.689   2.366  13.019 -0.1392 -0.1541  0.2218
  940MPD2    C513800   2.674   2.473  13.099 -0.1987  0.1425  0.4692
  940MPD2     H13801   2.426   2.185  13.124  0.6437 -1.4054 -0.8717
  940MPD2    H113802   2.780   2.356  12.961  0.1674  0.0809  0.6660
  940MPD2    H213803   2.566   2.577  13.239 -1.9246 -1.2577  3.1711
  940MPD2    H313804   2.753   2.547  13.102  0.4862 -0.5959  0.6047
  940MPD2     N13805   2.618   2.153  12.945  0.0929 -0.6910 -0.3706
  940MPD2    H513806   2.699   2.156  12.883 -2.0190  2.5826 -2.9296
  940MPD2    N113807   2.369   2.384  13.292 -0.1038 -0.2567 -0.0454
  940MPD2    H713808   2.305   2.306  13.279 -0.2680  0.2884 -2.5363
  941MPD2     C13809   2.627   1.093   9.801  0.4747 -0.0399  0.1066
  941MPD2    C113810   2.502   1.113   9.856  0.2024  0.2626  0.0640
  941MPD2    C213811   2.407   1.024   9.813  0.1701 -0.7104  0.3057
  941MPD2    C313812   2.430   0.918   9.725 -0.8940  0.6805 -0.6444
  941MPD2    C413813   2.551   0.897   9.679 -0.3189 -0.0424 -0.0891
  941MPD2    C513814   2.652   0.990   9.707  0.2116  0.4245  0.1156
  941MPD2     H13815   2.311   1.034   9.862  0.6019 -0.4240  1.1033
  941MPD2    H113816   2.564   0.815   9.609 -0.5478 -2.2017  2.4045
  941MPD2    H213817   2.714   1.154   9.821  0.6969  0.1781 -1.5385
  941MPD2    H313818   2.753   0.974   9.672 -0.0965 -1.8102  0.2871
  941MPD2     N13819   2.328   0.832   9.680  0.6844 -0.4926  0.8093
  941MPD2    H513820   2.354   0.764   9.610  1.0293  2.8904 -2.3388
  941MPD2    N113821   2.463   1.220   9.940 -0.0485 -0.5135  0.0806
  941MPD2    H713822   2.369   1.209   9.977  0.1950 -0.7786  0.6199
  942MPD2     C13823   1.855   2.196   9.463 -0.6951  0.0083  0.9890
  942MPD2    C113824   1.757   2.294   9.443  0.8246  0.7016  0.2002
  942MPD2    C213825   1.781   2.396   9.357  0.0685 -0.4645 -0.8392
  942MPD2    C313826   1.904   2.412   9.291  0.2693  0.1180 -0.0463
  942MPD2    C413827   2.004   2.322   9.315 -0.1508  0.2297  0.0653
  942MPD2    C513828   1.978   2.216   9.396  0.1031 -0.0877 -0.2437
  942MPD2     H13829   1.694   2.460   9.344  0.9548  0.4676 -2.1853
  942MPD2    H113830   2.095   2.341   9.260 -0.3172  0.6410 -0.0706
  942MPD2    H213831   1.850   2.122   9.541 -0.3290  0.4053  1.3898
  942MPD2    H313832   2.055   2.147   9.429  0.0881 -0.2335 -0.5116
  942MPD2     N13833   1.930   2.523   9.202 -0.0135 -0.6824 -0.0034
  942MPD2    H513834   2.021   2.524   9.157  0.3283  4.3829  0.7721
  942MPD2    N113835   1.621   2.282   9.507  0.2761 -0.1358 -1.1246
  942MPD2    H713836   1.573   2.370   9.523  1.5153  0.0512  1.6134
  943MPD2     C13837   0.611   0.801  10.328 -0.0853 -0.3145  0.1988
  943MPD2    C113838   0.727   0.863  10.284 -0.5657 -0.1539  0.1736
  943MPD2    C213839   0.743   0.911  10.156 -0.4300 -0.0134  0.1363
  943MPD2    C313840   0.638   0.896  10.067  0.4198 -0.0654  0.2362
  943MPD2    C413841   0.524   0.840  10.112 -0.1950  0.4220  0.4538
  943MPD2    C513842   0.516   0.784  10.238 -0.2868 -0.3765 -0.1774
  943MPD2     H13843   0.839   0.950  10.125 -0.2616  1.1450  2.0602
  943MPD2    H113844   0.442   0.834  10.042  0.6708  2.2720 -0.7384
  943MPD2    H213845   0.606   0.763  10.429  0.9565 -2.7507 -0.6554
  943MPD2    H313846   0.433   0.718  10.258  0.6312 -1.1849  0.9080
  943MPD2     N13847   0.637   0.949   9.932  0.2146 -0.3191  0.0584
  943MPD2    H513848   0.554   0.928   9.877  0.8526 -1.0031 -0.6615
  943MPD2    N113849   0.832   0.845  10.372 -0.2324  0.4357  0.2062
  943MPD2    H713850   0.812   0.805  10.463 -1.3751  0.9939  0.2033
  944MPD2     C13851   4.466   0.645  11.156 -0.5863  0.0238  0.5088
  944MPD2    C113852   4.425   0.620  11.286  0.1688 -0.4047  0.0439
  944MPD2    C213853   4.434   0.725  11.371 -0.1580  0.4594 -0.3560
  944MPD2    C313854   4.466   0.854  11.330  0.3913  0.3788 -0.2531
  944MPD2    C413855   4.491   0.883  11.197 -0.4247 -0.0664  0.4664
  944MPD2    C513856   4.494   0.770  11.115  0.3116 -0.4443 -0.5572
  944MPD2     H13857   4.433   0.717  11.479  0.9550 -0.3049 -0.3962
  944MPD2    H113858   4.510   0.983  11.160 -1.0007  0.7713  2.4545
  944MPD2    H213859   4.460   0.563  11.085 -1.5759  0.3485  0.2232
  944MPD2    H313860   4.506   0.791  11.009 -0.5639  1.4971 -0.2812
  944MPD2     N13861   4.456   0.949  11.433 -0.5128 -0.2510  0.0835
  944MPD2    H513862   4.427   0.923  11.527 -0.6501  0.7046  0.3047
  944MPD2    N113863   4.384   0.493  11.320 -0.1038  0.8179  0.6820
  944MPD2    H713864   4.397   0.424  11.247 -2.2919  1.5841 -0.4178
    1TMC1    C113865   3.096   1.325  14.124 -0.5658 -0.5159 -0.1851
    1TMC1    C213866   3.013   1.280  14.030 -0.6945 -0.2906  0.3703
    1TMC1    C313867   3.060   1.203  13.919  0.5341 -0.2627 -0.8215
    1TMC1    C413868   3.224   1.293  14.122  0.0654  0.6476  0.4196
    1TMC1    C513869   3.270   1.226  14.010  0.1629 -0.0968 -0.4593
    1TMC1    C613870   3.193   1.179  13.907  0.2607 -0.3423 -0.3069
    1TMC1     C13871   3.055   1.412  14.227 -0.3513 -0.3469 -0.0495
    1TMC1     O13872   3.132   1.415  14.324  0.0865 -0.2746  0.0930
    1TMC1     H13873   2.906   1.297  14.032 -0.7910 -0.8360 -0.1236
    1TMC1    H113874   3.291   1.324  14.202 -2.3362  2.0969  1.8799
    1TMC1    H213875   3.236   1.118  13.829  0.0181  1.3037 -1.7268
    1TMC1    C713876   3.411   1.217  13.995  0.3473  0.2615  0.3557
    1TMC1    C813877   2.964   1.136  13.837 -0.5944 -0.1546  0.4834
    1TMC1    O113878   3.461   1.131  13.921  0.2562 -0.1490  0.5894
    1TMC1    O213879   2.844   1.122  13.871 -0.4644  0.0115 -0.3349
    1TMC1    O313880   3.480   1.318  14.053  0.3001 -0.0273 -0.1014
    1TMC1    H313881   3.421   1.383  14.098 -0.2557 -1.0037  0.5826
    1TMC1    O513882   3.010   1.141  13.713 -0.6136  0.0230 -0.0869
    1TMC1    H513883   3.104   1.165  13.703 -0.9985  0.5940 -2.2493
    2MPD2     C13884   2.773   1.794  14.414  0.1816 -0.5531  0.1728
    2MPD2    C113885   2.703   1.736  14.312 -0.2283 -0.2375  0.2329
    2MPD2    C213886   2.753   1.626  14.248 -0.1107 -0.0356 -0.2077
    2MPD2    C313887   2.881   1.580  14.283 -0.6707  0.7702  0.0277
    2MPD2    C413888   2.954   1.644  14.380 -0.0163  0.0690  0.0348
    2MPD2    C513889   2.901   1.752  14.447 -0.6631  0.0913 -0.0548
    2MPD2     H13890   2.702   1.572  14.170  0.1132  0.8509 -0.9659
    2MPD2    H113891   3.060   1.632  14.397 -0.1870  0.7854  1.5347
    2MPD2    H213892   2.746   1.886  14.463 -1.0090 -0.2228 -1.0831
    2MPD2    H313893   2.964   1.817  14.506 -0.4098  1.3539 -1.7076
    2MPD2     N13894   2.933   1.467  14.206 -0.0355 -0.7193  0.3785
    2MPD2    H513895   2.879   1.439  14.125 -3.2009  2.2425  1.4467
    2MPD2    N113896   2.577   1.790  14.274  0.3643 -0.4181 -0.3700
    2MPD2    H713897   2.543   1.867  14.331 -1.5332 -2.8483  1.7891
    3TMC2    C113898   2.362   1.814  14.175 -0.4674  1.4218  0.0684
    3TMC2    C213899   2.340   1.892  14.283  0.6506 -0.1296 -0.2768
    3TMC2    C313900   2.286   2.017  14.264 -0.0274  0.1704 -0.2615
    3TMC2    C413901   2.333   1.853  14.047  0.3294 -0.2537  0.5380
    3TMC2    C513902   2.274   1.975  14.037 -0.8608 -0.6619 -0.2382
    3TMC2    C613903   2.256   2.064  14.138  0.0980  0.0097 -0.4042
    3TMC2     C13904   2.488   1.740  14.180  0.4194  0.3916  0.0097
    3TMC2     O13905   2.511   1.660  14.087  0.2716 -0.1248  0.3243
    3TMC2     H13906   2.383   1.868  14.379 -0.4622 -0.4966  0.1301
    3TMC2    H113907   2.379   1.806  13.961  1.2232 -1.9277  1.9338
    3TMC2    H213908   2.205   2.159  14.130  1.4908  0.6773 -1.3396
    3TMC2    C713909   2.304   2.026  13.910  0.8180 -0.5799 -0.3906
    3TMC2    C813910   2.275   2.111  14.374 -0.5204 -0.9067  0.8517
    3TMC2    O113911   2.294   1.955  13.810 -0.1493 -0.5463  0.0986
    3TMC2    O213912   2.295   2.233  14.366 -0.3753  0.2660  0.3623
    3TMC2    O513913   2.206   2.034  14.463 -0.1770 -0.6794 -1.0856
    3TMC2    H513914   2.220   1.938  14.444 -0.7138 -0.6021 -1.8893
    4TMC2    C113915   2.539   2.974  13.611  0.7945 -0.0867  0.3523
    4TMC2    C213916   2.575   3.052  13.715  0.2776 -0.5546  0.3662
    4TMC2    C313917   2.530   3.021  13.838 -0.0042 -0.2730  0.2578
    4TMC2    C413918   2.503   2.839  13.631 -0.9117 -0.4826  0.2767
    4TMC2    C513919   2.469   2.809  13.761 -0.0582 -0.3947 -0.3327
    4TMC2    C613920   2.478   2.895  13.865  1.1018  0.0213  0.3043
    4TMC2     C13921   2.603   3.010  13.484  0.2596 -0.1121 -0.3190
    4TMC2     O13922   2.691   3.098  13.482  0.1569  0.1222  0.3768
    4TMC2     H13923   2.619   3.151  13.704  0.7707 -0.4507  3.4059
    4TMC2    H113924   2.496   2.771  13.547  0.3229 -1.3493  0.8808
    4TMC2    H213925   2.453   2.871  13.967 -1.4722 -1.2911 -0.6262
    4TMC2    C713926   2.445   2.672  13.802 -0.5438 -0.5073  0.7299
    4TMC2    C813927   2.534   3.120  13.944  0.2880 -0.3966  1.1805
    4TMC2    O113928   2.418   2.643  13.919  0.0901 -0.4492  0.0664
    4TMC2    O213929   2.468   3.107  14.045  0.4008 -0.0372 -0.8174
    4TMC2    O513930   2.649   3.182  13.929 -0.3247  0.5035 -0.9171
    4TMC2    H513931   2.725   3.141  13.883  0.2276  1.0048 -0.4471
    5MPD2     C13932   2.647   2.916  12.978  0.6545  0.1540  0.4187
    5MPD2    C113933   2.540   2.845  13.030  0.1894  0.5611 -0.7205
    5MPD2    C213934   2.507   2.860  13.165  0.2709 -0.2919  0.3832
    5MPD2    C313935   2.577   2.944  13.246 -0.1498 -1.1648  0.1740
    5MPD2    C413936   2.677   3.020  13.190 -0.1992 -0.1798  0.6688
    5MPD2    C513937   2.715   3.003  13.060 -0.1672 -0.3719  0.2321
    5MPD2     H13938   2.428   2.799  13.209 -1.5045  0.8342 -1.2487
    5MPD2    H113939   2.745   3.067  13.260 -0.6782  1.2580  0.1543
    5MPD2    H213940   2.694   2.918  12.880  2.9407  2.6436  1.5542
    5MPD2    H313941   2.807   3.053  13.033 -0.1832 -0.5939 -0.2292
    5MPD2     N13942   2.541   2.939  13.384 -0.6954  0.1416  0.0734
    5MPD2    H513943   2.454   2.893  13.410 -0.3318  0.3515  1.6656
    5MPD2    N113944   2.469   2.758  12.943  0.9169 -0.9230  0.2378
    5MPD2    H713945   2.512   2.749  12.852 -0.4764 -0.0097 -0.5067
    6MPD1     C13946   1.136   3.833  12.703  0.0970  0.5356 -0.0697
    6MPD1    C113947   1.116   3.757  12.814  0.3022  0.2749  0.0942
    6MPD1    C213948   1.191   3.642  12.826  0.0812  0.3147 -0.1085
    6MPD1    C313949   1.286   3.604  12.733  0.3644  0.4748  0.9984
    6MPD1    C413950   1.323   3.700  12.640 -0.3926  0.4359 -0.1429
    6MPD1    C513951   1.238   3.810  12.622  0.2364 -0.1523 -0.7454
    6MPD1     H13952   1.158   3.580  12.909  0.8547  0.5871  0.4059
    6MPD1    H113953   1.399   3.687  12.565 -0.6542  3.1850 -0.8575
    6MPD1    H213954   1.067   3.914  12.682  0.7833  0.8685 -1.0512
    6MPD1    H313955   1.258   3.878  12.540 -1.1097  2.8618  1.4577
    6MPD1     N13956   1.354   3.477  12.738  0.6230  0.5530  0.0594
    6MPD1    H513957   1.418   3.461  12.661  1.8447 -0.1368  1.2398
    6MPD1    N113958   1.013   3.797  12.903 -0.1371  0.0600  0.2118
    6MPD1    H613959   1.051   3.771  12.994  2.1959 -0.2534 -0.8651
    6MPD1    H713960   0.986   3.895  12.904  0.0958  0.1592 -3.9880
    7MPD2     C13961   1.555   2.752  13.085  1.2570  0.2431  0.5721
    7MPD2    C113962   1.582   2.754  12.944 -0.1359  0.2512  0.4999
    7MPD2    C213963   1.694   2.688  12.898  0.5127  0.6945 -0.4182
    7MPD2    C313964   1.778   2.623  12.986 -0.5062  0.0357 -0.2900
    7MPD2    C413965   1.744   2.618  13.121  0.6899 -0.1919  0.1159
    7MPD2    C513966   1.636   2.681  13.169  0.4829 -0.1780  0.0329
    7MPD2     H13967   1.704   2.684  12.790  1.0549 -0.9571 -0.3160
    7MPD2    H113968   1.806   2.570  13.196  0.8859 -1.5304 -0.9052
    7MPD2    H213969   1.470   2.802  13.128  1.3020  1.2937 -0.5364
    7MPD2    H313970   1.606   2.665  13.271 -1.8287 -0.0383 -0.6421
    7MPD2     N13971   1.900   2.561  12.947 -0.3115 -0.0347  0.7156
    7MPD2    H513972   1.952   2.526  13.027  0.4254 -2.0135 -0.6257
    7MPD2    N113973   1.506   2.827  12.851  0.2696 -0.0989  0.2833
    7MPD2    H713974   1.543   2.827  12.756  3.0465  1.0542  1.3667
    8TMC3    C113975   2.086   2.509  12.811  0.7099  0.3426 -0.2188
    8TMC3    C213976   2.164   2.564  12.912 -0.0913 -0.1354  0.0643
    8TMC3    C313977   2.287   2.620  12.878 -0.7698  0.4452  0.3965
    8TMC3    C413978   2.132   2.522  12.676 -0.0297  0.1805  0.2342
    8TMC3    C513979   2.253   2.578  12.643  0.4817  0.4245 -0.2450
    8TMC3    C613980   2.331   2.620  12.746  0.0542 -0.4311 -0.1295
    8TMC3     C13981   1.949   2.552  12.816  0.2687 -0.5232 -0.0188
    8TMC3     O13982   1.896   2.586  12.712  0.4497  0.0964  0.4239
    8TMC3     H13983   2.137   2.570  13.017 -0.8532 -2.7906  0.0167
    8TMC3    H113984   2.070   2.480  12.598 -0.0622 -0.1355  0.4318
    8TMC3    H213985   2.419   2.679  12.723 -0.8453  0.5800 -1.0041
    8TMC3    C713986   2.239   2.684  12.551  0.0282 -0.2508  0.5340
    8TMC3    C813987   2.360   2.691  12.979  0.2322  0.4886  0.0600
    8TMC3    O113988   2.335   2.738  12.495  0.3241  0.0571 -0.3628
    8TMC3    O213989   2.299   2.694  13.084  0.3076  0.3932 -0.2036
    9TMC3    C113990   1.380   3.252  12.762 -0.1988  0.0743  0.5171
    9TMC3    C213991   1.501   3.254  12.697 -0.1659 -0.6237 -0.0535
    9TMC3    C313992   1.562   3.144  12.650  0.4320 -0.3555  0.0121
    9TMC3    C413993   1.335   3.135  12.816  0.5662 -0.1773  0.1960
    9TMC3    C513994   1.403   3.024  12.777 -0.0297 -0.1422  0.7065
    9TMC3    C613995   1.504   3.021  12.687  1.0837 -0.4295  0.4042
    9TMC3     C13996   1.310   3.368  12.808 -0.3390 -0.2898 -0.2685
    9TMC3     O13997   1.213   3.346  12.881 -0.1003  0.6312  0.1207
    9TMC3     H13998   1.552   3.347  12.676 -2.1482  0.1724 -1.3399
    9TMC3    H113999   1.260   3.116  12.892 -1.1369 -1.6304 -1.8629
    9TMC3    H214000   1.538   2.926  12.648  1.8466  0.5613 -1.3265
    9TMC3    C714001   1.406   2.914  12.874 -0.1056  0.3523 -0.0987
    9TMC3    C814002   1.690   3.155  12.579  0.8252 -0.4559 -0.0455
    9TMC3    O114003   1.334   2.928  12.972  0.1255 -0.4492 -0.3831
    9TMC3    O214004   1.730   3.266  12.546  0.0862 -0.4161 -0.6492
   10MPD2     C14005   2.132   2.933  12.414  0.1993 -0.0990  0.4765
   10MPD2    C114006   2.062   2.845  12.495  0.1540 -0.1481 -0.7031
   10MPD2    C214007   1.941   2.888  12.537  0.0488 -0.0905  0.7489
   10MPD2    C314008   1.879   3.012  12.512 -0.7739  0.4067 -0.3194
   10MPD2    C414009   1.947   3.094  12.422  0.4161  0.0318 -0.4359
   10MPD2    C514010   2.076   3.052  12.383 -0.1870  0.7125  0.0872
   10MPD2     H14011   1.888   2.821  12.604 -1.4377 -0.4842 -0.8126
   10MPD2    H114012   1.907   3.189  12.388 -0.9752  0.0978  1.4169
   10MPD2    H214013   2.229   2.896  12.381 -0.3836  0.6374 -1.9770
   10MPD2    H314014   2.133   3.120  12.321 -0.2282  0.3429 -0.3458
   10MPD2     N14015   1.758   3.035  12.584  0.1690  0.3547  0.0205
   10MPD2    H514016   1.727   2.968  12.653 -1.0929  0.4205 -0.4820
   10MPD2    N114017   2.110   2.727  12.551  0.3567  0.1733  0.0000
   10MPD2    H714018   2.048   2.684  12.619  0.7483  1.2404  1.0375
   11MPD2     C14019   2.459   2.162  13.713 -0.0903  0.3292 -0.4071
   11MPD2    C114020   2.404   2.230  13.813  0.4293 -0.3229 -0.2147
   11MPD2    C214021   2.421   2.369  13.827  0.5304 -0.1222  0.3745
   11MPD2    C314022   2.478   2.443  13.724 -0.2049  0.6991  0.1543
   11MPD2    C414023   2.524   2.375  13.613 -0.6933 -0.0748  0.1143
   11MPD2    C514024   2.518   2.237  13.615  0.2921  1.0604 -0.3281
   11MPD2     H14025   2.383   2.420  13.915 -0.4551  0.1870 -0.2332
   11MPD2    H114026   2.562   2.434  13.530 -1.5599 -0.1660 -0.3443
   11MPD2    H214027   2.455   2.055  13.699  2.0775  0.0525  1.1293
   11MPD2    H314028   2.561   2.193  13.525  2.7328 -2.2406  2.4756
   11MPD2     N14029   2.474   2.583  13.706  0.0277 -0.6456  0.0538
   11MPD2    H514030   2.505   2.609  13.612 -2.4792 -0.9383 -0.8486
   11MPD2    N114031   2.346   2.162  13.922 -0.2088 -0.6820 -0.6887
   11MPD2    H714032   2.335   2.212  14.009  0.7357 -1.3847 -0.1608
    1MPD1     C14033   1.161   4.227   0.096  0.2549  0.1068 -0.5919
    1MPD1    C114034   1.031   4.279   0.057 -0.4195 -0.0100 -0.5596
    1MPD1    C214035   0.975   4.226  17.681  0.2692 -0.2097  0.3840
    1MPD1    C314036   1.040   4.130  17.610 -0.2701 -0.0754 -0.6528
    1MPD1    C414037   1.162   4.086  17.654  0.1512 -0.1560  0.5220
    1MPD1    C514038   1.228   4.133   0.020  0.5370  0.2246  0.8833
    1MPD1     H14039   0.869   4.240  17.664  0.2624  1.0619  1.5189
    1MPD1    H114040   1.228   4.018  17.603  0.0176  1.0726 -1.2770
    1MPD1    H214041   1.201   4.252   0.193 -1.9029 -0.3566  0.4002
    1MPD1    H314042   1.323   4.093   0.053  1.5447 -0.0564 -2.3179
    1MPD1     N14043   0.987   4.050  17.505 -0.6023 -0.4953 -1.3589
    1MPD1    H514044   1.033   3.961  17.487  0.9884 -0.2430  1.4390
    1MPD1    N114045   0.944   4.351   0.145  0.4011 -0.2964 -0.3428
    1MPD1    H614046   0.872   4.403   0.096 -0.6224  0.8497  2.3482
    1MPD1    H714047   1.001   4.422   0.191  0.7469 -1.5101  1.1055
    2MPD1     C14048   1.439   3.426  17.216 -0.7125 -0.2668  0.5246
    2MPD1    C114049   1.426   3.504  17.330 -0.5998 -0.1661  0.2880
    2MPD1    C214050   1.327   3.601  17.337  0.0352  0.0935 -0.2848
    2MPD1    C314051   1.226   3.595  17.250 -0.1024 -0.1017  0.3852
    2MPD1    C414052   1.231   3.508  17.137 -0.1241 -0.2629 -0.7895
    2MPD1    C514053   1.343   3.427  17.117 -0.7148  0.3229 -0.0944
    2MPD1     H14054   1.327   3.667  17.422  0.8884  1.0643 -1.0391
    2MPD1    H114055   1.158   3.494  17.058  0.3257 -2.1456 -0.8741
    2MPD1    H214056   1.523   3.357  17.208 -2.3637 -2.0075 -1.6901
    2MPD1    H314057   1.366   3.381  17.022 -1.3677 -0.7047  0.2412
    2MPD1     N14058   1.116   3.677  17.269 -0.0350 -0.3041  0.1359
    2MPD1    H514059   1.113   3.728  17.357 -1.1995 -0.2180  0.0459
    2MPD1    N114060   1.534   3.521  17.414 -0.4393 -0.4299 -0.7632
    2MPD1    H614061   1.494   3.545  17.505  0.6517  0.7079 -0.5954
    2MPD1    H714062   1.587   3.435  17.433  1.5899  1.3603  1.7481
    3TMC3    C114063   0.917   3.780  17.233 -0.6559  0.7961 -0.0387
    3TMC3    C214064   0.792   3.752  17.189  0.0119  0.4464 -0.2923
    3TMC3    C314065   0.701   3.852  17.209  0.4783 -0.0240  0.2240
    3TMC3    C414066   0.959   3.885  17.301 -0.5807 -0.1003 -0.3969
    3TMC3    C514067   0.861   3.983  17.322 -0.1523  0.1639  0.8029
    3TMC3    C614068   0.733   3.969  17.279  0.6184 -0.1218 -0.2721
    3TMC3     C14069   1.010   3.685  17.181  0.3415  0.5299  0.1369
    3TMC3     O14070   0.970   3.612  17.095 -0.3238  0.5163 -0.3298
    3TMC3     H14071   0.747   3.662  17.150 -0.1751  1.0351 -1.4379
    3TMC3    H114072   1.063   3.907  17.323 -0.6403  0.2875 -0.5108
    3TMC3    H214073   0.659   4.044  17.307  0.5220  0.3912 -1.9078
    3TMC3    C714074   0.879   4.086  17.425 -0.2125 -0.2345  0.1179
    3TMC3    C814075   0.570   3.850  17.150  0.1330 -0.0823 -0.1865
    3TMC3    O114076   0.797   4.174  17.444  0.3354 -0.0150 -0.1301
    3TMC3    O214077   0.497   3.934  17.198  0.1282 -0.0453 -0.5162
    4MPD1     C14078   0.199   3.611  16.883  0.8112 -0.5184  0.1386
    4MPD1    C114079   0.322   3.554  16.846  0.1776 -0.1873  0.4057
    4MPD1    C214080   0.433   3.596  16.911 -0.0554  0.0247  0.2008
    4MPD1    C314081   0.435   3.705  17.001 -0.0371 -0.1567  0.6407
    4MPD1    C414082   0.313   3.771  17.018  0.0035  0.2340 -0.3774
    4MPD1    C514083   0.199   3.718  16.964 -0.2481 -0.3577 -0.0895
    4MPD1     H14084   0.527   3.550  16.880  0.8308  0.6692  1.9122
    4MPD1    H114085   0.305   3.869  17.065 -2.7677  0.0106 -0.3647
    4MPD1    H214086   0.102   3.578  16.849 -0.0878  1.1816  1.0070
    4MPD1    H314087   0.110   3.774  16.990  0.0068 -0.3316  0.7367
    4MPD1     N14088   0.554   3.745  17.061  0.4669 -0.1645  0.1082
    4MPD1    H514089   0.642   3.698  17.043 -0.9037 -2.0967 -1.4917
    4MPD1    N114090   0.333   3.429  16.785 -0.2535 -0.3963 -0.0122
    4MPD1    H614091   0.424   3.423  16.738  0.5593  0.7124  1.4074
    4MPD1    H714092   0.265   3.421  16.711 -0.8873  0.1397  0.5114
    1TCq1    O114093   1.362   3.783  11.834  0.1130  0.0675  1.0294
    1TCq1    C114094   1.417   3.887  11.768  0.4915 -0.2308  0.0642
    1TCq1    O214095   1.363   3.984  11.714 -0.0498 -0.2282  0.3361
    1TCq1    C214096   1.535   3.828  11.700 -0.2054  0.1776  0.4363
    1TCq1    C314097   1.597   3.722  11.756  0.2301  0.0710 -0.3045
    1TCq1    C414098   1.680   3.643  11.682 -0.0659  0.4584 -0.0568
    1TCq1    C514099   1.670   3.654  11.546 -0.2830 -0.0647 -0.0761
    1TCq1    C614100   1.595   3.753  11.487  0.0528  0.1045  0.3063
    1TCq1    C714101   1.521   3.840  11.566  0.4641 -0.5660  0.3252
    1TCq1    C814102   1.558   3.775  11.346 -0.4698 -0.3081 -0.1636
    1TCq1    O414103   1.442   3.804  11.326  0.1716  0.3914 -0.7095
    1TCq1    C914104   1.736   3.529  11.738  0.4283 -0.6099  1.1951
    1TCq1    O514105   1.814   3.466  11.665  0.0751  0.0981 -0.1682
    1TCq1    O614106   1.717   3.507  11.861 -0.6176  1.2383  0.4151
    1TCq1    H114107   1.427   3.709  11.830  0.9302  0.7077  2.5250
    1TCq1    H214108   1.607   3.713  11.864  0.2944  0.0591 -0.3110
    1TCq1    H314109   1.721   3.578  11.488  1.3843 -0.3579  1.7630
    1TCq1    H414110   1.462   3.922  11.528 -0.0363 -1.3402 -0.5899
    2MPD1     C14111   1.616   3.701  10.842  1.1095  0.2107  0.2444
    2MPD1    C114112   1.738   3.741  10.894  0.4008 -0.7041 -0.5395
    2MPD1    C214113   1.756   3.745  11.035  0.0943 -0.4950  0.3284
    2MPD1    C314114   1.647   3.731  11.120  0.2087  0.2353 -1.2128
    2MPD1    C414115   1.523   3.700  11.071 -0.0209  0.5662 -0.1801
    2MPD1    C514116   1.513   3.680  10.933 -0.1780  0.1245  0.1695
    2MPD1     H14117   1.853   3.755  11.082 -0.2733  1.7405  0.6180
    2MPD1    H114118   1.435   3.688  11.133 -0.1080  2.0896 -0.0337
    2MPD1    H214119   1.602   3.690  10.735  2.4074 -2.6692  0.3841
    2MPD1    H314120   1.415   3.661  10.892  0.4429  0.5192 -1.4761
    2MPD1     N14121   1.656   3.750  11.254  0.1988 -0.2951 -0.1772
    2MPD1    H514122   1.747   3.729  11.295  1.0461 -0.1619 -1.9973
    2MPD1    N114123   1.850   3.749  10.816  0.5639  0.6556  0.0509
    2MPD1    H614124   1.906   3.827  10.849 -2.2172  1.6611  2.5077
    2MPD1    H714125   1.822   3.764  10.719  1.0987  0.4725 -0.1305
    1TMC1    C114126   3.993   4.104   0.713  0.3142  0.0474  0.4121
    1TMC1    C214127   3.950   4.200   0.621  0.0752 -0.5604  0.2769
    1TMC1    C314128   3.837   4.274   0.655  0.2365 -0.4666  0.1135
    1TMC1    C414129   3.927   4.088   0.834  0.3077 -0.5579 -0.3721
    1TMC1    C514130   3.827   4.176   0.874 -0.4312  0.1515  0.8717
    1TMC1    C614131   3.781   4.275   0.783  0.1499 -0.4015 -0.3385
    1TMC1     C14132   4.118   4.040   0.697 -0.4574 -0.3317 -0.1541
    1TMC1     O14133   4.180   4.003   0.797  0.1518 -0.3022  0.3960
    1TMC1     H14134   3.994   4.217   0.523  1.9494 -0.5471  1.1120
    1TMC1    H114135   3.971   4.020   0.906 -0.3286  0.2267  0.7460
    1TMC1    H214136   3.710   4.350   0.815  0.4533 -0.2625  0.0131
    1TMC1    C714137   3.746   4.118   0.974 -0.4603 -0.6449  0.0079
    1TMC1    C814138   3.795   4.382   0.568 -0.2524 -0.2693 -0.0113
    1TMC1    O114139   3.786   4.024   1.045 -0.1599  0.3588 -0.0758
    1TMC1    O214140   3.868   4.465   0.520  0.7263 -0.0487  0.0826
    1TMC1    O314141   3.630   4.185   0.971  0.0108  0.0375  0.4689
    1TMC1    H314142   3.611   4.233   0.889  1.3185  0.4556  0.4129
    1TMC1    O514143   3.680   4.425   0.621  1.0255  0.0793  0.3832
    1TMC1    H514144   3.628   4.350   0.657  0.2438  1.1956  1.5232
    2MPD1     C14145   4.500   3.850   0.412  0.3724 -0.0924 -0.4060
    2MPD1    C114146   4.436   3.939   0.333 -0.1716  0.4199  0.4581
    2MPD1    C214147   4.316   3.995   0.388 -0.5496 -0.1545 -0.3934
    2MPD1    C314148   4.280   3.970   0.519  0.2295  0.7385 -0.4540
    2MPD1    C414149   4.356   3.888   0.601 -0.3093 -0.0544  0.1096
    2MPD1    C514150   4.465   3.840   0.543 -0.5372 -0.5957  0.1824
    2MPD1     H14151   4.260   4.070   0.333 -0.9879 -0.0593  0.1895
    2MPD1    H114152   4.328   3.864   0.703  0.3530 -1.7814 -0.1040
    2MPD1    H214153   4.588   3.796   0.379 -0.7241 -1.3877 -1.2050
    2MPD1    H314154   4.517   3.766   0.604  1.9978  1.2661  0.3032
    2MPD1     N14155   4.158   4.027   0.568  0.1395  0.3824  0.4127
    2MPD1    H514156   4.098   4.063   0.494 -1.0117 -1.6722  0.3584
    2MPD1    N114157   4.465   3.945   0.191  0.3205 -0.3050  0.1317
    2MPD1    H614158   4.563   3.926   0.170  0.3657 -1.2373  1.1626
    2MPD1    H714159   4.434   4.038   0.164 -1.5985 -0.6388  1.1603
    1MPD1     C14160   3.205   2.340  12.443  0.4517 -0.4657  0.0157
    1MPD1    C114161   3.274   2.376  12.554  0.5967  0.2071  0.2350
    1MPD1    C214162   3.399   2.434  12.524  0.5111  0.0247  0.1318
    1MPD1    C314163   3.442   2.472  12.397  0.0771 -0.0681  0.9140
    1MPD1    C414164   3.360   2.440  12.292  0.7713  0.0694  0.0285
    1MPD1    C514165   3.248   2.368  12.319  0.2576  0.9256 -1.3214
    1MPD1     H14166   3.474   2.452  12.600  0.0493  2.4286  0.0127
    1MPD1    H114167   3.383   2.444  12.187  0.8603  0.5599  0.0684
    1MPD1    H214168   3.117   2.278  12.458  0.4530 -1.0518 -2.3549
    1MPD1    H314169   3.194   2.321  12.237 -1.3191  0.5116 -0.0420
    1MPD1     N14170   3.564   2.549  12.386 -0.1345 -0.0489  0.1952
    1MPD1    H514171   3.622   2.557  12.469  0.3201  2.3361 -0.3353
    1MPD1    N114172   3.237   2.343  12.690 -0.5830 -0.0372  0.0700
    1MPD1    H614173   3.282   2.405  12.757 -0.9282  0.4792 -0.1754
    1MPD1    H714174   3.137   2.345  12.709 -1.0487 -0.3889 -2.3445
    2MPD1     C14175   2.287   4.228  11.823 -0.0045 -0.2545  0.2127
    2MPD1    C114176   2.192   4.201  11.720  0.5321 -0.3988 -0.4525
    2MPD1    C214177   2.221   4.095  11.634 -0.0810  0.0372  0.2887
    2MPD1    C314178   2.318   4.006  11.658 -0.0589  0.0458 -0.4576
    2MPD1    C414179   2.379   4.014  11.781  0.2343 -0.0486  0.5148
    2MPD1    C514180   2.372   4.127  11.856 -0.3991  0.0524  0.1979
    2MPD1     H14181   2.163   4.091  11.543  1.8978  1.4758 -1.0305
    2MPD1    H114182   2.436   3.928  11.812  0.7130 -0.3125 -1.1036
    2MPD1    H214183   2.285   4.317  11.885 -0.8457 -0.9768  1.2358
    2MPD1    H314184   2.441   4.131  11.939  0.7776 -0.6397 -0.7409
    2MPD1     N14185   2.355   3.894  11.582 -0.3504  0.1192 -0.3156
    2MPD1    H514186   2.419   3.832  11.631 -1.1614 -0.0736  0.5083
    2MPD1    N114187   2.100   4.296  11.684  0.6232  0.3980  0.7276
    2MPD1    H614188   2.028   4.266  11.617 -0.0018 -0.3095  1.7170
    2MPD1    H714189   2.061   4.353  11.758  0.1615 -0.2327  0.9743
    3MPD1     C14190   1.802   3.243  11.108  0.0637  0.4819 -0.9791
    3MPD1    C114191   1.796   3.368  11.057 -0.7541  0.1123 -0.6120
    3MPD1    C214192   1.909   3.443  11.074  0.1822  0.0201  0.0753
    3MPD1    C314193   2.020   3.404  11.153  0.5950 -0.2861  0.4051
    3MPD1    C414194   2.008   3.283  11.220 -0.2551 -0.0277  0.7024
    3MPD1    C514195   1.890   3.216  11.208  0.6321  0.5224 -0.6412
    3MPD1     H14196   1.913   3.539  11.023  0.3723 -0.0266  0.0021
    3MPD1    H114197   2.083   3.236  11.282  1.0915  0.1114 -0.8285
    3MPD1    H214198   1.727   3.165  11.101  0.9767 -0.4239 -0.7559
    3MPD1    H314199   1.892   3.113  11.240 -0.3765 -0.1517 -2.7472
    3MPD1     N14200   2.131   3.484  11.183  0.7733  1.0510  0.0689
    3MPD1    H514201   2.132   3.585  11.172 -2.4904  1.0782  0.0835
    3MPD1    N114202   1.694   3.405  10.973  0.3842  0.1498  0.1379
    3MPD1    H614203   1.693   3.506  10.958 -1.3311 -0.3292 -2.9302
    3MPD1    H714204   1.605   3.388  11.020  1.9422 -0.3834  2.8956
    4MPD2     C14205   3.518   3.249  12.475 -0.4747  0.1657  0.5549
    4MPD2    C114206   3.594   3.218  12.360 -0.0826  0.6659 -0.6423
    4MPD2    C214207   3.581   3.283  12.243  0.0544 -0.3882 -0.6192
    4MPD2    C314208   3.484   3.387  12.238 -0.8088  0.2926  0.0151
    4MPD2    C414209   3.420   3.427  12.347  0.3817 -0.0725 -0.2195
    4MPD2    C514210   3.441   3.359  12.465  0.0006  0.2806 -0.3807
    4MPD2     H14211   3.649   3.260  12.161  1.3748 -0.3496  0.4707
    4MPD2    H114212   3.368   3.522  12.351 -2.2334 -1.4920 -0.2441
    4MPD2    H214213   3.521   3.198  12.571 -1.1708 -2.7686 -0.9995
    4MPD2    H314214   3.390   3.396  12.554 -0.6324  1.3276 -1.1704
    4MPD2     N14215   3.479   3.466  12.124 -0.3795 -0.0290 -0.6758
    4MPD2    H514216   3.536   3.430  12.048  1.5127  1.8964 -0.1743
    4MPD2    N114217   3.688   3.109  12.362  0.1112  0.7946  0.3182
    4MPD2    H714218   3.737   3.102  12.273  2.0314 -1.8570  1.5796
    5TMC3    C114219   3.777   2.898  12.384 -0.3728 -0.4870  0.0682
    5TMC3    C214220   3.715   2.776  12.394  0.0627 -0.0027  0.1830
    5TMC3    C314221   3.723   2.702  12.276 -0.4727  0.5628 -0.6177
    5TMC3    C414222   3.842   2.932  12.269 -0.5312 -0.1921  0.0810
    5TMC3    C514223   3.842   2.861  12.148  0.9250 -0.4036  0.6169
    5TMC3    C614224   3.776   2.739  12.150 -1.2069  0.4919 -0.2866
    5TMC3     C14225   3.701   3.003  12.447 -0.1464 -0.0333 -0.7863
    5TMC3     O14226   3.624   2.979  12.540 -0.5455 -0.1394 -0.0520
    5TMC3     H14227   3.657   2.748  12.481  0.6695  2.0287  1.2608
    5TMC3    H114228   3.888   3.030  12.270  1.9467 -1.3213 -2.8563
    5TMC3    H214229   3.774   2.668  12.068  2.9346 -2.5757  2.2323
    5TMC3    C714230   3.816   2.956  12.041 -0.1533  0.1307 -0.9560
    5TMC3    C814231   3.607   2.608  12.267 -0.2920  0.0365 -0.5195
    5TMC3    O114232   3.783   3.068  12.078  1.1861 -0.3561  0.1892
    5TMC3    O214233   3.567   2.586  12.153  0.0558 -0.5384 -0.0504
    6TMC3    C114234   2.363   3.735  11.411  0.1502 -0.8003  0.7074
    6TMC3    C214235   2.287   3.658  11.324 -0.0847  0.8988  0.3224
    6TMC3    C314236   2.338   3.538  11.289  0.4963 -0.3073  0.3839
    6TMC3    C414237   2.492   3.715  11.439  0.5432  0.3191  0.6138
    6TMC3    C514238   2.537   3.585  11.397  0.3497 -0.8668  0.1838
    6TMC3    C614239   2.460   3.493  11.328 -0.5820  0.1114 -0.2747
    6TMC3     C14240   2.311   3.862  11.457 -0.3439  0.4788  0.0811
    6TMC3     O14241   2.222   3.917  11.397  0.0473  0.0977  0.2189
    6TMC3     H14242   2.189   3.697  11.299 -0.1333 -0.1306 -1.1007
    6TMC3    H114243   2.551   3.783  11.499  1.0041  1.0960 -0.7458
    6TMC3    H214244   2.498   3.408  11.273  1.5070  1.7247 -1.3002
    6TMC3    C714245   2.668   3.546  11.449  0.0545 -0.2910 -0.1507
    6TMC3    C814246   2.248   3.435  11.234  0.4212  0.1195  0.3301
    6TMC3    O114247   2.738   3.633  11.495 -0.1248 -0.2767 -0.0012
    6TMC3    O214248   2.284   3.321  11.254  0.2439  0.1148 -0.4284
    7MPD2     C14249   3.646   3.075  11.574  0.2688 -0.3001 -0.3754
    7MPD2    C114250   3.665   3.157  11.688  0.0032 -0.6680  0.0692
    7MPD2    C214251   3.738   3.101  11.797  0.1389 -0.2892 -0.6995
    7MPD2    C314252   3.763   2.966  11.798  0.0501  0.3151  0.3578
    7MPD2    C414253   3.746   2.887  11.688 -0.0535 -0.5003  0.1096
    7MPD2    C514254   3.708   2.952  11.571 -0.9044  0.6267  0.3371
    7MPD2     H14255   3.753   3.155  11.890 -1.0395 -2.3901  0.6880
    7MPD2    H114256   3.780   2.785  11.670  1.0539  0.2067 -1.7978
    7MPD2    H214257   3.590   3.115  11.490 -2.5570  0.0509  1.6509
    7MPD2    H314258   3.694   2.894  11.480 -1.2894  0.3660  0.5640
    7MPD2     N14259   3.810   2.902  11.914 -0.4940  0.5794  0.0168
    7MPD2    H514260   3.864   2.817  11.899 -0.0246  0.9833 -0.5947
    7MPD2    N114261   3.611   3.283  11.692  0.7452 -0.0173 -0.2661
    7MPD2    H714262   3.554   3.309  11.612 -0.0386  1.0573  0.6440
    8TMC3    C114263   3.516   3.480  11.781 -0.0682 -0.1763 -0.3845
    8TMC3    C214264   3.392   3.446  11.729  0.0073 -0.1812  0.5289
    8TMC3    C314265   3.275   3.507  11.775  0.3355 -0.3464 -0.5880
    8TMC3    C414266   3.520   3.563  11.893 -0.1291  0.1290 -0.3736
    8TMC3    C514267   3.393   3.588  11.953 -0.2426  0.1293  0.3474
    8TMC3    C614268   3.273   3.580  11.885 -0.6076  0.2915  0.0979
    8TMC3     C14269   3.619   3.375  11.795 -0.1038 -0.0595  0.0421
    8TMC3     O14270   3.677   3.368  11.903  0.3478 -0.6322  0.0101
    8TMC3     H14271   3.384   3.381  11.642  0.0848  0.6164 -0.0781
    8TMC3    H114272   3.617   3.584  11.937 -1.1115  0.1685  1.7823
    8TMC3    H214273   3.181   3.607  11.935 -0.4880  1.2397 -0.1816
    8TMC3    C714274   3.390   3.559  12.091  0.9719  0.0885  0.4142
    8TMC3    C814275   3.141   3.486  11.708  0.6566 -0.0691  0.3624
    8TMC3    O114276   3.291   3.591  12.151  0.5614  0.1547  0.1208
    8TMC3    O214277   3.052   3.569  11.727 -0.3096 -0.0999  0.0047
    9MPD2     C14278   3.042   3.193  11.502 -0.2249 -0.3483  0.4618
    9MPD2    C114279   3.036   3.322  11.551 -0.4235  0.2827 -0.1791
    9MPD2    C214280   2.934   3.410  11.510  0.9530 -1.0245 -0.2129
    9MPD2    C314281   2.830   3.353  11.438  1.1762  0.0558 -0.0067
    9MPD2    C414282   2.833   3.222  11.396 -0.6574  0.1011 -0.5253
    9MPD2    C514283   2.940   3.148  11.425 -0.7157 -0.4751  0.2128
    9MPD2     H14284   2.934   3.515  11.536 -0.6586 -0.9317 -0.6119
    9MPD2    H114285   2.741   3.181  11.356  0.0139 -1.5820 -0.3377
    9MPD2    H214286   3.120   3.122  11.526  2.0753  1.7722 -0.7674
    9MPD2    H314287   2.926   3.041  11.415 -2.6670 -0.2475  0.5895
    9MPD2     N14288   2.708   3.420  11.402  0.3304 -0.3987  0.0641
    9MPD2    H514289   2.638   3.365  11.355  0.5885 -2.4184  2.0272
    9MPD2    N114290   3.147   3.373  11.621  0.0966 -0.4959  0.6106
    9MPD2    H714291   3.227   3.312  11.633 -0.4845 -1.1854  0.9204
    1MPD1     C14292   2.628   1.274  15.982 -0.4076 -0.6090  0.3869
    1MPD1    C114293   2.559   1.359  16.067  0.0476 -0.1155 -0.6948
    1MPD1    C214294   2.575   1.344  16.207 -0.0824 -1.2697 -0.5923
    1MPD1    C314295   2.666   1.251  16.256 -0.4037  0.3512 -0.7688
    1MPD1    C414296   2.731   1.167  16.168 -0.8776  0.5434  0.7012
    1MPD1    C514297   2.710   1.174  16.032  0.8798  0.8737  0.0214
    1MPD1     H14298   2.531   1.416  16.275  3.7395 -1.4188  2.0239
    1MPD1    H114299   2.801   1.092  16.204 -0.8812  0.2265  0.0384
    1MPD1    H214300   2.589   1.279  15.881 -1.7902  1.8340  1.0488
    1MPD1    H314301   2.767   1.101  15.976 -1.4844  0.2180 -1.5655
    1MPD1     N14302   2.697   1.244  16.395  0.0898 -0.3134 -0.1253
    1MPD1    H514303   2.776   1.186  16.420  0.6284  1.1005  1.5129
    1MPD1    N114304   2.456   1.438  16.010  0.5377 -0.1254  0.4618
    1MPD1    H614305   2.472   1.459  15.912 -1.1612  2.1459  0.6877
    1MPD1    H714306   2.440   1.523  16.064 -3.2265 -1.1039  0.9118
    2TMC2    C114307   2.660   1.297  16.864 -0.2945 -0.2450 -0.5945
    2TMC2    C214308   2.736   1.187  16.884  0.3347  0.3681 -0.1962
    2TMC2    C314309   2.773   1.117  16.773  0.4901 -0.2754  0.0348
    2TMC2    C414310   2.620   1.338  16.742  0.3763  0.2585  0.4741
    2TMC2    C514311   2.671   1.267  16.639  0.4351  0.2927  0.0536
    2TMC2    C614312   2.737   1.149  16.649 -0.1155  0.8055 -0.3087
    2TMC2     C14313   2.658   1.382  16.983  0.0734  0.4677 -0.2718
    2TMC2     O14314   2.678   1.322  17.091  0.5439 -0.1431 -0.5080
    2TMC2     H14315   2.769   1.149  16.980  0.8911  0.1843 -0.4608
    2TMC2    H114316   2.557   1.424  16.725 -1.1350 -0.6674  1.2917
    2TMC2    H214317   2.787   1.094  16.570  0.2492 -2.0728  1.9562
    2TMC2    C714318   2.643   1.312  16.504 -0.7944  0.1475  0.0367
    2TMC2    C814319   2.847   0.983  16.778  0.0808 -0.8785  0.2420
    2TMC2    O114320   2.584   1.415  16.504  0.2794 -0.3953  0.1943
    2TMC2    O214321   2.867   0.919  16.675 -0.4287 -0.6090 -0.3302
    2TMC2    O514322   2.831   0.922  16.903  0.1449  0.0290  0.1298
    2TMC2    H514323   2.853   0.983  16.976 -0.0146 -2.2575  2.1106
    3MPD1     C14324   2.505   1.808  17.216 -0.3837  0.6757 -0.5557
    3MPD1    C114325   2.558   1.844  17.089  0.1409  0.7261  0.1007
    3MPD1    C214326   2.597   1.743  17.001 -0.1428 -0.1902  0.0967
    3MPD1    C314327   2.602   1.613  17.050  0.2263 -0.2557  0.1572
    3MPD1    C414328   2.581   1.587  17.182  0.2822 -0.1437 -0.3094
    3MPD1    C514329   2.527   1.683  17.257  0.0818  0.4167  0.3156
    3MPD1     H14330   2.618   1.751  16.895 -0.8514  1.1719  0.0663
    3MPD1    H114331   2.581   1.484  17.215 -0.9952  0.5783  1.9440
    3MPD1    H214332   2.461   1.878  17.286  0.0831  0.6586 -0.2458
    3MPD1    H314333   2.504   1.664  17.361 -2.2666  0.5232 -0.1874
    3MPD1     N14334   2.625   1.508  16.954  0.0422 -0.0143  0.9723
    3MPD1    H514335   2.631   1.533  16.856  0.5016 -0.2408  0.9420
    3MPD1    N114336   2.535   1.978  17.045  0.1276  0.3973 -0.0803
    3MPD1    H614337   2.547   2.054  17.112 -0.8066  1.5807 -1.2609
    3MPD1    H714338   2.603   1.994  16.971 -1.5790  1.3187 -1.4378
    1TMC1    C114339   0.677   1.283  12.710  0.5218 -0.3624 -0.7418
    1TMC1    C214340   0.671   1.343  12.839  0.3498 -0.2693  0.4791
    1TMC1    C314341   0.581   1.285  12.923  0.2008  0.0816  0.1334
    1TMC1    C414342   0.584   1.192  12.665 -0.1986 -0.8135  0.9040
    1TMC1    C514343   0.493   1.139  12.753 -0.2344 -0.1596 -0.1227
    1TMC1    C614344   0.494   1.185  12.880  0.0499 -0.3811  0.3856
    1TMC1     C14345   0.765   1.353  12.618 -0.1146  0.7426 -0.0903
    1TMC1     O14346   0.731   1.367  12.503  0.3642  0.3233 -0.0363
    1TMC1     H14347   0.729   1.429  12.872  0.6325  0.4993 -2.0192
    1TMC1    H114348   0.577   1.168  12.560 -0.3831  1.0492  0.4986
    1TMC1    H214349   0.415   1.139  12.938 -1.6706  0.9400 -0.9171
    1TMC1    C714350   0.414   1.022  12.727  0.3887  0.3444 -0.2039
    1TMC1    C814351   0.548   1.357  13.049  0.7473 -0.0253  0.0613
    1TMC1    O114352   0.312   1.013  12.793 -0.1231  0.4162  0.1981
    1TMC1    O214353   0.515   1.475  13.049  0.3349 -0.2809 -0.1394
    1TMC1    O314354   0.507   0.928  12.753 -0.3406 -0.0458  0.5075
    1TMC1    H314355   0.597   0.963  12.737 -1.0411  1.5939  0.2151
    1TMC1    O514356   0.490   1.261  13.127 -0.1740 -0.0627  0.4626
    1TMC1    H514357   0.536   1.175  13.117 -0.0725  0.0466 -0.0021
    2MPD2     C14358   0.997   1.490  12.491 -0.1957  0.1715 -0.0657
    2MPD2    C114359   1.001   1.452  12.622 -0.0116 -0.4736  0.3181
    2MPD2    C214360   1.121   1.482  12.702 -0.7031  0.4187 -0.8876
    2MPD2    C314361   1.223   1.552  12.641 -0.6947  0.7520  0.5375
    2MPD2    C414362   1.214   1.589  12.509 -1.1390  0.2559 -0.2472
    2MPD2    C514363   1.106   1.560  12.432 -0.0531 -0.3702 -0.5637
    2MPD2     H14364   1.125   1.450  12.805 -1.6946  1.3847 -0.5604
    2MPD2    H114365   1.294   1.635  12.452 -0.0050  0.2341  1.3326
    2MPD2    H214366   0.911   1.472  12.428  0.4502 -1.1881 -0.5518
    2MPD2    H314367   1.101   1.562  12.323  0.2536 -1.6982 -0.6068
    2MPD2     N14368   1.346   1.568  12.706  0.4292 -0.5065  0.5032
    2MPD2    H514369   1.356   1.526  12.798 -1.0242  0.9378  1.3118
    2MPD2    N114370   0.887   1.384  12.684 -0.2221  0.6959 -0.6547
    2MPD2    H714371   0.908   1.360  12.780  0.3078 -0.7110 -1.1299
    3TCq1    O114372   1.777   1.842  13.036  0.1107  0.0096 -0.0932
    3TCq1    C114373   1.780   1.841  12.903 -0.1762  0.5099 -0.1501
    3TCq1    O214374   1.771   1.941  12.832  0.7317 -0.1137  0.0680
    3TCq1    C214375   1.753   1.709  12.848 -1.4224 -0.0323  0.4035
    3TCq1    C314376   1.775   1.609  12.928  0.1656 -0.4181 -0.7209
    3TCq1    C414377   1.690   1.500  12.903 -0.2492  0.7723  0.5493
    3TCq1    C514378   1.581   1.503  12.818  0.4031 -0.4087 -0.4653
    3TCq1    C614379   1.566   1.613  12.740  0.2520 -0.3154 -0.9795
    3TCq1    C714380   1.660   1.711  12.745  0.3467  0.2080  0.0167
    3TCq1    C814381   1.448   1.648  12.665 -0.4894  0.5665  0.6024
    3TCq1    O414382   1.453   1.741  12.586  0.6481 -0.2220 -0.2520
    3TCq1    C914383   1.710   1.384  12.990  0.2306  1.1755 -0.2656
    3TCq1    O514384   1.626   1.290  12.976 -0.2320 -0.0725  0.0811
    3TCq1    O614385   1.816   1.382  13.056  0.0913 -0.3482  0.6084
    3TCq1    H114386   1.770   1.747  13.061 -1.5660 -0.4488 -2.3742
    3TCq1    H214387   1.836   1.604  13.017 -1.4773  1.3176  0.5084
    3TCq1    H314388   1.510   1.422  12.822  0.4716 -0.4078  0.9072
    3TCq1    H414389   1.647   1.798  12.681  0.3684 -0.5971 -1.0953
    1MPD2     C14390   0.529   3.206  15.175 -0.6726  0.9236  0.2492
    1MPD2    C114391   0.579   3.086  15.119  0.0488 -0.7442  0.2689
    1MPD2    C214392   0.709   3.055  15.142 -0.4798 -0.2619 -0.3105
    1MPD2    C314393   0.797   3.144  15.208 -0.1724  1.1866 -0.3887
    1MPD2    C414394   0.747   3.262  15.257  0.2453 -0.5675  1.0180
    1MPD2    C514395   0.611   3.286  15.244 -0.7459  0.4024 -0.2775
    1MPD2     H14396   0.744   2.964  15.094  0.7203  0.0350  0.0082
    1MPD2    H114397   0.811   3.328  15.315 -1.8995  1.9468  0.5469
    1MPD2    H214398   0.422   3.222  15.177 -0.5753  1.8493 -1.5169
    1MPD2    H314399   0.570   3.374  15.292 -1.0822 -0.0133  0.1944
    1MPD2     N14400   0.937   3.112  15.208  0.2038 -0.2859  0.2994
    1MPD2    H514401   0.989   3.149  15.287  0.8503 -0.2783 -0.1314
    1MPD2    N114402   0.483   3.004  15.057  0.1512  0.1117 -0.0406
    1MPD2    H714403   0.383   3.023  15.057  0.0318 -0.5298  0.3561
    2TMC3    C114404   0.402   2.814  14.940 -0.4878 -0.1211 -0.5030
    2TMC3    C214405   0.432   2.682  14.921 -0.3928  0.2805  0.3240
    2TMC3    C314406   0.440   2.627  14.795  0.4182  0.2558  0.6240
    2TMC3    C414407   0.358   2.892  14.832  0.0827 -0.3166 -0.0148
    2TMC3    C514408   0.353   2.839  14.708 -0.0934  0.7196  0.0604
    2TMC3    C614409   0.398   2.707  14.689 -0.4813 -0.0801  0.3150
    2TMC3     C14410   0.513   2.878  15.015  0.1968 -0.1461  0.4429
    2TMC3     O14411   0.615   2.812  15.028 -0.2434 -0.3071 -0.2183
    2TMC3     H14412   0.479   2.635  15.006 -0.0742  0.2743  0.1438
    2TMC3    H114413   0.330   2.994  14.856  0.8390  0.3963 -2.1847
    2TMC3    H214414   0.424   2.671  14.590 -1.2697 -2.2106  0.8764
    2TMC3    C714415   0.330   2.918  14.590  0.5273 -0.2247  0.3350
    2TMC3    C814416   0.567   2.567  14.760 -0.1247 -0.8211  0.5062
    2TMC3    O114417   0.327   2.860  14.483  0.0484 -0.1611  0.4249
    2TMC3    O214418   0.572   2.509  14.649 -0.2562  0.0139  0.4195
    3TCq1    O114419   0.202   4.046  14.361  0.2348  0.0987  0.2262
    3TCq1    C114420   0.324   4.082  14.416  0.2919 -0.8840 -0.6226
    3TCq1    O214421   0.385   4.183  14.386 -0.0872  0.7623 -0.0148
    3TCq1    C214422   0.390   3.963  14.462 -0.0821  0.4585 -1.0277
    3TCq1    C314423   0.462   3.959  14.577  0.2856 -0.0838 -0.4702
    3TCq1    C414424   0.514   3.839  14.618  0.8717 -0.2522 -0.2950
    3TCq1    C514425   0.511   3.731  14.535 -0.1567 -0.4966  0.5889
    3TCq1    C614426   0.442   3.736  14.420 -0.1379 -0.5409  0.0423
    3TCq1    C714427   0.375   3.853  14.381  0.7565  0.7125  0.3669
    3TCq1    C814428   0.375   3.612  14.377  0.9245  0.0578  0.8830
    3TCq1    O414429   0.305   3.628  14.282  0.1491  0.0413 -0.4269
    3TCq1    C914430   0.602   3.831  14.729  0.1316 -0.2724  0.0872
    3TCq1    O514431   0.627   3.715  14.775 -0.3796 -0.0546 -0.0251
    3TCq1    O614432   0.650   3.937  14.779 -0.1861  0.1263  0.4606
    3TCq1    H114433   0.181   3.959  14.401  0.2712  0.0102  0.0530
    3TCq1    H214434   0.484   4.052  14.628  1.3531 -0.0198 -1.0673
    3TCq1    H314435   0.581   3.650  14.550  0.1680 -0.2916  0.1659
    3TCq1    H414436   0.332   3.862  14.282 -0.1690  1.1632  0.8130
    4MPD2     C14437   0.274   3.338  14.314 -0.5307 -0.0097 -0.3897
    4MPD2    C114438   0.340   3.372  14.433  0.2002  0.4695  0.5034
    4MPD2    C214439   0.358   3.275  14.525 -0.1804  0.0384  0.7406
    4MPD2    C314440   0.324   3.145  14.501 -1.0140  0.6968  0.3411
    4MPD2    C414441   0.274   3.108  14.380 -0.3008  0.3626  1.3504
    4MPD2    C514442   0.247   3.207  14.289  0.0870  0.0428 -0.2592
    4MPD2     H14443   0.412   3.298  14.616  1.5598  0.0596 -0.3002
    4MPD2    H114444   0.233   3.011  14.355 -2.9469  1.7796  0.2892
    4MPD2    H214445   0.256   3.413  14.237 -0.0680  0.7691  0.2580
    4MPD2    H314446   0.183   3.183  14.205  0.1967 -0.9202 -0.0627
    4MPD2     N14447   0.355   3.054  14.605  0.6737  0.7720 -0.1928
    4MPD2    H514448   0.416   3.081  14.681 -0.8901  3.6706  0.0365
    4MPD2    N114449   0.389   3.500  14.460 -0.3241 -0.3415 -0.5005
    4MPD2    H714450   0.442   3.506  14.547 -1.4354 -1.9368  0.2730
    5TMC2    C114451   1.275   2.815  15.070  0.2324 -0.7211  0.4233
    5TMC2    C214452   1.312   2.780  15.197  0.4377  0.5620 -0.2481
    5TMC2    C314453   1.274   2.859  15.302 -0.5343 -0.2816  0.0179
    5TMC2    C414454   1.203   2.933  15.047  0.0403 -0.2084 -0.1139
    5TMC2    C514455   1.155   3.005  15.154  1.0791  0.1103  0.3309
    5TMC2    C614456   1.191   2.970  15.287 -0.1498 -0.0203 -0.3813
    5TMC2     C14457   1.240   2.706  14.981  0.3786  1.3417 -0.0546
    5TMC2     O14458   1.324   2.625  14.945 -0.2184  0.2805 -0.0778
    5TMC2     H14459   1.354   2.681  15.211 -0.7574  0.3803  2.0489
    5TMC2    H114460   1.165   2.951  14.948 -1.4394 -0.0783  0.4737
    5TMC2    H214461   1.156   3.024  15.375  0.4874  0.0414 -0.1656
    5TMC2    C714462   1.002   3.015  15.134 -0.0223  0.0286 -0.0232
    5TMC2    C814463   1.276   2.785  15.432 -0.4530  0.4486  0.4436
    5TMC2    O114464   0.956   2.948  15.042 -0.0818  0.1343 -0.4956
    5TMC2    O214465   1.380   2.730  15.465  0.2241 -0.6373  0.0831
    5TMC2    O514466   1.163   2.709  15.422  0.1273  0.2948 -0.6442
    5TMC2    H514467   1.088   2.757  15.381 -1.6022 -0.6373  1.4505
    6MPD2     C14468   0.844   2.482  14.746 -0.0444  0.1994  0.1591
    6MPD2    C114469   0.793   2.571  14.829  0.3956 -0.2830  0.5952
    6MPD2    C214470   0.887   2.639  14.908 -0.0426 -0.4355 -0.1668
    6MPD2    C314471   1.025   2.632  14.878 -0.4838  0.2986 -0.4230
    6MPD2    C414472   1.077   2.544  14.783  0.4348 -0.7119 -0.0288
    6MPD2    C514473   0.978   2.465  14.723  0.7228  0.5720 -0.1362
    6MPD2     H14474   0.850   2.689  14.997  0.9150  1.2599 -0.6985
    6MPD2    H114475   1.181   2.535  14.756  0.2813  1.2736 -1.2957
    6MPD2    H214476   0.782   2.422  14.681  0.7998 -0.6948  0.1766
    6MPD2    H314477   1.018   2.383  14.666 -1.5766 -0.9356  0.4011
    6MPD2     N14478   1.109   2.714  14.957 -1.1065  0.1098  0.1181
    6MPD2    H514479   1.052   2.780  15.008 -3.1864 -0.8697 -0.9442
    6MPD2    N114480   0.664   2.602  14.849  0.3282  0.2732 -0.5080
    6MPD2    H714481   0.628   2.664  14.921 -0.1778 -2.1023  1.2981
  945NH3     N114482   2.411   1.697  16.433  0.3571 -0.1057 -0.1968
  945NH3     H214483   2.416   1.605  16.392 -5.1848 -0.6641  0.4226
  945NH3     H314484   2.439   1.762  16.360 -2.0892  0.1730 -0.9105
  945NH3     H414485   2.315   1.718  16.459  1.0794  2.5012  0.4620
  946SOD     NA14486   3.159   3.444  13.973 -0.1859 -0.5534  0.0409
  947SOD     NA14487   1.534   0.444   9.978 -0.0401 -0.1463 -0.3454
  948SOD     NA14488   2.728   2.123   7.629  0.4578  0.1742  0.1363
  949SOD     NA14489   1.727   3.464  12.427 -0.2493  0.1646 -0.4252
  950SOD     NA14490   0.589   2.088   4.098 -0.0517 -0.1354 -0.3201
  951SOD     NA14491   3.744   0.403   5.908  0.2913 -0.1404  0.4275
  952SOD     NA14492   1.173   2.963  13.124 -0.4205  0.7479 -0.0651
  953SOD     NA14493   0.671   3.683  14.990 -0.1241  0.2718  0.1706
  954SOL     OW14494   3.505   0.574   3.123 -0.0315 -0.0959  0.1006
  954SOL    HW114495   3.501   0.482   3.150 -1.3907  0.3314  1.3903
  954SOL    HW214496   3.422   0.587   3.077  0.6657  0.9266 -0.8708
  955SOL     OW14497   1.691   3.302   1.261 -0.4094  0.7402  0.1083
  955SOL    HW114498   1.672   3.373   1.200 -2.0546  0.2362  0.0299
  955SOL    HW214499   1.633   3.323   1.334  0.6529 -2.2126  1.8213
  956SOL     OW14500   0.103   1.515   2.805  0.7841 -0.6569 -0.2190
  956SOL    HW114501   0.160   1.497   2.730 -1.0015  0.4855 -1.8585
  956SOL    HW214502   0.091   1.425   2.836  0.7596 -1.2926 -2.0073
  957SOL     OW14503   1.132   3.619   9.039 -0.6605  0.4956 -0.1589
  957SOL    HW114504   1.197   3.659   8.981 -1.4660  0.9885 -0.7220
  957SOL    HW214505   1.188   3.555   9.083  1.2342  3.0164  1.1576
  958SOL     OW14506   1.479   1.495   3.259  0.3763  0.3562  0.4684
  958SOL    HW114507   1.418   1.503   3.332  0.8973  0.9736  0.8380
  958SOL    HW214508   1.553   1.443   3.292  0.1326  0.2167  0.7979
  959SOL     OW14509   0.993   4.709  16.239  0.2946  0.1716  0.1692
  959SOL    HW114510   1.000   4.614  16.247 -0.4033  0.2909  2.0427
  959SOL    HW214511   1.060   0.007  16.299  0.0296  2.1768 -0.6425
  960SOL     OW14512   4.687   0.040   7.698  0.6087 -0.7080  0.0296
  960SOL    HW114513   4.695   4.701   7.759 -0.9269  0.0323  1.1365
  960SOL    HW214514   4.694   0.117   7.755  3.2671 -0.8284 -0.1553
  961SOL     OW14515   0.292   0.807   7.776 -0.2919  0.4539  0.2286
  961SOL    HW114516   0.228   0.839   7.840 -1.4555 -0.9712 -0.2345
  961SOL    HW214517   0.377   0.826   7.817  0.0845  0.9599 -0.7848
  962SOL     OW14518   2.594   0.327  14.450 -0.2337  0.1251  0.3045
  962SOL    HW114519   2.551   0.305  14.533  1.9704 -4.0540  0.3330
  962SOL    HW214520   2.565   0.262  14.386  1.6140  0.3032 -0.7313
  963SOL     OW14521   0.444   4.225   2.620 -0.6218  0.1598  0.7457
  963SOL    HW114522   0.527   4.219   2.574  0.7791  1.9495  3.0849
  963SOL    HW214523   0.397   4.144   2.598  2.1311 -0.5147 -2.4651
  964SOL     OW14524   1.842   4.299   6.216 -0.2682  0.4160 -0.2285
  964SOL    HW114525   1.765   4.243   6.206 -0.0219 -0.4203  2.6153
  964SOL    HW214526   1.823   4.348   6.136  0.9919  2.4625  0.7248
  965SOL     OW14527   3.234   0.955   4.931 -0.0512  0.2144  0.1873
  965SOL    HW114528   3.252   0.969   4.838  0.4437  1.8644  0.5308
  965SOL    HW214529   3.275   0.869   4.940 -0.7449  0.1496  2.8580
  966SOL     OW14530   2.088   2.095   8.559 -0.4418  0.4592 -0.2092
  966SOL    HW114531   2.063   2.187   8.547  0.3945  0.4335 -2.2442
  966SOL    HW214532   2.006   2.050   8.580 -1.0339  1.2007 -0.9519
  967SOL     OW14533   1.902   0.756  14.226 -0.0687 -0.4015 -0.1660
  967SOL    HW114534   1.853   0.674  14.221  0.8572 -1.0256  1.0519
  967SOL    HW214535   1.989   0.726  14.199  0.2278 -0.6178  1.0358
  968SOL     OW14536   4.381   4.029   9.624 -0.2795  0.0051  0.2231
  968SOL    HW114537   4.447   4.076   9.574 -0.1977 -0.4275 -0.0817
  968SOL    HW214538   4.371   4.083   9.702 -1.1623 -1.9010  1.4426
  969SOL     OW14539   0.002   2.229   5.247 -0.0053 -0.4375 -0.0372
  969SOL    HW114540   0.085   2.277   5.242 -0.0295 -0.2862  0.8837
  969SOL    HW214541   4.684   2.278   5.310  0.4482 -0.9551  0.7474
  970SOL     OW14542   2.781   1.315  17.325 -0.3202  0.0756 -0.1605
  970SOL    HW114543   2.750   1.230  17.357 -0.6250 -1.2809 -4.0790
  970SOL    HW214544   2.728   1.324  17.246 -1.5472 -0.7391  0.5606
  971SOL     OW14545   4.668   1.501   5.993 -0.4872  0.6203  0.1787
  971SOL    HW114546   4.594   1.540   5.946 -0.4282 -2.2909 -2.2845
  971SOL    HW214547   4.660   1.543   6.079 -0.0773  1.4577 -0.1904
  972SOL     OW14548   2.910   2.754   6.401 -0.0739  0.5471 -0.1122
  972SOL    HW114549   2.914   2.837   6.353 -0.9458  0.3301 -0.5629
  972SOL    HW214550   2.886   2.789   6.487  1.7163  0.7471  0.3080
  973SOL     OW14551   4.391   1.893   0.986 -0.2031  0.2561 -0.0955
  973SOL    HW114552   4.479   1.926   1.002 -0.0126 -0.8682  1.1858
  973SOL    HW214553   4.390   1.918   0.893  0.9998  0.5419 -0.0364
  974SOL     OW14554   0.285   2.401   6.678 -0.3640 -0.0233 -0.0299
  974SOL    HW114555   0.263   2.313   6.710  1.0528 -0.2168  0.4189
  974SOL    HW214556   0.349   2.377   6.611  0.5870 -1.6931  1.4786
  975SOL     OW14557   4.173   1.967  11.719 -0.1850 -0.3758  0.2914
  975SOL    HW114558   4.078   1.956  11.706 -0.3346  0.7599  0.4832
  975SOL    HW214559   4.182   2.061  11.706 -0.8738  0.0078  2.4631
  976SOL     OW14560   1.166   1.749   1.919 -0.2359  0.4874 -0.0931
  976SOL    HW114561   1.162   1.654   1.909  3.9250  0.1992  1.1111
  976SOL    HW214562   1.257   1.761   1.945 -0.5743 -1.7874  2.1415
  977SOL     OW14563   2.972   0.135  13.916  0.7965 -0.1502 -0.4406
  977SOL    HW114564   3.056   0.163  13.952  1.2607 -0.6558 -1.1558
  977SOL    HW214565   2.995   0.121  13.825 -0.0607 -1.5992 -0.4302
  978SOL     OW14566   1.044   0.650   2.291 -0.2630  0.3554 -0.4040
  978SOL    HW114567   0.951   0.650   2.267 -0.7837  0.6889  1.5434
  978SOL    HW214568   1.051   0.560   2.322  0.7217  1.1277  1.6119
  979SOL     OW14569   3.347   2.476   4.830 -0.4631  0.2479 -0.1363
  979SOL    HW114570   3.426   2.427   4.805  0.2727  1.9955 -1.1809
  979SOL    HW214571   3.316   2.412   4.895 -1.1731  1.5259  0.7705
  980SOL     OW14572   3.934   4.219   3.603 -0.3453  0.4878 -0.0608
  980SOL    HW114573   3.850   4.176   3.589 -0.0081 -0.1361 -0.1729
  980SOL    HW214574   3.993   4.184   3.535  1.1631  1.8845  0.5139
  981SOL     OW14575   1.312   3.685   0.025 -0.1789 -0.0057  0.2199
  981SOL    HW114576   1.283   3.691   0.116  0.5490 -0.4754  0.4785
  981SOL    HW214577   1.362   3.604   0.022 -1.5974 -0.8369 -1.1162
  982SOL     OW14578   4.397   0.784  14.231  0.5924  0.4955 -0.6119
  982SOL    HW114579   4.413   0.821  14.317 -1.0239 -0.1118 -0.0449
  982SOL    HW214580   4.397   0.860  14.173  1.0740  0.3975 -0.7397
  983SOL     OW14581   2.072   0.778   5.768  0.0642 -0.1329 -0.8052
  983SOL    HW114582   2.054   0.750   5.678 -0.4006  1.0783 -1.0956
  983SOL    HW214583   2.101   0.867   5.749 -0.9137  0.2757 -0.3998
  984SOL     OW14584   1.377   3.519   1.315 -0.5484 -0.0037  0.0718
  984SOL    HW114585   1.373   3.547   1.407  1.5570  0.9573 -0.1221
  984SOL    HW214586   1.397   3.595   1.262  2.5054  0.3363  1.7093
  985SOL     OW14587   3.964   4.485   3.079 -0.3516  0.5746 -0.7024
  985SOL    HW114588   4.006   4.571   3.071  0.8481  0.0508 -0.1463
  985SOL    HW214589   4.019   4.449   3.150  2.1819  0.6935 -2.5882
  986SOL     OW14590   2.717   0.212   4.198 -0.1367 -0.0376  0.1322
  986SOL    HW114591   2.759   0.128   4.215  1.9394  1.0628  0.3875
  986SOL    HW214592   2.790   0.272   4.209  0.3841 -0.9380  1.6233
  987SOL     OW14593   3.894   3.180   6.377  0.3707  0.2421  0.1612
  987SOL    HW114594   3.915   3.238   6.304 -0.0029 -0.4187 -0.4709
  987SOL    HW214595   3.971   3.170   6.434  0.9618  0.8429 -0.5331
  988SOL     OW14596   0.001   1.582   0.140 -0.7101 -0.0875  0.2954
  988SOL    HW114597   4.691   1.660   0.172 -0.2174  0.0205  0.7183
  988SOL    HW214598   0.001   1.606   0.047  2.1539  0.3208  0.4133
  989SOL     OW14599   0.600   1.082   4.774  0.5266 -0.1531 -0.5161
  989SOL    HW114600   0.611   1.020   4.846 -1.1154 -0.1998 -0.3039
  989SOL    HW214601   0.612   1.029   4.696  2.2410 -0.2281 -0.1896
  990SOL     OW14602   0.502   1.304  14.280 -0.1309  0.2464 -0.2331
  990SOL    HW114603   0.560   1.229  14.265 -1.1314 -1.3456  4.0079
  990SOL    HW214604   0.425   1.262  14.317 -0.3678  1.3161  0.4822
  991SOL     OW14605   2.118   1.062   7.943 -1.0931 -0.4152 -0.5482
  991SOL    HW114606   2.205   1.063   7.904 -0.8971 -0.1179 -0.1088
  991SOL    HW214607   2.111   1.151   7.978 -1.5566 -1.9101  3.1476
  992SOL     OW14608   2.716   0.085  10.055  0.6569  0.0566 -0.1076
  992SOL    HW114609   2.787   0.076  10.118  0.9884 -1.4867 -0.6968
  992SOL    HW214610   2.729   0.174  10.022 -2.3138 -0.3948 -2.4488
  993SOL     OW14611   0.101   2.077  17.159 -0.0132  0.2372  0.2314
  993SOL    HW114612   0.046   2.108  17.087 -0.0273  1.2116  0.6610
  993SOL    HW214613   0.136   1.995  17.123  0.7707  0.2036  1.0689
  994SOL     OW14614   0.045   4.410   7.423 -0.5046 -0.3868 -0.1098
  994SOL    HW114615   4.728   4.333   7.403  0.2163 -0.9609  0.2628
  994SOL    HW214616   0.038   4.411   7.518  0.8237 -1.4293 -0.0001
  995SOL     OW14617   3.802   0.913   2.726 -0.2870 -1.2071 -0.3194
  995SOL    HW114618   3.759   0.998   2.719  1.6304 -0.3925 -2.2345
  995SOL    HW214619   3.894   0.924   2.700 -0.6609  0.3640 -0.9601
  996SOL     OW14620   1.789   3.821  12.654  0.5167 -0.1820  0.3053
  996SOL    HW114621   1.877   3.792  12.677  0.5526 -0.4882 -0.2192
  996SOL    HW214622   1.783   3.881  12.729 -1.8051  1.6619 -1.3657
  997SOL     OW14623   2.189   3.581   3.470  0.5760  0.3026 -0.0583
  997SOL    HW114624   2.132   3.505   3.476  0.3242  0.6645  2.2419
  997SOL    HW214625   2.159   3.624   3.390  1.4837  2.2932  0.6786
  998SOL     OW14626   4.371   3.157   3.134  0.0178 -0.2265  0.0988
  998SOL    HW114627   4.453   3.138   3.180  0.6797 -0.3283 -1.1317
  998SOL    HW214628   4.405   3.217   3.067 -0.6031 -0.0440 -0.0484
  999SOL     OW14629   4.562   2.670   9.559 -0.1165  0.5349 -0.2479
  999SOL    HW114630   4.638   2.637   9.606 -1.0260  0.4606  1.1697
  999SOL    HW214631   4.577   2.764   9.569 -0.4483  0.2818  2.6913
 1000SOL     OW14632   3.250   3.794   2.886 -0.0667 -0.1553 -0.1333
 1000SOL    HW114633   3.205   3.828   2.809  0.3792  2.1623  0.6341
 1000SOL    HW214634   3.335   3.838   2.892 -0.2691  0.4657 -1.7981
 1001SOL     OW14635   2.732   2.206   2.027 -0.0262 -0.1582 -0.2918
 1001SOL    HW114636   2.750   2.285   1.975 -0.1551 -0.9924 -1.6191
 1001SOL    HW214637   2.790   2.141   1.986 -0.5983 -0.9794  0.1960
 1002SOL     OW14638   0.014   2.221   2.831  0.0832 -0.0497  0.1987
 1002SOL    HW114639   4.722   2.251   2.918  0.6188 -0.1848  0.4124
 1002SOL    HW214640   0.056   2.140   2.861 -0.4915 -0.9554 -1.4702
 1003SOL     OW14641   4.441   0.536  14.109  0.0345  0.3435  0.1605
 1003SOL    HW114642   4.424   0.627  14.132  0.3650 -0.0439  1.9764
 1003SOL    HW214643   4.424   0.550  14.016 -1.8447  1.2876  0.6501
 1004SOL     OW14644   3.170   2.089  10.848  0.6571  0.3384  0.2564
 1004SOL    HW114645   3.223   2.067  10.771 -1.1228 -0.4877 -0.7112
 1004SOL    HW214646   3.101   2.146  10.817  0.9427  0.4543 -0.1643
 1005SOL     OW14647   4.428   3.294   6.181 -0.2482  0.6527  0.3181
 1005SOL    HW114648   4.488   3.227   6.148  1.5424  1.7966  1.2942
 1005SOL    HW214649   4.349   3.290   6.126 -0.4574 -0.1538  0.6839
 1006SOL     OW14650   1.137   1.876   8.869  0.4080  0.3554  0.4186
 1006SOL    HW114651   1.139   1.781   8.854  0.1789  0.2955  0.7760
 1006SOL    HW214652   1.064   1.884   8.930 -0.5721  0.1317 -0.7342
 1007SOL     OW14653   3.218   0.054   9.192 -0.7966 -0.5261  0.9510
 1007SOL    HW114654   3.268   4.720   9.236  0.7234  0.4288  0.7227
 1007SOL    HW214655   3.280   0.124   9.171 -1.0780 -1.1816 -1.9964
 1008SOL     OW14656   4.412   4.011  10.673  0.5387  0.1871 -0.7691
 1008SOL    HW114657   4.497   3.979  10.702  1.1411  0.8199 -1.8325
 1008SOL    HW214658   4.441   4.041  10.587 -1.1666 -0.2322 -1.4796
 1009SOL     OW14659   0.415   3.286  17.023  0.2117  0.7553 -0.1049
 1009SOL    HW114660   0.377   3.351  16.964  0.0651  1.4703  0.7725
 1009SOL    HW214661   0.375   3.207  16.986  0.2872  0.7598 -0.1962
 1010SOL     OW14662   4.553   2.649   1.880  0.2439  0.0062 -0.8283
 1010SOL    HW114663   4.644   2.652   1.851  0.6711  0.0883  0.5214
 1010SOL    HW214664   4.554   2.736   1.919 -0.1918  0.5948 -2.1630
 1011SOL     OW14665   1.353   0.576   7.045  0.2346  0.2936  0.1612
 1011SOL    HW114666   1.259   0.581   7.066  0.4396  3.6899  0.3426
 1011SOL    HW214667   1.358   0.487   7.013 -0.8600  0.3357 -0.1444
 1012SOL     OW14668   3.670   2.616   6.329  0.1819  0.3727 -0.2125
 1012SOL    HW114669   3.661   2.609   6.424 -3.9952  0.0099 -0.6126
 1012SOL    HW214670   3.603   2.553   6.301 -0.3513  0.5839  0.5636
 1013SOL     OW14671   3.776   2.321   4.565  0.4130  0.2187 -0.3382
 1013SOL    HW114672   3.803   2.392   4.505 -0.2245 -0.7855 -1.8100
 1013SOL    HW214673   3.843   2.302   4.631  3.0241  1.6457 -2.5879
 1014SOL     OW14674   2.933   1.719   8.096 -0.1475  0.0323  0.0367
 1014SOL    HW114675   2.945   1.653   8.027 -1.0366 -0.1018  0.0089
 1014SOL    HW214676   2.917   1.663   8.172  2.0148  0.6129  0.9484
 1015SOL     OW14677   4.133   1.707   6.925  0.4101  0.6673 -0.1521
 1015SOL    HW114678   4.091   1.637   6.976  0.5598  1.8990  1.6623
 1015SOL    HW214679   4.072   1.777   6.902  1.0375  0.9084 -1.0712
 1016SOL     OW14680   0.101   4.706   7.463  0.2589  0.2813  0.0908
 1016SOL    HW114681   0.090   4.611   7.466 -0.6783  0.4419  1.5024
 1016SOL    HW214682   0.043   0.007   7.530 -1.1196  0.6532 -1.3050
 1017SOL     OW14683   1.919   1.457  17.213 -0.5127 -0.3388 -0.4313
 1017SOL    HW114684   1.991   1.395  17.226  0.3494  1.1064  1.7097
 1017SOL    HW214685   1.858   1.384  17.199 -1.8055  0.5916  0.2606
 1018SOL     OW14686   4.071   1.166  15.700 -0.1256  0.1142 -0.2869
 1018SOL    HW114687   4.121   1.098  15.655  0.3542  0.3430 -0.1006
 1018SOL    HW214688   4.024   1.113  15.764  0.5890 -2.4704 -1.9398
 1019SOL     OW14689   3.682   0.670  17.691  0.2728  0.2846  0.0742
 1019SOL    HW114690   3.718   0.624   0.027 -2.3976  0.4373  1.4341
 1019SOL    HW214691   3.672   0.598  17.628  0.9642 -1.1880  1.6537
 1020SOL     OW14692   2.836   2.898  14.017 -0.1294  0.4142  0.0186
 1020SOL    HW114693   2.875   2.980  13.985  0.0752  0.9187  1.5832
 1020SOL    HW214694   2.837   2.839  13.942 -2.1483 -1.2107  1.3002
 1021SOL     OW14695   4.565   2.183   1.097  0.3335 -0.4546  0.4421
 1021SOL    HW114696   4.579   2.093   1.068 -0.9432 -0.2485 -0.7839
 1021SOL    HW214697   4.573   2.231   1.014  1.6454  1.5723  1.7328
 1022SOL     OW14698   3.841   2.118  11.741  0.0492  0.3165 -0.0737
 1022SOL    HW114699   3.823   2.109  11.834  0.6054  0.0268  0.0087
 1022SOL    HW214700   3.774   2.177  11.708 -0.4534 -0.4931 -0.4891
 1023SOL     OW14701   2.433   3.526   6.763 -0.1443 -0.4854 -0.2399
 1023SOL    HW114702   2.493   3.517   6.837  1.0784  0.2756 -1.1368
 1023SOL    HW214703   2.346   3.509   6.800 -0.7629 -1.4133 -2.1382
 1024SOL     OW14704   2.488   1.217   5.261  0.6921 -0.2929 -0.1990
 1024SOL    HW114705   2.419   1.151   5.254  0.1481  0.2204  0.3197
 1024SOL    HW214706   2.545   1.180   5.329  1.5823  0.6963 -0.4155
 1025SOL     OW14707   3.579   2.779   7.779 -0.0950 -0.1528  0.0469
 1025SOL    HW114708   3.585   2.874   7.786 -0.3065 -0.0266 -1.5005
 1025SOL    HW214709   3.587   2.758   7.872  0.7365 -0.2589 -0.0417
 1026SOL     OW14710   1.296   1.402   6.629  0.3320 -0.1316  0.3288
 1026SOL    HW114711   1.231   1.331   6.632 -1.0240  1.1988  1.9857
 1026SOL    HW214712   1.286   1.431   6.719  2.4589  0.3410  0.4162
 1027SOL     OW14713   0.311   3.312   9.380  0.2199 -0.0822 -0.3993
 1027SOL    HW114714   0.330   3.219   9.391  3.2054  0.5877  0.1344
 1027SOL    HW214715   0.387   3.337   9.328  0.7748 -1.4938 -0.2703
 1028SOL     OW14716   4.139   0.204   2.615  0.1524  0.0466 -0.2497
 1028SOL    HW114717   4.096   0.125   2.647  2.1249 -1.2410 -0.7439
 1028SOL    HW214718   4.067   0.254   2.577 -0.9339 -1.4989 -0.2546
 1029SOL     OW14719   0.639   1.761   8.072  0.1180 -0.0807  0.1853
 1029SOL    HW114720   0.618   1.751   7.979  2.4248  0.3824 -0.3665
 1029SOL    HW214721   0.632   1.856   8.075  0.7353 -0.0386  0.0880
 1030SOL     OW14722   0.797   2.467   4.045  0.5432  0.0692 -0.5457
 1030SOL    HW114723   0.796   2.561   4.063  0.2878 -0.2852  1.2539
 1030SOL    HW214724   0.739   2.433   4.113  1.3098  0.9513  0.5415
 1031SOL     OW14725   3.408   1.249  15.214 -0.6803  0.1149  0.7005
 1031SOL    HW114726   3.338   1.235  15.150 -3.6039  2.2326  3.4315
 1031SOL    HW214727   3.445   1.161  15.225 -0.7538 -0.1060 -0.9250
 1032SOL     OW14728   3.683   0.196  15.749  0.0064  0.9694  0.2878
 1032SOL    HW114729   3.712   0.194  15.658  2.3555 -0.5937  1.0580
 1032SOL    HW214730   3.707   0.286  15.769  3.2697 -0.0862  1.1930
 1033SOL     OW14731   1.823   3.992   7.253  0.0020 -0.0729 -0.1599
 1033SOL    HW114732   1.901   3.961   7.298  0.6108  2.0062  0.2280
 1033SOL    HW214733   1.863   4.027   7.173 -0.7917 -3.2717 -1.9721
 1034SOL     OW14734   1.550   3.271   8.045 -0.0477  0.1821  0.3392
 1034SOL    HW114735   1.486   3.274   7.974  0.4290  1.9310 -0.0160
 1034SOL    HW214736   1.532   3.355   8.085 -0.3458  1.3618 -2.2548
 1035SOL     OW14737   1.199   3.129   8.558 -0.0762  0.0490  0.3926
 1035SOL    HW114738   1.123   3.187   8.562 -0.6193 -0.6844  0.6335
 1035SOL    HW214739   1.251   3.164   8.486  0.0907  0.9860  0.9671
 1036SOL     OW14740   3.824   3.882  10.324 -0.5646 -0.0321 -0.3110
 1036SOL    HW114741   3.733   3.901  10.302  0.1708  0.6570 -2.7359
 1036SOL    HW214742   3.825   3.848  10.414  0.8155  0.9869  0.0598
 1037SOL     OW14743   2.938   0.181  16.587 -0.1093 -0.0653 -0.3410
 1037SOL    HW114744   2.896   0.146  16.665 -2.0064  2.2298 -0.3356
 1037SOL    HW214745   3.033   0.176  16.603 -0.5017  0.8267  2.2882
 1038SOL     OW14746   1.412   4.066  12.478  0.2392  0.1324  0.4908
 1038SOL    HW114747   1.446   4.131  12.539  1.0690  1.8495 -1.8067
 1038SOL    HW214748   1.492   4.014  12.469  1.2320  2.0103 -1.5105
 1039SOL     OW14749   0.003   0.986   8.344 -0.7451 -0.4125  0.4304
 1039SOL    HW114750   4.706   1.007   8.432  4.2824 -3.0572  2.9192
 1039SOL    HW214751   0.017   0.892   8.352  2.0622 -0.4196 -4.4944
 1040SOL     OW14752   1.652   3.931  12.425  0.1683 -0.5425 -0.1133
 1040SOL    HW114753   1.718   3.991  12.390 -0.8170  0.6331  0.0648
 1040SOL    HW214754   1.701   3.886  12.494 -1.5175 -4.1501 -1.2554
 1041SOL     OW14755   1.023   0.102   8.588 -0.1768 -0.2667 -0.2964
 1041SOL    HW114756   1.098   0.099   8.530  0.9584 -1.3576  1.2234
 1041SOL    HW214757   1.039   0.189   8.625 -1.3435  0.7582 -2.2141
 1042SOL     OW14758   3.010   4.055   3.593 -0.3829  0.2713  0.4974
 1042SOL    HW114759   3.068   3.984   3.619 -0.2746 -0.5635 -2.0455
 1042SOL    HW214760   3.060   4.111   3.535 -1.8726  0.5182 -0.5448
 1043SOL     OW14761   2.142   1.329  10.601 -0.0747 -0.1791 -0.3974
 1043SOL    HW114762   2.122   1.414  10.641  0.2324 -0.7138  0.9087
 1043SOL    HW214763   2.052   1.302  10.586 -0.0159  0.0437 -1.1519
 1044SOL     OW14764   4.708   0.976   7.204 -0.2530  0.6002  0.0603
 1044SOL    HW114765   0.051   0.920   7.199 -2.2004 -1.9588 -1.5687
 1044SOL    HW214766   4.664   0.947   7.124  0.9112 -1.4873  0.1480
 1045SOL     OW14767   1.985   1.752   9.342 -0.1308  0.3084 -0.4660
 1045SOL    HW114768   1.904   1.797   9.367 -1.0722 -1.8705  0.3770
 1045SOL    HW214769   2.049   1.813   9.380 -1.1960 -0.0271  1.8844
 1046SOL     OW14770   2.243   2.548   7.371  0.1075  0.4024  0.2649
 1046SOL    HW114771   2.223   2.576   7.461 -1.8700 -0.8049  0.1955
 1046SOL    HW214772   2.337   2.568   7.364 -0.0616  1.0255 -0.1715
 1047SOL     OW14773   4.299   2.221   8.942  0.2235  0.3190 -0.0179
 1047SOL    HW114774   4.354   2.145   8.959  0.3854  0.2561 -0.8393
 1047SOL    HW214775   4.334   2.240   8.855 -2.8700 -0.0541 -1.3408
 1048SOL     OW14776   0.519   3.358   9.231 -0.4205 -0.1961 -0.0368
 1048SOL    HW114777   0.597   3.351   9.286 -0.4567 -0.1993  0.0146
 1048SOL    HW214778   0.523   3.452   9.216  0.1663 -0.2120  0.0150
 1049SOL     OW14779   1.199   4.000   4.872  0.1779  0.1699 -0.4427
 1049SOL    HW114780   1.154   4.084   4.861 -3.2569 -1.6671 -0.2172
 1049SOL    HW214781   1.126   3.942   4.850 -1.5281  1.6352  1.3521
 1050SOL     OW14782   2.912   2.638   8.105  0.2877 -0.3452  0.0571
 1050SOL    HW114783   2.830   2.619   8.151 -1.2881  0.3736 -2.3880
 1050SOL    HW214784   2.892   2.628   8.012 -1.8920  0.9057  0.3716
 1051SOL     OW14785   0.204   0.112   9.117  0.2240 -0.1633 -0.4119
 1051SOL    HW114786   0.142   0.083   9.051  0.7765 -1.6462 -0.2846
 1051SOL    HW214787   0.165   0.196   9.143 -0.7952 -1.3174  1.7654
 1052SOL     OW14788   3.599   1.376   6.103  0.3714 -0.4222 -0.2953
 1052SOL    HW114789   3.538   1.364   6.176  0.8580  3.5922  0.7511
 1052SOL    HW214790   3.560   1.447   6.052  3.2138  1.5898  0.3968
 1053SOL     OW14791   3.611   1.122   3.457 -0.1988  0.0924 -0.0677
 1053SOL    HW114792   3.566   1.189   3.405 -0.1742 -0.8277 -1.2795
 1053SOL    HW214793   3.681   1.179   3.490 -1.6984  1.0471  1.4931
 1054SOL     OW14794   0.835   3.671   2.387 -0.3736 -0.5935 -0.2772
 1054SOL    HW114795   0.922   3.682   2.425 -1.5128 -0.5118  2.3707
 1054SOL    HW214796   0.839   3.731   2.314  0.2076 -0.1939  0.0821
 1055SOL     OW14797   1.072   2.195   8.535 -0.2564  0.5789  0.2838
 1055SOL    HW114798   1.135   2.255   8.496 -1.0110  1.6636  0.7429
 1055SOL    HW214799   0.994   2.247   8.556  0.7903  1.4954  1.9827
 1056SOL     OW14800   1.401   0.682  11.763 -0.3565  0.0357 -0.6535
 1056SOL    HW114801   1.461   0.613  11.736 -0.3457 -0.5128  0.7885
 1056SOL    HW214802   1.336   0.633  11.813 -1.3053  0.6845 -1.2583
 1057SOL     OW14803   4.603   2.700   9.214 -0.0436  0.6459  0.0866
 1057SOL    HW114804   4.538   2.675   9.279  0.1137 -0.2563 -0.1008
 1057SOL    HW214805   4.588   2.794   9.208 -0.9007  0.4142 -1.2073
 1058SOL     OW14806   0.946   1.057   8.001 -0.0751 -0.2102  0.3031
 1058SOL    HW114807   0.855   1.072   8.027 -1.4067 -2.4251 -2.9973
 1058SOL    HW214808   0.953   0.963   8.018 -1.8942 -0.6697 -1.4977
 1059SOL     OW14809   2.570   2.180   3.701 -0.2585  0.0005 -0.0550
 1059SOL    HW114810   2.661   2.184   3.671 -0.6337  2.9236 -0.7978
 1059SOL    HW214811   2.558   2.264   3.746 -0.2718  0.3041 -0.6173
 1060SOL     OW14812   0.105   2.197   6.307  0.8361 -0.3112  0.1082
 1060SOL    HW114813   0.191   2.160   6.288  0.3529 -0.2259 -2.2064
 1060SOL    HW214814   0.092   2.257   6.234  0.6849 -0.0296  0.3654
 1061SOL     OW14815   0.592   1.340   4.826  0.0686  0.5869  0.2773
 1061SOL    HW114816   0.624   1.339   4.917  1.1998  0.3614 -0.1280
 1061SOL    HW214817   0.582   1.246   4.815 -2.3690  0.9527 -0.6189
 1062SOL     OW14818   3.264   0.470   8.459  0.0347  0.3032 -0.0586
 1062SOL    HW114819   3.299   0.382   8.440  3.5033  1.4298  1.0159
 1062SOL    HW214820   3.343   0.510   8.496  0.4703 -0.3221 -0.3100
 1063SOL     OW14821   0.482   0.694   1.829 -0.2320 -0.0393 -0.0759
 1063SOL    HW114822   0.453   0.717   1.740  1.6978  1.5616 -0.2863
 1063SOL    HW214823   0.397   0.694   1.874  1.9621  3.2319  4.0154
 1064SOL     OW14824   0.019   1.218   3.692 -0.5099 -0.2377 -0.1224
 1064SOL    HW114825   0.035   1.124   3.689  1.6729  0.1756 -1.2256
 1064SOL    HW214826   0.098   1.249   3.736 -0.9617  2.6362 -1.3345
 1065SOL     OW14827   4.500   1.735   6.871 -0.3184  0.2518  0.0112
 1065SOL    HW114828   4.513   1.820   6.914 -0.1586 -0.2995  1.0542
 1065SOL    HW214829   4.573   1.728   6.809 -0.0309  0.0711  0.3744
 1066SOL     OW14830   2.475   1.284   4.788  0.4025  0.2861  0.2749
 1066SOL    HW114831   2.516   1.230   4.855 -2.5170  0.1716  1.9835
 1066SOL    HW214832   2.416   1.216   4.756 -2.2273  2.3192  0.8162
 1067SOL     OW14833   3.877   0.458   8.002 -0.4423 -0.3737 -0.6631
 1067SOL    HW114834   3.969   0.433   7.998 -0.7102 -1.7655  2.2478
 1067SOL    HW214835   3.883   0.552   8.022 -4.0487 -0.6184  1.5339
 1068SOL     OW14836   1.048   2.072   2.073 -0.8256 -0.2144 -0.0645
 1068SOL    HW114837   1.052   2.072   1.977  1.2708 -0.4816  0.0278
 1068SOL    HW214838   0.968   2.123   2.087  0.1901  0.7488  2.1704
 1069SOL     OW14839   1.540   0.343   1.905  0.3983 -0.0708  1.0254
 1069SOL    HW114840   1.586   0.279   1.851 -0.5731 -0.4260  0.6155
 1069SOL    HW214841   1.517   0.283   1.976 -1.4207  0.7300  1.1308
 1070SOL     OW14842   3.227   4.473   5.452  0.1248 -0.2068  0.1084
 1070SOL    HW114843   3.281   4.536   5.499  1.8905  0.1548 -2.3896
 1070SOL    HW214844   3.141   4.515   5.458  0.0094 -0.3950 -0.2031
 1071SOL     OW14845   1.184   2.343   2.299 -0.7889  0.5063  0.2508
 1071SOL    HW114846   1.104   2.333   2.351 -2.2652 -0.0051 -2.1461
 1071SOL    HW214847   1.236   2.271   2.335 -0.1288  0.8724  0.0307
 1072SOL     OW14848   1.302   4.329   8.945  0.1340 -0.4278  0.0259
 1072SOL    HW114849   1.378   4.279   8.915  0.4061  0.7631 -1.3000
 1072SOL    HW214850   1.240   4.258   8.957  0.4359 -0.8024 -0.6359
 1073SOL     OW14851   3.460   2.162  12.769 -0.1831  0.5922 -0.7068
 1073SOL    HW114852   3.411   2.093  12.814  0.6943  1.6262  1.8151
 1073SOL    HW214853   3.388   2.225  12.757  0.2923  1.2551 -0.1171
 1074SOL     OW14854   2.318   2.133   9.887  0.0783  0.0181 -0.2032
 1074SOL    HW114855   2.350   2.047   9.916  1.6156  0.9453  0.8705
 1074SOL    HW214856   2.250   2.158   9.950 -0.2202 -0.6794 -0.2464
 1075SOL     OW14857   1.986   0.739   1.147  0.1306  0.4589 -0.2309
 1075SOL    HW114858   1.893   0.753   1.162  0.2410  2.6287 -1.6187
 1075SOL    HW214859   2.025   0.794   1.216  2.7892 -2.0733  0.2962
 1076SOL     OW14860   3.401   2.573  12.879 -0.2893  0.3448 -0.3734
 1076SOL    HW114861   3.340   2.645  12.896  1.1228  1.0567  1.6533
 1076SOL    HW214862   3.470   2.585  12.945 -1.0744 -0.4580  0.5908
 1077SOL     OW14863   2.308   4.617   7.317 -0.3121 -0.3677  0.0257
 1077SOL    HW114864   2.242   4.609   7.248 -0.1377 -0.7521 -0.0966
 1077SOL    HW214865   2.303   4.707   7.349  0.1494 -0.1142 -0.6205
 1078SOL     OW14866   4.061   1.843  10.478  0.0656  0.4829  0.3958
 1078SOL    HW114867   3.982   1.811  10.434  0.7756 -1.3573  0.4496
 1078SOL    HW214868   4.086   1.765  10.528  0.4775 -1.0151 -2.0974
 1079SOL     OW14869   0.338   2.330   8.102 -0.3573  0.5925 -0.2579
 1079SOL    HW114870   0.274   2.391   8.139 -1.6940 -0.7224 -0.3908
 1079SOL    HW214871   0.337   2.257   8.164 -0.9720  0.8899  0.0921
 1080SOL     OW14872   0.911   4.705  15.962  0.6103 -0.4807  0.1827
 1080SOL    HW114873   0.924   4.664  16.048 -0.7312 -0.5220  0.3687
 1080SOL    HW214874   0.892   0.063  15.976 -1.8948 -1.3298  2.3619
 1081SOL     OW14875   2.748   0.588   2.184  0.1818 -0.1415 -0.0546
 1081SOL    HW114876   2.726   0.642   2.260  0.1809  1.1004 -0.9443
 1081SOL    HW214877   2.703   0.614   2.104 -0.9895 -0.4898  0.4819
 1082SOL     OW14878   1.111   3.443   5.691  0.4590  0.1371 -0.5098
 1082SOL    HW114879   1.111   3.390   5.611 -0.2634 -0.0589 -0.3788
 1082SOL    HW214880   1.037   3.405   5.738  1.8125 -0.6847  0.9721
 1083SOL     OW14881   1.355   2.667   7.262  0.5322  0.0643 -0.1984
 1083SOL    HW114882   1.353   2.576   7.293  0.3280 -0.4000 -1.5803
 1083SOL    HW214883   1.363   2.718   7.342 -1.6263  1.4731 -0.9033
 1084SOL     OW14884   1.089   2.441   1.515 -0.1141 -0.0961 -0.1860
 1084SOL    HW114885   0.996   2.432   1.536 -0.0463 -0.9944 -0.2487
 1084SOL    HW214886   1.114   2.350   1.497  0.9525  0.3065 -0.7318
 1085SOL     OW14887   0.759   1.743   7.193 -0.2034 -0.2002  0.1988
 1085SOL    HW114888   0.692   1.810   7.204  0.7088  0.6222  0.6798
 1085SOL    HW214889   0.736   1.679   7.260 -1.6568  0.5511  0.4235
 1086SOL     OW14890   1.463   4.288   3.050 -0.1431  0.2445  0.0403
 1086SOL    HW114891   1.409   4.361   3.020  2.5450  1.7340 -1.1882
 1086SOL    HW214892   1.485   4.317   3.139 -0.8423  0.4862  0.1291
 1087SOL     OW14893   1.888   1.373   2.511  0.4183 -0.6793 -0.1943
 1087SOL    HW114894   1.805   1.390   2.466  1.6021  0.7117 -1.8276
 1087SOL    HW214895   1.921   1.463   2.511 -1.6070  0.0608  0.4622
 1088SOL     OW14896   3.248   3.895   5.333 -0.6111 -0.3634  0.2400
 1088SOL    HW114897   3.187   3.917   5.403  0.8362  1.5086  0.9270
 1088SOL    HW214898   3.204   3.820   5.295  0.4183 -0.2495 -1.1769
 1089SOL     OW14899   1.569   4.417  12.415  0.1414 -0.2784 -0.3615
 1089SOL    HW114900   1.571   4.507  12.382 -2.4713 -0.8635 -2.1249
 1089SOL    HW214901   1.489   4.393  12.367 -1.6863  0.9821  2.0964
 1090SOL     OW14902   4.642   3.255  13.530  0.2830 -0.6172  0.5368
 1090SOL    HW114903   4.638   3.319  13.601 -0.1834  0.6775 -0.6351
 1090SOL    HW214904   4.549   3.261  13.507  0.8103 -0.1363 -1.4397
 1091SOL     OW14905   2.274   3.486   4.935 -0.0343 -0.1475 -0.2947
 1091SOL    HW114906   2.365   3.480   4.964  0.1931 -0.9772 -1.1769
 1091SOL    HW214907   2.276   3.519   4.845 -2.0050 -0.8864 -0.6002
 1092SOL     OW14908   3.398   4.089  16.026  0.1452  0.3102 -0.1346
 1092SOL    HW114909   3.349   4.171  16.030  0.4900  0.4824  0.5226
 1092SOL    HW214910   3.372   4.049  15.943  0.1257 -1.2315  0.6102
 1093SOL     OW14911   2.470   1.070  11.556  0.0556  0.7731 -0.6879
 1093SOL    HW114912   2.426   1.003  11.607 -0.8677  2.3436  0.5896
 1093SOL    HW214913   2.522   1.120  11.620  1.9363 -1.7985 -0.2112
 1094SOL     OW14914   2.221   3.213  11.559  0.8410  0.7884 -0.1476
 1094SOL    HW114915   2.131   3.222  11.592 -0.0835  2.1247 -2.9771
 1094SOL    HW214916   2.210   3.199  11.465  0.7955  0.9218 -0.1624
 1095SOL     OW14917   2.254   4.195  12.864 -0.1157 -0.7311  0.0762
 1095SOL    HW114918   2.227   4.276  12.909 -2.1911 -1.8285  0.7844
 1095SOL    HW214919   2.197   4.127  12.899 -3.3080  1.4807 -0.9023
 1096SOL     OW14920   0.489   1.013   1.522 -0.0818 -0.1717 -0.6430
 1096SOL    HW114921   0.463   0.977   1.436  1.2999 -0.8821 -0.7531
 1096SOL    HW214922   0.441   0.950   1.575 -0.1219 -0.6679 -1.2625
 1097SOL     OW14923   0.104   2.962   3.246  0.0249 -0.0028  0.3115
 1097SOL    HW114924   0.025   2.998   3.287 -0.4914  0.1058 -0.7724
 1097SOL    HW214925   0.126   3.024   3.177 -1.3617  0.3922  0.2225
 1098SOL     OW14926   1.252   3.395  16.147  0.4838  0.0397 -0.3997
 1098SOL    HW114927   1.311   3.455  16.193  1.2415 -0.8176 -0.2692
 1098SOL    HW214928   1.163   3.430  16.156  0.9861  1.1690  0.1398
 1099SOL     OW14929   0.729   1.183   7.384  0.6336  0.0586  0.0858
 1099SOL    HW114930   0.708   1.098   7.421 -0.2644  0.8106  1.3212
 1099SOL    HW214931   0.749   1.149   7.297  2.4045 -0.4713  0.7223
 1100SOL     OW14932   0.058   3.097   0.320  0.2453 -0.1153  0.7780
 1100SOL    HW114933   0.101   3.049   0.391  3.3297  0.3502 -0.7703
 1100SOL    HW214934   0.134   3.134   0.273 -0.1978  0.5991  0.6226
 1101SOL     OW14935   2.110   2.950   2.927  0.0873  0.0533  0.2968
 1101SOL    HW114936   2.025   2.907   2.938  0.5418 -1.0329 -0.3949
 1101SOL    HW214937   2.123   2.982   2.838 -0.1677 -1.5758 -0.3395
 1102SOL     OW14938   2.532   4.651   7.767  0.7283 -0.0846  0.4804
 1102SOL    HW114939   2.520   4.557   7.780  1.9363 -0.5548 -1.8577
 1102SOL    HW214940   2.617   4.659   7.811 -0.7874 -3.6697  4.1186
 1103SOL     OW14941   4.710   2.846   1.974 -0.1217 -0.3201 -0.5000
 1103SOL    HW114942   0.051   2.890   1.938  1.5445 -3.1302 -0.3923
 1103SOL    HW214943   4.671   2.922   2.017  0.3576 -0.7116  0.6286
 1104SOL     OW14944   3.111   0.600   7.720  0.5601 -0.0262  0.5616
 1104SOL    HW114945   3.082   0.509   7.711 -1.7764  1.1209 -3.5303
 1104SOL    HW214946   3.034   0.644   7.686  0.8762 -1.5911 -2.1751
 1105SOL     OW14947   4.118   1.102   3.317  0.6900 -0.2364 -0.3459
 1105SOL    HW114948   4.070   1.104   3.400  0.9315 -0.1335 -0.2081
 1105SOL    HW214949   4.045   1.084   3.258  0.2543  1.4047 -0.2891
 1106SOL     OW14950   2.253   0.737  14.662 -0.1648  0.0373  0.3797
 1106SOL    HW114951   2.198   0.794  14.608 -1.8670 -0.3301  1.7371
 1106SOL    HW214952   2.333   0.790  14.657 -1.1868  1.8111  2.7838
 1107SOL     OW14953   2.129   3.122   6.479  0.0027  0.0884  0.1250
 1107SOL    HW114954   2.106   3.199   6.427 -0.6253  0.7259  1.3324
 1107SOL    HW214955   2.041   3.086   6.494 -0.7741  2.5600  1.6350
 1108SOL     OW14956   1.128   0.341   7.576  0.0681  0.4798 -0.0450
 1108SOL    HW114957   1.090   0.365   7.491  1.1443 -0.9652 -0.9382
 1108SOL    HW214958   1.064   0.279   7.610  0.9349 -0.2099  0.3119
 1109SOL     OW14959   1.256   1.715   1.070 -0.2811  0.5313  0.3116
 1109SOL    HW114960   1.213   1.679   0.992 -0.3995  1.1400  0.0888
 1109SOL    HW214961   1.237   1.641   1.127  1.3615 -2.8241 -3.4605
 1110SOL     OW14962   3.019   3.554   0.948  0.3341  0.0619  0.2739
 1110SOL    HW114963   2.937   3.508   0.966 -0.3965  0.6570 -1.5229
 1110SOL    HW214964   3.073   3.476   0.935  0.8367  0.3622  0.5705
 1111SOL     OW14965   3.913   4.053   7.750  0.5497  0.3417 -0.2574
 1111SOL    HW114966   3.914   4.072   7.657 -1.2957 -0.1016 -0.3706
 1111SOL    HW214967   3.879   4.138   7.777  0.0621  0.1495 -0.2567
 1112SOL     OW14968   0.857   1.709   2.509 -0.0798 -0.0091 -0.0021
 1112SOL    HW114969   0.816   1.755   2.436  0.9370 -2.0784 -1.8716
 1112SOL    HW214970   0.931   1.664   2.469  0.9106 -0.8603  2.7799
 1113SOL     OW14971   3.666   1.123   0.899 -0.5291 -0.2616  0.3988
 1113SOL    HW114972   3.697   1.178   0.827 -2.2920 -0.1586 -0.2850
 1113SOL    HW214973   3.630   1.190   0.956 -0.6782 -0.3265  0.3801
 1114SOL     OW14974   0.067   4.068   9.312 -0.2372 -0.3440 -0.0299
 1114SOL    HW114975   0.143   4.126   9.305 -0.6413  0.3698  1.6797
 1114SOL    HW214976   0.100   3.992   9.359  0.6451  0.8238  1.2409
 1115SOL     OW14977   4.226   2.217   1.269  0.2949 -0.3459  0.3800
 1115SOL    HW114978   4.175   2.141   1.240  1.0475 -1.0795  0.9813
 1115SOL    HW214979   4.155   2.275   1.294 -0.9645 -2.1529  0.9648
 1116SOL     OW14980   4.690   1.534  16.764  0.2172 -0.3249 -0.8307
 1116SOL    HW114981   4.601   1.537  16.730  0.5708  0.1091 -1.7059
 1116SOL    HW214982   4.713   1.446  16.737  0.0770 -1.5079  2.8734
 1117SOL     OW14983   2.429   0.440   2.935 -0.3534  0.2326  0.3944
 1117SOL    HW114984   2.495   0.506   2.953 -1.5167  1.6513 -0.5708
 1117SOL    HW214985   2.455   0.406   2.849  0.7046  0.5074  0.6099
 1118SOL     OW14986   0.259   0.096  11.452 -0.2643 -0.1477 -0.4695
 1118SOL    HW114987   0.342   0.140  11.471 -0.4368  1.8413 -4.3885
 1118SOL    HW214988   0.284   0.007  11.477 -0.8613 -0.9275 -2.6397
 1119SOL     OW14989   3.382   1.877   8.159 -0.0208 -0.6929  0.2656
 1119SOL    HW114990   3.354   1.934   8.230 -0.1480 -0.1281 -0.2436
 1119SOL    HW214991   3.452   1.825   8.199 -0.1089 -1.5562 -0.7054
 1120SOL     OW14992   4.469   1.039   8.901 -0.2446 -0.1954  0.3532
 1120SOL    HW114993   4.444   1.130   8.915  1.0674  0.7857 -3.4650
 1120SOL    HW214994   4.564   1.044   8.890 -0.2572  0.1068  0.3729
 1121SOL     OW14995   3.533   2.283   0.462  0.4734  0.0738 -0.4279
 1121SOL    HW114996   3.446   2.322   0.474  0.7986  0.0199  2.1555
 1121SOL    HW214997   3.513   2.230   0.385  0.6204 -1.4943  0.5995
 1122SOL     OW14998   3.287   1.159   6.497 -0.3989 -0.0378 -0.3328
 1122SOL    HW114999   3.241   1.235   6.532 -0.5251 -0.2407 -0.0626
 1122SOL    HW215000   3.225   1.087   6.502 -1.5918  0.9279 -1.3253
 1123SOL     OW15001   1.484   4.548   9.719  0.0472  0.1654 -0.3835
 1123SOL    HW115002   1.421   4.508   9.659 -0.8334  1.2794 -0.2034
 1123SOL    HW215003   1.444   4.500   9.791  0.3255  1.3338  0.5527
 1124SOL     OW15004   3.053   2.086   5.489  0.4365  0.3165  0.2435
 1124SOL    HW115005   3.005   2.167   5.478  0.1166 -0.2134 -2.2556
 1124SOL    HW215006   2.983   2.024   5.508  0.7359 -0.3594 -0.8369
 1125SOL     OW15007   0.392   3.611   8.649 -0.5367  0.1205 -0.0661
 1125SOL    HW115008   0.385   3.571   8.736 -1.2246  1.0110  0.2831
 1125SOL    HW215009   0.299   3.612   8.627  0.0664 -1.0648 -2.6261
 1126SOL     OW15010   3.408   3.129   7.691 -0.3458  0.1603 -0.0814
 1126SOL    HW115011   3.371   3.154   7.776  1.5139  0.4798  0.6283
 1126SOL    HW215012   3.496   3.108   7.723 -0.0381 -0.3025 -1.2286
 1127SOL     OW15013   4.048   3.518  16.179 -0.4851 -0.2027  0.0863
 1127SOL    HW115014   4.057   3.482  16.091  0.3178  1.9126 -0.6974
 1127SOL    HW215015   3.968   3.471  16.203 -0.4926 -0.3312 -0.1831
 1128SOL     OW15016   0.299   2.943   4.189  0.5694 -0.0660  0.1227
 1128SOL    HW115017   0.219   2.994   4.175  0.1875 -0.4397  0.9610
 1128SOL    HW215018   0.277   2.867   4.135 -1.5519  0.6211  0.0241
 1129SOL     OW15019   1.430   1.406   9.556  0.4605 -0.3416 -0.1598
 1129SOL    HW115020   1.393   1.494   9.559  2.3940  0.4524  0.2498
 1129SOL    HW215021   1.409   1.381   9.466 -2.1822  0.0868  0.3551
 1130SOL     OW15022   0.765   1.116   3.845  0.0786 -0.0203  0.9643
 1130SOL    HW115023   0.810   1.170   3.780  2.0564 -2.3472  0.3781
 1130SOL    HW215024   0.791   1.032   3.807 -1.3579  1.1156 -2.5711
 1131SOL     OW15025   1.911   4.296   7.597 -0.2714 -0.4072  0.0240
 1131SOL    HW115026   1.996   4.257   7.617  0.0367  0.6398  0.7496
 1131SOL    HW215027   1.863   4.282   7.679 -2.3575 -1.2331 -1.3471
 1132SOL     OW15028   1.855   0.100  15.872  0.1862 -0.1725  0.0189
 1132SOL    HW115029   1.809   0.031  15.920 -0.7452  0.4377 -0.0194
 1132SOL    HW215030   1.787   0.166  15.878  1.2888  0.9402  0.3380
 1133SOL     OW15031   0.149   3.873   7.590  0.3734  0.6642 -0.0063
 1133SOL    HW115032   0.229   3.832   7.624 -1.1270 -2.8912 -0.6662
 1133SOL    HW215033   0.135   3.945   7.651  1.0585  1.6433 -1.0004
 1134SOL     OW15034   4.104   3.546   8.436 -0.0823 -0.8984 -0.2609
 1134SOL    HW115035   4.082   3.615   8.373 -0.8515 -1.3565 -0.4883
 1134SOL    HW215036   4.165   3.497   8.381  1.3531 -1.3058  1.6787
 1135SOL     OW15037   0.162   2.653   5.179  0.6460 -0.1835 -0.0577
 1135SOL    HW115038   0.083   2.629   5.228  1.7824  0.7684  2.2453
 1135SOL    HW215039   0.135   2.639   5.088 -0.7142  0.8079  0.1848
 1136SOL     OW15040   4.248   0.465   3.372  0.4738 -0.6900 -0.1490
 1136SOL    HW115041   4.202   0.401   3.426  1.5800 -1.6475 -0.3505
 1136SOL    HW215042   4.304   0.505   3.439  1.0387  2.2868 -2.4068
 1137SOL     OW15043   2.966   2.701   2.882  0.4904 -0.3206 -0.1998
 1137SOL    HW115044   2.911   2.640   2.833 -1.8613  0.7083  1.0989
 1137SOL    HW215045   3.048   2.653   2.880  0.7271  0.0713  0.0084
 1138SOL     OW15046   3.577   3.687   3.687  0.0010 -0.7576  0.7528
 1138SOL    HW115047   3.509   3.661   3.625  1.0286  0.8204 -1.0293
 1138SOL    HW215048   3.643   3.689   3.618  0.0477  1.3438  0.8459
 1139SOL     OW15049   1.118   2.527   4.296  0.4836 -0.0896 -0.2422
 1139SOL    HW115050   1.028   2.514   4.326  0.2334  0.7245 -0.6401
 1139SOL    HW215051   1.114   2.456   4.232  0.5194  0.7487 -1.1819
 1140SOL     OW15052   4.696   1.743   2.781 -0.5746 -0.0985  0.1249
 1140SOL    HW115053   0.021   1.669   2.787 -1.9645 -1.5242 -3.4142
 1140SOL    HW215054   4.622   1.707   2.831  1.4911 -4.7778 -0.2006
 1141SOL     OW15055   4.218   2.851   2.989  0.5137  0.8508 -0.3160
 1141SOL    HW115056   4.260   2.823   3.071  1.7452  3.3425 -0.0825
 1141SOL    HW215057   4.201   2.945   2.996 -1.1396  0.4230  1.4058
 1142SOL     OW15058   1.204   2.054  15.595 -0.3392  0.0883  0.3492
 1142SOL    HW115059   1.164   2.139  15.614 -0.3582  0.0280  0.5841
 1142SOL    HW215060   1.232   2.074  15.506 -1.3995 -1.0404 -0.2316
 1143SOL     OW15061   2.081   2.817   2.620  0.0618  0.4407 -0.1046
 1143SOL    HW115062   2.126   2.891   2.660  1.1684 -0.5960  0.5783
 1143SOL    HW215063   2.114   2.824   2.530 -0.8411  0.5522 -0.4207
 1144SOL     OW15064   3.706   2.281   8.536 -0.1623 -0.1534 -0.3228
 1144SOL    HW115065   3.759   2.360   8.538  0.5416 -0.6038 -1.0570
 1144SOL    HW215066   3.749   2.247   8.458 -1.0148 -2.7049  0.3205
 1145SOL     OW15067   2.640   3.837   4.897  0.1489  0.0507 -0.4614
 1145SOL    HW115068   2.651   3.927   4.929 -1.9907 -0.2199  1.0598
 1145SOL    HW215069   2.587   3.852   4.819 -1.3182 -1.9527  0.1599
 1146SOL     OW15070   3.602   3.720   7.213  0.1461 -0.0060  0.1606
 1146SOL    HW115071   3.688   3.696   7.177  0.2646 -3.1733  2.6162
 1146SOL    HW215072   3.592   3.669   7.292 -1.3105  0.8809  0.5474
 1147SOL     OW15073   1.557   2.387   4.473 -0.1690  0.1727  0.4432
 1147SOL    HW115074   1.507   2.308   4.493 -1.5951  0.4788 -1.8445
 1147SOL    HW215075   1.487   2.452   4.465  0.0594  0.4562  0.7328
 1148SOL     OW15076   1.191   3.493  16.616  0.4329  0.0309  0.4285
 1148SOL    HW115077   1.152   3.580  16.620 -2.6109 -1.2247 -2.2058
 1148SOL    HW215078   1.278   3.514  16.649  1.0578  0.0739 -1.2979
 1149SOL     OW15079   3.950   0.743   1.058 -0.1659 -0.6477  0.0659
 1149SOL    HW115080   3.970   0.660   1.100 -2.3590 -1.4448 -0.4697
 1149SOL    HW215081   3.855   0.739   1.057 -0.2376  1.0059 -1.8440
 1150SOL     OW15082   0.879   2.249   6.935  0.3119 -0.1268 -0.0544
 1150SOL    HW115083   0.918   2.191   6.870 -2.1014  0.6247 -2.1495
 1150SOL    HW215084   0.830   2.178   6.978  2.3260 -0.8919  0.9739
 1151SOL     OW15085   2.185   0.419   7.959 -0.7586  0.4449 -0.2129
 1151SOL    HW115086   2.239   0.344   7.986 -2.8834 -0.7539  0.6683
 1151SOL    HW215087   2.259   0.480   7.953  1.2185 -1.9311 -0.1168
 1152SOL     OW15088   1.825   0.488  11.345  0.4045 -0.4693 -0.5774
 1152SOL    HW115089   1.863   0.576  11.344 -0.9453  0.1477  0.4774
 1152SOL    HW215090   1.792   0.492  11.435 -1.6722 -1.0921 -1.3170
 1153SOL     OW15091   3.007   3.650  12.136 -0.7518 -0.2696  0.0103
 1153SOL    HW115092   3.047   3.697  12.210 -1.2094 -1.2716  0.8959
 1153SOL    HW215093   2.945   3.716  12.105  0.4635 -0.3100 -2.4787
 1154SOL     OW15094   4.071   1.332   0.615 -0.1076 -0.1732  0.3310
 1154SOL    HW115095   4.064   1.421   0.648  0.9856 -0.3085  0.9125
 1154SOL    HW215096   4.130   1.341   0.540  0.6536 -2.4183  0.6287
 1155SOL     OW15097   2.599   4.712   2.342 -0.5103 -0.3816  0.1255
 1155SOL    HW115098   2.593   4.691   2.248 -1.1720  0.3996 -0.0099
 1155SOL    HW215099   2.694   4.720   2.346 -0.3436 -1.1998 -1.8980
 1156SOL     OW15100   3.228   4.515   9.499  0.0311 -0.4132 -0.1714
 1156SOL    HW115101   3.264   4.602   9.477  0.7432 -1.2676 -2.4082
 1156SOL    HW215102   3.274   4.509   9.583  1.7654 -0.6105 -1.1338
 1157SOL     OW15103   3.278   1.159   7.312  0.0442  0.6301 -0.4555
 1157SOL    HW115104   3.366   1.137   7.341  0.0606  0.4136 -0.6713
 1157SOL    HW215105   3.288   1.249   7.282  0.5672 -0.1108 -2.5066
 1158SOL     OW15106   3.141   2.858   7.806 -0.4564  0.4743 -0.1354
 1158SOL    HW115107   3.180   2.875   7.720  0.9613  2.1842  0.8535
 1158SOL    HW215108   3.217   2.818   7.849 -1.2652  0.2867  1.1113
 1159SOL     OW15109   0.313   2.789   8.989  0.2059  0.5467 -0.0944
 1159SOL    HW115110   0.318   2.870   9.039  0.2213  1.0594 -0.9244
 1159SOL    HW215111   0.291   2.721   9.052 -0.1833  1.0088  0.2660
 1160SOL     OW15112   1.960   2.499   7.585  0.4031 -0.2791 -0.5561
 1160SOL    HW115113   2.001   2.487   7.671  1.3982 -0.7262 -1.0896
 1160SOL    HW215114   1.896   2.570   7.592 -0.6646 -1.3408  0.3936
 1161SOL     OW15115   1.453   3.248   4.336 -0.0720  0.7386 -0.0233
 1161SOL    HW115116   1.373   3.300   4.337 -0.4913  0.1015 -0.3651
 1161SOL    HW215117   1.426   3.163   4.302  1.2986  0.0031  0.7040
 1162SOL     OW15118   4.338   0.909   2.595 -0.6559  0.0922 -0.1119
 1162SOL    HW115119   4.413   0.850   2.590 -0.6991  0.1146 -0.9807
 1162SOL    HW215120   4.365   0.962   2.671  1.0807 -0.9769  0.0266
 1163SOL     OW15121   3.204   2.407  15.541  0.1434 -0.1634 -0.4393
 1163SOL    HW115122   3.241   2.431  15.626  0.5481  0.5288 -0.8126
 1163SOL    HW215123   3.234   2.316  15.534 -0.6622 -0.7058  2.9083
 1164SOL     OW15124   0.194   2.712   3.168  0.3632 -0.5904 -0.9700
 1164SOL    HW115125   0.119   2.655   3.186 -0.3833  0.3014 -1.2434
 1164SOL    HW215126   0.172   2.794   3.212 -1.0111 -1.9371  0.8478
 1165SOL     OW15127   1.736   2.148   5.562  0.0815 -0.0874 -0.3481
 1165SOL    HW115128   1.740   2.086   5.635  1.2676  0.9209  0.4381
 1165SOL    HW215129   1.723   2.225   5.617 -0.4195 -0.1120 -0.4340
 1166SOL     OW15130   3.011   1.403   8.742  0.9718  0.2426 -0.6343
 1166SOL    HW115131   2.966   1.481   8.709 -0.8411 -1.4009 -1.9818
 1166SOL    HW215132   2.984   1.352   8.667 -0.9543  1.2596 -0.6298
 1167SOL     OW15133   1.041   0.592   7.901  0.2616  0.8599  0.2859
 1167SOL    HW115134   0.969   0.536   7.871 -1.3652  1.8920  2.2577
 1167SOL    HW215135   1.114   0.539   7.869 -0.0161  0.1672  0.8135
 1168SOL     OW15136   1.961   1.940   6.415  0.2287 -0.1137 -0.1684
 1168SOL    HW115137   1.916   1.878   6.357  0.6631 -0.7585  0.1841
 1168SOL    HW215138   1.954   1.903   6.503  2.2024 -0.8786 -0.3206
 1169SOL     OW15139   1.686   0.042   0.211 -0.0760 -0.0400  0.2863
 1169SOL    HW115140   1.775   0.065   0.181 -0.9550  0.7420 -1.7281
 1169SOL    HW215141   1.666   0.126   0.252 -0.2947 -0.6076  1.3313
 1170SOL     OW15142   0.628   1.538   2.510 -0.5592 -0.0117 -0.0266
 1170SOL    HW115143   0.645   1.450   2.543 -0.0101 -0.0044 -0.2855
 1170SOL    HW215144   0.712   1.584   2.515 -0.0031 -0.7343 -2.5551
 1171SOL     OW15145   1.514   4.644   0.425  0.2429 -0.2285  0.5953
 1171SOL    HW115146   1.432   4.652   0.377 -0.7592 -3.1574  1.8122
 1171SOL    HW215147   1.554   4.722   0.388  0.6858 -0.6492  0.1861
 1172SOL     OW15148   1.363   3.194   6.843  0.4675 -0.5001  0.4278
 1172SOL    HW115149   1.334   3.109   6.809  0.3603 -0.6600  0.9188
 1172SOL    HW215150   1.362   3.166   6.934 -0.6061  0.7811  0.8144
 1173SOL     OW15151   0.026   3.608   0.320 -0.2219 -0.3176 -0.4476
 1173SOL    HW115152   0.066   3.528   0.355 -0.5657  0.0347  0.7655
 1173SOL    HW215153   4.682   3.567   0.285  0.8420 -2.7943  0.0496
 1174SOL     OW15154   1.319   2.545   6.118 -0.9029  0.0187  0.4382
 1174SOL    HW115155   1.406   2.514   6.144 -1.3151 -0.1584  1.5652
 1174SOL    HW215156   1.330   2.543   6.022  1.4262  1.8428  0.6653
 1175SOL     OW15157   3.207   4.431   8.709 -0.1474  0.0210 -0.0592
 1175SOL    HW115158   3.175   4.367   8.773  2.4460 -0.8996  0.3194
 1175SOL    HW215159   3.127   4.480   8.725 -0.7067 -1.2279  1.0225
 1176SOL     OW15160   3.404   2.222   8.627  0.2592 -0.2081 -0.2824
 1176SOL    HW115161   3.488   2.248   8.589 -0.3045 -0.1758 -1.4871
 1176SOL    HW215162   3.392   2.290   8.693  1.2155  0.9002 -1.2566
 1177SOL     OW15163   3.705   2.121   5.616  0.5804  0.6169 -0.2776
 1177SOL    HW115164   3.799   2.115   5.631  0.5663  0.7812 -0.1185
 1177SOL    HW215165   3.676   2.178   5.688 -2.1211 -0.2639 -0.6538
 1178SOL     OW15166   3.449   3.181   9.023 -0.0185 -0.2971  0.0614
 1178SOL    HW115167   3.493   3.229   9.094 -1.3714  1.5400 -0.3495
 1178SOL    HW215168   3.451   3.244   8.951 -2.7180  1.0822  1.2130
 1179SOL     OW15169   0.317   0.541   7.708 -0.7339 -0.7937  0.1458
 1179SOL    HW115170   0.397   0.581   7.674 -1.2796 -0.0089 -0.1971
 1179SOL    HW215171   0.279   0.623   7.737 -0.5034 -0.2471 -1.0852
 1180SOL     OW15172   1.667   3.649   7.812 -0.4704 -0.0352  0.0555
 1180SOL    HW115173   1.583   3.626   7.852 -1.6652  1.2250 -1.7265
 1180SOL    HW215174   1.658   3.704   7.734  0.6107  2.4858  1.7036
 1181SOL     OW15175   3.995   0.087  13.828  0.1980  0.3514  0.2966
 1181SOL    HW115176   4.023   0.008  13.782  1.6696  0.8432  0.3356
 1181SOL    HW215177   4.072   0.144  13.822 -1.4694  2.7475  1.5288
 1182SOL     OW15178   0.975   2.958  14.529 -0.3892  0.6382 -0.3420
 1182SOL    HW115179   0.950   3.017  14.600  3.5412  0.4025  1.2055
 1182SOL    HW215180   0.898   2.913  14.493  0.3421  1.3367 -2.7702
 1183SOL     OW15181   1.968   0.455   4.791 -0.2448  0.0445 -0.7177
 1183SOL    HW115182   2.039   0.398   4.764 -0.9246 -0.4487 -1.4769
 1183SOL    HW215183   1.992   0.471   4.883 -2.5262  1.6519 -0.3912
 1184SOL     OW15184   2.500   0.189   8.511  0.3772 -0.8743  0.4536
 1184SOL    HW115185   2.568   0.124   8.526  1.0175 -0.1427  0.7061
 1184SOL    HW215186   2.471   0.203   8.601  0.5029  1.0275  0.1995
 1185SOL     OW15187   3.095   1.309   6.632  0.2650 -0.0994  0.1360
 1185SOL    HW115188   3.170   1.365   6.615  1.0424 -1.3082 -0.4197
 1185SOL    HW215189   3.032   1.370   6.593  0.9845 -0.6679 -1.9398
 1186SOL     OW15190   3.195   1.860  16.272  0.2074  0.3563 -0.1417
 1186SOL    HW115191   3.280   1.903  16.268  0.7057 -0.5347  1.1005
 1186SOL    HW215192   3.197   1.812  16.355  0.2458 -0.5951 -0.6881
 1187SOL     OW15193   3.775   2.766   6.040 -0.3372  0.2624 -0.3972
 1187SOL    HW115194   3.801   2.845   5.992  1.6033 -0.2612 -0.1922
 1187SOL    HW215195   3.802   2.791   6.128  1.2466 -0.5198 -0.6629
 1188SOL     OW15196   2.846   1.523   4.580 -0.7886 -0.2479  0.8953
 1188SOL    HW115197   2.794   1.454   4.537 -2.6066  1.6411  0.0681
 1188SOL    HW215198   2.797   1.601   4.552 -0.6532  0.2643  2.0757
 1189SOL     OW15199   0.785   2.113   2.140  0.4764  0.2320 -0.0129
 1189SOL    HW115200   0.760   2.164   2.217 -2.7787 -2.3451  0.6784
 1189SOL    HW215201   0.738   2.031   2.156  1.4161 -0.7658 -2.3561
 1190SOL     OW15202   1.813   3.184   1.876  0.2971  0.0315  0.0795
 1190SOL    HW115203   1.780   3.208   1.790  0.4857 -2.0169 -0.5724
 1190SOL    HW215204   1.885   3.244   1.893  0.6640 -0.7427  1.2609
 1191SOL     OW15205   2.739   1.371   9.606  0.0564 -0.2427 -0.0037
 1191SOL    HW115206   2.800   1.399   9.674  2.4334 -1.4316 -1.6564
 1191SOL    HW215207   2.664   1.408   9.653  0.6727  1.5349 -0.4439
 1192SOL     OW15208   1.351   1.340   9.952  0.2223 -0.3813  0.1544
 1192SOL    HW115209   1.421   1.352  10.016 -1.4995 -1.3869  2.2255
 1192SOL    HW215210   1.268   1.346   9.999 -0.1236  1.0361 -0.6119
 1193SOL     OW15211   3.190   0.617  15.131 -0.1639  0.0644  0.3529
 1193SOL    HW115212   3.226   0.577  15.051 -0.8687  1.7351 -0.8066
 1193SOL    HW215213   3.157   0.701  15.098 -0.8523 -1.0051 -1.6771
 1194SOL     OW15214   2.646   2.717  12.718 -0.7049 -0.4305 -0.0789
 1194SOL    HW115215   2.661   2.622  12.716 -0.9662 -0.4432 -1.5831
 1194SOL    HW215216   2.739   2.740  12.724 -0.2078 -2.4660  0.1215
 1195SOL     OW15217   1.720   3.227   3.888  0.7845  0.0972 -0.1293
 1195SOL    HW115218   1.633   3.261   3.866  2.0037  1.4859 -2.8276
 1195SOL    HW215219   1.708   3.213   3.982  0.7743 -0.4352 -0.2116
 1196SOL     OW15220   3.487   1.730   0.775  0.6580 -0.5218 -0.5522
 1196SOL    HW115221   3.506   1.820   0.752 -1.6691 -0.0234 -0.5384
 1196SOL    HW215222   3.566   1.707   0.825  0.3931 -1.4822 -0.5614
 1197SOL     OW15223   3.227   2.155   3.010 -0.4039 -0.1453  0.2099
 1197SOL    HW115224   3.232   2.161   2.915  1.3648  0.6018  0.3583
 1197SOL    HW215225   3.261   2.067   3.026  1.6197  0.4416 -0.8789
 1198SOL     OW15226   3.813   2.833   2.407  0.6599 -0.0664 -0.1697
 1198SOL    HW115227   3.886   2.773   2.392  1.1429  0.6273 -0.6286
 1198SOL    HW215228   3.760   2.788   2.473  2.7927 -0.5696  1.2018
 1199SOL     OW15229   1.622   4.329   4.013  0.3027 -0.4201 -0.0823
 1199SOL    HW115230   1.700   4.304   4.064 -0.2693 -1.1579  0.4175
 1199SOL    HW215231   1.668   4.409   3.986 -1.4477  0.2859 -0.9167
 1200SOL     OW15232   4.697   1.049  16.642 -0.5702 -0.2751  0.5666
 1200SOL    HW115233   4.607   1.082  16.646 -0.1833  0.8566 -0.0892
 1200SOL    HW215234   4.698   0.983  16.711  1.4234 -1.2894 -0.4393
 1201SOL     OW15235   4.198   4.361   9.208  0.3946  0.5536  0.0513
 1201SOL    HW115236   4.269   4.422   9.230  0.9932 -0.2019  0.2306
 1201SOL    HW215237   4.245   4.284   9.175  0.5525  0.9168 -0.5639
 1202SOL     OW15238   4.643   1.436   1.553 -0.0642  0.3235  0.4810
 1202SOL    HW115239   4.646   1.513   1.609  0.2538  0.4425  0.2995
 1202SOL    HW215240   4.708   1.384   1.599  0.9580 -0.7370 -2.1646
 1203SOL     OW15241   1.657   3.772   7.295 -0.0095  0.8070  0.2402
 1203SOL    HW115242   1.706   3.711   7.240  0.3841 -0.3428  1.8339
 1203SOL    HW215243   1.698   3.851   7.261 -0.0149  0.5805 -0.2821
 1204SOL     OW15244   3.070   1.849   3.987 -0.1514  0.5389 -0.2485
 1204SOL    HW115245   3.090   1.780   4.050  0.3982  1.5787  0.7271
 1204SOL    HW215246   3.130   1.833   3.914 -1.4334  0.2222 -1.2213
 1205SOL     OW15247   3.532   0.174   2.442  0.3651 -0.0742  0.2625
 1205SOL    HW115248   3.584   0.209   2.370 -1.6935  3.1902  0.3750
 1205SOL    HW215249   3.557   0.231   2.515 -0.0454  0.2508  0.1456
 1206SOL     OW15250   0.010   0.521  11.573 -0.0967  0.8620 -0.3291
 1206SOL    HW115251   0.073   0.565  11.630 -1.0562 -0.4372  1.7188
 1206SOL    HW215252   0.009   0.584  11.501  1.1706  0.8401 -0.3668
 1207SOL     OW15253   1.560   1.669   3.063 -0.1089  0.0474 -0.0753
 1207SOL    HW115254   1.651   1.677   3.090  0.3174 -0.8333 -1.2249
 1207SOL    HW215255   1.525   1.605   3.125  0.0262 -0.8944 -0.9761
 1208SOL     OW15256   2.273   1.997   4.941  0.3902 -0.0705 -0.2575
 1208SOL    HW115257   2.304   2.063   5.003 -1.6931  1.4752 -0.8879
 1208SOL    HW215258   2.331   1.922   4.957 -1.6263 -2.0261 -2.1081
 1209SOL     OW15259   3.235   0.770   3.315 -0.1993  0.0469  0.3862
 1209SOL    HW115260   3.145   0.798   3.330  0.1105 -0.3512  2.9678
 1209SOL    HW215261   3.260   0.762   3.223  0.5149  2.8041  0.3298
 1210SOL     OW15262   4.096   2.539   5.631 -0.3896  0.0976 -0.1037
 1210SOL    HW115263   4.018   2.499   5.671 -1.2254  3.6370  1.8285
 1210SOL    HW215264   4.061   2.625   5.608 -0.5324  0.5405  1.7693
 1211SOL     OW15265   3.312   0.970  10.459  0.0525 -0.2866  0.4161
 1211SOL    HW115266   3.372   0.972  10.533  0.3146  0.2687  0.1902
 1211SOL    HW215267   3.254   0.902  10.493  2.0023 -2.4255 -0.5716
 1212SOL     OW15268   1.206   1.328   2.902  0.1035  0.4700 -0.1401
 1212SOL    HW115269   1.189   1.242   2.864  0.9673 -0.3376  1.2920
 1212SOL    HW215270   1.296   1.346   2.874  1.2803 -1.5980  2.2904
 1213SOL     OW15271   1.500   1.349   7.663  0.0313 -0.0830 -0.3109
 1213SOL    HW115272   1.431   1.291   7.693 -0.5203  1.2127  0.9553
 1213SOL    HW215273   1.578   1.308   7.700 -0.1475 -1.9367 -1.9752
 1214SOL     OW15274   0.758   1.225   6.242  0.0358 -0.5645 -0.0907
 1214SOL    HW115275   0.806   1.304   6.268 -1.0749  1.2187 -3.3832
 1214SOL    HW215276   0.689   1.222   6.308 -2.8831  0.3613 -3.1164
 1215SOL     OW15277   3.515   4.427   2.780  0.8106 -0.3094  0.0809
 1215SOL    HW115278   3.527   4.376   2.700 -1.8025  0.5852 -0.9124
 1215SOL    HW215279   3.522   4.516   2.744 -1.3219 -1.1673 -2.4818
 1216SOL     OW15280   3.531   1.545  10.864 -0.1424 -0.4185  0.5748
 1216SOL    HW115281   3.488   1.555  10.948  2.3395  0.3486  1.7515
 1216SOL    HW215282   3.604   1.497  10.904  1.4769  0.1996 -1.6529
 1217SOL     OW15283   3.062   4.015   4.929 -0.1866  0.0700 -0.0565
 1217SOL    HW115284   3.105   3.937   4.893 -0.0819  0.0595  0.0900
 1217SOL    HW215285   3.129   4.076   4.962 -0.4922 -0.1271  0.9434
 1218SOL     OW15286   4.093   4.342   3.803 -0.4665  0.0993 -0.0814
 1218SOL    HW115287   4.070   4.417   3.748  0.3473 -0.6276 -1.4256
 1218SOL    HW215288   4.041   4.280   3.752 -0.9848  0.6954 -0.2795
 1219SOL     OW15289   1.665   4.145   5.837 -0.1926  0.0891 -0.2870
 1219SOL    HW115290   1.573   4.148   5.865  0.3109  0.5288  1.2947
 1219SOL    HW215291   1.687   4.058   5.870 -0.6708  0.1615  0.2326
 1220SOL     OW15292   1.600   0.764  12.518 -0.2918 -0.1800 -0.2685
 1220SOL    HW115293   1.554   0.811  12.448 -0.3438 -1.0045 -0.7881
 1220SOL    HW215294   1.535   0.701  12.550  0.8118 -1.4052 -0.4852
 1221SOL     OW15295   1.388   4.722  12.628  0.0717 -0.0251  0.0169
 1221SOL    HW115296   1.364   4.717  12.721 -1.7291 -2.7996 -0.5934
 1221SOL    HW215297   1.482   0.003  12.641  0.5634 -2.2525 -0.8151
 1222SOL     OW15298   4.290   2.286   5.374  0.1470 -0.2582 -0.3625
 1222SOL    HW115299   4.369   2.281   5.320  0.5488  1.2701  0.0719
 1222SOL    HW215300   4.293   2.210   5.432 -0.0117  0.0767  0.0871
 1223SOL     OW15301   4.192   1.827   6.622 -0.0769 -0.2053  0.4853
 1223SOL    HW115302   4.188   1.736   6.651  1.5348 -0.9709 -1.6366
 1223SOL    HW215303   4.102   1.829   6.588  0.0944  2.7426  0.2299
 1224SOL     OW15304   4.366   0.992   4.621  0.6539  0.7568 -0.3732
 1224SOL    HW115305   4.368   1.071   4.568 -0.8982  2.4754  2.0902
 1224SOL    HW215306   4.388   0.925   4.557  1.2429 -0.0815  0.7064
 1225SOL     OW15307   4.272   2.003   5.155 -0.5317 -0.0001  0.5102
 1225SOL    HW115308   4.215   2.037   5.085 -0.8552  0.5970  1.0682
 1225SOL    HW215309   4.351   2.057   5.150 -1.5802  1.4473 -0.5044
 1226SOL     OW15310   3.978   2.013   7.177  0.2924  0.2370  0.2756
 1226SOL    HW115311   3.990   2.106   7.157 -0.6842  0.2589 -0.1724
 1226SOL    HW215312   4.065   1.980   7.155  0.8163  3.2437 -2.1652
 1227SOL     OW15313   0.939   1.705   5.341 -0.3147 -0.2944 -0.2937
 1227SOL    HW115314   0.844   1.702   5.334 -0.3550  1.4492 -0.5738
 1227SOL    HW215315   0.956   1.789   5.383  1.4251 -1.2096  0.8487
 1228SOL     OW15316   0.931   4.449  12.274 -0.1269  0.0601 -0.1410
 1228SOL    HW115317   0.937   4.356  12.296  1.0894  0.2787  0.4368
 1228SOL    HW215318   0.853   4.468  12.326  0.9412 -1.2085  1.9358
 1229SOL     OW15319   4.036   2.320   5.964 -0.6898 -0.1432 -0.2900
 1229SOL    HW115320   4.039   2.415   5.973 -1.6236 -0.1480  0.0342
 1229SOL    HW215321   4.078   2.306   5.879 -0.6287  1.7847 -0.5732
 1230SOL     OW15322   4.460   2.016   8.175  0.1584 -0.0879  0.6359
 1230SOL    HW115323   4.425   1.935   8.212 -0.6233  0.5092  1.2211
 1230SOL    HW215324   4.404   2.030   8.099 -0.3965 -0.4181  0.9818
 1231SOL     OW15325   4.028   3.346   1.965  0.4751 -0.6273 -0.1025
 1231SOL    HW115326   4.053   3.427   2.009 -0.1852 -0.8817  0.7466
 1231SOL    HW215327   4.109   3.319   1.923  0.6928  1.6224 -1.0974
 1232SOL     OW15328   3.014   2.723   1.591  0.1505  0.6059  0.0400
 1232SOL    HW115329   3.010   2.752   1.682 -1.9005  0.2892  0.0447
 1232SOL    HW215330   3.100   2.683   1.579  0.1516  0.6943 -0.2520
 1233SOL     OW15331   2.830   1.784   4.245  0.4570 -0.3853 -0.3948
 1233SOL    HW115332   2.823   1.834   4.326 -1.5798 -1.8645  0.3462
 1233SOL    HW215333   2.923   1.762   4.249  0.7014  0.9694  1.0679
 1234SOL     OW15334   1.166   0.967   0.391  0.7710  0.0071 -0.5365
 1234SOL    HW115335   1.220   0.949   0.468 -0.8840  1.3421  0.9270
 1234SOL    HW215336   1.227   0.956   0.318  1.1299  0.0881 -0.2451
 1235SOL     OW15337   4.165   3.527   9.420 -0.0085 -0.3408  0.4559
 1235SOL    HW115338   4.180   3.464   9.349  2.2093 -0.8045  1.3329
 1235SOL    HW215339   4.237   3.587   9.404 -0.2807  0.2169  1.3019
 1236SOL     OW15340   3.555   2.534   6.572  0.4602  0.2836 -0.3627
 1236SOL    HW115341   3.475   2.521   6.623  0.9243  0.7692  0.4926
 1236SOL    HW215342   3.579   2.623   6.597  1.8811 -0.1057 -0.3534
 1237SOL     OW15343   0.363   1.359   4.047 -0.0175  0.3412 -0.0988
 1237SOL    HW115344   0.432   1.298   4.021 -0.1639 -0.7744  2.1278
 1237SOL    HW215345   0.417   1.419   4.099  0.2718 -0.0997  0.1103
 1238SOL     OW15346   1.048   2.881   9.827  0.5312 -0.5265 -0.6047
 1238SOL    HW115347   1.059   2.932   9.907 -2.3223  0.5576 -0.8641
 1238SOL    HW215348   0.970   2.925   9.791  1.8818  2.3039 -0.0559
 1239SOL     OW15349   2.443   4.200  13.158 -0.0853 -0.0268  0.1179
 1239SOL    HW115350   2.452   4.152  13.076 -0.1187  0.2514 -0.0468
 1239SOL    HW215351   2.429   4.126  13.217  1.2616  0.2734  0.8212
 1240SOL     OW15352   0.625   3.250   5.881  0.1834  0.0077  0.1165
 1240SOL    HW115353   0.643   3.229   5.973  0.3983  0.6027  0.2081
 1240SOL    HW215354   0.583   3.168   5.855 -2.1000  2.0639 -2.6817
 1241SOL     OW15355   1.493   3.321  14.732 -0.5291 -0.3046 -0.2440
 1241SOL    HW115356   1.516   3.349  14.821 -0.1421  0.9075 -0.7227
 1241SOL    HW215357   1.445   3.239  14.741  1.8352 -1.7909 -1.2029
 1242SOL     OW15358   2.129   4.135   7.642  0.8676 -0.2378  0.1654
 1242SOL    HW115359   2.149   4.127   7.735 -0.9278  1.0061  0.6537
 1242SOL    HW215360   2.059   4.070   7.648  0.6787 -0.2358 -2.0972
 1243SOL     OW15361   0.016   1.911  15.154 -0.0882 -0.2021 -0.7015
 1243SOL    HW115362   0.073   1.867  15.091  0.7323  0.4561 -0.4072
 1243SOL    HW215363   4.671   1.863  15.134  1.8183 -2.7856 -2.1478
 1244SOL     OW15364   1.949   4.706   3.780 -0.2297 -0.0469 -0.8749
 1244SOL    HW115365   2.025   4.726   3.726  1.8466 -2.1782  1.2813
 1244SOL    HW215366   1.897   0.050   3.764  1.3148  1.0632 -0.4366
 1245SOL     OW15367   1.972   0.195   3.613  0.2318  0.4153  0.4609
 1245SOL    HW115368   2.037   0.245   3.662  1.9590  1.9942 -3.4705
 1245SOL    HW215369   1.958   0.257   3.542 -1.0366  1.4045  1.5855
 1246SOL     OW15370   2.450   4.406   1.926 -0.5715 -0.0307 -0.0363
 1246SOL    HW115371   2.467   4.379   1.836  2.5686 -1.2052  0.9300
 1246SOL    HW215372   2.409   4.331   1.970 -1.0578  0.5202  0.4545
 1247SOL     OW15373   3.211   2.911   6.516  0.3526  0.6576  0.3778
 1247SOL    HW115374   3.178   2.989   6.470 -0.6202 -0.6061 -1.0644
 1247SOL    HW215375   3.136   2.876   6.565 -0.1331 -0.4277 -1.1452
 1248SOL     OW15376   1.440   3.178   6.374 -0.1701 -0.6636  0.2438
 1248SOL    HW115377   1.383   3.240   6.419 -0.0657  0.4210 -1.1118
 1248SOL    HW215378   1.433   3.104   6.434  0.7324  1.0112  2.4167
 1249SOL     OW15379   1.237   0.652   1.004  0.3403 -0.2147  0.4800
 1249SOL    HW115380   1.278   0.717   0.946  2.1826 -0.7095  1.2155
 1249SOL    HW215381   1.303   0.587   1.030  0.0662 -0.7882 -0.2456
 1250SOL     OW15382   1.218   2.515  13.284 -0.0457  0.2819 -0.2133
 1250SOL    HW115383   1.193   2.547  13.370 -0.9182 -1.3740  0.1626
 1250SOL    HW215384   1.181   2.426  13.280  0.3430  0.1258 -0.3601
 1251SOL     OW15385   2.966   1.741   2.646 -0.3978 -0.0367  0.8676
 1251SOL    HW115386   3.047   1.742   2.596  0.0678  1.0822  1.6250
 1251SOL    HW215387   2.930   1.660   2.611  1.2649  1.0673 -3.4029
 1252SOL     OW15388   2.617   2.012   1.876  0.2056 -0.5783  0.0388
 1252SOL    HW115389   2.566   1.938   1.909  1.7223 -1.6639 -0.0514
 1252SOL    HW215390   2.609   2.070   1.951 -0.2840 -1.0065  0.3191
 1253SOL     OW15391   2.210   1.463   5.884  0.5030  0.1940 -0.0786
 1253SOL    HW115392   2.148   1.503   5.945 -0.6090 -0.1274 -1.0164
 1253SOL    HW215393   2.278   1.423   5.939 -0.1974 -0.3465  0.4035
 1254SOL     OW15394   1.394   3.768   2.715  0.1896 -0.5287  0.4481
 1254SOL    HW115395   1.359   3.858   2.719  0.3178 -0.4065 -1.4443
 1254SOL    HW215396   1.486   3.792   2.705  0.8946 -3.4525  0.0977
 1255SOL     OW15397   1.383   0.226   7.508  0.8409 -0.0732  0.3769
 1255SOL    HW115398   1.287   0.224   7.513  0.8507  2.4403  1.5174
 1255SOL    HW215399   1.407   0.308   7.550  2.8378  0.5307 -1.9551
 1256SOL     OW15400   1.363   2.960   0.088  0.2718 -0.6312 -0.2493
 1256SOL    HW115401   1.399   2.877   0.120  1.0555 -0.3980 -0.5421
 1256SOL    HW215402   1.423   2.985   0.018 -0.8512  1.8978 -0.3139
 1257SOL     OW15403   4.715   3.969   2.982 -0.3369 -0.3577  0.1547
 1257SOL    HW115404   0.014   4.046   2.937  0.4921 -0.3391  0.8347
 1257SOL    HW215405   4.675   4.021   3.052 -0.6690 -0.2172 -0.1420
 1258SOL     OW15406   2.725   3.891   4.584 -0.0916  0.0560  0.3217
 1258SOL    HW115407   2.699   3.889   4.492  0.4157  0.9574  0.1649
 1258SOL    HW215408   2.731   3.798   4.608  1.9443 -0.0156 -0.4244
 1259SOL     OW15409   3.903   1.796  15.328  0.0187 -0.0414 -0.2917
 1259SOL    HW115410   3.818   1.824  15.295  0.0383 -1.1392 -1.2806
 1259SOL    HW215411   3.872   1.713  15.365 -0.1205 -0.1404 -0.6314
 1260SOL     OW15412   0.580   1.130   8.752  0.0125  0.0089 -0.1172
 1260SOL    HW115413   0.636   1.109   8.827 -0.8790 -0.3197  0.4522
 1260SOL    HW215414   0.501   1.079   8.765 -1.2257  1.3621 -2.2675
 1261SOL     OW15415   0.082   0.028  15.870 -0.1377  0.5707 -0.5517
 1261SOL    HW115416   0.107   4.673  15.852  0.0946  0.6444 -0.6009
 1261SOL    HW215417   0.169   0.068  15.879  0.3388 -0.7361  0.6671
 1262SOL     OW15418   3.639   2.074   4.259 -0.1966 -0.1429 -0.4671
 1262SOL    HW115419   3.570   2.013   4.232  0.0324  0.1447 -1.6771
 1262SOL    HW215420   3.599   2.131   4.324  2.6216  1.4712 -0.1598
 1263SOL     OW15421   0.074   1.346   4.483  0.5949  0.3654 -0.0306
 1263SOL    HW115422   0.015   1.279   4.518  1.8043 -0.7494 -0.1019
 1263SOL    HW215423   0.158   1.300   4.471  0.9848  1.2046 -0.5001
 1264SOL     OW15424   0.589   3.192   2.313 -1.0100 -0.2673 -0.2477
 1264SOL    HW115425   0.590   3.240   2.396  1.1893  1.3888 -1.1951
 1264SOL    HW215426   0.500   3.160   2.304 -1.2200  1.1227 -3.3211
 1265SOL     OW15427   1.446   3.740   1.145  0.2141  1.2173  0.4103
 1265SOL    HW115428   1.492   3.824   1.151  1.0595  0.9290 -2.0383
 1265SOL    HW215429   1.358   3.759   1.113 -0.1594 -1.1452  0.0692
 1266SOL     OW15430   3.883   0.976   1.492 -0.1217  0.3039 -0.1114
 1266SOL    HW115431   3.806   0.956   1.546 -1.0558 -1.9302 -2.2738
 1266SOL    HW215432   3.850   1.010   1.408  1.0074 -0.9952 -1.0787
 1267SOL     OW15433   0.248   1.576   1.079  0.4729  0.7917  0.0028
 1267SOL    HW115434   0.250   1.485   1.111  0.0791  1.5124  2.0945
 1267SOL    HW215435   0.225   1.631   1.154 -1.4716  1.0104 -0.7616
 1268SOL     OW15436   4.065   3.142  16.701  0.4765  0.8092  0.2915
 1268SOL    HW115437   4.105   3.189  16.774 -1.7353  3.1806 -0.0432
 1268SOL    HW215438   4.000   3.082  16.737  0.6707  0.7155  0.4838
 1269SOL     OW15439   2.083   3.637   5.805  0.5613  0.2660  0.0029
 1269SOL    HW115440   2.152   3.659   5.743 -0.8942  1.1422 -1.3244
 1269SOL    HW215441   2.081   3.541   5.810 -0.2337  0.2134 -1.3432
 1270SOL     OW15442   1.549   4.593   6.313 -0.2666 -0.0394 -0.2480
 1270SOL    HW115443   1.550   4.576   6.219  1.8291  0.4690 -0.3049
 1270SOL    HW215444   1.642   4.599   6.336  0.1349  0.4268 -2.0549
 1271SOL     OW15445   0.517   4.659   8.325  0.3555 -0.0071  0.0425
 1271SOL    HW115446   0.450   4.727   8.321 -0.7479 -1.0780  0.6750
 1271SOL    HW215447   0.533   4.677   8.417 -0.7645  1.5993 -0.0792
 1272SOL     OW15448   3.959   3.297   8.273 -0.5747  0.2943 -0.4541
 1272SOL    HW115449   4.048   3.329   8.281 -0.7377  0.3714  1.0939
 1272SOL    HW215450   3.968   3.211   8.315  1.0227  1.0844  0.8059
 1273SOL     OW15451   4.524   1.727   1.367  0.3104  0.2298  0.7784
 1273SOL    HW115452   4.459   1.760   1.305 -0.6425 -4.4346 -0.7122
 1273SOL    HW215453   4.484   1.730   1.454  0.5306 -1.2231  0.9291
 1274SOL     OW15454   4.169   1.971   4.176  1.2421 -0.5473 -0.1500
 1274SOL    HW115455   4.156   1.879   4.197 -1.0150  0.2435  1.9790
 1274SOL    HW215456   4.079   2.000   4.161  1.2151  0.5967  2.1162
 1275SOL     OW15457   3.210   2.361   6.208  0.6239  0.0173 -0.4870
 1275SOL    HW115458   3.214   2.325   6.296 -0.9506 -1.3484 -0.9694
 1275SOL    HW215459   3.191   2.453   6.229  0.7752  0.3079 -1.6273
 1276SOL     OW15460   2.865   1.097   6.928 -0.4038 -0.4878  0.5168
 1276SOL    HW115461   2.945   1.054   6.958 -0.6831 -0.6382  1.0404
 1276SOL    HW215462   2.854   1.166   6.993 -0.8380 -0.5723  0.5368
 1277SOL     OW15463   4.353   0.125  12.078 -0.0177  0.1412 -0.4346
 1277SOL    HW115464   4.294   0.153  12.008 -1.0248  1.4179  0.9350
 1277SOL    HW215465   4.399   0.206  12.099  2.7312 -1.7426  0.8513
 1278SOL     OW15466   1.689   0.796  10.299  0.6132 -0.4632  0.1000
 1278SOL    HW115467   1.640   0.751  10.368  0.7307  0.7342  0.9460
 1278SOL    HW215468   1.658   0.886  10.308 -1.9077 -1.4132  0.9425
 1279SOL     OW15469   0.574   0.519   5.684 -0.0434 -0.4987  0.0019
 1279SOL    HW115470   0.606   0.435   5.652 -0.0504 -0.4062 -0.2464
 1279SOL    HW215471   0.628   0.576   5.629 -1.2517  0.6769  0.0399
 1280SOL     OW15472   3.753   0.903   3.632  0.0525 -0.6689  0.5029
 1280SOL    HW115473   3.809   0.830   3.607 -0.6092 -0.7745 -0.6984
 1280SOL    HW215474   3.672   0.852   3.634 -0.6406  0.2960 -2.2812
 1281SOL     OW15475   1.062   0.047   8.169 -0.4126  0.2581  0.0877
 1281SOL    HW115476   1.070   0.047   8.265 -0.2911  1.1997  0.0772
 1281SOL    HW215477   1.065   0.140   8.146  0.7303 -0.0884 -1.1218
 1282SOL     OW15478   2.641   0.554   7.857  0.0823 -0.1561 -0.4219
 1282SOL    HW115479   2.690   0.479   7.892  0.5808  0.9603  1.2933
 1282SOL    HW215480   2.650   0.607   7.936  1.3861  0.5110 -1.0124
 1283SOL     OW15481   2.156   0.056   1.986  0.2929 -0.3060  0.1401
 1283SOL    HW115482   2.181   4.699   1.975  0.7552 -0.1829  0.1513
 1283SOL    HW215483   2.113   0.083   1.905  0.3210  0.6071  0.4320
 1284SOL     OW15484   2.650   1.783   0.137 -0.4683  0.0739  0.0362
 1284SOL    HW115485   2.692   1.775   0.052  1.7033  2.8790  0.8498
 1284SOL    HW215486   2.561   1.754   0.118 -0.0455 -1.1708 -0.0306
 1285SOL     OW15487   1.953   4.394   2.775 -0.2142 -0.2255  0.1127
 1285SOL    HW115488   1.883   4.393   2.709  2.4476 -0.4281 -2.6842
 1285SOL    HW215489   2.013   4.337   2.727 -1.1075 -1.0098 -0.0860
 1286SOL     OW15490   0.561   3.224  17.356 -0.1080  0.1914 -0.1537
 1286SOL    HW115491   0.479   3.176  17.356  0.0118 -0.0116  1.6078
 1286SOL    HW215492   0.630   3.160  17.373 -1.7614 -1.1140  1.5611
 1287SOL     OW15493   1.341   1.785   3.217  0.0430  0.4361 -0.3418
 1287SOL    HW115494   1.256   1.748   3.192  0.7402 -0.5669 -1.2055
 1287SOL    HW215495   1.409   1.757   3.156  1.6433  1.7245  0.8525
 1288SOL     OW15496   0.777   2.970   6.005 -0.3338  0.2829 -0.1194
 1288SOL    HW115497   0.873   2.961   6.008 -0.2580  1.9371  2.1681
 1288SOL    HW215498   0.769   3.043   6.066 -0.0292  0.9812 -0.9118
 1289SOL     OW15499   4.162   0.433   4.847  0.1941 -0.3233 -0.6646
 1289SOL    HW115500   4.183   0.380   4.770 -0.8684  0.3659 -1.4360
 1289SOL    HW215501   4.168   0.374   4.921 -2.2813 -0.8635 -0.9157
 1290SOL     OW15502   0.256   1.160  14.442  0.0846  0.2181  0.0915
 1290SOL    HW115503   0.197   1.220  14.487  1.7747  2.0559 -0.1552
 1290SOL    HW215504   0.315   1.125  14.508 -0.9528 -1.8920 -0.0972
 1291SOL     OW15505   2.476   3.072   9.882  0.0832  0.2380  0.4588
 1291SOL    HW115506   2.531   3.068   9.961  0.3362 -1.0400  0.2120
 1291SOL    HW215507   2.532   3.023   9.821  1.3611  2.1995  0.0560
 1292SOL     OW15508   0.421   0.882  17.626  0.3112 -0.0021  0.2897
 1292SOL    HW115509   0.458   0.809  17.675 -3.6685 -0.9529  1.8084
 1292SOL    HW215510   0.494   0.943  17.641  0.7202 -0.6864  1.0836
 1293SOL     OW15511   3.435   2.031   6.445  0.0054  0.3689  0.5477
 1293SOL    HW115512   3.502   2.028   6.513 -1.2356  0.4035  1.7804
 1293SOL    HW215513   3.463   2.111   6.401 -1.4911 -0.5058 -1.9849
 1294SOL     OW15514   3.408   2.565   1.343 -0.6085 -0.1256 -0.2767
 1294SOL    HW115515   3.476   2.610   1.393 -0.3611  1.4531 -2.0535
 1294SOL    HW215516   3.439   2.475   1.334  0.4918  0.6683 -4.0723
 1295SOL     OW15517   3.982   4.176  12.291 -0.1703 -0.2725  0.0234
 1295SOL    HW115518   4.060   4.129  12.323  0.6897 -0.4507 -2.3322
 1295SOL    HW215519   4.020   4.228  12.220 -2.2019  1.2005  0.0231
 1296SOL     OW15520   1.428   0.151  11.497  0.7875  0.7669  0.1840
 1296SOL    HW115521   1.510   0.103  11.500  0.7094  0.4788 -1.8415
 1296SOL    HW215522   1.448   0.234  11.452  2.1036  1.1843  1.5550
 1297SOL     OW15523   3.432   4.060  11.696  0.4868 -0.2238 -0.4223
 1297SOL    HW115524   3.413   4.078  11.788 -1.4947  0.5443 -0.9891
 1297SOL    HW215525   3.486   3.981  11.705 -0.7118 -1.1941 -1.7092
 1298SOL     OW15526   3.407   2.825   6.807 -0.1599 -0.0289 -0.1657
 1298SOL    HW115527   3.351   2.896   6.775 -0.0668  0.1604  0.0891
 1298SOL    HW215528   3.488   2.826   6.757  0.0406  0.7310  0.1852
 1299SOL     OW15529   4.333   4.578   5.251  0.1807  0.3756  0.1377
 1299SOL    HW115530   4.388   4.650   5.220 -0.5232 -0.2928 -2.6214
 1299SOL    HW215531   4.261   4.624   5.294  0.6778 -0.4163  1.8398
 1300SOL     OW15532   2.716   4.486   6.627  0.6460 -0.3118 -0.5220
 1300SOL    HW115533   2.642   4.476   6.567  2.2126  0.7726 -2.6180
 1300SOL    HW215534   2.690   4.453   6.713 -2.5849  0.6943 -1.1123
 1301SOL     OW15535   2.691   2.087   5.431 -0.0926  0.1434  0.0818
 1301SOL    HW115536   2.745   2.024   5.384 -0.1767 -1.5952  2.2876
 1301SOL    HW215537   2.616   2.035   5.462  2.3108 -3.4956 -0.2212
 1302SOL     OW15538   1.017   3.147   3.347  0.3955 -0.3752 -0.4110
 1302SOL    HW115539   1.064   3.130   3.429 -1.0522  1.5340  0.8080
 1302SOL    HW215540   0.933   3.138   3.392  0.3085 -0.8550 -0.6643
 1303SOL     OW15541   4.586   0.373   6.154  0.3203 -0.3910 -0.1647
 1303SOL    HW115542   4.534   0.297   6.181 -1.5642  1.0142  0.1650
 1303SOL    HW215543   4.676   0.343   6.166 -0.0028 -1.1330  0.4006
 1304SOL     OW15544   0.056   3.523   3.916 -0.4524 -0.2016  0.3367
 1304SOL    HW115545   0.021   3.472   3.989 -0.8062  1.3736  1.2822
 1304SOL    HW215546   0.127   3.565   3.965 -1.7677 -0.2749  2.2787
 1305SOL     OW15547   3.167   3.881   8.253 -1.0346 -0.5089  0.0377
 1305SOL    HW115548   3.241   3.847   8.303 -0.9840  0.0407  0.3255
 1305SOL    HW215549   3.176   3.976   8.260  0.7771 -0.7910  1.4396
 1306SOL     OW15550   4.211   0.377   9.545 -0.0358 -0.4218  0.2566
 1306SOL    HW115551   4.150   0.354   9.615  1.4607  0.5105  1.8510
 1306SOL    HW215552   4.282   0.426   9.585 -0.6048  0.0175  0.7165
 1307SOL     OW15553   4.192   3.479   6.879  0.3470  0.0568  0.0774
 1307SOL    HW115554   4.212   3.495   6.971  0.4964  2.7116 -0.4343
 1307SOL    HW215555   4.259   3.538   6.846 -0.9653  0.9673 -0.9631
 1308SOL     OW15556   1.138   3.348   9.691 -0.3567 -0.1036 -0.1753
 1308SOL    HW115557   1.044   3.344   9.710 -0.5367 -1.0612 -1.3140
 1308SOL    HW215558   1.143   3.417   9.625  0.0391  1.2772  1.2889
 1309SOL     OW15559   3.293   3.360   2.843 -0.0539 -0.0102 -0.2028
 1309SOL    HW115560   3.210   3.330   2.806 -0.3149 -0.2690  0.5838
 1309SOL    HW215561   3.355   3.296   2.808  0.1614  0.1739 -0.1555
 1310SOL     OW15562   2.552   2.511   4.718  0.4147 -0.1224 -0.1044
 1310SOL    HW115563   2.606   2.480   4.790  0.2992 -1.4615 -0.5886
 1310SOL    HW215564   2.542   2.429   4.669  2.9482 -0.4335 -0.1251
 1311SOL     OW15565   2.971   3.674   4.962 -0.2370  0.5304  0.0241
 1311SOL    HW115566   2.996   3.698   4.872  0.3502 -2.6443 -0.6559
 1311SOL    HW215567   2.891   3.726   4.971  0.1965  0.8354  1.9638
 1312SOL     OW15568   0.383   2.749   4.381 -0.1069 -0.4731  0.1212
 1312SOL    HW115569   0.337   2.802   4.316  1.8835  1.5983  0.4126
 1312SOL    HW215570   0.408   2.813   4.447  2.2128 -0.4476 -0.7746
 1313SOL     OW15571   2.534   1.904   2.988  0.4631 -0.0453 -0.2476
 1313SOL    HW115572   2.451   1.943   2.961  0.8839  1.6600  0.9134
 1313SOL    HW215573   2.518   1.919   3.081 -1.3414 -2.4844 -0.1505
 1314SOL     OW15574   1.199   3.067   5.536  0.0543 -0.0109 -0.4341
 1314SOL    HW115575   1.138   3.040   5.605  1.4253  1.0845  1.1848
 1314SOL    HW215576   1.154   3.146   5.508  1.1955  0.3046 -1.3945
 1315SOL     OW15577   3.382   0.350   5.763 -0.0557 -0.5669 -0.0987
 1315SOL    HW115578   3.364   0.257   5.749  2.4329 -0.9101 -1.0971
 1315SOL    HW215579   3.310   0.387   5.712 -0.1607  2.3516  2.2275
 1316SOL     OW15580   0.814   0.707   2.080  0.0317 -0.2870  0.0207
 1316SOL    HW115581   0.826   0.622   2.037 -1.3253 -0.5618  0.1941
 1316SOL    HW215582   0.733   0.696   2.130  1.8840  0.0348  3.0868
 1317SOL     OW15583   1.616   0.300   3.278 -0.0254  0.5911 -0.5018
 1317SOL    HW115584   1.537   0.255   3.249  1.4608 -2.2317 -0.2041
 1317SOL    HW215585   1.623   0.260   3.365  1.2272  1.6944 -0.0946
 1318SOL     OW15586   0.369   2.067   4.067  0.6304 -0.2909  0.2747
 1318SOL    HW115587   0.315   2.110   4.133  2.2314  1.6168  0.3310
 1318SOL    HW215588   0.318   2.068   3.986 -0.7372 -2.4880  1.0935
 1319SOL     OW15589   1.161   4.281   6.975  0.5307  0.4847 -0.0530
 1319SOL    HW115590   1.188   4.196   7.009 -2.3893  0.1733  1.5379
 1319SOL    HW215591   1.099   4.312   7.041 -2.3334 -0.3701 -2.3213
 1320SOL     OW15592   1.276   3.250   9.360  0.4853 -0.0643  0.1690
 1320SOL    HW115593   1.301   3.269   9.450  2.5352  1.7142 -0.8094
 1320SOL    HW215594   1.316   3.163   9.354 -1.9433 -1.2330  0.4642
 1321SOL     OW15595   0.119   2.189   3.463  0.0902  0.1271  0.0715
 1321SOL    HW115596   0.128   2.219   3.554  0.0721  1.4480 -0.3623
 1321SOL    HW215597   0.058   2.116   3.477  1.6267 -1.0881  0.4859
 1322SOL     OW15598   3.474   2.777   3.619  0.2262  0.9189  0.2895
 1322SOL    HW115599   3.400   2.829   3.587 -1.0238 -0.8504  0.3097
 1322SOL    HW215600   3.519   2.760   3.536  1.2772 -0.2080  1.0897
 1323SOL     OW15601   1.148   2.332   9.303  0.2371  1.0442 -0.1777
 1323SOL    HW115602   1.053   2.321   9.310  0.1932  1.1625 -0.6011
 1323SOL    HW215603   1.161   2.270   9.232 -0.9200  0.4468  0.1252
 1324SOL     OW15604   3.329   3.302   6.607 -0.2320 -1.2540  0.4861
 1324SOL    HW115605   3.239   3.283   6.631 -0.8897  2.8097  1.2598
 1324SOL    HW215606   3.358   3.307   6.699 -0.7199  1.6629  0.4597
 1325SOL     OW15607   4.679   1.830   5.482 -0.1771 -0.3342 -0.3436
 1325SOL    HW115608   4.610   1.878   5.526 -0.0199 -1.5936  1.2789
 1325SOL    HW215609   4.687   1.879   5.400  0.7867 -0.6121 -0.4178
 1326SOL     OW15610   0.343   0.282  17.343  0.2454  0.0698  0.0721
 1326SOL    HW115611   0.358   0.249  17.432  1.4994  0.0605 -0.1433
 1326SOL    HW215612   0.334   0.375  17.366  1.3009  0.2826 -0.4292
 1327SOL     OW15613   3.936   4.255   4.422 -0.5984 -0.6010  0.1391
 1327SOL    HW115614   3.981   4.279   4.341 -1.4788  0.5146 -0.0187
 1327SOL    HW215615   3.850   4.224   4.395 -0.8911  0.1813  0.1633
 1328SOL     OW15616   2.536   3.074   7.772 -0.0652  0.3152  0.7599
 1328SOL    HW115617   2.549   3.149   7.714 -0.9035 -0.0127  0.1552
 1328SOL    HW215618   2.533   3.119   7.856  0.4717  0.8003  0.5220
 1329SOL     OW15619   0.041   2.623   3.936 -0.1063  0.2323  0.5614
 1329SOL    HW115620   0.021   2.535   3.968 -0.5717 -0.5208 -1.7957
 1329SOL    HW215621   0.082   2.652   4.017  0.4898  0.2813  0.2459
 1330SOL     OW15622   3.071   2.165   4.113  0.4628 -0.1708  0.2822
 1330SOL    HW115623   3.164   2.175   4.096  0.8493  0.5652  2.9182
 1330SOL    HW215624   3.066   2.069   4.117  0.5869 -0.2055 -0.3825
 1331SOL     OW15625   3.394   3.857   1.374 -0.4357  0.1329  0.1694
 1331SOL    HW115626   3.477   3.881   1.332  0.4428 -1.0058  1.2446
 1331SOL    HW215627   3.327   3.851   1.306  0.3001  2.4541 -0.7614
 1332SOL     OW15628   3.210   3.199   2.230  0.3135  0.3940  0.7988
 1332SOL    HW115629   3.156   3.251   2.289 -1.8949 -0.5375 -0.4059
 1332SOL    HW215630   3.297   3.210   2.269  0.7861 -1.0174  0.1488
 1333SOL     OW15631   1.660   3.569   8.664 -0.7031  0.5613 -0.2551
 1333SOL    HW115632   1.747   3.586   8.700  0.0019  0.4689 -1.9164
 1333SOL    HW215633   1.618   3.520   8.735 -1.3651  0.0321 -1.0003
 1334SOL     OW15634   1.357   0.108  10.868 -0.0117  0.6321  0.5907
 1334SOL    HW115635   1.376   0.026  10.915 -0.4752 -0.0407 -0.3767
 1334SOL    HW215636   1.425   0.171  10.889  2.2678 -1.8074  0.6116
 1335SOL     OW15637   3.873   2.439   6.687 -0.1694  0.1650 -0.4876
 1335SOL    HW115638   3.904   2.371   6.747  0.2119  0.8209  0.0706
 1335SOL    HW215639   3.807   2.486   6.739 -0.0777  0.0448 -0.2625
 1336SOL     OW15640   4.353   1.566   3.709  0.7967  0.2042  0.4778
 1336SOL    HW115641   4.329   1.658   3.720  1.0207  0.4231 -0.8727
 1336SOL    HW215642   4.284   1.530   3.654  0.4860 -0.6886  1.4478
 1337SOL     OW15643   1.422   3.952  10.736 -0.4106  0.4308 -0.5105
 1337SOL    HW115644   1.468   3.893  10.675  0.6640  2.0794 -1.2960
 1337SOL    HW215645   1.446   3.915  10.821  1.0331  1.9222 -0.2765
 1338SOL     OW15646   2.764   0.239   9.073  0.1552  0.1135  0.0643
 1338SOL    HW115647   2.741   0.183   9.147  0.2938 -1.3674 -1.0125
 1338SOL    HW215648   2.859   0.231   9.083  0.1124  0.8231  0.9830
 1339SOL     OW15649   3.019   2.428   4.075  0.1549 -0.0186  0.0101
 1339SOL    HW115650   3.052   2.434   3.985 -0.2818 -1.9362 -0.2705
 1339SOL    HW215651   3.035   2.336   4.096  1.7751 -0.0157 -1.2665
 1340SOL     OW15652   0.958   0.171   5.994  0.3046 -0.7568  0.2492
 1340SOL    HW115653   0.992   0.156   6.082  1.3971  3.3548  0.5314
 1340SOL    HW215654   0.963   0.264   5.970  2.5995 -0.6697  0.9819
 1341SOL     OW15655   3.745   0.241   7.722 -0.5218  0.0718 -0.9047
 1341SOL    HW115656   3.687   0.294   7.776  0.5985  0.3097  0.0704
 1341SOL    HW215657   3.811   0.307   7.699 -1.0844  1.6418  1.9678
 1342SOL     OW15658   4.262   3.658  10.679 -0.1015  0.3546  0.2559
 1342SOL    HW115659   4.248   3.752  10.665 -0.0993  0.7006  2.5470
 1342SOL    HW215660   4.298   3.628  10.596 -0.0266  1.2990 -0.0527
 1343SOL     OW15661   3.335   2.153  15.890 -0.6141 -0.1240  0.0898
 1343SOL    HW115662   3.371   2.081  15.943 -0.9043 -0.1768  0.2166
 1343SOL    HW215663   3.292   2.202  15.961 -3.1784 -1.8855 -0.2121
 1344SOL     OW15664   0.954   3.836   8.782  0.2318  0.1595 -0.4444
 1344SOL    HW115665   0.997   3.752   8.763  1.3267  1.0526 -1.9055
 1344SOL    HW215666   0.995   3.869   8.863  0.0539  1.5855 -0.9321
 1345SOL     OW15667   1.503   2.678   6.665  0.1458  0.1759  0.2193
 1345SOL    HW115668   1.536   2.600   6.621  0.2328  0.3437 -0.0181
 1345SOL    HW215669   1.584   2.717   6.699 -0.5685  2.3971 -0.6105
 1346SOL     OW15670   3.564   2.546   2.845  0.1645  0.1196 -0.4836
 1346SOL    HW115671   3.639   2.564   2.901 -1.1549 -0.2452  1.4186
 1346SOL    HW215672   3.539   2.635   2.818 -0.0464  0.3432  0.4502
 1347SOL     OW15673   0.699   2.968   4.446  0.2239  0.4467  0.4101
 1347SOL    HW115674   0.671   2.888   4.491 -0.2999  0.9270  0.9336
 1347SOL    HW215675   0.672   3.038   4.506  0.8206  0.4645  0.6572
 1348SOL     OW15676   0.858   2.122  10.268 -0.0830 -0.7654 -0.0317
 1348SOL    HW115677   0.802   2.048  10.246 -1.0633  0.1033 -0.4251
 1348SOL    HW215678   0.844   2.185  10.198 -0.9113 -1.5165 -0.5265
 1349SOL     OW15679   3.906   4.072  16.844  0.1334 -0.1236  0.8225
 1349SOL    HW115680   3.980   4.030  16.800  0.5252 -2.1258  3.3462
 1349SOL    HW215681   3.835   4.046  16.786  0.5911 -2.7911  1.4756
 1350SOL     OW15682   2.353   4.521   4.231  0.3161 -0.4714 -0.1989
 1350SOL    HW115683   2.375   4.594   4.288 -0.0573 -1.5221  1.3076
 1350SOL    HW215684   2.389   4.549   4.147 -0.7722 -3.8132 -1.7879
 1351SOL     OW15685   3.622   0.922   8.262 -0.4448 -0.2211  0.2422
 1351SOL    HW115686   3.537   0.879   8.270 -1.8591  2.4826 -0.1875
 1351SOL    HW215687   3.674   0.864   8.317 -0.6462  0.1814  0.8552
 1352SOL     OW15688   0.568   2.065   5.161  0.4787 -0.2777  0.3042
 1352SOL    HW115689   0.495   2.083   5.101 -0.0148 -3.2732  0.0033
 1352SOL    HW215690   0.604   2.152   5.173 -0.6436  0.1688  0.4251
 1353SOL     OW15691   4.322   1.345   2.286 -0.0328  0.4589  0.5826
 1353SOL    HW115692   4.227   1.339   2.273  0.0766  0.8986 -0.4184
 1353SOL    HW215693   4.334   1.271   2.346 -1.4926 -0.0298  0.2818
 1354SOL     OW15694   2.955   2.670   6.028 -0.6833  0.7906  0.1017
 1354SOL    HW115695   2.988   2.630   5.948 -0.9305  0.5637  0.1114
 1354SOL    HW215696   2.980   2.762   6.015 -2.1847  1.2822  0.6196
 1355SOL     OW15697   1.438   1.345   5.860  0.7179 -0.8473 -0.5446
 1355SOL    HW115698   1.382   1.370   5.934 -0.2152 -1.9858 -0.8655
 1355SOL    HW215699   1.465   1.256   5.881  1.7145 -0.3293  0.4167
 1356SOL     OW15700   2.027   4.722   1.016 -0.1092  0.0858 -0.0325
 1356SOL    HW115701   2.042   4.666   0.939 -2.0265 -0.6989  0.1601
 1356SOL    HW215702   2.114   0.024   1.029  0.5756 -2.5856  3.0680
 1357SOL     OW15703   4.108   1.745  12.025  0.5029  0.7852  0.4406
 1357SOL    HW115704   4.057   1.740  11.944  0.0981 -0.6611  0.7907
 1357SOL    HW215705   4.045   1.701  12.082  3.2782 -1.7894  1.5281
 1358SOL     OW15706   1.836   1.586   1.863  0.4015  0.2250  0.3916
 1358SOL    HW115707   1.844   1.617   1.953 -0.5506 -0.4078  0.6921
 1358SOL    HW215708   1.886   1.656   1.821  0.3574  0.0306  0.0145
 1359SOL     OW15709   0.224   2.304  17.345 -0.2271 -0.1516  0.9837
 1359SOL    HW115710   0.204   2.243  17.274 -0.5012  1.2634 -0.1538
 1359SOL    HW215711   0.319   2.289  17.352 -0.2059  0.0761  1.1829
 1360SOL     OW15712   4.179   2.039   1.634 -0.4798 -0.8479  0.4044
 1360SOL    HW115713   4.259   2.032   1.582 -0.8563  1.4052 -0.4767
 1360SOL    HW215714   4.158   2.132   1.634 -1.4641 -1.0694  0.1361
 1361SOL     OW15715   2.189   3.522   6.836  0.0065 -0.0877 -0.1054
 1361SOL    HW115716   2.145   3.605   6.857  3.1452  1.2382  1.1501
 1361SOL    HW215717   2.147   3.455   6.891  1.8843 -0.7357  0.5357
 1362SOL     OW15718   3.758   3.273   2.790  0.2624 -0.4286  0.2149
 1362SOL    HW115719   3.824   3.211   2.759  1.8393  1.9547 -1.2657
 1362SOL    HW215720   3.805   3.293   2.872 -1.3658 -1.0039  1.2777
 1363SOL     OW15721   0.848   2.210   9.776  0.1557  0.3508  0.0004
 1363SOL    HW115722   0.812   2.133   9.732  2.2271  0.0602 -1.1716
 1363SOL    HW215723   0.854   2.267   9.699  0.2034  1.4276  0.7994
 1364SOL     OW15724   4.644   1.225   8.142  0.2403  0.0928  0.0496
 1364SOL    HW115725   4.577   1.206   8.208  0.2802 -0.4346 -0.0629
 1364SOL    HW215726   4.669   1.308   8.184 -0.5093 -0.4552  1.5613
 1365SOL     OW15727   2.019   0.995  11.834 -0.5428 -0.2650 -0.4788
 1365SOL    HW115728   1.971   1.058  11.887  0.6768  2.1223 -2.1611
 1365SOL    HW215729   2.084   1.054  11.794  1.0829 -1.7456 -0.0178
 1366SOL     OW15730   0.915   2.392   3.805 -0.5903  0.1105 -0.1190
 1366SOL    HW115731   0.846   2.344   3.758 -0.8367  0.0903  0.2665
 1366SOL    HW215732   0.862   2.437   3.871 -1.2461  0.4800 -0.8983
 1367SOL     OW15733   0.744   1.855   5.196 -0.4123 -0.0504  0.4217
 1367SOL    HW115734   0.693   1.815   5.267  2.0087 -0.7616  1.7724
 1367SOL    HW215735   0.693   1.936   5.185  2.9833  1.3201 -4.9738
 1368SOL     OW15736   3.162   1.486   6.870  0.2802 -0.2024  0.0930
 1368SOL    HW115737   3.098   1.555   6.890  0.3937 -0.1336  0.2157
 1368SOL    HW215738   3.126   1.449   6.790  1.7106 -1.5327  0.0722
 1369SOL     OW15739   0.337   1.628   6.289 -0.2891  0.2414 -0.2864
 1369SOL    HW115740   0.349   1.628   6.194  0.7642  1.5703 -0.1570
 1369SOL    HW215741   0.351   1.535   6.310  1.9186  0.4237 -0.9399
 1370SOL     OW15742   1.825   0.225   5.967  0.1894 -0.2159 -0.6621
 1370SOL    HW115743   1.815   0.279   6.045 -2.5167 -0.2050 -1.0186
 1370SOL    HW215744   1.831   0.291   5.898 -1.1636  0.0995 -0.4907
 1371SOL     OW15745   1.585   2.725   2.557  0.8180  0.0923 -0.1237
 1371SOL    HW115746   1.538   2.791   2.506 -0.7782 -1.2175 -0.3413
 1371SOL    HW215747   1.635   2.779   2.617 -1.5028  0.4145  1.5327
 1372SOL     OW15748   4.020   3.626   9.692 -0.2592 -0.0386  0.0003
 1372SOL    HW115749   4.004   3.690   9.622 -3.5201 -1.0242 -0.1464
 1372SOL    HW215750   4.079   3.563   9.651  0.1512  0.9343 -0.8955
 1373SOL     OW15751   0.369   0.944   6.270 -0.0947 -0.2260  0.0890
 1373SOL    HW115752   0.428   0.887   6.222  0.2321  1.2045 -1.2359
 1373SOL    HW215753   0.413   1.026   6.247  0.3541 -0.5223 -0.1084
 1374SOL     OW15754   1.703   3.986  14.565  0.0419 -0.7893 -0.2887
 1374SOL    HW115755   1.671   4.040  14.492 -0.7209 -0.8519 -0.0024
 1374SOL    HW215756   1.628   3.983  14.624 -1.1113 -0.6708 -1.7627
 1375SOL     OW15757   2.157   0.900  14.449  0.3079 -0.3114 -0.0160
 1375SOL    HW115758   2.082   0.930  14.399 -0.4388 -2.9425 -0.5078
 1375SOL    HW215759   2.192   0.852  14.374 -0.6443 -0.2993 -0.4678
 1376SOL     OW15760   2.365   1.422  15.051  0.2898 -0.0110  0.5468
 1376SOL    HW115761   2.385   1.408  15.143  0.3291 -1.2367  0.3554
 1376SOL    HW215762   2.270   1.424  15.046  0.3073  0.2550  0.2844
 1377SOL     OW15763   2.093   1.115   7.466  0.0007 -0.1425 -0.5822
 1377SOL    HW115764   2.041   1.191   7.493  0.2961  0.1734 -0.8986
 1377SOL    HW215765   2.139   1.150   7.389  0.6577 -1.5983 -0.8589
 1378SOL     OW15766   0.317   0.856   1.631 -0.2173  0.1892  0.0908
 1378SOL    HW115767   0.265   0.893   1.702 -1.2232 -1.6001  0.2986
 1378SOL    HW215768   0.247   0.861   1.565  0.2730  0.4250 -0.4104
 1379SOL     OW15769   3.391   4.724   9.397 -0.2919 -0.0432  0.1297
 1379SOL    HW115770   3.481   4.692   9.411 -0.3450 -0.8798 -1.4982
 1379SOL    HW215771   3.406   0.078   9.427 -0.8087  0.7627 -2.0454
 1380SOL     OW15772   1.780   4.475   8.919 -0.3026 -0.1475  0.4938
 1380SOL    HW115773   1.750   4.417   8.849 -0.6220  1.3719 -0.6220
 1380SOL    HW215774   1.864   4.437   8.944  0.4161  0.3181 -1.2444
 1381SOL     OW15775   0.956   0.047   3.984 -0.3906 -0.2736 -0.4020
 1381SOL    HW115776   0.864   0.072   3.982 -0.8054 -1.8000 -0.3477
 1381SOL    HW215777   0.993   0.082   3.903  0.8251 -2.9580 -1.0168
 1382SOL     OW15778   1.677   1.557   2.432 -0.5421 -0.1917 -0.1339
 1382SOL    HW115779   1.627   1.593   2.505 -1.7408 -1.7498 -0.1867
 1382SOL    HW215780   1.675   1.630   2.370  1.0084 -1.4600 -1.6597
 1383SOL     OW15781   1.509   0.611  10.171  0.4199 -0.3396  0.5675
 1383SOL    HW115782   1.437   0.673  10.164 -1.0402 -2.1368 -0.3835
 1383SOL    HW215783   1.564   0.664  10.229  1.3300  0.9996 -1.5486
 1384SOL     OW15784   1.209   4.273   5.036 -0.4108  0.1435  0.5502
 1384SOL    HW115785   1.191   4.327   5.113  1.2278 -0.8839  1.6555
 1384SOL    HW215786   1.303   4.291   5.027 -0.8899  2.1292 -0.3925
 1385SOL     OW15787   3.858   3.046   9.416 -0.2507 -0.5609  0.1032
 1385SOL    HW115788   3.927   3.027   9.479  0.4884 -0.4419 -0.6701
 1385SOL    HW215789   3.782   3.011   9.462 -1.1542 -2.0171 -2.5155
 1386SOL     OW15790   1.982   3.734  13.549 -0.1068  0.0705 -0.6072
 1386SOL    HW115791   1.925   3.764  13.620 -0.0649  0.4969 -0.7522
 1386SOL    HW215792   2.036   3.810  13.525 -0.2206  1.0686  2.3319
 1387SOL     OW15793   1.722   3.642   7.038  0.1303 -0.0448 -0.3398
 1387SOL    HW115794   1.687   3.650   6.949 -0.8295 -0.7389 -0.0278
 1387SOL    HW215795   1.690   3.555   7.062 -0.8279  0.6425  0.8270
 1388SOL     OW15796   0.744   3.004   4.939  0.0617  0.0772 -0.5429
 1388SOL    HW115797   0.760   2.910   4.932  3.6378  0.7098 -0.8897
 1388SOL    HW215798   0.823   3.025   4.989 -0.1784 -1.3343  0.4176
 1389SOL     OW15799   4.620   0.144  16.045 -0.0123 -0.0080 -0.6514
 1389SOL    HW115800   4.531   0.149  16.010  0.4050  0.1131 -1.7118
 1389SOL    HW215801   4.675   0.107  15.976 -0.5622 -0.5505 -0.7931
 1390SOL     OW15802   1.352   0.945   7.692 -0.3254 -0.4668  0.3896
 1390SOL    HW115803   1.414   0.922   7.761  1.0004 -1.1408 -1.0161
 1390SOL    HW215804   1.328   1.028   7.733 -0.5560  0.4294 -1.5604
 1391SOL     OW15805   3.706   2.908   7.259 -0.2327  0.2628 -0.2704
 1391SOL    HW115806   3.774   2.975   7.251  1.1805 -1.1049  0.1875
 1391SOL    HW215807   3.722   2.869   7.345  0.6961 -0.2525 -0.6732
 1392SOL     OW15808   2.974   4.175  14.403  0.1535 -0.7298  0.0210
 1392SOL    HW115809   3.007   4.100  14.452  1.0046 -1.1974 -1.2674
 1392SOL    HW215810   3.030   4.246  14.436 -1.2156  0.7133 -0.7630
 1393SOL     OW15811   3.691   3.611   9.018 -0.1945 -0.6620  0.2688
 1393SOL    HW115812   3.723   3.549   8.952 -1.0256 -0.2855 -0.4932
 1393SOL    HW215813   3.656   3.683   8.965 -0.4116  0.6328  2.1804
 1394SOL     OW15814   1.944   1.116   7.730  0.4418  0.6669 -0.4771
 1394SOL    HW115815   2.017   1.141   7.673  1.0259 -0.1040 -0.0582
 1394SOL    HW215816   1.985   1.100   7.815  0.2988 -1.9858 -0.8917
 1395SOL     OW15817   1.509   1.887   3.912  0.5663 -0.0441  0.1081
 1395SOL    HW115818   1.478   1.918   3.827 -0.9303 -2.5227 -0.2378
 1395SOL    HW215819   1.486   1.963   3.966 -2.5997  0.1813 -1.5544
 1396SOL     OW15820   4.536   1.321   4.216  0.1396 -0.1664 -0.0179
 1396SOL    HW115821   4.599   1.250   4.230 -0.7502 -1.0085 -0.3037
 1396SOL    HW215822   4.594   1.396   4.230 -0.0998  0.0823 -0.3443
 1397SOL     OW15823   2.869   4.041   7.492 -0.5096  0.1599 -0.2475
 1397SOL    HW115824   2.936   4.103   7.464  2.1058 -1.2334  3.1036
 1397SOL    HW215825   2.889   3.967   7.435  0.5991  0.2024  0.0946
 1398SOL     OW15826   4.111   2.246   3.164 -0.3719 -0.2365  0.2282
 1398SOL    HW115827   4.137   2.156   3.145 -0.9767 -0.2390 -0.5764
 1398SOL    HW215828   4.145   2.301   3.093 -2.3593 -1.3910 -1.5840
 1399SOL     OW15829   4.214   2.495   8.148 -0.4474  0.6460 -0.2537
 1399SOL    HW115830   4.137   2.464   8.100 -0.9954  0.2656  0.8831
 1399SOL    HW215831   4.281   2.426   8.145 -0.1255  1.0556 -2.6783
 1400SOL     OW15832   4.221   3.660   4.598  0.3584  0.0966 -0.4737
 1400SOL    HW115833   4.167   3.591   4.560  1.6309 -0.5500 -1.1060
 1400SOL    HW215834   4.207   3.640   4.691 -0.7022  0.4777 -0.5549
 1401SOL     OW15835   3.814   0.619   1.382  0.3350  0.4821 -0.1853
 1401SOL    HW115836   3.803   0.539   1.434  1.8190  0.4459  0.0698
 1401SOL    HW215837   3.735   0.628   1.330 -1.1449  1.0287  2.1575
 1402SOL     OW15838   1.969   2.273   3.409  0.4027 -0.0879 -0.0022
 1402SOL    HW115839   1.995   2.334   3.477 -1.5208  0.1536  0.5253
 1402SOL    HW215840   2.053   2.233   3.387 -0.1972 -1.0293 -0.6036
 1403SOL     OW15841   3.047   3.229   3.300  0.8498 -0.1668  0.3761
 1403SOL    HW115842   3.071   3.305   3.247 -0.1538  0.3205  0.6303
 1403SOL    HW215843   2.953   3.221   3.283  0.8979  2.3860 -1.0265
 1404SOL     OW15844   1.082   1.314   8.257  0.3666  0.4364  0.6062
 1404SOL    HW115845   1.058   1.402   8.285  0.6064  0.6262  0.2054
 1404SOL    HW215846   1.044   1.265   8.330  1.2262 -0.0138  0.7550
 1405SOL     OW15847   4.398   1.542   3.989  0.0402  0.5402  0.4421
 1405SOL    HW115848   4.434   1.498   3.912 -1.0784 -2.1495  1.4486
 1405SOL    HW215849   4.413   1.633   3.963  0.5006  0.9391  2.0899
 1406SOL     OW15850   2.546   4.680   2.691 -0.2537 -0.1944  0.4888
 1406SOL    HW115851   2.609   4.679   2.619 -1.5030  2.3386 -0.6220
 1406SOL    HW215852   2.522   4.588   2.703  0.4746 -0.5905 -1.2035
 1407SOL     OW15853   3.865   0.784   4.432  0.7278 -0.3780  0.5662
 1407SOL    HW115854   3.910   0.699   4.433  0.5241 -0.5137 -1.9234
 1407SOL    HW215855   3.784   0.771   4.384  0.8702  0.1538  0.1848
 1408SOL     OW15856   4.697   1.340  15.313 -0.0834  0.0673  0.4588
 1408SOL    HW115857   0.028   1.274  15.336  0.1452  0.7850  1.8574
 1408SOL    HW215858   4.636   1.349  15.387 -2.2898 -0.7046 -1.2760
 1409SOL     OW15859   3.979   2.472   8.037  0.0050  0.6776  0.5843
 1409SOL    HW115860   3.935   2.499   8.117  3.6492  0.6881  2.5763
 1409SOL    HW215861   3.899   2.458   7.986 -0.4399 -0.2141  1.5300
 1410SOL     OW15862   4.167   0.580   3.862 -0.3636  0.2108 -0.0581
 1410SOL    HW115863   4.143   0.516   3.929 -0.1687 -0.7972 -0.9564
 1410SOL    HW215864   4.256   0.550   3.846 -1.1331 -1.7056 -0.6628
 1411SOL     OW15865   3.866   1.505   8.009 -0.2340  0.4981 -0.3698
 1411SOL    HW115866   3.909   1.434   7.961  1.6861  0.2515  1.6911
 1411SOL    HW215867   3.858   1.574   7.943  1.9936  0.0904 -1.0867
 1412SOL     OW15868   1.647   4.055   6.711  0.3343  0.0132 -0.5561
 1412SOL    HW115869   1.577   3.990   6.706 -0.5108  1.1616 -3.4031
 1412SOL    HW215870   1.722   4.005   6.743 -0.5599 -0.9383  0.0517
 1413SOL     OW15871   4.636   3.793   6.158  0.0798 -0.8335 -0.7154
 1413SOL    HW115872   4.585   3.715   6.179  0.3887  0.4733  4.8117
 1413SOL    HW215873   4.604   3.863   6.214  2.1798 -0.2045 -0.3075
 1414SOL     OW15874   2.369   1.339   6.066 -0.5281  0.3395  0.5295
 1414SOL    HW115875   2.444   1.295   6.026  0.8034  0.8134  2.4561
 1414SOL    HW215876   2.325   1.271   6.116  1.1996  0.0375  1.6659
 1415SOL     OW15877   4.394   3.236   5.086  0.4106  0.4739  0.0519
 1415SOL    HW115878   4.338   3.245   5.009  0.8139 -0.4758 -0.3455
 1415SOL    HW215879   4.479   3.264   5.052  0.3779  1.7037  0.9840
 1416SOL     OW15880   0.095   3.000  12.956 -0.1195  0.0912  0.3289
 1416SOL    HW115881   0.189   3.006  12.971  0.1687  1.9793 -2.4356
 1416SOL    HW215882   0.073   2.956  13.039  0.4636 -0.2631  0.2972
 1417SOL     OW15883   0.857   4.731   8.789  0.2743 -0.6993  0.2935
 1417SOL    HW115884   0.938   4.700   8.829  0.8465 -0.1759 -0.4629
 1417SOL    HW215885   0.883   0.038   8.707 -0.6432  1.7356  1.2544
 1418SOL     OW15886   2.326   3.584   2.702 -0.8832 -0.8695  0.3969
 1418SOL    HW115887   2.278   3.609   2.781 -2.1561 -0.1506 -0.6297
 1418SOL    HW215888   2.359   3.671   2.677 -0.6140 -1.6533 -1.9658
 1419SOL     OW15889   0.810   0.823   5.354 -0.3382 -0.1141 -0.6003
 1419SOL    HW115890   0.893   0.777   5.367  0.1717  0.6380 -1.1408
 1419SOL    HW215891   0.848   0.909   5.335  1.3514 -0.8464 -0.5457
 1420SOL     OW15892   2.440   0.946  10.589 -0.3197  0.3218  0.3309
 1420SOL    HW115893   2.488   1.028  10.602  0.5254 -0.3022  1.1441
 1420SOL    HW215894   2.502   0.888  10.633 -0.3293  0.5545  0.6518
 1421SOL     OW15895   1.497   3.526  13.622 -1.0122  0.1289  0.2457
 1421SOL    HW115896   1.470   3.445  13.666  0.1886  0.1658  1.0563
 1421SOL    HW215897   1.593   3.529  13.622 -0.9265 -2.3332  2.3724
 1422SOL     OW15898   0.649   4.218   4.250  0.1943 -0.4153 -1.2460
 1422SOL    HW115899   0.594   4.187   4.179  1.0291 -1.6006 -1.3727
 1422SOL    HW215900   0.688   4.295   4.208  0.0216 -0.2972 -1.1914
 1423SOL     OW15901   2.627   3.898   3.189 -0.0137  0.3932  0.1722
 1423SOL    HW115902   2.708   3.854   3.162 -0.7929  0.3075 -2.0809
 1423SOL    HW215903   2.594   3.919   3.102  1.8287 -0.4046 -0.7155
 1424SOL     OW15904   1.000   4.291   3.283  0.1970 -0.1647 -0.0372
 1424SOL    HW115905   1.068   4.234   3.249 -0.5545 -1.2714  0.3281
 1424SOL    HW215906   0.985   4.248   3.367 -0.4729  1.8527  0.8931
 1425SOL     OW15907   1.526   1.396   8.356 -0.0233  0.0998 -0.1436
 1425SOL    HW115908   1.482   1.474   8.321 -4.3440 -3.2057 -2.0129
 1425SOL    HW215909   1.526   1.346   8.274 -0.7558 -1.3631  0.7632
 1426SOL     OW15910   1.653   1.396   7.126  0.6460 -0.4207  0.2394
 1426SOL    HW115911   1.659   1.340   7.204  0.0632 -0.0634  0.5417
 1426SOL    HW215912   1.589   1.346   7.076 -2.9779  2.3361  2.0496
 1427SOL     OW15913   1.626   1.442  13.753 -0.1304 -0.4512 -0.1920
 1427SOL    HW115914   1.687   1.480  13.816 -1.4294  2.1129 -0.4779
 1427SOL    HW215915   1.676   1.361  13.742  0.7952  0.2060 -0.7622
 1428SOL     OW15916   1.399   1.857  13.617  0.4400  0.4628  0.6399
 1428SOL    HW115917   1.495   1.853  13.616  0.4883  1.7417  0.0622
 1428SOL    HW215918   1.374   1.828  13.705 -1.0133  1.3305  0.5029
 1429SOL     OW15919   4.314   0.619   6.568  0.2111 -0.1988 -0.1673
 1429SOL    HW115920   4.399   0.664   6.575  0.7386 -1.3728  0.9940
 1429SOL    HW215921   4.330   0.547   6.507  1.7652  1.2586 -1.4809
 1430SOL     OW15922   0.942   1.842   7.461 -0.1389  0.0304 -0.7206
 1430SOL    HW115923   0.919   1.915   7.404  5.1071  2.6075  0.4698
 1430SOL    HW215924   1.037   1.839   7.452  0.0093  0.5649  0.6931
 1431SOL     OW15925   3.546   2.725   1.537 -0.0938  0.4288 -0.1151
 1431SOL    HW115926   3.588   2.770   1.610  0.9878  1.3411 -1.3032
 1431SOL    HW215927   3.473   2.786   1.527 -1.7030 -1.5142 -0.3400
 1432SOL     OW15928   1.073   3.993  11.841 -0.4635  0.0676  0.3631
 1432SOL    HW115929   1.162   3.983  11.807 -0.7959 -0.0975 -0.4555
 1432SOL    HW215930   1.026   3.919  11.803  1.1432 -1.8392  2.0978
 1433SOL     OW15931   1.870   3.727  14.112 -0.3236 -0.5797 -0.5026
 1433SOL    HW115932   1.816   3.761  14.184  1.6930 -0.3871  0.9076
 1433SOL    HW215933   1.957   3.759  14.137 -1.1646  0.2264  1.4191
 1434SOL     OW15934   3.485   3.317   0.181 -0.2688 -0.0276  0.6858
 1434SOL    HW115935   3.472   3.223   0.193 -0.8396  0.0688  0.7869
 1434SOL    HW215936   3.516   3.329   0.091 -1.7936  0.7681  0.2709
 1435SOL     OW15937   4.055   3.311   3.884  0.4543 -0.1254  0.5642
 1435SOL    HW115938   4.114   3.276   3.817 -0.5101 -1.4714  0.4230
 1435SOL    HW215939   4.061   3.404   3.860  0.5104 -0.2133  0.2381
 1436SOL     OW15940   2.828   1.198   8.850  0.1092 -0.2399  0.0164
 1436SOL    HW115941   2.887   1.273   8.854  0.0195 -0.0388 -2.2414
 1436SOL    HW215942   2.747   1.236   8.816  0.7746 -0.0252 -1.3248
 1437SOL     OW15943   0.696   2.275   1.509  0.0686  0.6815 -0.1230
 1437SOL    HW115944   0.726   2.332   1.580  2.4204  2.2010 -2.3421
 1437SOL    HW215945   0.602   2.293   1.509 -0.0816 -0.1020  0.0160
 1438SOL     OW15946   2.271   3.853   3.069  0.1573 -0.3770 -0.2049
 1438SOL    HW115947   2.270   3.948   3.059  0.2460 -0.3184  0.3583
 1438SOL    HW215948   2.337   3.858   3.138 -1.0234  3.8603  0.5931
 1439SOL     OW15949   0.213   0.701   1.940  0.6740 -0.3526 -0.5824
 1439SOL    HW115950   0.142   0.690   2.003  0.3223 -2.2020 -1.2987
 1439SOL    HW215951   0.156   0.695   1.864 -1.2675 -2.4826  1.0415
 1440SOL     OW15952   1.470   2.048   6.683 -0.0343  0.2373  0.8481
 1440SOL    HW115953   1.558   2.026   6.651 -0.2450  2.3733 -1.2595
 1440SOL    HW215954   1.425   1.964   6.685 -1.0160  0.8287  3.7109
 1441SOL     OW15955   2.539   2.860  10.274 -0.2639 -0.4215  0.0138
 1441SOL    HW115956   2.615   2.801  10.279  0.2763  0.3634  0.9655
 1441SOL    HW215957   2.566   2.913  10.199 -2.3622 -0.7412 -0.9643
 1442SOL     OW15958   0.236   4.514   7.127 -0.5411 -0.0701 -0.8446
 1442SOL    HW115959   0.183   4.468   7.062  1.1588 -0.7245 -1.7840
 1442SOL    HW215960   0.177   4.575   7.171 -0.8981 -2.2590  1.7247
 1443SOL     OW15961   3.764   4.173  11.976  0.1004  0.7604 -0.2181
 1443SOL    HW115962   3.708   4.189  12.052  0.5833 -0.7554  0.4544
 1443SOL    HW215963   3.773   4.264  11.946  1.3100  0.5026 -0.6446
 1444SOL     OW15964   2.599   1.155  14.787 -0.4310 -0.1255  0.5109
 1444SOL    HW115965   2.680   1.154  14.737  0.2523  1.3656  1.5797
 1444SOL    HW215966   2.619   1.087  14.851 -1.0520  0.5423  1.4370
 1445SOL     OW15967   0.657   2.923   5.397 -0.9570 -0.3131 -0.2082
 1445SOL    HW115968   0.593   2.852   5.400 -0.6190 -0.5175  2.3484
 1445SOL    HW215969   0.734   2.875   5.367 -0.1948  0.9636 -0.3025
 1446SOL     OW15970   1.267   1.482   1.195 -0.3022  0.3417  0.0432
 1446SOL    HW115971   1.355   1.473   1.232  0.7327  0.2096 -2.4702
 1446SOL    HW215972   1.209   1.458   1.267  0.0731  1.7833  0.8300
 1447SOL     OW15973   3.925   1.761   7.307  0.6188  0.1109  0.3349
 1447SOL    HW115974   3.923   1.729   7.217  1.3017 -3.1737  1.5128
 1447SOL    HW215975   3.925   1.857   7.297  1.7442 -0.1106 -1.7794
 1448SOL     OW15976   2.648   1.376   6.153  0.3258 -0.7669 -0.7909
 1448SOL    HW115977   2.645   1.308   6.086  0.5087  0.3617 -1.9405
 1448SOL    HW215978   2.733   1.411   6.126  0.3686 -0.6353 -0.4826
 1449SOL     OW15979   1.076   3.388   1.345  0.8053 -0.5587 -0.5098
 1449SOL    HW115980   1.028   3.308   1.368  1.4098 -0.3747  1.3663
 1449SOL    HW215981   1.160   3.367   1.385  0.2176 -0.6407  0.6713
 1450SOL     OW15982   2.946   4.445   6.050  0.4202  0.0129  0.1867
 1450SOL    HW115983   3.041   4.457   6.048  0.2592  1.3076  0.2486
 1450SOL    HW215984   2.929   4.379   6.117  0.6735 -0.6242 -0.3876
 1451SOL     OW15985   3.009   4.633  12.937  0.4487 -0.2531 -0.3331
 1451SOL    HW115986   2.993   4.638  12.842  1.7492 -2.2122 -0.6574
 1451SOL    HW215987   2.959   4.553  12.953  1.0090 -0.1964  1.6477
 1452SOL     OW15988   0.611   3.529   5.838  0.4039  0.3115  0.4495
 1452SOL    HW115989   0.574   3.537   5.926  1.0465 -0.3252  0.7804
 1452SOL    HW215990   0.623   3.434   5.838 -2.9020 -0.1102  2.1054
 1453SOL     OW15991   3.114   2.704   3.272  0.5993 -0.0043  0.4241
 1453SOL    HW115992   3.092   2.792   3.303  0.8539  0.0650  0.4022
 1453SOL    HW215993   3.067   2.653   3.339  0.8640  0.7585  1.1848
 1454SOL     OW15994   2.134   2.484   3.850 -0.1829  0.0815 -0.0363
 1454SOL    HW115995   2.111   2.426   3.778  0.0416 -0.9623  0.7406
 1454SOL    HW215996   2.049   2.519   3.878 -0.9405  0.0153 -2.2373
 1455SOL     OW15997   4.723   2.766  14.737  0.2166  0.2347  0.8121
 1455SOL    HW115998   4.704   2.840  14.795  0.7947  0.3401  0.8722
 1455SOL    HW215999   0.018   2.696  14.796  0.1115  0.7680  1.5082
 1456SOL     OW16000   4.417   1.578  11.994  0.1851 -0.0618 -0.1647
 1456SOL    HW116001   4.417   1.644  12.063 -1.2385 -0.9546  0.7054
 1456SOL    HW216002   4.358   1.626  11.935  0.2560 -0.7919 -0.8371
 1457SOL     OW16003   0.852   0.984   4.468  0.6310 -1.2181  0.3361
 1457SOL    HW116004   0.937   0.942   4.481  1.5830  1.0702  1.4415
 1457SOL    HW216005   0.808   0.909   4.428  0.3409 -0.8494 -0.0326
 1458SOL     OW16006   1.663   2.330   5.086  0.2149  0.6273 -0.0277
 1458SOL    HW116007   1.706   2.402   5.132 -1.4298  1.3575  0.3422
 1458SOL    HW216008   1.736   2.268   5.097 -0.0868 -0.0325 -1.7656
 1459SOL     OW16009   3.136   3.685   5.195  0.5012  0.1756  0.2482
 1459SOL    HW116010   3.086   3.651   5.121  0.3197 -1.3011  1.0528
 1459SOL    HW216011   3.205   3.619   5.197 -1.5230 -1.9522 -0.4315
 1460SOL     OW16012   3.777   2.746   9.233  0.2381 -0.3732  0.5021
 1460SOL    HW116013   3.769   2.654   9.206 -1.9141  0.6416 -2.3279
 1460SOL    HW216014   3.854   2.773   9.183 -1.0816  2.8060  0.2149
 1461SOL     OW16015   3.242   1.384   3.230 -0.1760  0.4330 -0.6695
 1461SOL    HW116016   3.171   1.328   3.259  1.2939 -1.9754 -1.7465
 1461SOL    HW216017   3.201   1.470   3.225  0.2771  0.6213 -1.1390
 1462SOL     OW16018   4.160   2.816   4.278 -0.2244 -0.8058  0.3661
 1462SOL    HW116019   4.110   2.891   4.246  1.2359 -0.0269 -0.0716
 1462SOL    HW216020   4.162   2.826   4.373  0.1408 -0.8123  0.3568
 1463SOL     OW16021   3.327   4.251  12.193 -0.3140 -0.3375  0.4071
 1463SOL    HW116022   3.284   4.174  12.157 -0.8042  0.7161 -1.2307
 1463SOL    HW216023   3.259   4.295  12.243  0.8046  1.1710  0.5917
 1464SOL     OW16024   3.463   3.386   8.491 -0.4336 -0.1919 -0.0740
 1464SOL    HW116025   3.522   3.455   8.462  0.1663 -0.4312  0.5795
 1464SOL    HW216026   3.381   3.410   8.449 -2.0226 -0.3264  2.9445
 1465SOL     OW16027   1.597   0.530   3.423  0.7097 -0.0667 -0.0976
 1465SOL    HW116028   1.657   0.576   3.364  1.6186 -1.6873 -0.4137
 1465SOL    HW216029   1.593   0.442   3.386  2.4172  0.6809 -2.0529
 1466SOL     OW16030   2.974   0.219   5.111 -0.3473  0.1357  0.8610
 1466SOL    HW116031   2.976   0.181   5.023  1.7356  0.9224  0.5748
 1466SOL    HW216032   2.954   0.309   5.088  1.6436  0.3697  0.0263
 1467SOL     OW16033   1.580   4.134   0.630  0.1520  0.6744 -0.1533
 1467SOL    HW116034   1.598   4.200   0.564  1.1741  1.2132  0.6693
 1467SOL    HW216035   1.490   4.109   0.611  0.1174  2.6009 -2.4403
 1468SOL     OW16036   4.104   3.262  13.442 -0.0370  0.1176 -0.3838
 1468SOL    HW116037   4.088   3.349  13.405 -2.1880 -0.2791 -0.3748
 1468SOL    HW216038   4.194   3.265  13.476  0.3501 -0.5603 -1.3421
 1469SOL     OW16039   2.437   2.381  15.505 -0.4523 -0.1993 -0.3200
 1469SOL    HW116040   2.388   2.425  15.574  1.3135  3.5730 -1.5259
 1469SOL    HW216041   2.525   2.369  15.541 -0.1574  1.0704 -0.6438
 1470SOL     OW16042   0.929   0.674  17.371 -0.1477  0.3111  0.4493
 1470SOL    HW116043   0.861   0.720  17.419 -1.8243  0.3224 -1.9608
 1470SOL    HW216044   0.888   0.667  17.285  0.7486 -1.6950  0.1659
 1471SOL     OW16045   2.422   1.968   0.672 -0.2986 -0.5578 -0.2822
 1471SOL    HW116046   2.402   2.031   0.603 -0.0220 -1.4507 -1.1809
 1471SOL    HW216047   2.512   1.993   0.690 -0.4803  0.3787 -0.6786
 1472SOL     OW16048   0.922   1.478   8.744 -0.0664 -0.3602  0.0957
 1472SOL    HW116049   0.847   1.526   8.779 -0.1744  0.7092 -1.5918
 1472SOL    HW216050   0.979   1.480   8.821 -1.7632  0.2955  1.3288
 1473SOL     OW16051   4.154   4.541   4.763 -0.3688 -0.5424  0.4367
 1473SOL    HW116052   4.086   4.599   4.730 -0.3398 -0.3403  0.7286
 1473SOL    HW216053   4.125   4.459   4.723 -0.6221 -0.8458  1.2336
 1474SOL     OW16054   4.457   0.510   8.770  0.3069 -0.2815  0.2293
 1474SOL    HW116055   4.399   0.583   8.791  0.6238  0.1195 -0.2973
 1474SOL    HW216056   4.404   0.438   8.806 -1.7617  1.5459  0.8914
 1475SOL     OW16057   3.844   0.943   2.012 -0.5051 -0.1609  0.3944
 1475SOL    HW116058   3.801   1.028   2.007 -3.0401 -1.5713 -1.9604
 1475SOL    HW216059   3.790   0.898   1.946  0.9367 -0.5362 -0.5245
 1476SOL     OW16060   2.042   2.560   5.143  0.5576  0.6941 -0.2981
 1476SOL    HW116061   2.114   2.555   5.080 -2.0785 -0.1348 -3.2568
 1476SOL    HW216062   2.069   2.635   5.195 -0.5204  0.0789  1.1248
 1477SOL     OW16063   2.821   1.007   5.605 -0.2477 -0.4411  0.2464
 1477SOL    HW116064   2.878   1.019   5.681  1.2001 -0.9116 -0.7662
 1477SOL    HW216065   2.809   0.912   5.611 -0.4008 -0.2180  3.9457
 1478SOL     OW16066   2.590   4.611   1.681 -0.3838 -0.1028 -0.3955
 1478SOL    HW116067   2.597   4.545   1.750 -1.3667  0.4310  0.1985
 1478SOL    HW216068   2.591   4.560   1.600  0.6430  2.1487 -1.8031
 1479SOL     OW16069   1.966   1.345   3.159 -0.4801  0.4760  0.6899
 1479SOL    HW116070   1.969   1.383   3.071 -0.3321 -2.5666 -0.6232
 1479SOL    HW216071   1.982   1.252   3.144  1.3442  1.3489 -2.7659
 1480SOL     OW16072   0.613   1.527   1.253 -0.5401 -0.0269 -0.4897
 1480SOL    HW116073   0.633   1.602   1.197 -0.1881  0.9705  0.9429
 1480SOL    HW216074   0.673   1.461   1.220 -1.4371  0.1347 -2.4279
 1481SOL     OW16075   4.314   3.811   2.289  0.9619 -0.0138 -0.5487
 1481SOL    HW116076   4.339   3.900   2.313  1.2652 -0.0615 -0.6843
 1481SOL    HW216077   4.399   3.772   2.267  1.5804  1.9390 -1.6332
 1482SOL     OW16078   3.922   0.035   6.715 -0.6216  0.1807  0.0355
 1482SOL    HW116079   4.000   0.034   6.659 -0.3696 -2.5160  0.4274
 1482SOL    HW216080   3.849   0.057   6.658 -0.5078  3.0888  1.0235
 1483SOL     OW16081   1.420   2.851   7.446 -0.1833 -0.2445 -0.3416
 1483SOL    HW116082   1.401   2.937   7.483  0.0823  0.4100 -1.7033
 1483SOL    HW216083   1.441   2.802   7.525  2.2633 -0.1235 -0.9202
 1484SOL     OW16084   2.049   1.306   0.795 -0.1403 -0.6237  0.6289
 1484SOL    HW116085   2.090   1.330   0.712  0.2779  0.3960  1.1321
 1484SOL    HW216086   2.099   1.227   0.816 -1.4712 -0.7854  3.1719
 1485SOL     OW16087   1.270   2.351   0.519 -0.9219 -0.2939  0.0158
 1485SOL    HW116088   1.354   2.316   0.490 -0.8360 -2.0238  2.3586
 1485SOL    HW216089   1.288   2.445   0.520 -1.2482 -0.2174 -1.2574
 1486SOL     OW16090   2.614   4.598   2.084  0.5802 -0.5268 -0.2502
 1486SOL    HW116091   2.701   4.566   2.057  1.5281  1.0346  0.9446
 1486SOL    HW216092   2.561   4.562   2.013 -0.6389 -1.7430  1.2758
 1487SOL     OW16093   1.305   4.697   4.924 -0.2506 -1.2191 -0.2130
 1487SOL    HW116094   1.311   4.647   4.843 -2.9433 -1.9207 -0.0053
 1487SOL    HW216095   1.374   4.654   4.975  0.8712 -0.3766 -1.0466
 1488SOL     OW16096   3.158   3.654  12.834  0.2824  0.5263  0.0932
 1488SOL    HW116097   3.179   3.701  12.754  0.1243 -0.4604 -0.5331
 1488SOL    HW216098   3.079   3.698  12.866 -0.3312 -1.5816  1.5357
 1489SOL     OW16099   1.016   1.462  10.985  0.4715 -0.1393 -0.5277
 1489SOL    HW116100   1.010   1.544  10.935 -0.0710 -0.3161 -0.7527
 1489SOL    HW216101   0.928   1.440  11.015  0.4115  0.5991 -0.1584
 1490SOL     OW16102   3.575   4.488   3.959 -0.3302  0.5897  0.0679
 1490SOL    HW116103   3.583   4.462   3.867  3.7260 -2.1988  1.2547
 1490SOL    HW216104   3.482   4.478   3.979  0.1157  1.0987  2.4229
 1491SOL     OW16105   1.138   3.689  16.878  0.6420 -0.2339  0.5391
 1491SOL    HW116106   1.128   3.712  16.785  1.6507 -0.3713  0.4004
 1491SOL    HW216107   1.054   3.653  16.907  0.0701 -0.0820 -0.8960
 1492SOL     OW16108   0.666   2.064  12.649 -0.0688 -0.4091  0.1523
 1492SOL    HW116109   0.631   2.153  12.644  1.4024  0.1163 -1.0163
 1492SOL    HW216110   0.609   2.027  12.715 -0.3023 -1.2914 -0.5493
 1493SOL     OW16111   3.213   1.762  16.497  0.6925  0.1579  0.2749
 1493SOL    HW116112   3.146   1.793  16.558 -1.0092 -0.5103 -1.2716
 1493SOL    HW216113   3.276   1.724  16.557 -0.1753  2.2347  2.4953
 1494SOL     OW16114   0.877   4.230   6.318 -0.0212  0.0189 -0.2702
 1494SOL    HW116115   0.920   4.223   6.404 -0.1291 -1.6909 -0.3566
 1494SOL    HW216116   0.850   4.140   6.307 -1.7598  0.7662 -1.9285
 1495SOL     OW16117   1.382   3.063   2.316  0.1118  0.1915 -0.1582
 1495SOL    HW116118   1.350   2.973   2.325 -2.8952  1.0739 -1.9833
 1495SOL    HW216119   1.307   3.121   2.300 -1.4077 -2.2222 -1.7832
 1496SOL     OW16120   0.713   1.019   8.956 -0.4373 -0.4617 -0.4796
 1496SOL    HW116121   0.696   0.926   8.972 -0.7203 -0.3477 -0.1284
 1496SOL    HW216122   0.804   1.019   8.986 -0.5246 -0.2041 -0.2134
 1497SOL     OW16123   2.192   1.212   2.874  0.2247  0.3758  0.7141
 1497SOL    HW116124   2.283   1.201   2.902  0.0615  2.2359  1.9776
 1497SOL    HW216125   2.202   1.245   2.785 -1.4223 -0.9769  0.0309
 1498SOL     OW16126   0.866   1.205   1.577  0.2903  0.9088  0.1063
 1498SOL    HW116127   0.961   1.212   1.572  0.2457  0.3276 -1.4601
 1498SOL    HW216128   0.844   1.270   1.644 -1.0625 -0.6269  1.1602
 1499SOL     OW16129   4.712   2.860   5.506 -0.0247 -0.6557  0.4311
 1499SOL    HW116130   4.724   2.947   5.469 -0.5006 -1.1661 -0.9183
 1499SOL    HW216131   4.632   2.841   5.457 -0.7462  0.4988  1.1851
 1500SOL     OW16132   4.540   0.238   2.453  0.1710 -0.2900  0.4341
 1500SOL    HW116133   4.607   0.272   2.513 -1.4534 -1.2224  2.7748
 1500SOL    HW216134   4.603   0.191   2.398 -0.1099 -0.2447  0.0781
 1501SOL     OW16135   1.306   0.601   7.600 -0.1333 -0.4445  0.3050
 1501SOL    HW116136   1.276   0.528   7.654  2.4303 -1.1011  0.8483
 1501SOL    HW216137   1.250   0.584   7.525  1.6185  3.1713 -1.8065
 1502SOL     OW16138   0.586   3.680   2.532  0.1723 -0.3329 -0.2101
 1502SOL    HW116139   0.678   3.698   2.515  0.3420 -1.0551 -0.0557
 1502SOL    HW216140   0.578   3.716   2.620 -0.6055  1.7647 -1.1397
 1503SOL     OW16141   0.714   4.538   5.331  0.2474  0.2424  0.2557
 1503SOL    HW116142   0.706   4.470   5.398  1.1665 -1.2712 -1.1813
 1503SOL    HW216143   0.624   4.542   5.298  1.1532  1.0379 -2.1043
 1504SOL     OW16144   2.051   1.079   4.112  0.3876 -0.0699 -0.1546
 1504SOL    HW116145   2.075   1.172   4.106 -2.4090  0.5481 -1.7047
 1504SOL    HW216146   2.138   1.045   4.129 -1.2031 -3.6124  0.9528
 1505SOL     OW16147   4.240   2.085   2.566  0.2407  0.2981 -0.7435
 1505SOL    HW116148   4.327   2.115   2.592  0.9677 -0.2894 -2.4925
 1505SOL    HW216149   4.270   2.011   2.513 -0.8096 -1.7188  1.4789
 1506SOL     OW16150   1.265   4.111   3.304  0.0543  0.0962 -0.1535
 1506SOL    HW116151   1.193   4.052   3.325  0.9352  0.0920  2.7483
 1506SOL    HW216152   1.305   4.060   3.233  0.0319 -1.1014  0.6901
 1507SOL     OW16153   4.030   1.330   8.504  0.1252  0.7463  0.2840
 1507SOL    HW116154   4.088   1.267   8.547 -0.5466  0.6249  1.0265
 1507SOL    HW216155   3.987   1.286   8.430  0.7420  0.0830  0.3233
 1508SOL     OW16156   2.362   1.062   7.834  0.1043  0.3524  0.0855
 1508SOL    HW116157   2.455   1.082   7.823 -0.5652  2.9288 -0.8622
 1508SOL    HW216158   2.350   1.012   7.753 -2.7564 -0.7562  1.1609
 1509SOL     OW16159   0.595   3.124  14.750 -0.7494 -0.0635 -0.0388
 1509SOL    HW116160   0.662   3.192  14.751 -0.1903 -0.5779 -2.1350
 1509SOL    HW216161   0.647   3.059  14.797 -0.8949 -0.4860 -0.4613
 1510SOL     OW16162   3.319   0.656  16.277 -0.7303  0.0556  0.1361
 1510SOL    HW116163   3.292   0.726  16.337  2.4000 -2.0617  3.9534
 1510SOL    HW216164   3.354   0.710  16.206 -0.1536  2.0361  1.9235
 1511SOL     OW16165   2.473   4.037   8.589  0.3312 -0.1832 -0.2413
 1511SOL    HW116166   2.539   4.107   8.593 -0.9160  1.0660 -1.3719
 1511SOL    HW216167   2.395   4.090   8.575  0.5935  0.1262 -0.5437
 1512SOL     OW16168   1.259   2.897  16.877  0.1864  0.0662 -0.0589
 1512SOL    HW116169   1.340   2.859  16.841 -1.2492 -3.9256  0.8616
 1512SOL    HW216170   1.285   2.985  16.902 -0.0979  0.7064 -2.0127
 1513SOL     OW16171   2.924   1.296   8.023  0.1794 -0.2601  0.3940
 1513SOL    HW116172   2.877   1.256   7.950 -0.2382  1.8522 -0.4933
 1513SOL    HW216173   2.969   1.218   8.056 -0.0638 -1.0722 -1.1844
 1514SOL     OW16174   4.025   3.111   8.832  0.2245 -0.1110 -0.3121
 1514SOL    HW116175   4.061   3.105   8.744  0.9439  1.0302 -0.0963
 1514SOL    HW216176   3.961   3.041   8.818 -1.0920  0.8103  1.0981
 1515SOL     OW16177   3.893   3.555   9.213 -0.0965  0.1568 -0.2778
 1515SOL    HW116178   3.864   3.479   9.265 -0.5015  0.2228 -0.4062
 1515SOL    HW216179   3.827   3.550   9.144  0.3929 -1.3264 -0.6474
 1516SOL     OW16180   4.176   0.047   9.186  0.4417  0.3618  0.1354
 1516SOL    HW116181   4.081   0.033   9.187  0.4518  0.2971  0.2136
 1516SOL    HW216182   4.179   0.142   9.197  0.6430  0.3369  0.3083
 1517SOL     OW16183   1.018   2.298   0.352 -0.1177 -0.2739 -0.0875
 1517SOL    HW116184   1.085   2.344   0.403  0.4971 -1.4378  0.1686
 1517SOL    HW216185   0.989   2.368   0.294 -2.0954 -0.7937  0.2804
 1518SOL     OW16186   0.046   1.637   9.483 -0.0572  0.5387  0.0745
 1518SOL    HW116187   0.027   1.588   9.563  0.8100 -0.9280 -0.6367
 1518SOL    HW216188   0.046   1.728   9.514  1.1125  0.4965  0.1933
 1519SOL     OW16189   1.667   4.371   6.849  0.6486  0.4427  0.3437
 1519SOL    HW116190   1.575   4.377   6.872  0.6076  0.2336  0.2267
 1519SOL    HW216191   1.701   4.338   6.933  1.0451 -0.1416 -0.0464
 1520SOL     OW16192   3.461   3.114   6.952  0.0722 -0.1163 -0.2319
 1520SOL    HW116193   3.444   3.207   6.938 -1.6600 -0.4466 -0.3354
 1520SOL    HW216194   3.391   3.069   6.904 -0.3731 -0.1830  0.4872
 1521SOL     OW16195   1.501   2.854   4.871  0.3084  0.0540 -0.4366
 1521SOL    HW116196   1.515   2.802   4.950 -1.1600  0.5665  0.1505
 1521SOL    HW216197   1.577   2.826   4.819 -0.6926 -1.0672 -1.2909
 1522SOL     OW16198   1.918   2.988  15.465 -0.5985  0.6861  1.0279
 1522SOL    HW116199   1.873   3.023  15.542 -0.7536 -0.2803  1.3803
 1522SOL    HW216200   1.875   2.903  15.459 -0.9176  0.8882  0.4428
 1523SOL     OW16201   3.635   4.405   4.577  0.7556 -0.1018 -0.2049
 1523SOL    HW116202   3.715   4.354   4.589 -0.2403 -0.7900  3.3591
 1523SOL    HW216203   3.581   4.332   4.546 -0.5290  1.2142 -1.0737
 1524SOL     OW16204   1.191   2.247   1.760  0.0549  0.1720 -0.2504
 1524SOL    HW116205   1.156   2.248   1.850 -1.8860 -0.9178 -0.9947
 1524SOL    HW216206   1.119   2.221   1.703  0.0144 -0.6066  0.1458
 1525SOL     OW16207   2.019   3.540  13.813 -0.2103 -0.1847 -0.1886
 1525SOL    HW116208   2.039   3.500  13.729 -0.4249 -3.5213  1.3589
 1525SOL    HW216209   2.083   3.611  13.814  0.6063 -0.9208 -1.1433
 1526SOL     OW16210   2.796   1.072   4.373  0.1383  0.6130 -0.2687
 1526SOL    HW116211   2.826   1.156   4.338  0.0220  0.4228 -0.8285
 1526SOL    HW216212   2.874   1.016   4.365 -2.0231 -2.4900  0.6715
 1527SOL     OW16213   1.546   4.600  10.554  0.8735 -0.1428 -0.2583
 1527SOL    HW116214   1.608   4.571  10.488  0.3116  1.0774 -1.3184
 1527SOL    HW216215   1.479   4.532  10.555  0.4180  0.2958 -2.0311
 1528SOL     OW16216   2.719   3.285   9.666  0.1628 -0.2491 -0.0579
 1528SOL    HW116217   2.803   3.240   9.656  1.2614  2.1362 -1.5778
 1528SOL    HW216218   2.689   3.312   9.579 -2.1498 -1.8420  0.2572
 1529SOL     OW16219   4.188   2.625   1.393 -1.0989 -0.0480  0.0876
 1529SOL    HW116220   4.114   2.632   1.452 -1.4792  2.1335 -0.6632
 1529SOL    HW216221   4.145   2.560   1.338 -0.5477  0.3386 -0.8009
 1530SOL     OW16222   3.191   0.377   4.727  0.4608  0.3796  0.7011
 1530SOL    HW116223   3.262   0.398   4.666  2.1891 -1.2745  2.1283
 1530SOL    HW216224   3.118   0.352   4.670 -1.6697  0.1343  3.5463
 1531SOL     OW16225   1.368   0.922   6.783 -1.0849 -0.3760 -0.4753
 1531SOL    HW116226   1.373   0.827   6.782  0.7179 -0.2858  0.4367
 1531SOL    HW216227   1.435   0.940   6.848 -1.8815  2.1434 -0.3354
 1532SOL     OW16228   0.133   4.337   3.042 -0.0246 -0.3849  0.2879
 1532SOL    HW116229   0.049   4.382   3.037  0.5551  0.5656 -0.7637
 1532SOL    HW216230   0.132   4.276   2.968  2.6326  3.1360 -2.5881
 1533SOL     OW16231   2.256   4.290  10.227 -0.7088 -0.8188 -0.0655
 1533SOL    HW116232   2.250   4.377  10.186 -0.2828 -1.2636 -1.0661
 1533SOL    HW216233   2.318   4.252  10.166 -1.8888 -0.6076 -1.4005
 1534SOL     OW16234   4.410   2.289   8.678 -0.1235 -0.1543 -0.1383
 1534SOL    HW116235   4.493   2.264   8.637  0.4880  1.4857  0.0957
 1534SOL    HW216236   4.350   2.216   8.663 -1.0566  0.7885 -0.8912
 1535SOL     OW16237   3.730   2.093  16.297  0.1805  0.3339 -0.3622
 1535SOL    HW116238   3.738   2.056  16.209  0.1978  2.3000 -1.1877
 1535SOL    HW216239   3.718   2.184  16.269  0.6257  0.5932  0.2766
 1536SOL     OW16240   0.881   3.221   2.513 -0.3435  0.2665 -0.0073
 1536SOL    HW116241   0.854   3.152   2.453  0.7771  0.8552 -1.2019
 1536SOL    HW216242   0.882   3.296   2.453  1.4273  0.3775  0.1497
 1537SOL     OW16243   1.888   1.607   8.194  0.2095  0.6204 -0.0777
 1537SOL    HW116244   1.819   1.597   8.129 -0.2101  1.4426  0.2444
 1537SOL    HW216245   1.968   1.615   8.141  0.6602  0.5099  0.5774
 1538SOL     OW16246   0.039   2.300   2.377 -1.3016  0.3069 -0.4484
 1538SOL    HW116247   0.121   2.255   2.360 -1.4189  0.8000 -2.3646
 1538SOL    HW216248   0.062   2.335   2.463 -0.4723  0.7803 -0.8595
 1539SOL     OW16249   2.972   1.178   6.094  0.2248 -0.0344 -0.5224
 1539SOL    HW116250   3.044   1.237   6.117  1.3697 -1.5356 -0.2759
 1539SOL    HW216251   2.933   1.220   6.017  0.9475 -1.7930 -1.8384
 1540SOL     OW16252   4.345   3.534   1.037 -0.0330 -0.5149  0.1483
 1540SOL    HW116253   4.382   3.610   1.083 -0.4732 -1.1371  1.5416
 1540SOL    HW216254   4.395   3.466   1.083  0.3878  0.6446  1.4220
 1541SOL     OW16255   1.395   0.421   3.898  0.6285  0.2444 -0.5241
 1541SOL    HW116256   1.384   0.331   3.867 -0.7213 -0.0142  0.7526
 1541SOL    HW216257   1.387   0.469   3.816 -3.2543 -0.5952 -0.6037
 1542SOL     OW16258   4.514   3.903   5.076  0.2393  0.6332 -0.1894
 1542SOL    HW116259   4.450   3.842   5.040 -0.8916  1.1685  0.9246
 1542SOL    HW216260   4.593   3.849   5.089  0.8956  1.6967  0.2370
 1543SOL     OW16261   3.605   3.184   2.074 -0.3694 -0.1408 -1.3796
 1543SOL    HW116262   3.576   3.255   2.017  3.9255  1.5860 -1.4395
 1543SOL    HW216263   3.699   3.197   2.081 -0.5152 -1.1176  2.5001
 1544SOL     OW16264   2.489   0.739   5.639  0.6907  0.0811  0.1080
 1544SOL    HW116265   2.532   0.679   5.578  0.2128  0.1533 -0.2960
 1544SOL    HW216266   2.456   0.808   5.581  0.3845  2.3814  2.9801
 1545SOL     OW16267   1.680   1.081  13.121  0.2717  0.2559 -0.5200
 1545SOL    HW116268   1.727   1.023  13.061 -1.4000 -1.0017 -0.6432
 1545SOL    HW216269   1.671   1.162  13.070  0.2845  1.0120  0.6848
 1546SOL     OW16270   0.102   3.765   2.160 -0.3197 -0.1073 -0.0924
 1546SOL    HW116271   0.134   3.692   2.107 -0.4577 -0.4028  0.2322
 1546SOL    HW216272   0.144   3.835   2.110 -0.2291  0.2319  0.4636
 1547SOL     OW16273   1.461   1.590  10.664  0.4597 -0.2859  0.4778
 1547SOL    HW116274   1.379   1.540  10.663 -0.7995  1.7296  0.7169
 1547SOL    HW216275   1.521   1.531  10.708  1.3123  0.1514 -0.1049
 1548SOL     OW16276   0.756   1.645   6.926  0.0460 -0.4770 -0.7210
 1548SOL    HW116277   0.776   1.666   7.017  0.6276 -2.0517 -0.4804
 1548SOL    HW216278   0.839   1.610   6.893 -0.9637 -2.9494 -0.7004
 1549SOL     OW16279   4.418   3.927   2.830 -0.0939 -0.5827 -0.3746
 1549SOL    HW116280   4.402   3.867   2.903 -1.2761 -1.4079 -1.3105
 1549SOL    HW216281   4.335   3.974   2.833 -0.2381 -0.8231 -0.6977
 1550SOL     OW16282   1.813   1.044   1.379  0.0084 -0.4630 -0.2224
 1550SOL    HW116283   1.757   1.018   1.452  0.6597  2.1365  1.2088
 1550SOL    HW216284   1.900   1.017   1.409  0.0644  1.2988  1.2250
 1551SOL     OW16285   4.067   1.248   9.416  0.3644  0.3235 -0.1900
 1551SOL    HW116286   4.096   1.268   9.327 -2.3474  0.8717 -0.9415
 1551SOL    HW216287   3.980   1.213   9.401  0.0577  0.5769  1.0243
 1552SOL     OW16288   1.693   4.403  17.214 -0.4577  0.0646 -0.2878
 1552SOL    HW116289   1.640   4.371  17.140 -2.3727 -1.4189  1.7347
 1552SOL    HW216290   1.728   4.485  17.179 -2.6608  1.2923  0.4125
 1553SOL     OW16291   1.305   0.044  16.027 -0.2147 -0.1175 -0.4060
 1553SOL    HW116292   1.211   0.047  16.046 -0.6516  2.5519 -3.0006
 1553SOL    HW216293   1.329   4.688  16.039  0.3323  0.3760  2.3294
 1554SOL     OW16294   2.178   3.355   8.318 -0.8507 -0.6670 -0.3296
 1554SOL    HW116295   2.132   3.409   8.253 -3.5333 -2.4558  0.0671
 1554SOL    HW216296   2.220   3.288   8.265 -0.1782  0.2502 -0.9410
 1555SOL     OW16297   4.505   4.482  12.106  0.0301 -0.2824  0.2512
 1555SOL    HW116298   4.412   4.474  12.085 -0.1903  0.3084  0.9991
 1555SOL    HW216299   4.529   4.552  12.045 -1.5782  2.4000  2.7071
 1556SOL     OW16300   1.194   3.897   5.356  0.4333  0.0633 -0.1768
 1556SOL    HW116301   1.149   3.970   5.312 -2.0843 -0.7592  1.0384
 1556SOL    HW216302   1.120   3.865   5.407  2.5531 -0.0299  2.7933
 1557SOL     OW16303   2.884   2.193   2.259 -0.4159 -0.0610 -0.6427
 1557SOL    HW116304   2.834   2.111   2.252  1.4082 -1.1658 -0.6467
 1557SOL    HW216305   2.819   2.245   2.212 -1.1994  0.1223  0.6205
 1558SOL     OW16306   4.626   0.090  11.024  0.9212 -0.1273 -0.1328
 1558SOL    HW116307   4.592   0.035  10.953 -0.2781  0.6455 -0.1652
 1558SOL    HW216308   4.556   0.100  11.088  1.7142  1.9429  0.4228
 1559SOL     OW16309   0.355   3.101   0.471  0.5668 -0.0558 -0.0483
 1559SOL    HW116310   0.396   3.187   0.465 -0.9123  0.6177 -0.3295
 1559SOL    HW216311   0.406   3.042   0.415 -1.3785 -0.5588 -1.2907
 1560SOL     OW16312   0.778   0.752   0.155  0.1667  0.7030  0.0351
 1560SOL    HW116313   0.858   0.743   0.208  2.3304  0.7986 -3.1950
 1560SOL    HW216314   0.783   0.674   0.100 -2.2035 -1.7286  3.2652
 1561SOL     OW16315   0.318   2.993   3.422 -0.2468 -0.3224 -0.1892
 1561SOL    HW116316   0.255   2.986   3.349 -1.7133  4.3695  0.6301
 1561SOL    HW216317   0.266   2.988   3.502  1.8880 -0.6722  1.1459
 1562SOL     OW16318   0.054   1.906   0.779 -0.3423 -0.6224  0.3269
 1562SOL    HW116319   0.025   1.827   0.825  1.5182 -0.8442  1.1483
 1562SOL    HW216320   0.141   1.911   0.820  0.9313 -0.8103 -2.4016
 1563SOL     OW16321   2.374   3.184   5.813  0.2520 -0.2954  0.4845
 1563SOL    HW116322   2.404   3.267   5.851  1.3344 -0.1426 -0.6885
 1563SOL    HW216323   2.315   3.216   5.744 -0.7444 -0.5310  1.2280
 1564SOL     OW16324   3.481   0.814   7.945 -0.0966  0.1162 -0.1472
 1564SOL    HW116325   3.397   0.780   7.915 -0.8055  2.5600 -0.8685
 1564SOL    HW216326   3.478   0.788   8.038 -0.8045  1.4573  0.2070
 1565SOL     OW16327   1.098   2.628   6.952 -0.5095 -0.0990  0.4819
 1565SOL    HW116328   1.123   2.570   6.880  0.3456 -2.8191  2.9566
 1565SOL    HW216329   1.172   2.689   6.959 -1.1217  0.5250  1.5695
 1566SOL     OW16330   0.571   1.466  16.909  0.6380 -0.5622 -0.3067
 1566SOL    HW116331   0.491   1.462  16.856 -0.0476  2.6461  0.4842
 1566SOL    HW216332   0.623   1.389  16.884  1.7438  0.6282 -1.7189
 1567SOL     OW16333   3.948   2.353   3.664 -0.0557  0.3021 -0.6621
 1567SOL    HW116334   3.863   2.389   3.640  0.6191  2.7615  0.6238
 1567SOL    HW216335   4.005   2.367   3.589 -2.0072  2.1105 -1.8140
 1568SOL     OW16336   4.476   3.133   9.435  0.4696 -0.4968  0.0137
 1568SOL    HW116337   4.458   3.212   9.384 -0.2224 -0.7261 -0.0866
 1568SOL    HW216338   4.405   3.076   9.405 -0.7992  0.5125  1.1217
 1569SOL     OW16339   2.358   2.463   2.751  0.9932 -0.2676 -0.5453
 1569SOL    HW116340   2.365   2.372   2.781  0.5336  0.2572  1.1675
 1569SOL    HW216341   2.313   2.450   2.668 -0.8236 -2.7380  0.8316
 1570SOL     OW16342   2.652   0.044  17.137 -0.1866 -0.2358  0.8781
 1570SOL    HW116343   2.604   4.708  17.095 -0.7194  1.8997 -2.1093
 1570SOL    HW216344   2.728   4.726  17.161  0.9879  0.5953 -0.9680
 1571SOL     OW16345   2.157   3.801   6.929  0.6813 -0.0149 -0.1768
 1571SOL    HW116346   2.173   3.808   6.835  1.7662  1.1901  0.0953
 1571SOL    HW216347   2.248   3.792   6.958  1.7204  2.8103 -2.5064
 1572SOL     OW16348   3.023   1.903   4.721 -0.1193 -0.4141  0.2228
 1572SOL    HW116349   3.084   1.921   4.792  0.0728 -1.5901  0.3549
 1572SOL    HW216350   3.052   1.967   4.656  0.4201 -0.5862  0.2943
 1573SOL     OW16351   2.032   1.593   2.519  0.5327 -0.1910  0.9007
 1573SOL    HW116352   2.059   1.603   2.428 -1.5623  0.7795  0.3822
 1573SOL    HW216353   1.974   1.669   2.526 -0.8282 -1.1697  0.1089
 1574SOL     OW16354   0.359   1.624   5.484 -0.1545 -0.0476 -0.4432
 1574SOL    HW116355   0.374   1.549   5.542 -3.3894  1.1241  1.8589
 1574SOL    HW216356   0.277   1.594   5.446 -0.1057 -0.6240 -0.0985
 1575SOL     OW16357   0.216   1.333   9.148 -0.4962  0.8841 -0.5048
 1575SOL    HW116358   0.274   1.354   9.075  0.7454  0.4858  0.3611
 1575SOL    HW216359   0.227   1.408   9.207 -0.8822 -1.0599  2.0403
 1576SOL     OW16360   2.769   0.385   5.987 -0.1142 -0.2668 -0.3330
 1576SOL    HW116361   2.758   0.337   5.905  1.9891 -0.0724 -0.7211
 1576SOL    HW216362   2.682   0.424   5.999  1.1392  1.5760  2.6816
 1577SOL     OW16363   1.579   2.602  11.015  0.5358  0.1845 -0.1532
 1577SOL    HW116364   1.572   2.698  11.024  0.9251  0.0503  1.5973
 1577SOL    HW216365   1.572   2.594  10.920  3.0887 -3.1752 -0.0476
 1578SOL     OW16366   0.727   2.172  17.428 -0.2607  0.0246  0.2534
 1578SOL    HW116367   0.733   2.119  17.507  1.3800  2.3335  1.6920
 1578SOL    HW216368   0.819   2.197  17.424  0.2675 -2.2337 -1.1945
 1579SOL     OW16369   1.475   4.003  14.695  0.3814  0.4727  0.1400
 1579SOL    HW116370   1.386   4.014  14.728  0.8396 -1.4223  1.9784
 1579SOL    HW216371   1.520   3.981  14.776  0.2212 -1.3596 -0.2666
 1580SOL     OW16372   1.943   4.402   6.763  0.2372 -0.0256 -0.0130
 1580SOL    HW116373   1.856   4.392   6.801  0.5128 -0.2401  0.5632
 1580SOL    HW216374   1.952   4.329   6.702  0.0941 -0.3231  0.3193
 1581SOL     OW16375   3.818   3.477  11.032  0.0027  0.3728  0.1117
 1581SOL    HW116376   3.845   3.393  11.070 -1.8498 -1.3081 -2.3010
 1581SOL    HW216377   3.900   3.525  11.024 -0.1465  1.0376  2.7234
 1582SOL     OW16378   0.753   4.268   8.251 -0.1408 -0.3378 -0.1797
 1582SOL    HW116379   0.817   4.199   8.267  0.4094  0.3278  0.4550
 1582SOL    HW216380   0.675   4.236   8.296  2.4479 -3.9698  1.6957
 1583SOL     OW16381   1.068   2.966   6.049 -0.5794  0.0735 -0.3125
 1583SOL    HW116382   1.089   3.036   6.112 -0.3462 -1.1799  0.9851
 1583SOL    HW216383   1.116   2.893   6.089 -1.6758  0.3010  1.4225
 1584SOL     OW16384   2.073   3.999  12.925  0.3737 -0.6366  0.3658
 1584SOL    HW116385   2.085   3.930  12.859 -1.3588 -1.9426  1.4186
 1584SOL    HW216386   1.977   4.004  12.928  0.3082 -2.4634  1.1941
 1585SOL     OW16387   1.647   1.415   9.749  0.2547  0.0735  0.1455
 1585SOL    HW116388   1.587   1.424   9.675 -0.0833 -1.8645  0.1866
 1585SOL    HW216389   1.688   1.329   9.739 -0.2209 -0.1701  0.3205
 1586SOL     OW16390   4.056   0.203   9.731 -0.1865  0.4550 -0.0264
 1586SOL    HW116391   3.963   0.182   9.738  0.1487 -0.8239  0.5776
 1586SOL    HW216392   4.088   0.114   9.711 -0.7837  0.5488 -1.3722
 1587SOL     OW16393   2.064   2.163   8.235 -0.3400  0.2417  0.5080
 1587SOL    HW116394   2.011   2.186   8.312 -0.3097 -1.1043  0.9289
 1587SOL    HW216395   2.055   2.069   8.248 -0.0650 -0.0135 -1.2221
 1588SOL     OW16396   4.298   3.888   3.424 -0.1432 -0.1748 -0.0920
 1588SOL    HW116397   4.353   3.871   3.348  0.2106  1.8276 -0.2925
 1588SOL    HW216398   4.308   3.982   3.439  0.9985 -0.1095 -1.2687
 1589SOL     OW16399   3.189   0.963  13.009  0.2060 -0.1030 -0.0334
 1589SOL    HW116400   3.132   0.909  12.954  3.3305 -2.3891 -1.0163
 1589SOL    HW216401   3.210   1.031  12.945 -2.2846  2.2752  1.6972
 1590SOL     OW16402   1.335   4.493   2.861 -0.6534  0.1501  0.1115
 1590SOL    HW116403   1.380   4.574   2.839  0.1537 -0.1631  0.6186
 1590SOL    HW216404   1.376   4.426   2.807 -0.6022 -0.8571  1.4152
 1591SOL     OW16405   2.273   2.701   5.630  0.0734  0.2223 -0.0054
 1591SOL    HW116406   2.275   2.704   5.726 -1.1630 -0.9827  0.0533
 1591SOL    HW216407   2.207   2.770   5.623 -0.1051  0.0207 -0.2845
 1592SOL     OW16408   2.824   2.560   6.895  0.5114  0.2811  0.7434
 1592SOL    HW116409   2.758   2.629   6.911  0.7390  0.1281  2.2963
 1592SOL    HW216410   2.774   2.502   6.837 -0.1112  1.0929  0.4552
 1593SOL     OW16411   4.364   0.921   7.908 -0.1701  0.0705 -0.4215
 1593SOL    HW116412   4.312   0.955   7.981  0.1456 -0.7215  0.1740
 1593SOL    HW216413   4.449   0.915   7.953  0.3252  0.3509 -1.3213
 1594SOL     OW16414   1.444   4.278   8.460  0.3563 -0.0754  0.1271
 1594SOL    HW116415   1.411   4.333   8.531 -1.1690 -1.4031  0.4544
 1594SOL    HW216416   1.389   4.314   8.391  0.2235 -1.3622 -0.4335
 1595SOL     OW16417   4.443   2.572   7.527 -0.4097  0.7902  0.4644
 1595SOL    HW116418   4.493   2.651   7.548  1.6405  0.1639 -2.0318
 1595SOL    HW216419   4.409   2.597   7.441  0.4466  1.0553  0.2074
 1596SOL     OW16420   1.525   2.883  15.685 -0.1328 -0.0221  0.8522
 1596SOL    HW116421   1.536   2.814  15.620 -0.7011  0.2809  0.4331
 1596SOL    HW216422   1.542   2.837  15.767 -1.4858 -0.1451  1.0722
 1597SOL     OW16423   4.316   2.604   1.770 -0.0268 -0.1700 -0.7808
 1597SOL    HW116424   4.336   2.522   1.725  0.9466 -0.1287 -0.4388
 1597SOL    HW216425   4.405   2.619   1.803 -1.4593  0.7066  2.6645
 1598SOL     OW16426   0.169   1.634  11.762 -0.1923 -0.5251  0.0122
 1598SOL    HW116427   0.199   1.707  11.708  1.0772 -1.1722 -0.1673
 1598SOL    HW216428   0.080   1.621  11.728 -0.3653  0.5216  0.0765
 1599SOL     OW16429   3.533   1.904   2.317  0.0799  0.3765 -0.0458
 1599SOL    HW116430   3.535   1.813   2.346 -0.8532  0.6022  0.7183
 1599SOL    HW216431   3.569   1.951   2.392 -1.2389  0.0339  0.7932
 1600SOL     OW16432   3.895   3.796   3.270  0.1802  0.2965 -0.7276
 1600SOL    HW116433   3.879   3.710   3.231 -1.2673 -1.0328  2.8384
 1600SOL    HW216434   3.943   3.839   3.199 -1.0585 -2.0230 -3.0020
 1601SOL     OW16435   0.744   2.191   3.659 -0.4148  0.2026 -0.0943
 1601SOL    HW116436   0.690   2.196   3.580 -0.3740  2.7104  0.0435
 1601SOL    HW216437   0.737   2.096   3.672  2.6096  0.1973  1.5771
 1602SOL     OW16438   0.288   0.807   3.569  0.2377 -0.2987  0.4454
 1602SOL    HW116439   0.371   0.847   3.596 -1.1687  2.0107  1.4499
 1602SOL    HW216440   0.301   0.812   3.475 -0.9245  1.1818  0.3499
 1603SOL     OW16441   3.592   2.450   2.134 -0.0169  0.6857  0.0620
 1603SOL    HW116442   3.597   2.539   2.169 -3.0535  0.0502  2.0184
 1603SOL    HW216443   3.676   2.408   2.152  0.7689  2.4887  0.6182
 1604SOL     OW16444   2.898   4.142   2.193 -0.3082 -1.0613  0.1420
 1604SOL    HW116445   2.927   4.230   2.216 -2.8309 -0.3097  0.4119
 1604SOL    HW216446   2.809   4.129   2.226 -0.4164 -1.6212 -0.3645
 1605SOL     OW16447   0.535   0.342   5.080 -0.2938  0.4459  0.4075
 1605SOL    HW116448   0.463   0.384   5.033 -0.8206 -1.4145 -0.4509
 1605SOL    HW216449   0.495   0.305   5.159  0.0629 -0.4400  0.1759
 1606SOL     OW16450   3.455   4.479   5.914  0.0049  0.5772 -0.2671
 1606SOL    HW116451   3.531   4.427   5.940  0.2437  0.2480 -1.6243
 1606SOL    HW216452   3.382   4.429   5.950  0.6851 -1.1924 -1.3438
 1607SOL     OW16453   1.627   4.694   6.959 -0.2760 -0.3854 -0.1116
 1607SOL    HW116454   1.532   4.683   6.961 -0.2740 -0.6099 -1.4328
 1607SOL    HW216455   1.659   4.605   6.974 -0.7783 -0.3856  1.0126
 1608SOL     OW16456   3.772   1.902   3.937  0.4502 -0.6120  0.3332
 1608SOL    HW116457   3.679   1.894   3.960 -0.5797  1.0191 -3.3235
 1608SOL    HW216458   3.808   1.814   3.946  1.3915 -0.2724 -0.2180
 1609SOL     OW16459   1.089   1.744   6.653  0.1754 -0.2010  0.2005
 1609SOL    HW116460   1.026   1.721   6.585 -2.0586  2.1856  1.4308
 1609SOL    HW216461   1.055   1.684   6.719 -1.9858  1.0345  0.2192
 1610SOL     OW16462   2.835   3.991   9.157  0.3259  0.1567 -0.2719
 1610SOL    HW116463   2.841   3.987   9.061  0.8109 -0.6726 -0.2104
 1610SOL    HW216464   2.887   3.921   9.195  1.4569  0.5276 -1.1224
 1611SOL     OW16465   1.054   0.627   6.157  0.3524 -0.1417 -0.2565
 1611SOL    HW116466   1.085   0.542   6.187 -0.5490 -0.1638  0.6173
 1611SOL    HW216467   1.123   0.681   6.195 -0.3560  1.4849 -1.2589
 1612SOL     OW16468   1.346   3.617  12.293  0.0167  0.1551  0.0834
 1612SOL    HW116469   1.349   3.698  12.241 -1.8595  1.5950  2.2293
 1612SOL    HW216470   1.324   3.561  12.218  2.0539 -0.5539  0.0109
 1613SOL     OW16471   1.119   2.175  10.920 -0.0264 -0.1095 -0.4239
 1613SOL    HW116472   1.028   2.204  10.925  0.2050  0.6342 -0.5441
 1613SOL    HW216473   1.152   2.245  10.864 -0.4296 -0.1574 -0.7151
 1614SOL     OW16474   3.918   1.828  12.635  0.2177 -0.0843 -0.0592
 1614SOL    HW116475   3.823   1.840  12.630  0.6786  3.0987 -1.5989
 1614SOL    HW216476   3.909   1.753  12.693  0.1223 -0.1852 -0.2046
 1615SOL     OW16477   1.811   3.302  11.987 -0.1966  0.1573  0.1313
 1615SOL    HW116478   1.772   3.370  11.933  0.1182 -0.1607 -0.5004
 1615SOL    HW216479   1.907   3.303  11.981 -0.2102  1.3579  0.1375
 1616SOL     OW16480   0.137   4.463   5.422 -0.7699  0.2131 -0.4346
 1616SOL    HW116481   0.173   4.548   5.397 -1.9823  0.9524  0.3452
 1616SOL    HW216482   0.087   4.482   5.501 -2.7432 -1.7016 -1.2036
 1617SOL     OW16483   4.687   3.169  12.788  0.6153 -0.5881  0.0330
 1617SOL    HW116484   4.721   3.257  12.804 -1.0276  0.0192  0.1180
 1617SOL    HW216485   4.726   3.122  12.862  1.4533 -0.7639 -0.5139
 1618SOL     OW16486   1.454   3.831   7.074 -0.5647  0.3948 -0.3655
 1618SOL    HW116487   1.457   3.774   6.997  3.1720 -0.5145  0.4498
 1618SOL    HW216488   1.540   3.820   7.116 -1.9081  0.3774  2.3514
 1619SOL     OW16489   2.255   1.197   7.267  0.1261 -1.1302  0.1615
 1619SOL    HW116490   2.312   1.175   7.341 -0.3577 -0.3408  0.7698
 1619SOL    HW216491   2.267   1.126   7.203  2.0568  0.7988 -1.5836
 1620SOL     OW16492   2.183   0.835   6.120 -0.0845 -0.5582 -0.2558
 1620SOL    HW116493   2.210   0.825   6.029 -2.5276 -0.2938 -1.0054
 1620SOL    HW216494   2.213   0.756   6.166  1.3908 -0.2758 -0.7331
 1621SOL     OW16495   2.514   1.829   4.873  0.2195  0.2153 -0.1763
 1621SOL    HW116496   2.609   1.821   4.874  0.1975 -0.0823 -0.6685
 1621SOL    HW216497   2.481   1.785   4.795  1.0016 -2.7206  1.1397
 1622SOL     OW16498   0.234   2.980   8.781 -0.0839  0.0838 -0.1912
 1622SOL    HW116499   0.259   2.904   8.833  3.9365  0.6698 -1.2697
 1622SOL    HW216500   0.143   2.974   8.752  0.5086  0.3032 -2.1235
 1623SOL     OW16501   0.403   1.290   3.499 -0.0301 -0.1958 -0.3786
 1623SOL    HW116502   0.342   1.270   3.428  0.3840 -1.6387 -0.3312
 1623SOL    HW216503   0.484   1.247   3.471 -0.3965 -1.6942  0.8768
 1624SOL     OW16504   2.269   2.553   1.240  0.2320 -0.2534 -0.1591
 1624SOL    HW116505   2.228   2.632   1.204  3.0777  1.0434 -0.5377
 1624SOL    HW216506   2.207   2.524   1.307 -1.1207  2.2943 -0.3069
 1625SOL     OW16507   4.039   1.144   5.183  0.1119  0.9561 -0.6689
 1625SOL    HW116508   4.101   1.213   5.162 -0.0788  0.9855 -1.1281
 1625SOL    HW216509   3.992   1.123   5.102  0.0599 -0.0220 -0.3899
 1626SOL     OW16510   0.686   0.390  10.156 -0.2448 -0.3461  0.0867
 1626SOL    HW116511   0.766   0.424  10.197  0.7765 -1.7850 -0.7127
 1626SOL    HW216512   0.636   0.400  10.238  0.7614  1.3572  0.5002
 1627SOL     OW16513   2.637   1.467   5.024  0.2490 -0.1570 -0.1727
 1627SOL    HW116514   2.586   1.531   5.074  0.0564 -0.3953 -0.0659
 1627SOL    HW216515   2.701   1.528   4.988 -0.4069  1.7019  1.8290
 1628SOL     OW16516   2.592   1.505   5.778  0.0577 -0.1791 -0.6355
 1628SOL    HW116517   2.598   1.592   5.816  1.8462 -0.1375 -1.0246
 1628SOL    HW216518   2.497   1.508   5.766  0.2289 -0.3541 -2.0622
 1629SOL     OW16519   2.292   3.395   8.545 -0.2255 -0.1470 -0.1469
 1629SOL    HW116520   2.371   3.429   8.505 -0.4130  1.6189  0.9858
 1629SOL    HW216521   2.230   3.385   8.473  2.6269  0.4703 -2.6694
 1630SOL     OW16522   0.992   2.823   1.873 -0.3328 -0.1630 -0.2584
 1630SOL    HW116523   1.072   2.856   1.913 -0.0285 -1.2638  0.0243
 1630SOL    HW216524   1.027   2.745   1.831  0.3772 -0.8220  1.5714
 1631SOL     OW16525   0.109   3.422  16.576 -0.0156  0.7419 -0.3009
 1631SOL    HW116526   0.060   3.504  16.579  0.1326  0.7922  0.6380
 1631SOL    HW216527   0.113   3.400  16.483 -1.4179  0.3434 -0.2672
 1632SOL     OW16528   0.478   3.664   2.064 -0.0282  0.2379  0.5923
 1632SOL    HW116529   0.546   3.602   2.090  0.2362 -0.1552 -1.0359
 1632SOL    HW216530   0.525   3.732   2.015 -0.1609 -0.2853 -0.2744
 1633SOL     OW16531   0.050   2.398   2.101  0.0005 -0.9301 -0.5052
 1633SOL    HW116532   0.038   2.397   2.196 -1.7615  1.9291 -0.7015
 1633SOL    HW216533   0.099   2.480   2.092  2.3232 -2.3780 -1.1845
 1634SOL     OW16534   2.310   2.719   5.890  0.3177  0.7699  0.2208
 1634SOL    HW116535   2.314   2.637   5.939 -0.6220  0.0277 -0.9561
 1634SOL    HW216536   2.328   2.796   5.945 -0.1457  0.5854  0.6305
 1635SOL     OW16537   1.987   2.227   7.540 -0.4474 -0.3104 -0.3837
 1635SOL    HW116538   1.964   2.312   7.577 -0.2085 -1.6194  2.8294
 1635SOL    HW216539   2.015   2.192   7.625 -0.4696 -0.4842 -0.4472
 1636SOL     OW16540   0.538   2.812   4.614 -0.1222 -0.1360  0.6171
 1636SOL    HW116541   0.528   2.819   4.709 -1.2241 -0.1324  0.4996
 1636SOL    HW216542   0.615   2.755   4.613  0.1211  0.2504 -3.5133
 1637SOL     OW16543   2.970   0.285  14.189  0.3306  0.3576 -0.3408
 1637SOL    HW116544   2.935   0.217  14.132 -0.2817 -1.0560  1.7469
 1637SOL    HW216545   2.996   0.355  14.128 -0.4996  0.3128 -0.7480
 1638SOL     OW16546   2.598   1.099  17.336  0.1955 -0.3266 -0.4756
 1638SOL    HW116547   2.534   1.170  17.348  1.6450  0.8609  0.3198
 1638SOL    HW216548   2.566   1.062  17.254 -2.5180 -2.0462  1.3728
 1639SOL     OW16549   2.290   0.678  16.110  0.4212  0.3970  0.9164
 1639SOL    HW116550   2.232   0.703  16.039  0.8915 -0.3365  0.2641
 1639SOL    HW216551   2.323   0.767  16.116 -1.0379  0.9954 -0.1911
 1640SOL     OW16552   3.010   0.246   9.205  0.0555  0.2260  0.1951
 1640SOL    HW116553   3.020   0.271   9.297 -0.7872  1.3215 -0.0176
 1640SOL    HW216554   3.076   0.177   9.201  0.2977  0.5210 -1.0361
 1641SOL     OW16555   1.363   2.830  13.475  0.1152 -0.1211  0.3295
 1641SOL    HW116556   1.446   2.873  13.452 -0.1806 -0.8846 -2.0752
 1641SOL    HW216557   1.366   2.841  13.570 -2.1449  1.1117  0.2630
 1642SOL     OW16558   3.407   2.347   3.680 -0.2255  0.7497  0.2736
 1642SOL    HW116559   3.409   2.251   3.670  0.7529  0.8078 -0.0310
 1642SOL    HW216560   3.432   2.376   3.592  2.3814 -1.9567  0.1266
 1643SOL     OW16561   3.461   1.685   4.501 -0.2097 -0.3620  0.4955
 1643SOL    HW116562   3.481   1.604   4.549 -1.0844  1.0801  3.2548
 1643SOL    HW216563   3.388   1.725   4.547 -0.1711 -0.2148  0.4278
 1644SOL     OW16564   1.874   2.857   6.339  0.5484 -0.5126 -0.3735
 1644SOL    HW116565   1.803   2.812   6.384 -0.0763  0.0151 -0.8307
 1644SOL    HW216566   1.925   2.785   6.300 -1.2437 -0.6341 -2.4803
 1645SOL     OW16567   0.339   3.194   8.623  0.0927  0.1119 -0.4070
 1645SOL    HW116568   0.313   3.109   8.659  0.5569  0.4983  0.8350
 1645SOL    HW216569   0.322   3.246   8.701  1.0825 -1.1577  0.6593
 1646SOL     OW16570   1.266   3.113   9.671  0.1193  0.4699 -0.0787
 1646SOL    HW116571   1.227   3.188   9.716 -1.4698 -0.4875  0.1491
 1646SOL    HW216572   1.218   3.109   9.588  0.9876  0.2978 -0.5684
 1647SOL     OW16573   0.790   1.056  10.699  0.3527 -0.4563  0.0938
 1647SOL    HW116574   0.744   1.130  10.659  0.3611 -0.6223 -0.2177
 1647SOL    HW216575   0.727   0.986  10.683  0.0584  0.2535 -1.8274
 1648SOL     OW16576   4.607   0.549   2.393  0.4086  0.3534 -0.6855
 1648SOL    HW116577   4.667   0.624   2.397  0.2390  0.4954 -0.7787
 1648SOL    HW216578   4.658   0.471   2.415 -1.0567 -0.3995  0.0598
 1649SOL     OW16579   4.357   2.751   5.222  0.1102  0.1034  0.3402
 1649SOL    HW116580   4.332   2.805   5.147 -0.1412 -0.1604  0.2386
 1649SOL    HW216581   4.366   2.814   5.294 -0.4501  0.8453 -0.2420
 1650SOL     OW16582   1.096   2.417   4.061 -0.7364  0.2286  0.0159
 1650SOL    HW116583   1.015   2.450   4.022 -0.9322  1.4957  1.5245
 1650SOL    HW216584   1.100   2.327   4.028 -1.0123 -0.2587  1.3310
 1651SOL     OW16585   0.598   4.285   6.405 -0.2188 -0.3668 -0.0129
 1651SOL    HW116586   0.611   4.292   6.500 -0.1405  1.7935 -0.1777
 1651SOL    HW216587   0.687   4.285   6.371  0.3578 -1.7714  1.4685
 1652SOL     OW16588   3.748   4.639   8.270  0.2194 -0.8350 -0.2551
 1652SOL    HW116589   3.721   4.553   8.301 -0.7124 -0.7092 -0.7269
 1652SOL    HW216590   3.839   4.631   8.297  0.6172  1.0249 -1.0121
 1653SOL     OW16591   4.732   2.535   5.387  0.0781 -0.0602 -0.5947
 1653SOL    HW116592   4.663   2.479   5.422 -1.8511  3.5395  1.3753
 1653SOL    HW216593   4.685   2.578   5.315  0.6655 -0.9709 -1.5192
 1654SOL     OW16594   1.915   0.361   9.030 -0.4202 -0.3075  0.3931
 1654SOL    HW116595   1.847   0.298   9.054  0.9017 -1.1263  1.9981
 1654SOL    HW216596   1.992   0.320   9.068  0.0032  1.1406  1.1300
 1655SOL     OW16597   2.902   1.973   0.384  0.3682 -0.1131 -0.1092
 1655SOL    HW116598   2.895   1.894   0.330 -1.9166 -0.7475  1.1357
 1655SOL    HW216599   2.840   2.033   0.344 -1.8116 -1.2720  1.5446
 1656SOL     OW16600   1.412   1.174  16.905  0.0137 -0.4610  0.1353
 1656SOL    HW116601   1.408   1.267  16.926 -4.0697 -0.6307  0.0915
 1656SOL    HW216602   1.459   1.177  16.823 -1.5928 -1.3748 -0.8255
 1657SOL     OW16603   0.651   0.117  11.258 -0.2165  0.1271 -0.2138
 1657SOL    HW116604   0.586   0.115  11.187  1.6842  1.6376 -1.9916
 1657SOL    HW216605   0.636   0.206  11.289 -1.0869 -0.5858  1.4192
 1658SOL     OW16606   1.471   3.304  14.436  0.0259  0.1203 -0.1659
 1658SOL    HW116607   1.464   3.311  14.532 -0.6985  0.7436 -0.2646
 1658SOL    HW216608   1.398   3.355  14.402 -0.2847 -0.6015 -0.5852
 1659SOL     OW16609   0.273   4.599   9.261  0.4316  0.4564 -0.3999
 1659SOL    HW116610   0.258   4.660   9.190  1.2391  0.0751 -0.9007
 1659SOL    HW216611   0.191   4.605   9.310 -0.7446  0.7851 -2.4413
 1660SOL     OW16612   2.725   2.027   2.852 -0.2956 -0.0547 -0.2659
 1660SOL    HW116613   2.682   2.063   2.774 -1.1323  1.4150  0.8771
 1660SOL    HW216614   2.665   2.015   2.925  1.8496  0.1988  1.5318
 1661SOL     OW16615   0.709   3.800   5.420  0.0444  0.0947  0.1315
 1661SOL    HW116616   0.767   3.731   5.452 -0.0623 -0.6826 -1.3999
 1661SOL    HW216617   0.766   3.871   5.390 -0.1506  0.1681 -0.0637
 1662SOL     OW16618   1.284   4.414   1.187 -0.0117  0.6898 -0.0963
 1662SOL    HW116619   1.261   4.397   1.096  1.0931  1.1851 -0.4764
 1662SOL    HW216620   1.199   4.448   1.213  0.5898  0.9373  1.5237
 1663SOL     OW16621   4.042   3.468   4.520 -0.4146  0.1393 -0.0761
 1663SOL    HW116622   3.979   3.534   4.492  0.6706  0.2145 -2.3031
 1663SOL    HW216623   3.978   3.400   4.543 -1.9392  1.0170 -1.7041
 1664SOL     OW16624   2.576   4.209   8.159 -0.5199 -0.4851 -0.4411
 1664SOL    HW116625   2.518   4.142   8.193 -0.1190 -0.4035  0.4035
 1664SOL    HW216626   2.655   4.164   8.190 -1.1966 -2.8253 -2.1093
 1665SOL     OW16627   1.777   4.545   3.956  0.0284 -0.3815  0.3256
 1665SOL    HW116628   1.794   4.601   3.880  1.2818  0.0665  0.9324
 1665SOL    HW216629   1.859   4.555   4.005  0.1288  0.1046  0.0619
 1666SOL     OW16630   0.240   1.340   6.070 -0.0267  0.1495  0.2024
 1666SOL    HW116631   0.157   1.314   6.111  1.3663 -0.0623  2.8587
 1666SOL    HW216632   0.301   1.305   6.135  1.5049  0.5014 -1.0487
 1667SOL     OW16633   3.078   3.242   6.677 -0.3664  0.0653  0.2356
 1667SOL    HW116634   3.013   3.270   6.741 -2.3774 -1.1611 -1.2607
 1667SOL    HW216635   3.024   3.204   6.607 -0.4507  1.5040 -0.4685
 1668SOL     OW16636   2.265   0.521  14.363  0.0707 -0.7195 -0.7452
 1668SOL    HW116637   2.298   0.610  14.348  0.9489 -1.3219 -2.4061
 1668SOL    HW216638   2.313   0.459  14.308  1.3360  1.9056 -2.6095
 1669SOL     OW16639   0.380   2.912   2.099  0.1929 -0.3226  1.1335
 1669SOL    HW116640   0.343   2.957   2.023  0.9824 -1.8303 -0.1477
 1669SOL    HW216641   0.350   2.962   2.175 -4.7637  0.4256 -1.3112
 1670SOL     OW16642   3.527   4.433   5.641 -0.0216 -0.5649 -0.0556
 1670SOL    HW116643   3.503   4.518   5.604  1.1042  0.2856  1.1855
 1670SOL    HW216644   3.482   4.442   5.725  3.4597 -1.2743  1.8900
 1671SOL     OW16645   2.501   0.348  12.765  0.0499 -0.4288 -0.1609
 1671SOL    HW116646   2.569   0.412  12.742 -0.7121 -0.1015 -1.4735
 1671SOL    HW216647   2.449   0.336  12.686  0.9622 -1.4299 -0.6053
 1672SOL     OW16648   2.093   1.627  14.267 -0.6901 -0.8015  0.2951
 1672SOL    HW116649   2.123   1.562  14.331  1.5079 -1.5065 -1.4537
 1672SOL    HW216650   1.998   1.628  14.280 -0.3896  1.0005  2.4249
 1673SOL     OW16651   2.434   3.061   2.526  0.2181  0.1320 -0.2473
 1673SOL    HW116652   2.504   3.014   2.572  1.2531 -0.7928 -2.7617
 1673SOL    HW216653   2.451   3.038   2.434  2.8650  3.6359 -0.6174
 1674SOL     OW16654   0.493   4.694   6.067 -0.5037  0.1785 -0.3999
 1674SOL    HW116655   0.532   0.046   6.055  0.3121 -0.0464  0.5573
 1674SOL    HW216656   0.401   4.709   6.087 -0.5904 -0.1947 -0.5221
 1675SOL     OW16657   3.545   0.070   4.165 -0.2047  0.0339 -0.2235
 1675SOL    HW116658   3.500   0.005   4.219  0.9002  1.7038  2.6852
 1675SOL    HW216659   3.538   0.030   4.078  1.3383  0.9556 -0.7716
 1676SOL     OW16660   0.895   3.834  13.825 -0.1286 -0.0799 -0.2614
 1676SOL    HW116661   0.915   3.796  13.910  0.5829 -2.6324 -1.5597
 1676SOL    HW216662   0.979   3.870  13.797 -0.4253  0.4917 -0.4310
 1677SOL     OW16663   1.954   3.140   2.351 -0.1505  0.0992  0.1841
 1677SOL    HW116664   1.963   3.228   2.387 -1.5374  0.0746  0.5687
 1677SOL    HW216665   1.906   3.090   2.416 -0.8869  0.0627 -0.3815
 1678SOL     OW16666   0.523   0.894   2.028 -0.3445 -0.1746 -0.0029
 1678SOL    HW116667   0.573   0.831   1.976  0.1978 -0.7931  1.2783
 1678SOL    HW216668   0.527   0.967   1.967  0.3336 -0.5461 -0.4033
 1679SOL     OW16669   2.569   3.419  15.220  0.3272 -0.0921  0.0305
 1679SOL    HW116670   2.624   3.488  15.258  0.2392 -0.4803  0.8569
 1679SOL    HW216671   2.630   3.350  15.196  1.2150  0.2294  1.3753
 1680SOL     OW16672   3.505   2.124   1.904 -0.3434 -0.5278  0.3322
 1680SOL    HW116673   3.559   2.069   1.961 -0.5506  0.1573  1.1949
 1680SOL    HW216674   3.571   2.148   1.839 -0.4789  0.8548  0.6944
 1681SOL     OW16675   2.308   2.889   8.458  0.4725 -0.7171 -0.0269
 1681SOL    HW116676   2.238   2.885   8.523  1.2622 -0.1832  0.8590
 1681SOL    HW216677   2.259   2.918   8.382  1.9611 -2.0833 -1.5151
 1682SOL     OW16678   2.217   1.256   3.696  0.3093  0.5292  0.1450
 1682SOL    HW116679   2.276   1.325   3.667  0.9913  0.0238  0.3129
 1682SOL    HW216680   2.242   1.243   3.788 -1.1307  2.2927  0.7756
 1683SOL     OW16681   4.253   1.823   3.743  0.4629 -0.0517  0.3119
 1683SOL    HW116682   4.198   1.901   3.749 -0.9818 -1.2600  2.4839
 1683SOL    HW216683   4.316   1.838   3.814  0.2168 -1.6299  0.8493
 1684SOL     OW16684   3.349   2.903  14.053 -0.2614 -0.3184  0.4526
 1684SOL    HW116685   3.440   2.916  14.080  0.0356 -2.7688  0.6480
 1684SOL    HW216686   3.305   2.937  14.131 -1.7573 -1.3678  0.0644
 1685SOL     OW16687   4.600   3.247   8.652 -0.0452  0.5695  0.0775
 1685SOL    HW116688   4.671   3.290   8.604  1.1055 -1.0257  0.3378
 1685SOL    HW216689   4.534   3.313   8.631  1.2256  1.5677 -0.8357
 1686SOL     OW16690   3.983   3.363   1.570 -0.5381 -0.0745 -0.1203
 1686SOL    HW116691   4.079   3.366   1.570 -0.5645 -0.3253  4.2990
 1686SOL    HW216692   3.968   3.446   1.524 -1.1863 -0.6040 -0.8673
 1687SOL     OW16693   2.199   3.721  13.047 -0.0068  0.2009  0.0289
 1687SOL    HW116694   2.107   3.719  13.073 -0.1211  1.5453 -0.2895
 1687SOL    HW216695   2.190   3.657  12.976 -1.0502  0.7474 -0.3231
 1688SOL     OW16696   1.102   3.276  14.879 -0.6481  0.8267  0.1512
 1688SOL    HW116697   1.161   3.203  14.857 -2.5059 -0.9383  1.0637
 1688SOL    HW216698   1.094   3.305  14.788 -1.5305  3.0356  0.9336
 1689SOL     OW16699   3.021   4.628   8.988  0.1482  0.2605  0.0051
 1689SOL    HW116700   3.002   4.566   9.058  0.7308  2.7532  2.3273
 1689SOL    HW216701   3.050   4.711   9.024  0.8910  1.2054 -2.7487
 1690SOL     OW16702   2.453   2.923   3.888 -0.3904  0.2734  0.0373
 1690SOL    HW116703   2.518   2.876   3.940  1.2080  1.6103 -0.7581
 1690SOL    HW216704   2.498   3.005   3.866  2.1979 -0.8205  1.2503
 1691SOL     OW16705   0.638   2.270   4.234  0.2672 -0.3167  0.0637
 1691SOL    HW116706   0.705   2.225   4.285  1.0893 -1.1052 -1.7105
 1691SOL    HW216707   0.610   2.348   4.280 -0.2734  0.0706 -0.9186
 1692SOL     OW16708   0.722   1.691   1.060  0.2157 -0.0337  0.4671
 1692SOL    HW116709   0.670   1.768   1.084 -0.2818  0.3984 -2.0246
 1692SOL    HW216710   0.715   1.689   0.964 -0.0646  1.2849  0.4530
 1693SOL     OW16711   1.127   2.493  10.990  0.2893 -0.8693 -0.2216
 1693SOL    HW116712   1.183   2.465  10.918 -1.2371 -1.7286 -1.0828
 1693SOL    HW216713   1.048   2.439  10.981 -0.7665  0.7034 -0.4306
 1694SOL     OW16714   0.141   3.883   8.788  0.2018 -0.0787 -0.2049
 1694SOL    HW116715   0.125   3.797   8.825  0.6914  0.0532  0.3129
 1694SOL    HW216716   0.056   3.915   8.760  1.0875  1.8014 -0.7667
 1695SOL     OW16717   0.582   4.582   2.008 -0.3871 -0.5649 -0.6987
 1695SOL    HW116718   0.540   4.563   2.091 -1.6646 -1.4825 -1.5556
 1695SOL    HW216719   0.588   4.493   1.972 -2.1915 -1.3092  0.8412
 1696SOL     OW16720   0.892   3.269   5.770 -0.6023 -0.1498  0.2847
 1696SOL    HW116721   0.935   3.187   5.795  1.1957  0.5646 -0.4582
 1696SOL    HW216722   0.805   3.257   5.808 -1.3888 -0.5331 -1.6436
 1697SOL     OW16723   4.305   0.963  15.091  0.2955 -0.5815 -0.3317
 1697SOL    HW116724   4.284   0.936  15.001 -0.7152  0.1255 -0.3013
 1697SOL    HW216725   4.399   0.944  15.094  0.5397  0.5429 -1.0519
 1698SOL     OW16726   4.317   3.469   7.134 -0.1118  0.1874  0.8982
 1698SOL    HW116727   4.345   3.385   7.097 -0.1934  0.7715 -0.4885
 1698SOL    HW216728   4.363   3.471   7.217 -0.9017 -2.1740  1.3873
 1699SOL     OW16729   4.021   2.992   8.099 -0.2925  0.5133 -0.0373
 1699SOL    HW116730   4.043   3.002   8.192  2.7663  0.9624 -0.8346
 1699SOL    HW216731   4.061   3.063   8.049  0.6241 -0.1315 -0.2251
 1700SOL     OW16732   4.319   0.595  10.141  0.4309  0.5205 -0.4245
 1700SOL    HW116733   4.360   0.605  10.055 -1.7069  0.7381 -1.4118
 1700SOL    HW216734   4.228   0.614  10.121 -0.0415 -0.1167  1.1124
 1701SOL     OW16735   1.833   3.295   6.960  0.1873 -0.0740  0.5996
 1701SOL    HW116736   1.803   3.259   6.876 -2.3847  3.2112  0.0968
 1701SOL    HW216737   1.928   3.293   6.953  0.2094 -0.3063  0.9606
 1702SOL     OW16738   3.896   2.929  17.616  0.2067  0.1922  0.0219
 1702SOL    HW116739   3.940   2.939  17.700  0.2824 -1.6430  0.1855
 1702SOL    HW216740   3.835   2.855  17.620 -0.2586  0.6239  0.8746
 1703SOL     OW16741   3.379   0.069   4.758 -0.0225 -0.0829 -0.4345
 1703SOL    HW116742   3.461   0.023   4.744 -0.7094 -1.7336  0.8656
 1703SOL    HW216743   3.396   0.141   4.698 -1.0376  1.0304  0.5937
 1704SOL     OW16744   0.126   1.655   2.159  0.3610 -0.1510  0.4188
 1704SOL    HW116745   0.115   1.742   2.119 -0.4637  0.0097  0.9696
 1704SOL    HW216746   0.190   1.624   2.096  0.4448 -1.4509  1.1467
 1705SOL     OW16747   3.758   0.501   0.169 -0.3269  0.5284 -0.5381
 1705SOL    HW116748   3.835   0.517   0.224 -1.2479 -0.2772  0.9764
 1705SOL    HW216749   3.681   0.524   0.220 -0.5294  0.1299 -0.6650
 1706SOL     OW16750   2.580   1.438   1.750 -0.0310  0.2129 -0.5917
 1706SOL    HW116751   2.642   1.400   1.813  1.5850  4.1243  0.1648
 1706SOL    HW216752   2.641   1.476   1.687  0.1556 -0.9981 -1.1552
 1707SOL     OW16753   2.060   2.602   7.196  0.0698 -0.2418  0.7426
 1707SOL    HW116754   2.142   2.580   7.242  2.0613 -1.5329 -3.4552
 1707SOL    HW216755   2.014   2.519   7.213  2.3783 -1.4444  1.2058
 1708SOL     OW16756   1.558   3.163   0.775  0.2437 -0.3543 -0.2475
 1708SOL    HW116757   1.620   3.218   0.824  0.9638 -0.8557 -0.5890
 1708SOL    HW216758   1.509   3.233   0.732  0.5866  0.1982  0.2565
 1709SOL     OW16759   4.623   1.877  14.353 -0.1296  0.2760  0.3456
 1709SOL    HW116760   4.622   1.942  14.282 -1.3553 -1.9460 -1.6689
 1709SOL    HW216761   4.536   1.886  14.391 -0.3454 -3.2817  0.6694
 1710SOL     OW16762   0.508   4.226   8.372 -0.3904 -0.5967 -0.7473
 1710SOL    HW116763   0.492   4.251   8.463  0.1977  1.5529 -1.2412
 1710SOL    HW216764   0.444   4.283   8.329  2.5017  3.3639  0.2080
 1711SOL     OW16765   1.770   3.732   8.206 -0.1289 -0.3257 -0.1905
 1711SOL    HW116766   1.688   3.778   8.222 -0.0170 -0.1150 -0.2241
 1711SOL    HW216767   1.801   3.717   8.296 -0.2218 -0.3331 -0.1596
 1712SOL     OW16768   4.290   4.731   3.328 -0.3243  0.4310 -0.3360
 1712SOL    HW116769   4.385   4.722   3.318 -0.1976  0.8590  0.4934
 1712SOL    HW216770   4.282   0.073   3.273  1.9813  1.0039  0.1251
 1713SOL     OW16771   3.942   3.355  10.132 -0.0414  0.5643 -0.1278
 1713SOL    HW116772   4.003   3.287  10.102  0.3734  1.1537 -0.6291
 1713SOL    HW216773   3.920   3.332  10.222 -1.3698 -0.7618 -0.7800
 1714SOL     OW16774   0.190   4.390   9.071 -0.6095  0.5103 -0.2273
 1714SOL    HW116775   0.166   4.433   8.989  0.2588  3.4781  1.0709
 1714SOL    HW216776   0.264   4.442   9.103  0.8905 -0.0499 -2.7587
 1715SOL     OW16777   0.323   3.300   8.350  0.0895 -0.0607  0.0876
 1715SOL    HW116778   0.270   3.233   8.306 -0.7165 -0.8342  2.2297
 1715SOL    HW216779   0.288   3.287   8.439  2.4811 -0.2459  0.9939
 1716SOL     OW16780   4.492   1.637   4.604 -0.4560  0.2362 -0.0385
 1716SOL    HW116781   4.478   1.625   4.510 -1.3790 -1.7543  0.3366
 1716SOL    HW216782   4.587   1.628   4.607 -0.7241 -3.3339 -1.5314
 1717SOL     OW16783   2.045   1.139  13.786 -0.1580 -0.8479  0.7735
 1717SOL    HW116784   2.056   1.204  13.856  0.9414  1.1263 -1.2257
 1717SOL    HW216785   1.951   1.151  13.770 -0.0278 -1.0605 -0.1245
 1718SOL     OW16786   0.253   2.728   7.086  0.6949  0.0091  1.0185
 1718SOL    HW116787   0.163   2.729   7.055  0.7124 -1.8720  0.9359
 1718SOL    HW216788   0.276   2.636   7.078 -0.4468 -0.3661  2.1041
 1719SOL     OW16789   1.742   1.980   4.270 -0.2945  0.4814 -0.1768
 1719SOL    HW116790   1.765   1.890   4.294  0.6367  0.5593 -0.7909
 1719SOL    HW216791   1.681   2.001   4.341 -0.0348  0.4417  0.0582
 1720SOL     OW16792   1.182   0.655   1.959  0.1306 -0.1189 -0.1769
 1720SOL    HW116793   1.149   0.745   1.965  1.0947  0.3297 -1.5782
 1720SOL    HW216794   1.276   0.670   1.959  0.0413  0.4603 -1.1283
 1721SOL     OW16795   0.983   3.727   6.975  0.0158  0.4593 -0.0267
 1721SOL    HW116796   0.975   3.637   6.944  0.6044  0.1089  0.8257
 1721SOL    HW216797   1.055   3.712   7.037 -0.0886  1.2295  0.2849
 1722SOL     OW16798   2.118   2.242   3.701  0.3729  0.0728  0.3603
 1722SOL    HW116799   2.149   2.167   3.752  0.5102 -0.1860 -0.1125
 1722SOL    HW216800   2.122   2.221   3.608 -1.9294 -1.6253  0.6637
 1723SOL     OW16801   4.734   4.470   7.678 -0.2810 -0.3870  0.3211
 1723SOL    HW116802   0.052   4.484   7.756 -1.2642 -1.0306  1.1059
 1723SOL    HW216803   4.663   4.422   7.722 -0.8588 -0.6467 -0.8915
 1724SOL     OW16804   3.675   3.041   3.610 -0.5323  0.2328 -0.0226
 1724SOL    HW116805   3.708   3.078   3.692 -1.0609 -1.0123  0.7434
 1724SOL    HW216806   3.752   2.996   3.577 -1.6234 -1.0439 -0.8394
 1725SOL     OW16807   2.154   1.334   2.251  0.5479  0.0694  0.0368
 1725SOL    HW116808   2.179   1.272   2.320  5.0367 -1.1424 -2.6776
 1725SOL    HW216809   2.193   1.294   2.173  2.1905  0.1512  0.8129
 1726SOL     OW16810   4.387   4.069   2.393 -0.1446  0.4989  0.1592
 1726SOL    HW116811   4.302   4.113   2.393 -0.6228 -0.4308 -2.3300
 1726SOL    HW216812   4.409   4.116   2.473 -0.7584 -0.2537  0.7610
 1727SOL     OW16813   4.275   0.026   8.886  0.1287 -0.1289 -0.5194
 1727SOL    HW116814   4.211   0.009   8.818  0.2404 -1.0022 -0.4049
 1727SOL    HW216815   4.208   0.061   8.945 -1.3390  0.3285 -2.4921
 1728SOL     OW16816   0.238   3.619   8.363 -0.5958 -0.0517  0.1568
 1728SOL    HW116817   0.332   3.624   8.376 -0.7727  4.5096 -0.3772
 1728SOL    HW216818   0.230   3.541   8.309 -0.9329 -0.1376  0.3270
 1729SOL     OW16819   4.729   2.089  13.382 -0.2080 -0.0578  0.1756
 1729SOL    HW116820   4.689   2.160  13.433 -0.0930  0.9374 -1.1300
 1729SOL    HW216821   4.665   2.018  13.393  0.6465 -0.7417  0.7370
 1730SOL     OW16822   0.711   3.171   6.167 -0.3385  0.0232 -0.1077
 1730SOL    HW116823   0.765   3.249   6.151 -2.0061  1.0111 -0.9157
 1730SOL    HW216824   0.747   3.143   6.251  0.0088 -0.1743 -0.3243
 1731SOL     OW16825   2.882   1.201  15.070 -0.4986 -0.3856  0.4210
 1731SOL    HW116826   2.865   1.294  15.054 -1.2546 -0.7099 -0.6624
 1731SOL    HW216827   2.799   1.179  15.113 -1.4681  2.1632 -0.1159
 1732SOL     OW16828   2.029   3.989   5.141  0.4505 -0.2416 -0.4548
 1732SOL    HW116829   1.979   3.908   5.128  1.2303 -0.8302  0.2488
 1732SOL    HW216830   2.105   3.985   5.083  1.5137  0.3031  0.9127
 1733SOL     OW16831   4.478   0.919  15.407 -0.1395 -0.2034  0.3522
 1733SOL    HW116832   4.388   0.931  15.376  0.3738  1.1109 -0.6298
 1733SOL    HW216833   4.498   0.995  15.461 -0.9266  0.2018  0.0697
 1734SOL     OW16834   0.324   3.265  12.231 -0.3381 -0.3617  0.4774
 1734SOL    HW116835   0.299   3.195  12.172  1.8123 -0.5066 -0.2397
 1734SOL    HW216836   0.336   3.339  12.172  2.6357  0.1288  1.6817
 1735SOL     OW16837   4.636   2.331   0.022 -0.5475  0.7794 -0.5164
 1735SOL    HW116838   4.557   2.334  17.710 -0.4257  2.1874 -0.6322
 1735SOL    HW216839   4.698   2.325  17.690 -0.0481 -0.7969  0.0395
 1736SOL     OW16840   1.676   3.096   6.278 -0.2030  0.5294 -0.1770
 1736SOL    HW116841   1.587   3.128   6.295 -0.3681  0.1717 -0.3616
 1736SOL    HW216842   1.735   3.169   6.298  0.9138 -0.0356 -1.4216
 1737SOL     OW16843   1.926   2.712   1.439  0.1147 -0.3444  0.3822
 1737SOL    HW116844   1.998   2.649   1.425  1.3001  0.9379  0.7892
 1737SOL    HW216845   1.859   2.673   1.382 -0.1746  0.4043  0.2200
 1738SOL     OW16846   2.593   0.609   3.729 -0.4706  0.4512 -0.1305
 1738SOL    HW116847   2.528   0.667   3.690  0.9538  1.9837 -0.2406
 1738SOL    HW216848   2.626   0.672   3.793  0.5469 -1.3221  1.0927
 1739SOL     OW16849   0.433   3.293  13.170 -0.4509  0.0363 -0.2055
 1739SOL    HW116850   0.438   3.198  13.185 -1.6346 -0.0492 -0.3650
 1739SOL    HW216851   0.341   3.304  13.147  0.3090 -1.4332 -3.9843
 1740SOL     OW16852   2.163   0.654  15.483 -0.2330 -0.0306 -0.0775
 1740SOL    HW116853   2.157   0.576  15.539 -3.5250  0.0027 -0.3596
 1740SOL    HW216854   2.126   0.710  15.552  0.2511  0.4668 -0.2302
 1741SOL     OW16855   3.934   0.342   6.590 -0.0447  0.4639 -0.4811
 1741SOL    HW116856   3.961   0.396   6.516  2.3408  0.2692  0.2480
 1741SOL    HW216857   3.937   0.251   6.559  0.8997  0.2666  0.1953
 1742SOL     OW16858   3.451   1.337   4.476  0.6239  0.2708  0.1260
 1742SOL    HW116859   3.516   1.364   4.411 -1.0896  2.2648 -0.7498
 1742SOL    HW216860   3.497   1.376   4.550 -0.6335  1.7987  0.1023
 1743SOL     OW16861   4.610   2.923   3.928 -0.5891 -0.0461  0.8249
 1743SOL    HW116862   4.637   2.836   3.955  2.8751  0.5146 -0.7799
 1743SOL    HW216863   4.530   2.905   3.878 -0.7741  1.0621  0.7110
 1744SOL     OW16864   1.189   2.136   7.020  0.1256  0.5165  0.4831
 1744SOL    HW116865   1.266   2.193   7.021  0.3692  0.1801  0.7776
 1744SOL    HW216866   1.132   2.173   7.087  1.1430  1.5852  0.7507
 1745SOL     OW16867   3.343   3.156  11.560  0.5878 -0.1901  0.1030
 1745SOL    HW116868   3.330   3.123  11.649  0.6551  1.2563  0.6460
 1745SOL    HW216869   3.373   3.077  11.513  1.2486  0.5657 -0.7470
 1746SOL     OW16870   2.099   4.372   7.009 -0.1477  0.2141  0.5796
 1746SOL    HW116871   2.151   4.453   7.009 -0.0696  0.1802 -0.8915
 1746SOL    HW216872   2.038   4.400   6.940  1.4969 -0.8913 -1.3521
 1747SOL     OW16873   3.610   4.329   6.536  0.1117  0.2724 -0.5114
 1747SOL    HW116874   3.653   4.299   6.456 -0.5461  1.1786 -1.2069
 1747SOL    HW216875   3.542   4.385   6.498 -0.4742  0.1926  0.4051
 1748SOL     OW16876   4.370   3.230   6.725  0.8297  0.1863 -0.0015
 1748SOL    HW116877   4.309   3.295   6.761 -2.1227 -2.2486 -0.5561
 1748SOL    HW216878   4.362   3.242   6.630 -0.8237  0.1539  0.1299
 1749SOL     OW16879   4.365   3.581   9.648 -0.4340 -0.8306  0.3674
 1749SOL    HW116880   4.430   3.511   9.660  0.9466  0.1132 -1.5958
 1749SOL    HW216881   4.302   3.540   9.589 -0.3738  0.6883 -0.7561
 1750SOL     OW16882   3.889   0.394   6.079 -0.0610  0.5672  0.0986
 1750SOL    HW116883   3.895   0.313   6.129  2.4695 -0.8637 -2.5488
 1750SOL    HW216884   3.883   0.452   6.156 -0.8774  1.1136 -0.3821
 1751SOL     OW16885   2.211   0.127   2.232  0.2076 -0.3477 -0.3476
 1751SOL    HW116886   2.196   0.104   2.141 -1.6808  0.9072 -0.3440
 1751SOL    HW216887   2.154   0.067   2.281  3.9718 -2.8743  0.9582
 1752SOL     OW16888   2.380   2.812   3.669 -0.3203 -1.1065  0.0785
 1752SOL    HW116889   2.377   2.867   3.747 -0.4871 -0.1000 -0.6497
 1752SOL    HW216890   2.467   2.811   3.630 -0.2291  0.4500  0.2653
 1753SOL     OW16891   0.906   1.259   3.653  0.0991 -0.1150 -0.4516
 1753SOL    HW116892   0.864   1.329   3.604  0.1575  0.2265 -0.0109
 1753SOL    HW216893   0.986   1.296   3.691  0.6082 -2.1392  0.5078
 1754SOL     OW16894   1.856   1.995   7.585 -0.4061 -0.2267 -0.7677
 1754SOL    HW116895   1.933   1.943   7.562 -2.1219 -1.9188 -2.6803
 1754SOL    HW216896   1.894   2.082   7.573 -0.6755 -0.2175 -1.5523
 1755SOL     OW16897   2.824   4.677  13.630  0.4724 -0.2220  0.0118
 1755SOL    HW116898   2.764   0.001  13.584  0.1472 -1.7378 -1.5199
 1755SOL    HW216899   2.907   4.724  13.632 -0.4515  1.3649  1.3987
 1756SOL     OW16900   0.703   3.795   0.175 -0.1356  0.4857  0.2347
 1756SOL    HW116901   0.770   3.831   0.117 -0.3791 -1.8989 -1.5529
 1756SOL    HW216902   0.735   3.704   0.177  0.1960  0.6247  1.1421
 1757SOL     OW16903   3.864   0.224   4.513 -0.1738 -0.0522  0.7679
 1757SOL    HW116904   3.902   0.253   4.430 -0.0121 -1.4030  0.3703
 1757SOL    HW216905   3.777   0.193   4.488 -0.3023  0.0578  1.0753
 1758SOL     OW16906   1.526   2.732   9.365 -0.0108  0.5565  0.9389
 1758SOL    HW116907   1.510   2.700   9.454 -2.3040 -0.8217  0.0199
 1758SOL    HW216908   1.598   2.677   9.335  1.2575  2.0648  1.2151
 1759SOL     OW16909   1.083   2.578   3.713  0.2252  0.4220  0.0104
 1759SOL    HW116910   1.012   2.640   3.696 -1.5284 -0.8587  2.6868
 1759SOL    HW216911   1.031   2.509   3.754  0.9547 -0.7388 -1.0296
 1760SOL     OW16912   2.849   1.484   6.904  0.4298  0.1569  0.0798
 1760SOL    HW116913   2.838   1.472   6.809 -0.8799 -2.8612  0.6102
 1760SOL    HW216914   2.876   1.575   6.900  0.8886  0.0144 -0.1453
 1761SOL     OW16915   4.004   4.490   3.481 -0.2608 -0.2914  0.2307
 1761SOL    HW116916   4.059   4.475   3.405  1.4484 -0.4106  1.4801
 1761SOL    HW216917   3.973   4.401   3.498 -4.1501  0.9828 -0.3466
 1762SOL     OW16918   2.099   0.767  15.927 -0.6152  0.2017  0.0596
 1762SOL    HW116919   2.048   0.839  15.964 -1.4627  0.0306 -0.7876
 1762SOL    HW216920   2.089   0.791  15.835  1.2092 -1.0216 -0.4622
 1763SOL     OW16921   2.892   4.733  11.857 -0.2399  0.0767  0.5918
 1763SOL    HW116922   2.873   0.092  11.852  0.2747  0.1870  0.7820
 1763SOL    HW216923   2.855   4.715  11.944 -2.7712  0.5354 -0.3840
 1764SOL     OW16924   2.410   1.440   7.950 -0.0973  0.2161  0.4623
 1764SOL    HW116925   2.447   1.438   7.862  0.3604 -0.7303  0.6752
 1764SOL    HW216926   2.473   1.495   7.998 -0.4053  0.9233  0.0617
 1765SOL     OW16927   0.589   2.602   3.074  0.1107  0.0151  0.0453
 1765SOL    HW116928   0.655   2.568   3.015  0.2471  2.2588 -1.1169
 1765SOL    HW216929   0.619   2.693   3.076  2.1289 -0.6583 -0.0661
 1766SOL     OW16930   3.296   4.058   9.707 -0.3119 -0.3709  0.4184
 1766SOL    HW116931   3.240   4.070   9.630  0.7244 -1.2024 -0.4708
 1766SOL    HW216932   3.381   4.071   9.663 -0.3574 -2.2760 -0.2165
 1767SOL     OW16933   0.175   2.495   8.268 -0.2089  0.4318 -0.5319
 1767SOL    HW116934   0.251   2.549   8.290 -1.5455  2.0541  0.0639
 1767SOL    HW216935   0.108   2.562   8.283  0.1570  0.4883  0.8038
 1768SOL     OW16936   0.121   1.943  10.612  0.5821  0.0825  0.5562
 1768SOL    HW116937   0.047   2.001  10.595  0.3429  0.3133  2.3392
 1768SOL    HW216938   0.153   1.991  10.689 -0.1407  0.2677  0.7429
 1769SOL     OW16939   2.316   2.566   4.043  0.2227  0.0063  0.3167
 1769SOL    HW116940   2.384   2.594   3.981  1.2148  0.2149  1.5092
 1769SOL    HW216941   2.247   2.539   3.983  0.4395 -0.6642  0.3596
 1770SOL     OW16942   3.298   1.055   7.938  1.0358 -0.1373 -0.8602
 1770SOL    HW116943   3.216   1.050   7.986  1.3601 -0.7823 -0.3675
 1770SOL    HW216944   3.339   0.978   7.979  0.3389 -0.4866 -0.8112
 1771SOL     OW16945   2.319   2.204  16.953  0.0064 -0.2294 -0.1398
 1771SOL    HW116946   2.296   2.254  17.032  1.7260 -0.4827  0.5249
 1771SOL    HW216947   2.375   2.137  16.991 -0.8599 -1.4575 -1.0188
 1772SOL     OW16948   3.397   1.162  10.272 -0.0921  0.1701 -0.2486
 1772SOL    HW116949   3.380   1.092  10.336 -2.6080  0.7443 -0.3110
 1772SOL    HW216950   3.489   1.179  10.291  0.1416 -0.5370 -0.7191
 1773SOL     OW16951   4.570   2.961   9.170  0.3305 -0.4411  0.2710
 1773SOL    HW116952   4.528   2.976   9.085  1.4792  1.2514 -0.0160
 1773SOL    HW216953   4.574   3.051   9.203  1.9814 -0.2541 -0.4603
 1774SOL     OW16954   4.676   4.422   2.458  0.5933 -0.3470  0.4390
 1774SOL    HW116955   4.641   4.487   2.519  0.2795 -0.1445  0.0356
 1774SOL    HW216956   4.601   4.377   2.420  0.6816  1.1545 -1.4727
 1775SOL     OW16957   2.308   3.585  14.425 -0.1735 -0.2022 -0.3002
 1775SOL    HW116958   2.299   3.594  14.520  1.4413  0.5036 -0.2157
 1775SOL    HW216959   2.400   3.562  14.415 -0.4076 -0.7789 -1.1038
 1776SOL     OW16960   4.580   4.376   8.596 -0.2793  0.5024 -0.1701
 1776SOL    HW116961   4.550   4.402   8.683  0.7247 -0.3197  0.4237
 1776SOL    HW216962   4.663   4.332   8.616 -2.2859 -1.7343  3.2655
 1777SOL     OW16963   3.184   2.670   2.283  0.5419 -0.4947 -0.1223
 1777SOL    HW116964   3.118   2.737   2.303  0.8896 -1.2953  3.6486
 1777SOL    HW216965   3.120   2.603   2.260  3.0760 -2.1965 -2.2501
 1778SOL     OW16966   2.766   3.195   2.755 -0.1116 -0.1581  0.1524
 1778SOL    HW116967   2.740   3.121   2.701 -0.0143 -1.4516  1.8720
 1778SOL    HW216968   2.688   3.246   2.777 -0.0700  0.3453 -0.8663
 1779SOL     OW16969   4.153   3.857  15.623 -0.0075  0.1290 -0.2097
 1779SOL    HW116970   4.063   3.827  15.611 -0.2735  0.2885  1.3717
 1779SOL    HW216971   4.157   3.853  15.719 -0.5927 -1.4144 -0.2572
 1780SOL     OW16972   1.368   4.722   9.128 -0.0471  0.2114 -0.5433
 1780SOL    HW116973   1.383   0.081   9.122  1.5138  0.0167  0.2184
 1780SOL    HW216974   1.455   4.684   9.142 -0.3622 -0.5333 -0.5821
 1781SOL     OW16975   4.146   0.300   9.285  0.0105  0.3448  0.1534
 1781SOL    HW116976   4.143   0.317   9.379  0.0535 -1.4475  0.4871
 1781SOL    HW216977   4.098   0.376   9.254 -3.2873 -1.0623  1.7288
 1782SOL     OW16978   1.657   2.034   7.774 -0.6995 -0.2942  0.0225
 1782SOL    HW116979   1.700   1.996   7.851  1.5893  3.5169  0.6444
 1782SOL    HW216980   1.720   2.037   7.702  0.2659  1.9101  0.9478
 1783SOL     OW16981   1.369   0.282   2.348  0.7879  0.0949 -0.1599
 1783SOL    HW116982   1.451   0.329   2.336  1.3879 -1.0906 -0.7158
 1783SOL    HW216983   1.319   0.336   2.409  2.7020  1.9754 -0.2594
 1784SOL     OW16984   0.124   0.967   6.934  0.4806  0.4166 -0.1414
 1784SOL    HW116985   0.055   0.974   6.868  1.4264 -0.3494 -1.2177
 1784SOL    HW216986   0.111   0.882   6.976 -0.4065 -0.7497 -2.7994
 1785SOL     OW16987   3.338   3.513   5.793 -0.2006  0.3988 -0.5191
 1785SOL    HW116988   3.427   3.484   5.773 -0.7367 -2.0985  0.7148
 1785SOL    HW216989   3.344   3.550   5.881 -0.3603  1.8687 -1.1414
 1786SOL     OW16990   0.245   2.532   7.817  0.0060  0.1597  0.5452
 1786SOL    HW116991   0.266   2.473   7.746 -2.5382 -0.2138  0.1047
 1786SOL    HW216992   0.180   2.482   7.865 -0.6037 -0.5398 -1.0223
 1787SOL     OW16993   3.213   2.899   8.469 -0.0970 -0.0774 -0.1171
 1787SOL    HW116994   3.190   2.854   8.388  0.6502  0.6315 -0.7215
 1787SOL    HW216995   3.169   2.839   8.529  3.6959 -1.6661  1.1035
 1788SOL     OW16996   0.517   1.495   3.617 -0.1310  0.5704  0.1625
 1788SOL    HW116997   0.533   1.498   3.523  1.0164  0.8750  0.3777
 1788SOL    HW216998   0.461   1.417   3.616  0.8827 -0.1066 -3.7653
 1789SOL     OW16999   2.810   3.770   7.577 -0.3828 -0.4569 -0.6145
 1789SOL    HW117000   2.779   3.824   7.650 -0.6258  0.0485 -1.0913
 1789SOL    HW217001   2.795   3.830   7.504 -2.5653 -1.1892 -0.7479
 1790SOL     OW17002   2.944   0.316  14.687 -0.1721 -0.0905  0.1414
 1790SOL    HW117003   2.891   0.395  14.697  0.4385  0.4218 -0.6722
 1790SOL    HW217004   2.983   0.310  14.600  0.0956  1.1613  0.1726
 1791SOL     OW17005   2.646   3.861   8.383  0.4331  0.0678 -0.2393
 1791SOL    HW117006   2.735   3.829   8.400  0.3534 -0.3231 -0.5618
 1791SOL    HW217007   2.626   3.904   8.466 -0.0599  1.2053 -0.9505
 1792SOL     OW17008   1.940   1.240   6.568  0.4765 -0.1015 -0.4441
 1792SOL    HW117009   1.950   1.155   6.609 -0.6115  0.8804  1.8480
 1792SOL    HW217010   1.963   1.302   6.637 -0.6310 -1.3271  1.0282
 1793SOL     OW17011   3.073   2.461  16.092 -0.0669  0.4338 -0.4334
 1793SOL    HW117012   3.005   2.456  16.026 -0.3156  1.9176 -0.2881
 1793SOL    HW217013   3.129   2.384  16.084 -1.8593 -0.7711 -1.3328
 1794SOL     OW17014   4.449   2.404   7.157 -0.5870  0.0377 -0.1809
 1794SOL    HW117015   4.421   2.363   7.076  2.0967  0.1805 -1.1964
 1794SOL    HW217016   4.442   2.329   7.216 -1.1797  0.1266 -0.1411
 1795SOL     OW17017   4.397   3.838  10.331  0.2267  0.1377 -0.1257
 1795SOL    HW117018   4.321   3.799  10.287  0.0560  0.9386 -0.5273
 1795SOL    HW217019   4.388   3.798  10.418 -0.9191 -0.9651 -0.7507
 1796SOL     OW17020   0.700   4.260  14.306 -0.0825  0.2130 -0.8119
 1796SOL    HW117021   0.711   4.269  14.212  1.8945  0.2417 -0.5881
 1796SOL    HW217022   0.737   4.172  14.321 -2.2909 -0.8181 -1.4489
 1797SOL     OW17023   0.681   1.616  15.437 -0.0513  0.0086 -0.3497
 1797SOL    HW117024   0.598   1.663  15.439  0.4996  0.9249  0.7820
 1797SOL    HW217025   0.749   1.683  15.433 -1.0128  0.9010 -1.7304
 1798SOL     OW17026   4.461   0.177   5.521 -0.3411  0.1463  0.5845
 1798SOL    HW117027   4.535   0.238   5.520  1.1068 -1.6036 -0.6467
 1798SOL    HW217028   4.473   0.098   5.469  2.1655  0.8817  0.0190
 1799SOL     OW17029   0.812   3.192   5.423 -0.3193  0.5427  0.6982
 1799SOL    HW117030   0.762   3.128   5.373 -0.8848 -1.2989  3.6345
 1799SOL    HW217031   0.759   3.270   5.440 -1.3303  0.0537 -0.2253
 1800SOL     OW17032   4.567   4.623   5.466 -0.7576  0.4117  0.1524
 1800SOL    HW117033   4.492   4.577   5.504 -0.5519  0.3006  0.4276
 1800SOL    HW217034   4.624   4.618   5.543 -0.2432  3.4241 -0.0212
 1801SOL     OW17035   0.866   2.109  14.642  0.0682 -0.2354 -0.0516
 1801SOL    HW117036   0.888   2.133  14.553  0.9983 -0.9839 -0.0185
 1801SOL    HW217037   0.878   2.014  14.638  4.4485  0.2971  0.4378
 1802SOL     OW17038   2.011   3.779  10.509 -0.1157 -0.3696  0.2360
 1802SOL    HW117039   2.050   3.712  10.565  2.4530  1.9169  1.1675
 1802SOL    HW217040   1.994   3.721  10.435 -2.6703 -1.8763  2.0414
 1803SOL     OW17041   0.600   1.572  17.163  0.5385  0.7751  0.6978
 1803SOL    HW117042   0.601   1.529  17.077  0.8475  2.8607 -0.3523
 1803SOL    HW217043   0.611   1.665  17.141 -1.4153  0.9387  0.3757
 1804SOL     OW17044   0.617   1.616  16.050 -0.6911  0.0492  0.3289
 1804SOL    HW117045   0.577   1.660  15.975  1.7677 -0.1570 -1.1167
 1804SOL    HW217046   0.540   1.568  16.082 -0.7599 -1.3294 -1.8829
 1805SOL     OW17047   1.334   1.754  11.383 -0.1157 -0.5804 -0.8120
 1805SOL    HW117048   1.314   1.745  11.289  0.2470  2.4282 -1.1794
 1805SOL    HW217049   1.368   1.668  11.408  2.6655  1.2957  1.7762
 1806SOL     OW17050   2.076   1.640   9.088  0.1595  0.1584  0.0909
 1806SOL    HW117051   2.108   1.680   9.169 -1.6518  2.2105 -0.2094
 1806SOL    HW217052   2.153   1.630   9.032 -0.4350  0.2298 -0.7415
 1807SOL     OW17053   1.583   4.060   2.095  0.0791 -0.2778 -0.4093
 1807SOL    HW117054   1.601   3.980   2.045 -0.2728 -0.6476  0.0449
 1807SOL    HW217055   1.626   4.030   2.176  0.3825 -1.7578 -1.1133
 1808SOL     OW17056   0.150   1.317   5.144  0.4187 -0.2577  0.6057
 1808SOL    HW117057   0.153   1.279   5.056 -0.0681 -0.0618  0.5045
 1808SOL    HW217058   0.106   1.246   5.191  0.7410 -0.5384  0.4862
 1809SOL     OW17059   1.795   0.040   8.379 -0.1054 -0.6224 -0.2466
 1809SOL    HW117060   1.776   4.702   8.438  1.7516  0.0850  1.2237
 1809SOL    HW217061   1.885   0.063   8.403 -1.3861  1.5059  2.4476
 1810SOL     OW17062   0.717   3.830  13.617  0.5759  0.0334  0.4908
 1810SOL    HW117063   0.712   3.738  13.588  0.2115  0.0148  0.6135
 1810SOL    HW217064   0.788   3.823  13.680  0.8520 -0.7436  0.1025
 1811SOL     OW17065   0.413   1.068  14.636  0.1911 -0.2058  0.0168
 1811SOL    HW117066   0.387   1.076  14.728 -0.9953  0.1833 -0.3469
 1811SOL    HW217067   0.508   1.075  14.646  0.3121  1.2465 -2.3889
 1812SOL     OW17068   3.667   0.831  14.274  0.0545  0.6862  0.3992
 1812SOL    HW117069   3.700   0.920  14.263  0.2020  0.6293  0.3783
 1812SOL    HW217070   3.666   0.827  14.370  1.0447  0.9515  0.4148
 1813SOL     OW17071   1.649   4.359   1.925 -0.1399  0.3481  0.0184
 1813SOL    HW117072   1.567   4.395   1.892 -0.2275 -0.2526 -0.4141
 1813SOL    HW217073   1.619   4.278   1.966  0.8087 -0.2181 -0.4053
 1814SOL     OW17074   0.435   0.589  15.169  0.0049 -0.5408  0.2332
 1814SOL    HW117075   0.517   0.626  15.136  0.5149 -1.0215  0.9551
 1814SOL    HW217076   0.431   0.523  15.100 -0.2905 -1.0343  0.7195
 1815SOL     OW17077   4.434   1.389   1.170  0.1243 -0.5279 -0.0749
 1815SOL    HW117078   4.397   1.306   1.139  0.8933 -0.4272 -1.2396
 1815SOL    HW217079   4.490   1.409   1.095 -0.8098 -0.1353 -0.6624
 1816SOL     OW17080   4.130   3.368   5.280  0.0452  0.0753  0.3961
 1816SOL    HW117081   4.225   3.381   5.289  0.0467 -0.6276  1.4674
 1816SOL    HW217082   4.097   3.374   5.369  1.8510  0.9324  1.0116
 1817SOL     OW17083   0.659   0.646   8.547 -0.1304  0.1799  0.1345
 1817SOL    HW117084   0.693   0.561   8.575 -1.2492 -1.3540 -3.1591
 1817SOL    HW217085   0.587   0.660   8.609  0.5047  2.5703  0.3429
 1818SOL     OW17086   2.687   3.659   8.036  0.1585 -0.4707  0.5198
 1818SOL    HW117087   2.649   3.593   8.094 -2.3338 -0.2128 -0.7683
 1818SOL    HW217088   2.777   3.627   8.035  0.4050  0.2557 -1.6765
 1819SOL     OW17089   1.569   1.342  10.123  0.2642  0.3216  0.6418
 1819SOL    HW117090   1.598   1.348  10.214 -1.4286 -0.2582  1.2236
 1819SOL    HW217091   1.622   1.414  10.089 -0.5212 -0.1959 -1.6636
 1820SOL     OW17092   3.339   0.672   2.083  0.3804 -0.2687 -0.5508
 1820SOL    HW117093   3.338   0.709   1.995 -2.0663 -1.0196 -0.8241
 1820SOL    HW217094   3.366   0.586   2.052 -0.2560 -1.0213  1.0117
 1821SOL     OW17095   4.275   2.922   6.712  0.0924 -0.0793 -0.0224
 1821SOL    HW117096   4.250   2.835   6.683 -1.9214  0.2154  0.8010
 1821SOL    HW217097   4.368   2.921   6.732  0.0985 -1.2999 -0.1354
 1822SOL     OW17098   4.209   1.122   5.775  0.0705 -0.3112 -0.0743
 1822SOL    HW117099   4.194   1.077   5.858  0.0983  0.0857  0.1466
 1822SOL    HW217100   4.160   1.203   5.787 -0.4634 -0.6022 -0.2956
 1823SOL     OW17101   3.888   2.832   3.556 -0.2867  0.0065 -0.5127
 1823SOL    HW117102   3.950   2.854   3.486  0.6585  0.8721  0.5867
 1823SOL    HW217103   3.943   2.850   3.633  1.3398  0.5976 -1.7908
 1824SOL     OW17104   2.423   3.826   5.475  0.2989 -0.8327  0.1349
 1824SOL    HW117105   2.517   3.837   5.490 -0.0354 -0.4598  1.9449
 1824SOL    HW217106   2.418   3.850   5.383 -2.3698  2.5055  1.1536
 1825SOL     OW17107   4.246   4.204   7.775 -0.9119  0.1647 -0.0208
 1825SOL    HW117108   4.224   4.150   7.851 -0.0415  0.2172  0.2685
 1825SOL    HW217109   4.225   4.289   7.814 -1.9582 -0.5402  0.9583
 1826SOL     OW17110   0.487   3.970   1.702  0.5298  0.3179  0.1947
 1826SOL    HW117111   0.392   3.967   1.690  0.6875 -0.3600 -0.9413
 1826SOL    HW217112   0.508   4.038   1.637  0.0483  0.9323  0.6858
 1827SOL     OW17113   0.705   2.484   9.897 -0.1099  0.1896  0.3333
 1827SOL    HW117114   0.629   2.534   9.925 -0.9068 -1.4674  1.1618
 1827SOL    HW217115   0.751   2.544   9.839  0.3609 -2.9598 -2.5693
 1828SOL     OW17116   4.084   2.361   3.419 -0.9546 -0.5109  0.0677
 1828SOL    HW117117   4.067   2.300   3.347  0.5722 -1.0740  0.1718
 1828SOL    HW217118   4.151   2.306   3.459 -0.8334  0.8147  1.6647
 1829SOL     OW17119   0.462   0.650   9.112 -0.3115 -0.7625  0.1469
 1829SOL    HW117120   0.410   0.610   9.043  0.0770 -2.0730  0.6159
 1829SOL    HW217121   0.478   0.579   9.175 -2.2217 -0.4611  0.9898
 1830SOL     OW17122   0.355   2.333   5.902 -0.4784 -0.3242  0.2855
 1830SOL    HW117123   0.436   2.366   5.862 -0.5174  0.9891  1.2847
 1830SOL    HW217124   0.334   2.397   5.970 -0.8840 -2.4251  2.1198
 1831SOL     OW17125   3.215   2.370   7.586 -0.2305 -0.0029 -0.0858
 1831SOL    HW117126   3.269   2.306   7.632 -1.7795  0.6474  2.6188
 1831SOL    HW217127   3.264   2.393   7.507  0.2562  0.6453  0.4129
 1832SOL     OW17128   4.273   2.672   9.169 -0.5754  0.1380  0.2058
 1832SOL    HW117129   4.306   2.640   9.253  2.6344 -0.8683 -1.4223
 1832SOL    HW217130   4.317   2.601   9.121  1.3652  1.1118  0.5091
 1833SOL     OW17131   3.505   1.833   5.916  0.3248 -0.6025  0.0630
 1833SOL    HW117132   3.483   1.805   6.005  0.3519 -1.1386 -0.0954
 1833SOL    HW217133   3.591   1.869   5.936  0.9424 -2.2848  0.4307
 1834SOL     OW17134   3.791   4.521   6.588 -0.7495 -0.1834 -0.3832
 1834SOL    HW117135   3.721   4.586   6.588  0.3146  0.9781  0.0869
 1834SOL    HW217136   3.734   4.447   6.569 -0.2494 -0.7739  0.4284
 1835SOL     OW17137   0.688   3.426   5.485 -0.6149 -0.4639  0.4462
 1835SOL    HW117138   0.614   3.482   5.509 -0.9717 -0.8588  0.2761
 1835SOL    HW217139   0.759   3.489   5.492 -1.1066  0.0813  0.5643
 1836SOL     OW17140   1.060   0.930   8.705  0.6858 -0.1975 -0.1151
 1836SOL    HW117141   1.097   0.935   8.793 -1.1731 -0.8261  0.6866
 1836SOL    HW217142   1.011   1.012   8.713  0.6888  0.0243 -2.2835
 1837SOL     OW17143   0.642   0.391   8.861 -0.2599 -0.1840 -0.0179
 1837SOL    HW117144   0.558   0.362   8.896 -0.1939 -0.7596 -0.3305
 1837SOL    HW217145   0.696   0.372   8.937 -0.0047  0.0599 -0.1383
 1838SOL     OW17146   4.594   1.603  14.310 -0.5336 -0.2969  0.5276
 1838SOL    HW117147   4.522   1.613  14.248  0.8545 -1.5212 -1.2695
 1838SOL    HW217148   4.617   1.694  14.328 -0.1660 -0.4111  0.6258
 1839SOL     OW17149   3.367   2.043   9.699  0.1204  0.1611 -0.1623
 1839SOL    HW117150   3.377   2.000   9.784 -1.2858  0.4610  0.1689
 1839SOL    HW217151   3.458   2.050   9.673  0.3459 -0.2601  0.5137
 1840SOL     OW17152   1.490   1.706   1.427 -0.0062  0.0006 -0.3951
 1840SOL    HW117153   1.559   1.772   1.431  1.0559 -1.1034 -0.2181
 1840SOL    HW217154   1.455   1.719   1.339  0.5530 -1.2708 -0.8085
 1841SOL     OW17155   1.731   2.296   6.338  0.3915  0.3208  0.1167
 1841SOL    HW117156   1.811   2.266   6.295  1.4683  0.9460  1.7063
 1841SOL    HW217157   1.773   2.347   6.408 -0.6349 -0.7408  1.5171
 1842SOL     OW17158   1.396   2.242   4.229  0.6118 -0.0170 -0.6223
 1842SOL    HW117159   1.385   2.221   4.322 -1.8667  2.2452 -0.4079
 1842SOL    HW217160   1.406   2.337   4.228  1.9496 -0.1538 -0.6319
 1843SOL     OW17161   0.079   3.219   9.094 -0.5377  0.9744 -0.1593
 1843SOL    HW117162   0.009   3.232   9.031 -1.0869  0.3216  0.3208
 1843SOL    HW217163   0.154   3.229   9.035 -0.0861  0.4020  0.3091
 1844SOL     OW17164   2.606   1.642  12.975  0.4065 -0.4042  0.5220
 1844SOL    HW117165   2.616   1.568  13.036  2.8224 -0.3335  0.1989
 1844SOL    HW217166   2.614   1.715  13.036  0.7685  0.7648 -0.9561
 1845SOL     OW17167   4.214   4.531  12.006  0.8869  0.1226  0.2276
 1845SOL    HW117168   4.235   4.593  11.937 -0.7651  1.1163  0.6132
 1845SOL    HW217169   4.179   4.595  12.069  0.7266 -0.5865  0.8650
 1846SOL     OW17170   2.849   3.260  14.144 -0.0217  0.1741  0.6437
 1846SOL    HW117171   2.919   3.323  14.159 -0.9924  1.5627 -0.7135
 1846SOL    HW217172   2.868   3.228  14.056 -2.0022 -0.4605  0.4552
 1847SOL     OW17173   3.540   0.199  14.089  0.5955  0.4963 -0.4166
 1847SOL    HW117174   3.547   0.203  13.993  1.5869  2.1013 -0.2887
 1847SOL    HW217175   3.517   0.107  14.091  1.4483  0.3069  0.5956
 1848SOL     OW17176   1.031   3.847   6.286  0.1556 -0.3599  0.2243
 1848SOL    HW117177   1.116   3.860   6.328 -0.0903 -0.5193  0.7716
 1848SOL    HW217178   1.016   3.752   6.282  0.4108 -0.3314 -1.3772
 1849SOL     OW17179   0.884   4.052   8.304  0.3844  0.0914 -0.4078
 1849SOL    HW117180   0.848   3.969   8.271 -0.4070 -0.2703  1.3742
 1849SOL    HW217181   0.893   4.027   8.396 -0.4529 -0.6088 -0.5172
 1850SOL     OW17182   3.483   3.054  11.991  0.8723 -0.6732 -0.5226
 1850SOL    HW117183   3.471   2.971  12.038  0.2071 -0.6417 -0.6423
 1850SOL    HW217184   3.577   3.069  11.995  0.4445  1.3486  2.0090
 1851SOL     OW17185   1.269   2.399  10.777 -0.4452  0.2230  0.0218
 1851SOL    HW117186   1.277   2.452  10.697 -1.2360  0.4980  0.1222
 1851SOL    HW217187   1.357   2.367  10.794 -0.8780 -0.9803  0.0205
 1852SOL     OW17188   1.401   3.717   0.759 -0.0762 -0.2435 -0.6238
 1852SOL    HW117189   1.395   3.810   0.776  2.4525 -0.3003  0.5757
 1852SOL    HW217190   1.495   3.699   0.754  0.0592 -0.0805  1.2666
 1853SOL     OW17191   4.180   0.994   8.107  0.5449 -0.7515  0.6770
 1853SOL    HW117192   4.127   0.914   8.103 -0.5461  0.0260 -0.3342
 1853SOL    HW217193   4.113   1.061   8.096 -0.6723 -1.9423  0.8850
 1854SOL     OW17194   2.853   3.000  11.926 -0.7272  0.2733  0.0791
 1854SOL    HW117195   2.836   3.006  11.832 -0.4866  0.4624  0.0454
 1854SOL    HW217196   2.870   2.906  11.932 -0.4672  0.4938  2.6116
 1855SOL     OW17197   4.052   4.624   3.705  0.1290 -0.3623  0.3133
 1855SOL    HW117198   4.123   4.685   3.684  0.0383 -0.6028 -0.7430
 1855SOL    HW217199   4.024   4.586   3.621 -1.0611  2.9909 -0.8030
 1856SOL     OW17200   1.725   3.434   0.123  0.1345 -0.2800  0.0492
 1856SOL    HW117201   1.684   3.487   0.191 -1.6479  0.9038 -1.9807
 1856SOL    HW217202   1.771   3.360   0.163 -1.1271 -2.1110 -1.9266
 1857SOL     OW17203   1.091   3.327   0.685  0.3980 -0.2086 -0.2655
 1857SOL    HW117204   1.133   3.406   0.717  1.2992 -0.7986  0.0270
 1857SOL    HW217205   0.999   3.352   0.675  0.3571 -0.6102 -0.9158
 1858SOL     OW17206   1.636   1.139  15.810 -0.3816 -0.1633 -0.0425
 1858SOL    HW117207   1.546   1.157  15.783 -0.3145 -0.1990 -0.2851
 1858SOL    HW217208   1.643   1.196  15.887  1.1102 -0.2886 -0.0900
 1859SOL     OW17209   4.178   3.952   5.429 -0.2192  0.0689 -0.2279
 1859SOL    HW117210   4.138   3.920   5.348 -0.5206  0.7138 -0.3327
 1859SOL    HW217211   4.258   3.991   5.394  0.6004  0.9160  2.6109
 1860SOL     OW17212   3.413   0.909  12.792  0.0325  0.0583  0.1349
 1860SOL    HW117213   3.473   0.863  12.733  1.2102  0.3924  1.0737
 1860SOL    HW217214   3.407   0.848  12.866 -0.9861  0.6676  0.5549
 1861SOL     OW17215   0.625   2.760  12.701 -0.4067  0.2215 -0.0841
 1861SOL    HW117216   0.706   2.711  12.712 -0.4360  0.5131  1.4172
 1861SOL    HW217217   0.624   2.812  12.781 -1.1630 -0.6102  0.4434
 1862SOL     OW17218   4.590   0.652   1.906 -0.3097 -0.0192  0.0128
 1862SOL    HW117219   4.582   0.600   1.986  0.1624  0.1173  0.1435
 1862SOL    HW217220   4.499   0.653   1.876 -0.5226 -1.3253  0.6437
 1863SOL     OW17221   1.801   3.614  13.376 -0.0465 -0.2283  0.2882
 1863SOL    HW117222   1.862   3.681  13.406 -1.1375  0.4092  1.0805
 1863SOL    HW217223   1.770   3.578  13.459 -0.5760 -1.7189 -0.5642
 1864SOL     OW17224   2.651   4.281   7.148  0.0508  0.0318  0.0769
 1864SOL    HW117225   2.645   4.227   7.227 -1.8246 -1.4058 -1.0271
 1864SOL    HW217226   2.577   4.341   7.140 -0.2299 -0.6579 -2.7770
 1865SOL     OW17227   1.107   3.123  11.559  0.1990  0.3407  0.4109
 1865SOL    HW117228   1.012   3.120  11.570  0.0590  0.0181 -0.9738
 1865SOL    HW217229   1.136   3.100  11.647  0.1660  0.4148  0.4416
 1866SOL     OW17230   0.551   1.897   3.554 -0.2214 -0.2164 -0.0601
 1866SOL    HW117231   0.646   1.903   3.566 -0.3408  2.4612 -0.5316
 1866SOL    HW217232   0.551   1.921   3.462  2.3066  3.6426  0.9294
 1867SOL     OW17233   4.040   2.023   4.998  0.3396  0.1257 -0.3598
 1867SOL    HW117234   3.951   1.990   4.985 -0.0418  0.9638  0.1379
 1867SOL    HW217235   4.070   2.005   4.908 -1.4080 -1.3526 -0.6689
 1868SOL     OW17236   1.691   2.623   0.271 -0.4653 -0.2465  0.1182
 1868SOL    HW117237   1.724   2.534   0.261 -2.7020 -0.9551 -0.8203
 1868SOL    HW217238   1.693   2.622   0.366  0.0041 -0.5721  0.1050
 1869SOL     OW17239   1.507   0.733   8.323  0.0854 -0.4140  0.1322
 1869SOL    HW117240   1.556   0.679   8.261 -0.7388 -1.1527  0.1081
 1869SOL    HW217241   1.535   0.686   8.402  1.0575  0.4328  0.2861
 1870SOL     OW17242   1.352   2.464   6.816  0.2310  0.1933 -0.0384
 1870SOL    HW117243   1.410   2.540   6.812 -1.1639  1.2634  0.2484
 1870SOL    HW217244   1.372   2.438   6.906  1.3854 -0.1797 -0.3981
 1871SOL     OW17245   0.687   3.692   3.597 -0.2277 -0.3275  0.1993
 1871SOL    HW117246   0.709   3.658   3.510 -0.9941  2.0889 -0.9391
 1871SOL    HW217247   0.641   3.614   3.627 -0.4710  1.2217  3.8200
 1872SOL     OW17248   0.507   2.392   5.474  0.8282 -0.1261  0.1701
 1872SOL    HW117249   0.427   2.345   5.500  0.1321  1.9104  1.7412
 1872SOL    HW217250   0.525   2.435   5.557  0.7797  0.2246  0.0005
 1873SOL     OW17251   1.904   3.290   7.601  0.1219  0.2006 -0.1619
 1873SOL    HW117252   1.877   3.284   7.509  0.8902 -1.6988 -0.2536
 1873SOL    HW217253   1.891   3.198   7.623  1.6409  0.8461  3.5168
 1874SOL     OW17254   1.360   0.932   8.197  0.3709 -0.7716 -0.2632
 1874SOL    HW117255   1.302   0.957   8.270 -1.7508 -0.3205 -2.1016
 1874SOL    HW217256   1.429   0.875   8.231  1.5074  0.9524  0.2753
 1875SOL     OW17257   2.732   0.450  12.343  0.2778  0.2984  0.3628
 1875SOL    HW117258   2.683   0.399  12.407  0.3111 -1.5354 -1.0849
 1875SOL    HW217259   2.688   0.535  12.350  1.1802  0.7272  0.9059
 1876SOL     OW17260   1.552   3.314   2.044  0.4791 -0.0913  0.3156
 1876SOL    HW117261   1.602   3.269   2.113  0.0803 -1.0398 -0.0239
 1876SOL    HW217262   1.557   3.243   1.981  0.4826 -0.1644  0.3977
 1877SOL     OW17263   1.336   0.052  10.585 -0.2632  0.1280  0.9444
 1877SOL    HW117264   1.355   0.090  10.671  2.9928 -2.8727  1.5410
 1877SOL    HW217265   1.411   4.729  10.576  0.5194  1.1928  0.5221
 1878SOL     OW17266   4.016   4.006   6.268 -0.3874  0.5323  0.0945
 1878SOL    HW117267   4.006   3.947   6.193 -0.6616  1.1801 -0.3782
 1878SOL    HW217268   3.969   3.957   6.336  0.0977  0.8871  0.6781
 1879SOL     OW17269   4.596   3.064   2.061 -0.3211 -0.2888  0.3321
 1879SOL    HW117270   4.505   3.072   2.088  0.0975  1.1511  1.2998
 1879SOL    HW217271   4.612   3.157   2.045 -1.3200  0.1261  1.7998
 1880SOL     OW17272   1.095   4.324  11.990  0.4366  0.3791 -0.6031
 1880SOL    HW117273   1.164   4.301  12.052  0.4606 -0.5080 -0.9515
 1880SOL    HW217274   1.103   4.248  11.931  0.1587  1.1528 -1.6404
 1881SOL     OW17275   4.542   0.753  16.680  0.1265  0.0867 -0.0181
 1881SOL    HW117276   4.587   0.767  16.763  0.0747 -1.4953  0.2850
 1881SOL    HW217277   4.511   0.663  16.685 -0.5587  0.3754  0.9803
 1882SOL     OW17278   3.824   1.752  10.392 -0.6917 -0.2691 -0.1222
 1882SOL    HW117279   3.747   1.703  10.420  0.0465 -0.0954  2.2440
 1882SOL    HW217280   3.847   1.703  10.314 -0.2394 -1.1726  0.5805
 1883SOL     OW17281   1.505   3.094   8.238  0.6520  0.2581 -0.0528
 1883SOL    HW117282   1.543   3.129   8.157  3.9998 -2.4124  0.3597
 1883SOL    HW217283   1.440   3.040   8.193 -0.5598  0.7473  1.1230
 1884SOL     OW17284   2.460   0.027   5.194 -0.7066  0.6213  0.1728
 1884SOL    HW117285   2.497   0.110   5.225  0.1905 -0.2734  1.5101
 1884SOL    HW217286   2.369   0.038   5.223  0.0564  1.6141  2.1721
 1885SOL     OW17287   0.649   3.179   2.683 -0.0480  0.3471  0.2393
 1885SOL    HW117288   0.711   3.167   2.755  1.1107 -2.2680 -1.1738
 1885SOL    HW217289   0.682   3.247   2.624  0.0008 -1.9844 -2.4352
 1886SOL     OW17290   3.993   2.517  12.603 -0.4270  0.3985  0.2067
 1886SOL    HW117291   3.965   2.517  12.512 -0.3205  0.6909  0.1742
 1886SOL    HW217292   4.064   2.579  12.585 -0.6604  0.3379 -0.9221
 1887SOL     OW17293   1.214   0.689   6.383  0.2886 -0.4943 -0.2502
 1887SOL    HW117294   1.303   0.719   6.364  0.7886 -0.4262  2.1551
 1887SOL    HW217295   1.222   0.637   6.463  1.8099 -0.0557 -0.1253
 1888SOL     OW17296   0.345   4.378   1.779  0.0170  0.0531  0.6203
 1888SOL    HW117297   0.284   4.397   1.709  2.5406 -0.1212 -1.6327
 1888SOL    HW217298   0.296   4.407   1.856 -2.5231  1.0486 -1.4110
 1889SOL     OW17299   1.820   4.165   5.154 -0.3210 -0.1763 -0.1560
 1889SOL    HW117300   1.904   4.121   5.164  1.2254  2.7559 -0.0199
 1889SOL    HW217301   1.771   4.105   5.209 -1.1416  0.7751  0.1598
 1890SOL     OW17302   4.308   2.330  15.673  0.3942 -0.3783 -0.1701
 1890SOL    HW117303   4.391   2.368  15.645  0.9342 -2.1326 -1.0011
 1890SOL    HW217304   4.348   2.246  15.698  1.1185 -0.0978 -0.3830
 1891SOL     OW17305   2.285   3.647   4.053  0.2993  0.7007 -0.0748
 1891SOL    HW117306   2.264   3.559   4.022  0.3088  1.0175 -0.9894
 1891SOL    HW217307   2.374   3.659   4.018 -0.4852  1.5185 -1.8111
 1892SOL     OW17308   0.094   2.476   3.584 -0.2040 -0.4578  0.2937
 1892SOL    HW117309   0.044   2.554   3.559 -0.5949 -0.5253  0.8968
 1892SOL    HW217310   0.056   2.441   3.664  1.1256 -0.7083  0.8243
 1893SOL     OW17311   2.210   1.326   6.398  0.2841  0.2426 -0.6564
 1893SOL    HW117312   2.131   1.362   6.439 -0.6646  0.5851 -2.7921
 1893SOL    HW217313   2.244   1.276   6.472  1.5057  0.0155 -1.3618
 1894SOL     OW17314   3.595   0.613   8.809 -0.2284  0.0982 -0.2103
 1894SOL    HW117315   3.577   0.614   8.903  0.9481 -1.8725  0.0343
 1894SOL    HW217316   3.684   0.577   8.815 -1.1662 -1.7768  2.3837
 1895SOL     OW17317   2.531   4.634   5.814  0.1375  0.1154  0.0590
 1895SOL    HW117318   2.597   4.582   5.768  0.8741  2.5417 -1.6458
 1895SOL    HW217319   2.468   4.648   5.743 -0.8007 -2.7508  0.3261
 1896SOL     OW17320   3.882   3.676   4.145 -0.7974  0.5418 -0.1309
 1896SOL    HW117321   3.850   3.596   4.105 -2.1858  1.1314 -0.1690
 1896SOL    HW217322   3.819   3.743   4.120 -0.9273  0.5035  0.0895
 1897SOL     OW17323   2.207   1.846   6.704  0.0076  0.3525  0.2816
 1897SOL    HW117324   2.242   1.934   6.693 -0.0235 -0.0506 -3.0174
 1897SOL    HW217325   2.257   1.809   6.777 -1.0538  3.1731  2.4080
 1898SOL     OW17326   3.664   2.695   8.748 -0.7056  0.4380  0.6477
 1898SOL    HW117327   3.641   2.757   8.817 -1.0327 -0.0284  0.9572
 1898SOL    HW217328   3.581   2.647   8.738 -0.3908  0.1290 -0.5657
 1899SOL     OW17329   1.808   0.222   5.419  0.1338  0.3041  0.4824
 1899SOL    HW117330   1.784   0.211   5.327  0.0985  2.1446  0.2720
 1899SOL    HW217331   1.900   0.242   5.403  0.0478 -1.4207 -2.0791
 1900SOL     OW17332   1.667   2.321   5.884 -0.2414  0.2300  0.2783
 1900SOL    HW117333   1.713   2.246   5.923  1.2118  1.9620  1.9253
 1900SOL    HW217334   1.700   2.392   5.940 -1.4149  1.0081 -0.0300
 1901SOL     OW17335   0.908   2.055   7.868 -0.2471  0.2214 -0.4024
 1901SOL    HW117336   0.974   2.000   7.824 -0.1696 -0.9839  1.2419
 1901SOL    HW217337   0.961   2.114   7.921 -2.8142  0.7671  1.5060
 1902SOL     OW17338   1.924   0.385   3.450 -0.1073 -0.0716 -0.9591
 1902SOL    HW117339   1.973   0.464   3.425  1.3497 -0.7808 -0.3876
 1902SOL    HW217340   1.838   0.421   3.470  1.1331  2.0039  0.7482
 1903SOL     OW17341   3.915   1.144   3.137 -0.1099 -0.6255  0.3639
 1903SOL    HW117342   3.929   1.068   3.080 -0.6112  0.4700 -1.2117
 1903SOL    HW217343   3.830   1.121   3.174 -1.3196 -0.1596 -2.1709
 1904SOL     OW17344   3.071   1.218  15.309  0.3749 -0.4067 -0.1322
 1904SOL    HW117345   3.111   1.146  15.357 -0.9325 -0.2334  1.2039
 1904SOL    HW217346   3.088   1.200  15.216 -1.1838 -0.4917 -0.4137
 1905SOL     OW17347   3.503   4.734   6.010 -0.2184  0.0522  0.5041
 1905SOL    HW117348   3.502   4.652   5.962  0.5823  1.8601 -2.5903
 1905SOL    HW217349   3.517   4.702   6.099 -2.6998 -2.5890 -0.0676
 1906SOL     OW17350   2.186   1.721  13.746  0.2368 -0.2387  0.3516
 1906SOL    HW117351   2.227   1.808  13.744 -2.8325  1.2240  2.1711
 1906SOL    HW217352   2.144   1.722  13.831  0.0993 -3.3212  0.3196
 1907SOL     OW17353   2.950   3.060  13.436 -0.1761 -0.0222 -0.4787
 1907SOL    HW117354   2.857   3.066  13.456 -0.6568 -0.6590 -2.5175
 1907SOL    HW217355   2.988   3.134  13.484 -1.7096  0.6134 -0.2408
 1908SOL     OW17356   1.646   1.603   7.591  0.3215  0.5602  0.0122
 1908SOL    HW117357   1.586   1.535   7.622 -1.5705  2.1286 -0.2296
 1908SOL    HW217358   1.669   1.653   7.670  0.9057  0.1427  0.1050
 1909SOL     OW17359   0.218   1.194   7.057  0.1986 -0.0265  0.4703
 1909SOL    HW117360   0.165   1.261   7.015  0.3843  1.1637  2.1468
 1909SOL    HW217361   0.186   1.120   7.005  1.2168  0.3684 -0.7214
 1910SOL     OW17362   4.332   3.707   3.017 -0.1025 -0.0137  0.0918
 1910SOL    HW117363   4.388   3.736   3.090 -0.0616  3.1730 -1.2029
 1910SOL    HW217364   4.265   3.650   3.054 -0.2101  0.3772  0.4925
 1911SOL     OW17365   2.970   0.305   4.600  0.3198  0.0275  0.2620
 1911SOL    HW117366   2.930   0.388   4.574 -2.2422 -1.2894  0.0870
 1911SOL    HW217367   2.955   0.259   4.518  2.2225 -1.1485  0.5796
 1912SOL     OW17368   1.902   2.765   1.704 -0.1068 -0.5309  0.2538
 1912SOL    HW117369   1.966   2.701   1.737 -1.1453 -1.3658  0.6226
 1912SOL    HW217370   1.912   2.756   1.609  0.7580 -0.3029  0.3173
 1913SOL     OW17371   3.939   2.816   5.801  0.1020 -0.1892  0.5664
 1913SOL    HW117372   3.961   2.823   5.708 -1.1750 -1.8452  0.1563
 1913SOL    HW217373   4.028   2.805   5.835 -0.0610 -1.8581  0.4147
 1914SOL     OW17374   1.121   4.155   6.458 -0.3969  0.5110  0.4236
 1914SOL    HW117375   1.177   4.183   6.531 -3.2274  0.8045  2.4669
 1914SOL    HW217376   1.146   4.063   6.459  1.7137  1.0647 -1.1202
 1915SOL     OW17377   2.540   2.605  16.681 -0.1587 -0.6109  0.4162
 1915SOL    HW117378   2.578   2.628  16.596 -0.6115 -0.0587  0.3680
 1915SOL    HW217379   2.452   2.630  16.655 -0.2589 -1.4590 -0.0824
 1916SOL     OW17380   1.951   3.721  11.346 -0.1319 -0.6520 -0.1385
 1916SOL    HW117381   1.987   3.642  11.386 -0.6908 -0.1699  1.3137
 1916SOL    HW217382   1.948   3.778  11.422  0.2570 -0.8782  0.0444
 1917SOL     OW17383   2.321   3.122   4.088 -0.2657 -0.0174 -1.0961
 1917SOL    HW117384   2.228   3.136   4.100 -0.3546  0.3040 -2.1904
 1917SOL    HW217385   2.338   3.032   4.118 -2.1835  0.1891  0.5192
 1918SOL     OW17386   0.632   3.579   9.109 -0.4784  0.4785 -0.1856
 1918SOL    HW117387   0.718   3.560   9.148  1.2368  1.7772 -3.3108
 1918SOL    HW217388   0.657   3.544   9.024  0.2224 -0.6991  0.5007
 1919SOL     OW17389   2.223   3.297  16.721  0.0840 -0.5432  0.3450
 1919SOL    HW117390   2.184   3.294  16.634  0.8685  1.5823 -0.0871
 1919SOL    HW217391   2.153   3.348  16.761 -0.4905 -1.2940  0.2706
 1920SOL     OW17392   3.455   0.805   1.554 -0.7378 -0.0668  0.1925
 1920SOL    HW117393   3.460   0.880   1.495 -0.2209 -1.1221 -1.0952
 1920SOL    HW217394   3.471   0.737   1.489 -1.6687  0.9219 -1.0678
 1921SOL     OW17395   0.251   1.072   5.670  0.5623  0.1758  0.5898
 1921SOL    HW117396   0.213   1.150   5.712  1.2006 -0.1938  1.8264
 1921SOL    HW217397   0.263   1.021   5.750  0.5534 -1.0405 -0.1986
 1922SOL     OW17398   1.627   3.496   3.769 -0.5387 -0.1111 -0.3626
 1922SOL    HW117399   1.630   3.484   3.864  0.6807 -2.0291 -0.6465
 1922SOL    HW217400   1.613   3.590   3.758 -0.3217  0.2173  2.2237
 1923SOL     OW17401   2.353   0.981   6.716 -0.2605  0.2696 -0.1463
 1923SOL    HW117402   2.446   1.001   6.727 -0.0853 -0.0544 -0.9663
 1923SOL    HW217403   2.366   0.887   6.727  0.9324  0.1544 -2.5478
 1924SOL     OW17404   0.925   0.358  14.264  0.8050 -0.4635  0.0353
 1924SOL    HW117405   1.002   0.331  14.214 -0.1211 -0.4819 -1.3717
 1924SOL    HW217406   0.977   0.391  14.338  0.2936  1.1624 -0.3238
 1925SOL     OW17407   2.531   2.087   0.944  0.4344  0.2256 -0.0642
 1925SOL    HW117408   2.570   2.145   1.009 -0.7126  1.2405 -0.2933
 1925SOL    HW217409   2.556   2.130   0.862  2.0648  0.9446  0.8257
 1926SOL     OW17410   1.393   3.645   6.294 -0.0563  0.3220 -0.0583
 1926SOL    HW117411   1.413   3.609   6.380  1.2200 -0.7850 -0.8198
 1926SOL    HW217412   1.467   3.705   6.282  0.8118 -0.4320  1.5649
 1927SOL     OW17413   0.790   2.053  11.570  0.4780 -0.1147 -0.4595
 1927SOL    HW117414   0.712   2.001  11.589  1.7294 -1.6168  0.5198
 1927SOL    HW217415   0.825   2.072  11.657 -1.0822  2.4523 -0.3881
 1928SOL     OW17416   2.086   1.832   8.200 -0.2426 -0.4601 -0.4768
 1928SOL    HW117417   2.135   1.781   8.265  0.4260 -0.0663 -0.6625
 1928SOL    HW217418   1.999   1.843   8.237 -0.3845  1.2015 -1.3241
 1929SOL     OW17419   1.750   0.847   6.671  0.2379 -0.0846 -0.0595
 1929SOL    HW117420   1.836   0.842   6.713  1.9077  2.4050 -3.1375
 1929SOL    HW217421   1.700   0.775   6.708  0.4389  0.0554  0.4813
 1930SOL     OW17422   0.044   1.079   2.354 -0.0345 -0.0104  0.4559
 1930SOL    HW117423   4.704   1.118   2.309  0.5498  1.2557  0.5550
 1930SOL    HW217424   0.116   1.139   2.332  1.9099 -1.9827  1.4621
 1931SOL     OW17425   3.216   4.132   8.929 -0.3221 -0.0644  0.2857
 1931SOL    HW117426   3.201   4.098   9.017  0.4543 -1.7263 -0.2166
 1931SOL    HW217427   3.128   4.159   8.902  0.3759  0.4732 -1.4338
 1932SOL     OW17428   2.908   1.476   8.994  0.2995 -0.2996 -0.0402
 1932SOL    HW117429   2.973   1.483   9.064  0.3870 -0.9534 -0.0577
 1932SOL    HW217430   2.969   1.487   8.922  1.2620 -1.2643  0.6238
 1933SOL     OW17431   0.024   0.082   8.940 -1.0923  0.2046  0.3561
 1933SOL    HW117432   4.683   0.026   8.954  0.8214 -2.4936  0.0958
 1933SOL    HW217433   4.728   0.146   8.876  0.8289  0.2473 -0.5604
 1934SOL     OW17434   4.304   0.540   0.718 -0.0560  0.9385  0.0465
 1934SOL    HW117435   4.359   0.590   0.778 -0.4072  2.6628 -1.0637
 1934SOL    HW217436   4.369   0.476   0.691 -1.0286 -1.1302  2.5375
 1935SOL     OW17437   4.643   4.362   2.051  0.5254 -0.3576 -0.5665
 1935SOL    HW117438   4.583   4.392   2.120 -0.5606 -3.6118 -0.0936
 1935SOL    HW217439   4.639   4.266   2.059 -2.3807 -0.1622  0.3797
 1936SOL     OW17440   1.160   0.069   4.590 -0.0415 -0.6180 -0.5103
 1936SOL    HW117441   1.207   0.143   4.552  1.0337 -2.4185 -2.6989
 1936SOL    HW217442   1.074   0.080   4.549  1.0427 -1.4919 -3.0633
 1937SOL     OW17443   4.330   2.908   5.748  0.1108  0.8310  0.4433
 1937SOL    HW117444   4.307   2.816   5.757 -0.5478  1.1619  2.3219
 1937SOL    HW217445   4.412   2.901   5.797  0.9422 -1.0263 -1.2445
 1938SOL     OW17446   3.039   2.677  12.576  0.3224 -0.0061  0.2530
 1938SOL    HW117447   3.007   2.597  12.534  0.6465 -0.3690  0.6961
 1938SOL    HW217448   3.099   2.705  12.507  0.9333  0.1900  0.8625
 1939SOL     OW17449   4.724   3.472   6.178 -0.2731  0.0307 -0.2734
 1939SOL    HW117450   4.642   3.516   6.199  0.4026  0.1766  2.0211
 1939SOL    HW217451   4.715   3.389   6.225  1.8138 -0.9829 -1.6177
 1940SOL     OW17452   3.664   2.021   8.343 -0.0163  0.2132 -0.1073
 1940SOL    HW117453   3.606   1.949   8.365  3.1176 -1.7275  1.9401
 1940SOL    HW217454   3.613   2.088   8.298 -1.4554 -0.7270  0.1599
 1941SOL     OW17455   3.603   2.022   9.391  0.6892 -0.5113 -0.6306
 1941SOL    HW117456   3.681   2.063   9.354 -0.5740  3.2562  0.8075
 1941SOL    HW217457   3.609   2.045   9.484 -0.8782 -1.4708 -0.2821
 1942SOL     OW17458   3.799   2.848   3.171  0.3108  0.2350 -0.7524
 1942SOL    HW117459   3.829   2.917   3.112  1.5944 -0.0155 -0.3923
 1942SOL    HW217460   3.882   2.841   3.219 -0.9465  2.6394  1.7238
 1943SOL     OW17461   3.119   0.085   6.625  0.0097  0.0788 -0.1491
 1943SOL    HW117462   3.062   0.018   6.588 -1.9811  0.9881  1.3325
 1943SOL    HW217463   3.141   0.139   6.548 -0.3459  0.2813 -0.1068
 1944SOL     OW17464   3.444   0.001   8.988  0.1062 -0.3395 -0.1900
 1944SOL    HW117465   3.453   0.090   9.023  0.4484 -0.0003 -1.1601
 1944SOL    HW217466   3.416   0.019   8.899  1.2311 -1.1287 -0.6919
 1945SOL     OW17467   2.152   1.940  15.462 -0.8894 -0.8117 -0.3166
 1945SOL    HW117468   2.169   1.846  15.454 -0.3779 -0.7214 -0.2799
 1945SOL    HW217469   2.074   1.951  15.408  0.3825 -1.5095 -2.3019
 1946SOL     OW17470   1.252   4.576   6.387 -0.2231  0.3040  0.0681
 1946SOL    HW117471   1.243   4.607   6.296 -0.2599  1.3345  0.4229
 1946SOL    HW217472   1.336   4.611   6.415 -0.1096  0.0523  0.0419
 1947SOL     OW17473   2.403   3.564   6.113  0.4444 -0.4874 -0.6606
 1947SOL    HW117474   2.454   3.529   6.186  0.0919  2.2981  0.9383
 1947SOL    HW217475   2.470   3.629   6.092  0.9570 -1.0777 -0.8494
 1948SOL     OW17476   4.391   4.537   4.224 -0.1312  0.4092  0.5485
 1948SOL    HW117477   4.401   4.457   4.172  0.5198 -0.9555  2.7889
 1948SOL    HW217478   4.440   4.516   4.304  0.3217  0.5228  0.2982
 1949SOL     OW17479   3.969   1.527  12.404  0.2389 -0.7704 -0.2305
 1949SOL    HW117480   4.000   1.480  12.481  1.3872  0.1597 -0.1287
 1949SOL    HW217481   3.901   1.578  12.448 -0.8386 -1.2611 -1.3218
 1950SOL     OW17482   3.094   3.432   7.403 -0.1657 -0.8599  0.2278
 1950SOL    HW117483   3.168   3.490   7.421 -0.1242 -1.1968  1.1508
 1950SOL    HW217484   3.020   3.490   7.384 -0.0794 -1.3426 -1.5864
 1951SOL     OW17485   0.595   0.347   5.398  0.1749  0.0675  0.3652
 1951SOL    HW117486   0.606   0.261   5.359 -0.8738  0.3825 -0.6284
 1951SOL    HW217487   0.659   0.399   5.351  0.1783  0.1174  0.4243
 1952SOL     OW17488   1.425   1.096   8.597  0.3437 -0.1256 -0.2943
 1952SOL    HW117489   1.510   1.118   8.635  0.1980  2.3108 -1.4041
 1952SOL    HW217490   1.419   1.009   8.638 -0.0237 -0.7594 -1.6976
 1953SOL     OW17491   3.792   0.054   5.055  0.5248  0.0452  0.3576
 1953SOL    HW117492   3.794   0.030   4.962 -1.0270  1.6925 -0.0888
 1953SOL    HW217493   3.843   4.719   5.096  1.8763  0.5028 -0.5364
 1954SOL     OW17494   1.400   3.928   3.669  0.1645  0.2876  0.0068
 1954SOL    HW117495   1.458   3.978   3.726  1.1454 -1.3998  0.4945
 1954SOL    HW217496   1.317   3.974   3.666 -0.2786 -0.4862  0.5920
 1955SOL     OW17497   0.756   3.023   3.811 -0.5507  0.3826 -0.0015
 1955SOL    HW117498   0.747   2.927   3.806 -0.9919  0.4169  0.0951
 1955SOL    HW217499   0.849   3.028   3.833 -0.2428 -3.5988 -0.3547
 1956SOL     OW17500   4.625   2.108   6.045  0.5301 -0.2049 -0.5700
 1956SOL    HW117501   4.694   2.066   5.994  1.5391  1.0026 -0.2160
 1956SOL    HW217502   4.616   2.037   6.109 -2.3097  0.1152 -0.6079
 1957SOL     OW17503   1.105   2.881  11.339 -0.0744 -0.4664  0.2251
 1957SOL    HW117504   1.103   2.786  11.327 -0.5919 -0.3445 -0.5926
 1957SOL    HW217505   1.102   2.886  11.435  0.0653 -0.0598  0.2082
 1958SOL     OW17506   0.628   3.317   3.051 -0.8899  0.3464  0.2486
 1958SOL    HW117507   0.547   3.320   3.000 -0.3181  0.2623 -0.6577
 1958SOL    HW217508   0.698   3.277   3.000 -1.5692 -1.4246  0.7074
 1959SOL     OW17509   0.408   2.165  10.964  0.0493  0.7371 -0.3388
 1959SOL    HW117510   0.345   2.231  10.935 -1.1922  0.3239  1.4060
 1959SOL    HW217511   0.488   2.200  10.926 -0.1699  0.7721 -0.7717
 1960SOL     OW17512   0.753   1.366  12.101  0.3865  0.5711 -0.2843
 1960SOL    HW117513   0.826   1.327  12.149  0.2014  0.9234  0.2828
 1960SOL    HW217514   0.726   1.431  12.166  1.6341  0.8489 -0.0463
 1961SOL     OW17515   1.256   0.371   6.003  0.1192 -0.4263 -0.1303
 1961SOL    HW117516   1.317   0.413   6.063  1.2028 -2.4219  0.1560
 1961SOL    HW217517   1.282   0.282   6.025  1.3468  0.1058  0.5745
 1962SOL     OW17518   2.711   0.649   4.364  0.0447  0.3929 -0.0153
 1962SOL    HW117519   2.754   0.622   4.445  0.3428 -1.1529 -0.6860
 1962SOL    HW217520   2.774   0.611   4.302 -0.1908 -1.3943  0.8457
 1963SOL     OW17521   4.366   2.726   8.165  0.0855  0.4773  0.4051
 1963SOL    HW117522   4.395   2.667   8.234  0.1765 -0.4037 -0.3818
 1963SOL    HW217523   4.329   2.664   8.103  0.2541 -1.1638  1.9543
 1964SOL     OW17524   2.739   0.269   2.266  0.0054  0.1545  0.7479
 1964SOL    HW117525   2.813   0.330   2.257 -0.6686  0.8485 -0.0334
 1964SOL    HW217526   2.789   0.188   2.263  2.2511  1.5261  0.8215
 1965SOL     OW17527   0.556   2.917   8.595  0.5876  0.4140  0.5827
 1965SOL    HW117528   0.643   2.888   8.567  1.2677  2.5350  0.4537
 1965SOL    HW217529   0.564   3.008   8.567  3.1729  0.1962  0.5598
 1966SOL     OW17530   0.171   1.206  17.496 -0.5238 -0.5105  0.1387
 1966SOL    HW117531   0.120   1.245  17.567 -1.3426  2.5940 -2.1719
 1966SOL    HW217532   0.196   1.131  17.550 -1.8529 -0.5220  0.7389
 1967SOL     OW17533   0.095   4.286   8.655  0.0141 -0.2034  0.2923
 1967SOL    HW117534   0.153   4.273   8.730 -1.0729 -0.7193  1.0444
 1967SOL    HW217535   0.133   4.366   8.618 -1.9017 -0.0749 -1.3600
 1968SOL     OW17536   1.050   3.977   3.274  0.7901  0.1543  0.3540
 1968SOL    HW117537   1.016   3.940   3.193 -1.0883 -0.0667  1.2542
 1968SOL    HW217538   1.003   3.929   3.342  0.4600 -0.8435 -0.5969
 1969SOL     OW17539   1.227   3.458   3.208  0.6238  0.4342  0.0154
 1969SOL    HW117540   1.151   3.418   3.165  1.6236 -0.6392 -0.7558
 1969SOL    HW217541   1.255   3.390   3.269  1.9539 -2.5363 -3.8375
 1970SOL     OW17542   2.895   2.054   5.776 -0.3499 -0.4253 -0.1722
 1970SOL    HW117543   2.950   2.126   5.744 -1.5401  1.2071  1.4382
 1970SOL    HW217544   2.953   1.982   5.754  0.7628  0.1610  0.8053
 1971SOL     OW17545   3.666   1.133   2.765 -0.0997 -0.0225  0.0211
 1971SOL    HW117546   3.720   1.212   2.772  0.0172 -0.1116  0.1440
 1971SOL    HW217547   3.585   1.161   2.723 -0.1187  0.1546  0.1759
 1972SOL     OW17548   1.946   1.531   6.344  0.5047  0.2840 -0.2984
 1972SOL    HW117549   1.861   1.521   6.387  0.7608  1.0485  0.3990
 1972SOL    HW217550   1.990   1.581   6.413  1.5341 -0.0615 -0.7099
 1973SOL     OW17551   2.207   1.228   9.145 -0.1934 -0.0973 -0.0567
 1973SOL    HW117552   2.202   1.312   9.191 -1.0599 -0.9712  1.4536
 1973SOL    HW217553   2.203   1.180   9.228  2.0768 -0.7506 -0.3216
 1974SOL     OW17554   2.751   2.444  12.704 -0.2052  0.0825 -0.1823
 1974SOL    HW117555   2.787   2.450  12.615  3.2897 -1.0350  1.1768
 1974SOL    HW217556   2.687   2.375  12.689  0.6195 -0.6828 -0.1343
 1975SOL     OW17557   2.849   0.121   5.344  0.3924  0.5683 -0.3519
 1975SOL    HW117558   2.875   0.136   5.253  0.4211  2.0636 -0.0893
 1975SOL    HW217559   2.877   0.205   5.380  1.5150 -0.4259  1.0870
 1976SOL     OW17560   4.220   0.419   6.935  0.2668  0.0158  0.0541
 1976SOL    HW117561   4.149   0.421   6.999 -0.7187  1.0510 -1.0629
 1976SOL    HW217562   4.185   0.460   6.855 -0.1052  0.0776  0.2473
 1977SOL     OW17563   0.538   4.678   4.718  0.0803  0.7208  0.1714
 1977SOL    HW117564   0.534   4.594   4.672  1.2048  0.6538  0.1854
 1977SOL    HW217565   0.595   4.724   4.655 -0.6923 -0.5002 -1.4321
 1978SOL     OW17566   3.272   0.243   6.896  0.0412 -0.7210  0.3322
 1978SOL    HW117567   3.353   0.274   6.854 -0.2001  2.9164  2.5700
 1978SOL    HW217568   3.222   0.218   6.819  0.6266 -0.8226 -0.0160
 1979SOL     OW17569   2.333   0.622   3.382  1.0186 -1.0005  0.0622
 1979SOL    HW117570   2.405   0.636   3.321  0.9924  0.1672  0.2990
 1979SOL    HW217571   2.361   0.666   3.462  1.1735 -0.1098 -0.4860
 1980SOL     OW17572   2.897   3.052   8.543 -0.3984 -0.5623  0.2917
 1980SOL    HW117573   2.900   2.987   8.473  1.3819 -0.3290  0.1384
 1980SOL    HW217574   2.804   3.075   8.542 -0.1671  0.3403 -2.5193
 1981SOL     OW17575   3.030   2.701  12.154 -0.4056 -0.1439  0.0727
 1981SOL    HW117576   3.090   2.684  12.227  1.8075  0.4428 -1.6188
 1981SOL    HW217577   3.016   2.795  12.169 -1.4132 -0.1766 -0.6602
 1982SOL     OW17578   2.166   1.433  11.882  0.5170  0.3968 -0.0177
 1982SOL    HW117579   2.123   1.360  11.839  0.2489  1.6167 -1.8302
 1982SOL    HW217580   2.138   1.514  11.839  1.2437  0.7267  0.1166
 1983SOL     OW17581   1.510   2.228   8.132  0.0891 -0.4887 -0.3138
 1983SOL    HW117582   1.498   2.141   8.094  1.0701 -0.1479 -1.4035
 1983SOL    HW217583   1.527   2.206   8.223 -0.7920 -3.0217 -0.7563
 1984SOL     OW17584   4.127   4.157   2.615  0.2672  0.2679  0.2724
 1984SOL    HW117585   4.180   4.186   2.689 -0.7338  1.5529  0.4758
 1984SOL    HW217586   4.083   4.237   2.587  1.2024  0.7726  0.2620
 1985SOL     OW17587   3.125   4.578   4.403 -0.1654  0.0538 -0.2084
 1985SOL    HW117588   3.105   4.646   4.467  1.8083 -0.9375  1.4807
 1985SOL    HW217589   3.040   4.534   4.405  0.0168 -0.1953  1.9730
 1986SOL     OW17590   3.759   1.937   5.984 -0.6133 -0.6511 -0.3525
 1986SOL    HW117591   3.845   1.973   5.966 -0.5435 -0.8298 -0.3695
 1986SOL    HW217592   3.722   2.020   6.014  1.8164  0.2290  0.1450
 1987SOL     OW17593   3.869   4.299   7.818 -0.0834  0.4827 -0.4609
 1987SOL    HW117594   3.948   4.350   7.797 -0.8694  1.5929 -0.6974
 1987SOL    HW217595   3.809   4.358   7.773 -0.4668  0.5543  0.1480
 1988SOL     OW17596   3.991   1.712  11.752  0.0949 -0.5830  0.7583
 1988SOL    HW117597   4.069   1.663  11.727 -2.2248 -3.1902 -1.3650
 1988SOL    HW217598   3.957   1.758  11.675  0.1183 -0.1273  1.0205
 1989SOL     OW17599   2.768   0.337  13.669  0.2513  0.2416  0.4029
 1989SOL    HW117600   2.751   0.253  13.627 -1.7685 -0.0838  1.8947
 1989SOL    HW217601   2.864   0.345  13.667  0.2239  0.0657 -2.4856
 1990SOL     OW17602   0.249   1.158   7.893  0.0643 -0.0740  0.1901
 1990SOL    HW117603   0.331   1.128   7.852  1.0569  2.0450  0.6278
 1990SOL    HW217604   0.284   1.236   7.937  2.0266 -0.2441 -1.0725
 1991SOL     OW17605   3.975   1.654   3.975 -0.1459  0.6400  0.1273
 1991SOL    HW117606   4.032   1.579   3.995  0.1765  0.5343 -1.1766
 1991SOL    HW217607   3.918   1.654   4.051 -0.1807 -0.9630  0.1024
 1992SOL     OW17608   4.500   1.285  13.244  0.1188 -0.2398  0.1207
 1992SOL    HW117609   4.430   1.304  13.182  2.4239  1.5891 -1.9383
 1992SOL    HW217610   4.451   1.247  13.316 -1.0722  0.2991 -0.4085
 1993SOL     OW17611   4.442   3.558   2.817  0.3831 -0.8214 -0.3943
 1993SOL    HW117612   4.521   3.611   2.820  0.5246 -1.1399  1.8360
 1993SOL    HW217613   4.393   3.614   2.878 -1.7870 -2.9196 -0.1744
 1994SOL     OW17614   2.626   4.067   3.415  0.4428  0.2878  0.0820
 1994SOL    HW117615   2.585   4.048   3.331 -0.2311  0.3267  0.4097
 1994SOL    HW217616   2.674   3.984   3.428 -0.9660 -0.7335 -1.3137
 1995SOL     OW17617   3.285   2.133  15.016 -0.1643 -0.3764  0.0352
 1995SOL    HW117618   3.213   2.084  15.056  0.3579 -0.5491  0.7779
 1995SOL    HW217619   3.292   2.209  15.073  2.1021 -1.4489  1.1895
 1996SOL     OW17620   2.953   3.724   4.089 -0.3696 -0.4392 -0.6177
 1996SOL    HW117621   2.935   3.673   4.168 -1.6154  1.5365  0.3600
 1996SOL    HW217622   2.870   3.731   4.043 -1.3994  2.4605  1.6656
 1997SOL     OW17623   1.129   0.890   1.563 -0.6320  0.1732  0.3095
 1997SOL    HW117624   1.189   0.821   1.592  0.3019  1.0229  0.3937
 1997SOL    HW217625   1.050   0.840   1.540 -0.5613  0.3068 -0.2248
 1998SOL     OW17626   3.435   3.980  10.885  0.3618  0.0372  0.0069
 1998SOL    HW117627   3.371   4.049  10.902  1.4500  1.8091 -3.0707
 1998SOL    HW217628   3.391   3.900  10.915 -0.0691  0.1464 -0.3440
 1999SOL     OW17629   1.415   2.387   8.714 -0.2609 -0.3160  0.2965
 1999SOL    HW117630   1.428   2.418   8.803 -0.6025  0.4671  0.0751
 1999SOL    HW217631   1.494   2.334   8.703  0.0499  0.0230  0.9102
 2000SOL     OW17632   2.432   2.058  15.499 -0.0277  0.2441 -0.0181
 2000SOL    HW117633   2.337   2.056  15.485 -0.1797  2.0880  0.6854
 2000SOL    HW217634   2.452   2.150  15.483 -1.7179  0.4072 -1.1372
 2001SOL     OW17635   1.331   4.356  12.292  0.0037 -0.4686  0.1953
 2001SOL    HW117636   1.253   4.366  12.347 -0.7673  0.8481 -1.1296
 2001SOL    HW217637   1.311   4.275  12.244  1.7275  0.2829 -1.8015
 2002SOL     OW17638   2.100   0.910   1.353  0.2523 -0.4202 -0.6138
 2002SOL    HW117639   2.188   0.879   1.329  0.3864  0.6112 -1.4953
 2002SOL    HW217640   2.105   0.992   1.304  1.3266 -0.4291 -0.5238
 2003SOL     OW17641   1.427   4.340   6.326 -0.0992 -0.0469 -0.4857
 2003SOL    HW117642   1.403   4.421   6.371  0.1130 -0.9898  1.3199
 2003SOL    HW217643   1.452   4.287   6.402 -0.8505 -0.7276 -0.7096
 2004SOL     OW17644   3.808   3.139  16.069 -0.5531 -0.0617 -0.2053
 2004SOL    HW117645   3.776   3.049  16.075 -0.2627 -0.1748 -0.3673
 2004SOL    HW217646   3.887   3.129  16.121 -0.0808  1.0239 -0.7200
 2005SOL     OW17647   4.127   0.840   3.781 -0.0387  0.8270  0.5671
 2005SOL    HW117648   4.123   0.747   3.804 -0.6652  0.4289 -1.1737
 2005SOL    HW217649   4.221   0.843   3.765 -0.0001 -2.2111  0.2200
 2006SOL     OW17650   1.676   1.067   8.045  0.3914  0.7566  0.0971
 2006SOL    HW117651   1.643   0.986   8.005 -0.2292  1.1256 -0.1401
 2006SOL    HW217652   1.747   1.036   8.101  1.9993  1.9496 -1.3018
 2007SOL     OW17653   3.572   1.806   8.491  0.7803  0.3968  0.2565
 2007SOL    HW117654   3.615   1.725   8.518  0.9245  1.2016  2.4335
 2007SOL    HW217655   3.547   1.844   8.575 -1.6288 -0.6694  0.0406
 2008SOL     OW17656   0.889   2.086   2.534  0.3123  0.0588  0.3544
 2008SOL    HW117657   0.934   2.014   2.488 -1.2053  0.0806 -1.1342
 2008SOL    HW217658   0.800   2.051   2.530  0.5527 -0.2322 -2.1023
 2009SOL     OW17659   4.562   0.065   4.866 -0.0309 -0.0951 -0.0282
 2009SOL    HW117660   4.523   4.713   4.862  0.2259 -0.2475  0.8334
 2009SOL    HW217661   4.652   0.032   4.861  0.3685  0.8809  1.0360
 2010SOL     OW17662   3.459   1.484  15.356  0.4721 -0.1247 -0.5186
 2010SOL    HW117663   3.424   1.401  15.321 -1.4748  0.1938  0.7074
 2010SOL    HW217664   3.538   1.492  15.302 -0.8731  2.8163 -2.0312
 2011SOL     OW17665   1.940   2.430   1.378 -0.0367 -0.1819 -0.2722
 2011SOL    HW117666   1.971   2.342   1.397 -1.3296 -0.8882 -1.4360
 2011SOL    HW217667   1.846   2.414   1.377  0.0940 -1.0070  1.1043
 2012SOL     OW17668   3.786   2.057   7.794  0.7628 -0.6368  0.0587
 2012SOL    HW117669   3.786   2.088   7.703  0.4291 -1.5647 -0.2609
 2012SOL    HW217670   3.879   2.039   7.805  0.0909 -2.5223  2.5951
 2013SOL     OW17671   1.938   2.415   5.432 -0.8973 -0.3700  0.0007
 2013SOL    HW117672   1.890   2.442   5.510 -2.5617  0.5386 -1.3548
 2013SOL    HW217673   1.867   2.431   5.370 -0.0545 -0.0063 -0.8779
 2014SOL     OW17674   4.060   4.328   4.656  0.9343  0.0080 -0.2282
 2014SOL    HW117675   4.042   4.323   4.562  0.8730  0.8566 -0.2587
 2014SOL    HW217676   4.015   4.248   4.685  2.1158 -0.8990 -0.8763
 2015SOL     OW17677   0.478   0.469   3.391  0.1085 -0.2857 -0.2733
 2015SOL    HW117678   0.389   0.502   3.380  0.6242  0.4755 -2.0576
 2015SOL    HW217679   0.456   0.407   3.461  2.4634 -0.2252  0.5325
 2016SOL     OW17680   1.269   2.921   6.823 -0.3750 -0.2563  0.0826
 2016SOL    HW117681   1.174   2.926   6.833 -0.7813 -4.1224 -1.8164
 2016SOL    HW217682   1.289   2.886   6.909 -0.6719 -0.1885  0.1808
 2017SOL     OW17683   0.799   0.241  17.475 -0.6329 -0.0249  0.7621
 2017SOL    HW117684   0.841   0.268  17.557  0.2153 -0.2456  0.4013
 2017SOL    HW217685   0.739   0.316  17.465 -2.2524 -1.3054  0.8817
 2018SOL     OW17686   2.714   3.055  12.172 -0.5213  0.1190  0.3370
 2018SOL    HW117687   2.805   3.025  12.178 -0.7041 -0.5902 -0.3336
 2018SOL    HW217688   2.700   3.057  12.077 -1.8658  1.0701  0.5545
 2019SOL     OW17689   2.383   2.397   5.344  0.0303 -0.2981 -0.0685
 2019SOL    HW117690   2.399   2.318   5.395  0.8575  0.4174  0.7726
 2019SOL    HW217691   2.324   2.435   5.409 -0.1630  1.3021 -1.1653
 2020SOL     OW17692   0.419   2.456   3.229 -0.0172  0.4228  0.1592
 2020SOL    HW117693   0.402   2.401   3.152 -1.6065  1.7178 -0.4059
 2020SOL    HW217694   0.499   2.500   3.199  0.2366  0.7860  1.3723
 2021SOL     OW17695   1.434   2.129   3.761 -0.4710  0.0574  0.8327
 2021SOL    HW117696   1.461   2.126   3.670 -1.9274  0.8757  0.3674
 2021SOL    HW217697   1.376   2.205   3.762 -0.8567 -0.2353  0.9779
 2022SOL     OW17698   1.491   4.566   6.588  0.1388  0.0515 -0.3651
 2022SOL    HW117699   1.539   4.541   6.509 -0.4199 -1.5328 -0.2231
 2022SOL    HW217700   1.534   4.646   6.617 -0.5039 -0.1647  1.2013
 2023SOL     OW17701   0.417   1.946   8.184  0.1238 -0.3811 -0.4671
 2023SOL    HW117702   0.383   1.869   8.230 -0.7205 -0.1429 -0.6809
 2023SOL    HW217703   0.471   2.000   8.243  1.3983 -0.5567 -1.4810
 2024SOL     OW17704   2.917   4.080   3.835  0.0583  0.3186  0.0044
 2024SOL    HW117705   2.953   4.099   3.747  1.9160  4.0778  1.5470
 2024SOL    HW217706   2.928   3.985   3.830 -0.3895  0.2456  0.5657
 2025SOL     OW17707   1.306   4.362   3.720  0.7610 -0.2831  0.1959
 2025SOL    HW117708   1.234   4.399   3.771 -0.5877 -3.4574  0.5954
 2025SOL    HW217709   1.264   4.381   3.636 -1.3864 -0.3551  1.2452
 2026SOL     OW17710   2.340   3.224  14.992  0.3313  0.1068 -0.4408
 2026SOL    HW117711   2.368   3.148  14.941 -2.2691 -1.4659  0.4656
 2026SOL    HW217712   2.254   3.192  15.019 -0.3151  1.5659 -0.8026
 2027SOL     OW17713   2.705   2.408   4.134  0.0709 -0.1130 -0.5415
 2027SOL    HW117714   2.654   2.376   4.208  0.2331  0.7955 -0.0312
 2027SOL    HW217715   2.767   2.469   4.174 -0.3839 -0.3429  0.5127
 2028SOL     OW17716   4.022   3.454   7.987  0.6939 -0.1420  0.3667
 2028SOL    HW117717   3.932   3.420   7.992  0.3404  0.9971  1.7648
 2028SOL    HW217718   4.024   3.516   7.914  2.1348 -0.5022  0.1056
 2029SOL     OW17719   1.233   0.013   3.966  0.3306  0.6898 -0.4564
 2029SOL    HW117720   1.141   0.035   3.984  0.0850  0.9815 -2.1076
 2029SOL    HW217721   1.280   0.051   4.040  0.1228  1.2392 -0.6056
 2030SOL     OW17722   2.832   1.592   8.666  0.1057 -0.1207 -0.2224
 2030SOL    HW117723   2.872   1.665   8.620  0.1511 -0.4687 -0.7365
 2030SOL    HW217724   2.747   1.595   8.622  0.0482 -2.1850 -0.2678
 2031SOL     OW17725   1.134   1.527  11.229  0.6184  0.6001  0.5623
 2031SOL    HW117726   1.089   1.506  11.148  0.7087 -0.7357  0.8625
 2031SOL    HW217727   1.104   1.617  11.243 -1.4740  0.3098 -2.2718
 2032SOL     OW17728   0.325   2.182   7.001  0.1214 -0.1213 -0.0632
 2032SOL    HW117729   0.281   2.168   6.917 -1.4949 -0.6916  0.8745
 2032SOL    HW217730   0.415   2.162   6.977  0.0447  0.3402 -0.7145
 2033SOL     OW17731   3.896   1.657   8.877 -0.1161  0.1758 -0.0718
 2033SOL    HW117732   3.860   1.721   8.816  3.1336  1.4487 -0.6622
 2033SOL    HW217733   3.990   1.657   8.859 -0.2643  0.8993 -0.8130
 2034SOL     OW17734   2.563   1.802   2.551 -0.1932 -0.4068  0.4221
 2034SOL    HW117735   2.504   1.757   2.491 -0.3561 -1.2509  1.2101
 2034SOL    HW217736   2.620   1.851   2.491 -2.3997  1.3531 -0.2317
 2035SOL     OW17737   3.878   1.776   7.920 -0.0485  0.3134  0.4378
 2035SOL    HW117738   3.967   1.746   7.938 -0.2129 -0.3533  0.1548
 2035SOL    HW217739   3.879   1.838   7.993  2.2921  1.2028 -0.3441
 2036SOL     OW17740   0.499   3.494  14.730 -0.1402 -0.2858 -0.2138
 2036SOL    HW117741   0.542   3.575  14.758  2.8094 -2.2356  0.9534
 2036SOL    HW217742   0.476   3.454  14.814  1.2018  1.0490  0.8040
 2037SOL     OW17743   4.603   0.987   6.833  0.1247 -0.1306 -0.4094
 2037SOL    HW117744   4.529   0.976   6.773 -1.1275 -2.2113  1.4693
 2037SOL    HW217745   4.548   1.028   6.900  0.4419 -0.2231 -0.0932
 2038SOL     OW17746   4.422   0.133   7.958  0.2827 -0.1852  0.2882
 2038SOL    HW117747   4.426   0.058   7.898 -2.3201  0.9967 -1.3201
 2038SOL    HW217748   4.474   0.190   7.902 -1.9787 -0.0299 -1.6599
 2039SOL     OW17749   2.866   3.276   3.760  0.1094  0.1632 -0.1815
 2039SOL    HW117750   2.868   3.201   3.819  0.6850  1.1590  1.0715
 2039SOL    HW217751   2.948   3.257   3.714  0.0187 -0.3088 -0.1490
 2040SOL     OW17752   4.245   1.306   2.723 -0.5937  0.5782  0.1474
 2040SOL    HW117753   4.195   1.382   2.691 -0.3525  0.6813  0.0142
 2040SOL    HW217754   4.336   1.330   2.706 -0.9746  1.3670 -0.8195
 2041SOL     OW17755   1.416   1.116   3.454  0.5820 -0.2557  0.4000
 2041SOL    HW117756   1.446   1.190   3.401  0.6508 -1.4556 -1.2428
 2041SOL    HW217757   1.325   1.143   3.465  0.6063 -1.4312  3.4482
 2042SOL     OW17758   4.111   2.450   5.220  0.3353  0.2969  0.1016
 2042SOL    HW117759   4.127   2.390   5.147 -0.1202 -0.6339  0.7546
 2042SOL    HW217760   4.149   2.393   5.287 -0.1914  0.4732  0.5503
 2043SOL     OW17761   4.541   0.901  16.467 -0.2261 -0.5855  0.2277
 2043SOL    HW117762   4.615   0.960  16.480 -1.0737  0.6102 -0.2712
 2043SOL    HW217763   4.559   0.830  16.528 -3.6323 -1.3514  0.3720
 2044SOL     OW17764   0.565   2.006  12.391 -0.5619 -0.4494 -0.1541
 2044SOL    HW117765   0.618   2.009  12.470 -2.4511 -0.3807  1.1051
 2044SOL    HW217766   0.586   1.921  12.352  1.4553 -0.3756  0.7357
 2045SOL     OW17767   3.669   1.359  16.984  0.2753 -0.0510  0.1342
 2045SOL    HW117768   3.690   1.375  17.076  0.9875 -0.7588  0.0989
 2045SOL    HW217769   3.753   1.340  16.942 -0.9540 -1.3932 -1.7616
 2046SOL     OW17770   2.743   2.705   9.323 -0.1403 -0.0058 -0.0074
 2046SOL    HW117771   2.693   2.767   9.376 -2.0416 -0.1033 -1.6595
 2046SOL    HW217772   2.778   2.648   9.391  0.4189  2.8641  2.0695
 2047SOL     OW17773   3.008   2.770  14.542 -0.3443 -0.0691 -0.2234
 2047SOL    HW117774   3.004   2.856  14.585  2.8146  0.9393 -1.9670
 2047SOL    HW217775   3.063   2.786  14.465 -0.4560 -0.9415 -0.4798
 2048SOL     OW17776   0.809   4.292   1.586 -0.8397 -0.2059  0.3450
 2048SOL    HW117777   0.722   4.332   1.591 -0.4752  0.9534 -2.7769
 2048SOL    HW217778   0.867   4.342   1.642 -3.6986  1.2600  2.0038
 2049SOL     OW17779   0.536   3.890   3.068 -0.1205  0.2377  0.0472
 2049SOL    HW117780   0.559   3.973   3.026  0.5986 -0.0797 -0.1827
 2049SOL    HW217781   0.449   3.912   3.101  0.6085  1.5792  1.0308
 2050SOL     OW17782   4.436   1.916   8.561 -0.5161 -0.1677 -0.3490
 2050SOL    HW117783   4.434   1.839   8.618  1.8945  0.2639  0.3140
 2050SOL    HW217784   4.531   1.915   8.546 -0.2357  0.0277  1.4042
 2051SOL     OW17785   1.374   0.823   4.397  0.6673 -0.2972  0.0847
 2051SOL    HW117786   1.358   0.839   4.304 -1.0152 -0.5299  0.3314
 2051SOL    HW217787   1.407   0.907   4.428 -0.5851 -0.1548  1.0279
 2052SOL     OW17788   1.761   0.615   7.843  0.1157 -0.1101  0.8977
 2052SOL    HW117789   1.717   0.666   7.912  0.0637  0.3889  0.4949
 2052SOL    HW217790   1.837   0.670   7.823 -0.7978  1.6779  2.2921
 2053SOL     OW17791   1.614   2.911  13.444 -0.1223  0.2141  0.7182
 2053SOL    HW117792   1.644   3.001  13.462  0.2703  0.1503  0.3889
 2053SOL    HW217793   1.661   2.852  13.503  1.3939  0.7005  0.0097
 2054SOL     OW17794   4.479   1.743   9.363 -0.6078 -0.0913  0.3929
 2054SOL    HW117795   4.519   1.807   9.422 -1.2246  0.8439 -0.2020
 2054SOL    HW217796   4.388   1.731   9.388 -0.1329  0.9309  2.5802
 2055SOL     OW17797   1.077   3.628   8.591  0.0126 -0.4726  0.4321
 2055SOL    HW117798   1.165   3.594   8.605  1.3044  1.6080 -2.4789
 2055SOL    HW217799   1.080   3.651   8.498  2.4863  0.9703  0.8680
 2056SOL     OW17800   1.803   3.100   3.537 -0.3461  0.3425 -0.2998
 2056SOL    HW117801   1.808   3.154   3.617  0.1824 -3.6491  2.3419
 2056SOL    HW217802   1.813   3.016   3.581  0.4898 -0.4676 -2.0560
 2057SOL     OW17803   1.839   0.319   7.209 -0.0723 -0.4417 -0.0794
 2057SOL    HW117804   1.845   0.399   7.262  0.8428 -1.1628  0.8950
 2057SOL    HW217805   1.841   0.254   7.278  0.4280  0.5156  0.8131
 2058SOL     OW17806   3.744   2.656   0.421 -0.0499  0.5339 -0.3279
 2058SOL    HW117807   3.730   2.611   0.504 -0.7674  0.8538 -0.2805
 2058SOL    HW217808   3.837   2.632   0.413 -0.5472 -1.9659  1.5592
 2059SOL     OW17809   2.767   2.004  16.855  0.5616  0.3715  0.4927
 2059SOL    HW117810   2.824   2.018  16.780 -0.0559 -0.7230 -0.1753
 2059SOL    HW217811   2.830   2.007  16.927  0.1613 -2.0669  0.9480
 2060SOL     OW17812   0.030   1.558   7.462  0.2272  0.4208 -0.5940
 2060SOL    HW117813   0.058   1.536   7.373 -2.3535 -2.9213 -0.5602
 2060SOL    HW217814   0.107   1.606   7.493  0.5609 -1.6557  1.7476
 2061SOL     OW17815   2.860   3.810   5.306  0.1173  0.9929 -0.3305
 2061SOL    HW117816   2.952   3.784   5.311 -0.5514 -0.9127  1.9682
 2061SOL    HW217817   2.866   3.894   5.261  0.1208  0.0409 -2.1000
 2062SOL     OW17818   0.340   2.292   3.021  0.1774  0.1010  0.0192
 2062SOL    HW117819   0.351   2.197   3.013 -0.5350 -0.1148  1.6846
 2062SOL    HW217820   0.248   2.299   3.046  0.0163  0.9027 -0.7808
 2063SOL     OW17821   2.437   4.671   8.333 -0.0681  0.2450  0.4342
 2063SOL    HW117822   2.511   4.666   8.394 -0.0851  1.2628  0.5500
 2063SOL    HW217823   2.461   4.594   8.283  0.6055 -1.0017  2.6759
 2064SOL     OW17824   3.469   4.611  10.145  0.1125  0.2175 -0.2209
 2064SOL    HW117825   3.474   4.517  10.126  0.5841 -0.2301  2.0173
 2064SOL    HW217826   3.399   4.620  10.209  0.8606 -0.6995  0.7429
 2065SOL     OW17827   2.465   2.720   4.892 -0.2427  0.1609  0.3013
 2065SOL    HW117828   2.529   2.791   4.902  0.5812 -0.3310 -1.4991
 2065SOL    HW217829   2.489   2.693   4.804 -0.9733 -1.6493  0.6621
 2066SOL     OW17830   4.563   2.321   4.808  0.1172  0.9194 -0.1518
 2066SOL    HW117831   4.646   2.281   4.835 -1.0510 -1.3964  0.0680
 2066SOL    HW217832   4.587   2.355   4.722  0.7699 -0.6627 -0.6072
 2067SOL     OW17833   0.640   1.528   7.582  0.0715 -1.0029 -0.0402
 2067SOL    HW117834   0.651   1.449   7.634  0.2279 -0.3250  0.9651
 2067SOL    HW217835   0.707   1.587   7.618 -1.5326  0.7721  0.0373
 2068SOL     OW17836   1.634   1.886   6.473 -0.0569 -0.7327 -0.1211
 2068SOL    HW117837   1.665   1.869   6.384 -1.2460  3.1631 -1.2943
 2068SOL    HW217838   1.550   1.931   6.463 -0.7146 -2.4857 -2.5156
 2069SOL     OW17839   0.627   1.392   5.091  0.2960 -0.6339 -0.1502
 2069SOL    HW117840   0.674   1.378   5.173 -0.2401  0.8935  0.4089
 2069SOL    HW217841   0.538   1.410   5.122  1.2756 -2.1718  3.4724
 2070SOL     OW17842   3.809   0.224  10.113 -0.1326 -0.4935 -0.0200
 2070SOL    HW117843   3.780   0.177  10.035 -0.1519  1.1408 -1.0134
 2070SOL    HW217844   3.782   0.170  10.188  0.2126  1.3598  1.4547
 2071SOL     OW17845   4.107   0.116   6.505 -0.0056  0.2744  0.0334
 2071SOL    HW117846   4.094   0.089   6.414 -1.0830  1.1072 -0.0588
 2071SOL    HW217847   4.137   0.204   6.484 -1.2709  0.1741 -2.1742
 2072SOL     OW17848   1.843   0.392   4.456 -0.4956 -0.1456  0.1109
 2072SOL    HW117849   1.794   0.310   4.467  1.5899 -1.7393 -2.3093
 2072SOL    HW217850   1.925   0.374   4.502 -0.0277 -0.3494 -0.7957
 2073SOL     OW17851   2.086   2.818   8.616 -0.0562 -0.3181 -0.3974
 2073SOL    HW117852   2.051   2.760   8.683  0.3012  0.0195  0.0869
 2073SOL    HW217853   2.060   2.903   8.651 -1.2539 -1.0905  0.5704
 2074SOL     OW17854   0.317   4.327   9.961 -0.3823 -0.0457  0.3669
 2074SOL    HW117855   0.311   4.232   9.966  0.4873 -0.1711 -1.0691
 2074SOL    HW217856   0.307   4.349  10.053 -1.3004 -0.2782  0.3182
 2075SOL     OW17857   0.515   0.897  14.233  0.4618  0.5134 -0.7826
 2075SOL    HW117858   0.443   0.960  14.231 -1.2190 -1.3895 -0.7034
 2075SOL    HW217859   0.574   0.953  14.284  0.7047 -1.5239  1.2081
 2076SOL     OW17860   3.163   3.570   8.547 -0.1508 -0.4400 -0.1223
 2076SOL    HW117861   3.198   3.523   8.472  0.6352 -1.9937  1.1989
 2076SOL    HW217862   3.070   3.577   8.524 -0.0504 -0.0290 -0.4002
 2077SOL     OW17863   2.310   0.915   7.631  0.2901  0.0081 -0.0834
 2077SOL    HW117864   2.244   0.857   7.593  0.5619  1.1223 -2.2686
 2077SOL    HW217865   2.377   0.921   7.564  0.3991  1.8261  0.1942
 2078SOL     OW17866   1.446   3.245   2.540 -0.1550  0.1197  0.0196
 2078SOL    HW117867   1.417   3.323   2.494  0.8126  0.2186 -0.4192
 2078SOL    HW217868   1.431   3.181   2.470 -0.7401 -0.7019  0.8922
 2079SOL     OW17869   1.176   1.877   8.144  0.5896 -0.0559  0.2724
 2079SOL    HW117870   1.160   1.972   8.148  2.0914  0.1050  2.3859
 2079SOL    HW217871   1.093   1.831   8.131  0.3884  0.1788  0.7207
 2080SOL     OW17872   1.907   2.279   8.411  0.1663  0.0865 -0.3969
 2080SOL    HW117873   1.958   2.333   8.472 -1.3640 -0.6050  1.5001
 2080SOL    HW217874   1.818   2.299   8.441  0.1359 -0.1556 -0.3238
 2081SOL     OW17875   2.919   4.348  15.005 -0.1100  0.2974 -0.1060
 2081SOL    HW117876   2.922   4.252  15.000 -1.8857  0.1227  2.1575
 2081SOL    HW217877   2.838   4.354  15.055 -0.1322 -1.2767  0.0740
 2082SOL     OW17878   0.008   1.316   6.926 -0.0588 -0.1989  0.2217
 2082SOL    HW117879   4.650   1.305   6.941  0.1069 -1.0119  0.6540
 2082SOL    HW217880   0.012   1.300   6.832  0.9199  2.0133 -0.1166
 2083SOL     OW17881   3.950   1.021   2.419 -0.3221  0.4563 -0.5389
 2083SOL    HW117882   3.987   1.068   2.495 -0.7695  0.6933 -0.4679
 2083SOL    HW217883   4.023   0.962   2.400 -1.5224 -1.9908  2.5020
 2084SOL     OW17884   3.957   4.441   8.309  0.2720 -0.3877 -0.0607
 2084SOL    HW117885   3.914   4.439   8.394 -0.3261  1.1189 -0.3243
 2084SOL    HW217886   3.909   4.376   8.258  0.9675 -2.1399  1.5175
 2085SOL     OW17887   4.602   4.044   8.130  0.0180  0.1014  0.0230
 2085SOL    HW117888   4.604   4.125   8.181 -1.5417 -0.5112  1.0253
 2085SOL    HW217889   4.597   4.068   8.037 -0.1734 -1.2488 -0.3060
 2086SOL     OW17890   0.009   4.660   7.216 -0.2126 -0.0458 -0.1252
 2086SOL    HW117891   0.060   4.685   7.293  2.9196 -4.5865 -0.7168
 2086SOL    HW217892   4.662   4.705   7.237  0.5034  1.2250 -0.0448
 2087SOL     OW17893   4.063   0.931   6.261 -0.6734 -0.1563  0.4533
 2087SOL    HW117894   4.124   0.906   6.331  0.8778 -1.3387 -1.3110
 2087SOL    HW217895   4.091   0.872   6.190 -3.0096  0.6654 -1.1318
 2088SOL     OW17896   1.351   1.067   4.123 -0.3152 -0.3964 -0.2822
 2088SOL    HW117897   1.365   1.159   4.148 -0.9164 -0.8916  1.8773
 2088SOL    HW217898   1.264   1.067   4.164 -0.0538 -1.4894  0.2530
 2089SOL     OW17899   0.221   0.429  13.177  0.0379 -0.2369 -0.3178
 2089SOL    HW117900   0.137   0.423  13.132 -0.3489 -2.5440  0.6971
 2089SOL    HW217901   0.213   0.365  13.248 -1.9237 -0.0807 -0.4052
 2090SOL     OW17902   0.265   0.587   9.813 -0.5342  0.3288  0.0027
 2090SOL    HW117903   0.217   0.614   9.892 -0.8983  1.9506 -0.7668
 2090SOL    HW217904   0.339   0.542   9.854 -1.6980 -0.2598  1.4645
 2091SOL     OW17905   4.374   1.634  14.151  0.4011  0.2067 -0.0307
 2091SOL    HW117906   4.330   1.578  14.086 -0.3143  1.1342 -0.3310
 2091SOL    HW217907   4.303   1.682  14.193 -1.3815 -3.4372  1.1082
 2092SOL     OW17908   0.846   1.004   4.104  0.1983  0.4738 -0.5763
 2092SOL    HW117909   0.768   1.028   4.155  0.0111  1.4404 -1.3266
 2092SOL    HW217910   0.817   1.028   4.016  0.1779  2.8907  0.0761
 2093SOL     OW17911   1.548   4.540   9.110  0.9605  0.3701 -0.5376
 2093SOL    HW117912   1.626   4.532   9.055  1.4720  2.0854 -0.0632
 2093SOL    HW217913   1.526   4.448   9.124 -0.0252  0.7414  0.3311
 2094SOL     OW17914   4.035   1.306   5.887  0.0605 -0.2546  0.3261
 2094SOL    HW117915   4.084   1.372   5.837 -1.1995 -0.8090 -1.6225
 2094SOL    HW217916   4.053   1.333   5.977  2.3397 -0.6122 -0.0225
 2095SOL     OW17917   1.003   3.507   5.342  0.9072  0.1451  0.3996
 2095SOL    HW117918   0.930   3.509   5.281  0.6326 -0.1348  0.7175
 2095SOL    HW217919   1.048   3.587   5.313  0.1026  0.5705  0.3222
 2096SOL     OW17920   1.530   0.484  11.650  0.2213  0.0893  0.0221
 2096SOL    HW117921   1.623   0.503  11.637  0.3759 -1.4436 -1.1914
 2096SOL    HW217922   1.504   0.443  11.567  1.7185 -1.8921  0.5459
 2097SOL     OW17923   2.303   2.306   0.643  0.0990 -0.4479  0.1866
 2097SOL    HW117924   2.228   2.366   0.640 -0.0891 -0.6657  0.4814
 2097SOL    HW217925   2.303   2.280   0.735  0.3332  0.5123  0.4597
 2098SOL     OW17926   1.522   3.456   0.411 -0.3887 -0.6736 -0.9112
 2098SOL    HW117927   1.617   3.465   0.417 -0.5951 -0.6699  2.0148
 2098SOL    HW217928   1.503   3.534   0.359  0.8540  0.0494 -0.2648
 2099SOL     OW17929   0.648   1.454   0.928  0.4767 -0.6325  0.5015
 2099SOL    HW117930   0.720   1.439   0.989  1.9292  1.7666 -0.6222
 2099SOL    HW217931   0.575   1.423   0.982  0.2170  0.3771  0.7489
 2100SOL     OW17932   1.606   1.199   6.049 -0.1542 -0.4214 -0.4789
 2100SOL    HW117933   1.629   1.288   6.077 -1.7551  0.1241 -0.8939
 2100SOL    HW217934   1.619   1.156   6.134  0.4976 -0.3852 -0.5676
 2101SOL     OW17935   2.244   1.413   8.277 -0.0502 -0.2864  0.3172
 2101SOL    HW117936   2.233   1.377   8.189  0.4584 -0.7032  0.4201
 2101SOL    HW217937   2.175   1.475   8.298 -1.3538 -1.8586  0.6315
 2102SOL     OW17938   2.595   1.993   3.314 -0.0420  0.0003 -0.3207
 2102SOL    HW117939   2.515   1.969   3.361  0.0772 -1.3266 -0.8081
 2102SOL    HW217940   2.597   2.088   3.329 -2.1510 -0.3863  2.5526
 2103SOL     OW17941   4.057   3.453   6.633  0.2802 -0.4310 -0.4448
 2103SOL    HW117942   3.973   3.415   6.657  1.2580 -1.3581  1.5027
 2103SOL    HW217943   4.100   3.449   6.718 -0.6038  0.0381  0.0264
 2104SOL     OW17944   3.074   0.263  14.460 -0.5404  0.4170  0.1325
 2104SOL    HW117945   3.131   0.187  14.474 -2.3179 -1.0237 -0.3723
 2104SOL    HW217946   3.053   0.250  14.367 -0.9724 -0.0887  0.2992
 2105SOL     OW17947   3.316   0.739   9.059  0.1297  0.3170  0.3225
 2105SOL    HW117948   3.277   0.743   9.146 -1.4439 -1.9569 -0.2883
 2105SOL    HW217949   3.293   0.823   9.020 -2.0295 -0.1167  0.6591
 2106SOL     OW17950   2.323   3.731   1.574 -0.5746  0.0070 -0.5215
 2106SOL    HW117951   2.398   3.720   1.633 -0.7661 -2.6955 -0.8161
 2106SOL    HW217952   2.248   3.704   1.627  0.0461 -1.0853 -0.1996
 2107SOL     OW17953   4.184   0.779   3.441  0.3692 -0.7816 -0.0332
 2107SOL    HW117954   4.139   0.820   3.367 -2.3146 -1.8181  1.0343
 2107SOL    HW217955   4.113   0.721   3.467 -0.9310 -0.3356 -2.5289
 2108SOL     OW17956   3.979   4.267   2.272 -0.0875  1.0057 -0.4314
 2108SOL    HW117957   3.900   4.307   2.234 -0.4086  1.2068  0.4415
 2108SOL    HW217958   3.940   4.194   2.321  1.8429  2.6201  3.4976
 2109SOL     OW17959   2.702   0.141  14.808  0.4234 -0.4763 -0.5139
 2109SOL    HW117960   2.719   0.111  14.719  0.8219  0.5212 -0.7790
 2109SOL    HW217961   2.786   0.146  14.853 -0.8536  0.7773  1.7669
 2110SOL     OW17962   2.693   2.087  13.959 -0.2480 -0.0293  0.1483
 2110SOL    HW117963   2.716   2.123  13.873 -1.4089 -1.1306 -0.6265
 2110SOL    HW217964   2.661   2.000  13.934 -0.6409  0.8362 -2.3652
 2111SOL     OW17965   3.008   2.053   6.692  0.0217 -0.4570  0.5171
 2111SOL    HW117966   3.030   2.145   6.706 -1.2305 -0.2998  1.4099
 2111SOL    HW217967   3.083   2.013   6.737  0.3530 -0.5751 -0.1362
 2112SOL     OW17968   1.229   3.434  14.367  0.4678  0.2077  0.7040
 2112SOL    HW117969   1.175   3.424  14.289  0.2137  2.4477  0.5748
 2112SOL    HW217970   1.277   3.513  14.340  0.4017  0.2939  0.8347
 2113SOL     OW17971   0.359   0.524   8.086 -0.6569 -0.6145 -0.1835
 2113SOL    HW117972   0.283   0.573   8.119  0.5214  0.7586  0.4580
 2113SOL    HW217973   0.427   0.587   8.106 -0.5669 -0.7495 -0.0662
 2114SOL     OW17974   4.170   1.803  15.467  0.1968  0.1502  0.0144
 2114SOL    HW117975   4.077   1.787  15.451 -0.1330  2.5101 -0.5118
 2114SOL    HW217976   4.171   1.883  15.520 -0.8999 -0.4595  0.9526
 2115SOL     OW17977   0.665   3.871  12.920  0.0037  0.6270  0.1530
 2115SOL    HW117978   0.711   3.912  12.993  0.6451  0.8938 -0.4060
 2115SOL    HW217979   0.631   3.788  12.954 -0.8521  0.8931 -0.0293
 2116SOL     OW17980   3.551   1.164   3.025  0.5901  0.2324  0.3405
 2116SOL    HW117981   3.593   1.104   3.086 -0.4077 -0.2215  0.5768
 2116SOL    HW217982   3.584   1.145   2.937  1.7967  1.0889  0.6159
 2117SOL     OW17983   4.419   1.691  12.446  0.5572  0.0767 -0.2415
 2117SOL    HW117984   4.396   1.683  12.354 -0.4906  1.0177 -0.0578
 2117SOL    HW217985   4.411   1.782  12.474 -0.6002  0.1904 -0.9466
 2118SOL     OW17986   1.142   0.528   1.546 -0.4241  0.0483  0.0783
 2118SOL    HW117987   1.194   0.586   1.602 -1.6323  0.3934  0.8582
 2118SOL    HW217988   1.142   0.577   1.464 -1.9670 -1.6060 -0.9066
 2119SOL     OW17989   3.713   1.212   9.086  0.2359 -0.7312  0.3638
 2119SOL    HW117990   3.636   1.254   9.047  0.7326  0.6735  0.8788
 2119SOL    HW217991   3.778   1.280   9.067 -0.4552 -0.4606 -1.0360
 2120SOL     OW17992   3.148   4.479   9.825 -1.1096  0.1301 -0.0770
 2120SOL    HW117993   3.055   4.478   9.803 -1.4882 -1.1723  1.5756
 2120SOL    HW217994   3.149   4.537   9.901 -0.3821 -0.5355  0.4170
 2121SOL     OW17995   3.249   1.210  13.586 -0.2959  0.1545 -0.0107
 2121SOL    HW117996   3.237   1.229  13.493 -1.1837  0.6413  0.2106
 2121SOL    HW217997   3.319   1.145  13.597 -1.9112 -1.2645  1.6679
 2122SOL     OW17998   4.402   0.293   8.190  0.2762  0.1360 -0.0215
 2122SOL    HW117999   4.406   0.225   8.122 -2.8001 -0.6319  0.5829
 2122SOL    HW218000   4.488   0.332   8.171  1.1254 -1.2694  0.9815
 2123SOL     OW18001   4.612   1.953   6.984  0.0449  0.0357  0.6853
 2123SOL    HW118002   4.702   1.919   6.984  0.1932  0.4082 -1.0782
 2123SOL    HW218003   4.590   1.942   7.076  1.1264  1.7551  1.1464
 2124SOL     OW18004   2.491   1.847  14.600 -0.2578  0.3356 -0.8029
 2124SOL    HW118005   2.440   1.917  14.643  1.1883 -0.9640  3.0778
 2124SOL    HW218006   2.572   1.852  14.652  0.4665  0.0584 -1.9172
 2125SOL     OW18007   4.653   2.576   2.776  0.0138  0.6161  0.0673
 2125SOL    HW118008   4.607   2.601   2.856 -0.7293 -0.3127 -0.0765
 2125SOL    HW218009   4.725   2.638   2.761 -0.2361  0.6847 -0.8509
 2126SOL     OW18010   3.292   4.438   8.086 -0.2515 -0.4723  0.1889
 2126SOL    HW118011   3.287   4.461   7.993 -0.6059  1.6110  0.7282
 2126SOL    HW218012   3.357   4.502   8.117  0.1454 -0.1688 -1.2875
 2127SOL     OW18013   3.931   2.214   3.901  0.1799 -0.6333 -0.0639
 2127SOL    HW118014   3.869   2.271   3.948  0.9744 -0.2001  0.4596
 2127SOL    HW218015   3.939   2.262   3.819 -1.2111  0.0283  0.1816
 2128SOL     OW18016   1.838   3.543   7.999 -0.3730 -0.4467 -0.7007
 2128SOL    HW118017   1.810   3.615   8.055 -1.1021  0.3862 -2.1281
 2128SOL    HW218018   1.784   3.572   7.926  3.8124  0.8270 -3.2923
 2129SOL     OW18019   0.142   2.329   9.098 -0.0587 -0.2556 -0.2536
 2129SOL    HW118020   0.187   2.250   9.068  0.1601 -1.3201  2.7807
 2129SOL    HW218021   0.066   2.315   9.041 -1.0124 -2.1471  1.4507
 2130SOL     OW18022   0.647   0.696   5.894 -0.5874 -0.2807 -0.0808
 2130SOL    HW118023   0.738   0.724   5.895 -0.2149 -1.4997 -1.4775
 2130SOL    HW218024   0.654   0.668   5.803  1.8225  2.4202 -0.7159
 2131SOL     OW18025   3.504   3.207   2.747 -0.2570  0.1673  0.3168
 2131SOL    HW118026   3.493   3.141   2.679 -0.4245 -1.8915  2.3298
 2131SOL    HW218027   3.597   3.228   2.751 -1.1503  4.0930  0.3239
 2132SOL     OW18028   3.578   2.606   4.289 -0.2849 -0.7367  0.1746
 2132SOL    HW118029   3.502   2.603   4.231 -0.2260 -1.7112  0.1422
 2132SOL    HW218030   3.537   2.595   4.374 -0.0587  0.4105  0.4390
 2133SOL     OW18031   2.667   0.890  14.905  0.1118  0.2552 -0.1627
 2133SOL    HW118032   2.760   0.906  14.890  0.1809 -0.2162 -0.2353
 2133SOL    HW218033   2.681   0.866  14.996  0.6441  0.5234 -0.1744
 2134SOL     OW18034   1.353   4.105   9.865  0.3519 -0.4668  0.3712
 2134SOL    HW118035   1.402   4.024   9.882  1.3171 -0.3492 -1.8780
 2134SOL    HW218036   1.278   4.096   9.923 -1.2803  1.3969 -1.4440
 2135SOL     OW18037   2.713   0.086  13.973 -0.5680 -0.3892 -0.8729
 2135SOL    HW118038   2.694   0.177  13.997 -2.9939 -1.4488  1.2137
 2135SOL    HW218039   2.801   0.095  13.937 -0.1846 -1.7470 -0.2559
 2136SOL     OW18040   4.060   0.933   2.767 -0.2906  0.3750 -0.0948
 2136SOL    HW118041   4.030   1.023   2.773 -0.1875  0.3010  1.5021
 2136SOL    HW218042   4.153   0.950   2.750 -0.6606  0.5088 -1.9724
 2137SOL     OW18043   0.657   2.392   7.194 -0.0972 -0.0278 -0.1014
 2137SOL    HW118044   0.621   2.309   7.163  1.5050 -0.7027 -0.1439
 2137SOL    HW218045   0.708   2.423   7.119 -0.5931 -1.5515 -1.0714
 2138SOL     OW18046   4.564   4.419  15.026  0.1925  0.0497  0.2675
 2138SOL    HW118047   4.644   4.468  15.006 -0.4535  1.2027  0.5178
 2138SOL    HW218048   4.507   4.488  15.061 -0.3020  0.0619 -0.5602
 2139SOL     OW18049   4.340   1.952   2.864 -0.2869 -0.0518 -0.1867
 2139SOL    HW118050   4.385   1.987   2.787 -0.3230 -0.5139 -0.4204
 2139SOL    HW218051   4.328   2.033   2.914 -1.7793 -0.4623  0.1403
 2140SOL     OW18052   0.642   0.844   2.594  0.2542 -0.7419 -0.0927
 2140SOL    HW118053   0.671   0.799   2.674  0.1872  0.3085  0.5204
 2140SOL    HW218054   0.726   0.845   2.547 -0.3536  0.8285 -1.1143
 2141SOL     OW18055   0.579   4.531   7.796  0.4825  0.8764  0.4828
 2141SOL    HW118056   0.590   4.544   7.890 -0.1143 -1.1565  0.8279
 2141SOL    HW218057   0.667   4.540   7.759  0.6425 -0.6521  0.4752
 2142SOL     OW18058   0.904   3.923   0.066 -0.4248  0.5301  0.2444
 2142SOL    HW118059   0.980   3.925   0.125  0.7156 -3.2578 -1.1072
 2142SOL    HW218060   0.939   3.968  17.729 -0.6914  1.2066  0.5242
 2143SOL     OW18061   0.533   1.385  10.676 -0.6634 -0.3928  0.2771
 2143SOL    HW118062   0.605   1.354  10.620  0.0154 -1.5397  1.7701
 2143SOL    HW218063   0.542   1.340  10.760  0.3377  0.7533  0.7881
 2144SOL     OW18064   4.499   4.594   7.540  0.8535 -0.0689  0.5587
 2144SOL    HW118065   4.580   4.545   7.553  1.6000  1.7148  2.5202
 2144SOL    HW218066   4.508   4.657   7.611  3.3382  0.0949  0.0837
 2145SOL     OW18067   0.036   0.034   5.153  0.3814  0.0499  0.0008
 2145SOL    HW118068   0.053   0.018   5.061 -2.0957  0.5116 -0.5564
 2145SOL    HW218069   4.726   4.688   5.177  0.3671 -0.0693 -0.4374
 2146SOL     OW18070   1.325   3.433   9.136 -0.8139 -0.1585  0.5018
 2146SOL    HW118071   1.290   3.400   9.219  0.1699 -0.5822  0.7413
 2146SOL    HW218072   1.380   3.359   9.110 -0.4354  0.5767 -0.7539
 2147SOL     OW18073   0.652   2.279   0.068  0.4413 -0.0429 -0.3535
 2147SOL    HW118074   0.572   2.291   0.120  0.9845 -0.4353  0.5716
 2147SOL    HW218075   0.680   2.370   0.055 -0.8618  0.7061  1.9861
 2148SOL     OW18076   0.165   3.710   9.357  0.0072  0.0546 -0.2385
 2148SOL    HW118077   0.168   3.627   9.405 -1.0903  0.7468  1.0298
 2148SOL    HW218078   0.234   3.757   9.404 -1.2563  0.2987  1.3750
 2149SOL     OW18079   1.045   0.954   7.513  0.0940 -0.3838  0.3619
 2149SOL    HW118080   0.995   1.029   7.544  0.9695  0.2146  0.3516
 2149SOL    HW218081   1.100   0.925   7.586 -0.0440 -2.7594 -0.4676
 2150SOL     OW18082   2.880   3.446   6.151 -0.0703  0.2881 -0.1266
 2150SOL    HW118083   2.853   3.359   6.122  0.1858 -0.3936  1.6736
 2150SOL    HW218084   2.926   3.426   6.233  1.6171  0.7974 -0.9420
 2151SOL     OW18085   0.541   3.785   2.797 -0.4927  0.0621  0.2297
 2151SOL    HW118086   0.575   3.843   2.865  1.3612 -1.9253  0.9852
 2151SOL    HW218087   0.456   3.760   2.833  0.4196 -0.1327  2.2726
 2152SOL     OW18088   3.742   2.677   4.917  0.7397  0.2563  0.1480
 2152SOL    HW118089   3.755   2.687   5.012 -0.0271  0.6813  0.2083
 2152SOL    HW218090   3.748   2.582   4.907 -1.3759 -0.2532  3.7001
 2153SOL     OW18091   4.333   0.492   5.274  0.2124 -0.2147  0.5208
 2153SOL    HW118092   4.279   0.558   5.230 -0.8522 -0.2596  1.7878
 2153SOL    HW218093   4.272   0.461   5.340  1.1880 -3.6412 -0.2058
 2154SOL     OW18094   2.810   1.326  13.320  0.0483  0.3104 -0.1900
 2154SOL    HW118095   2.895   1.288  13.295  0.5667  1.3519 -0.0121
 2154SOL    HW218096   2.805   1.281  13.404  1.2669  0.2849 -0.1193
 2155SOL     OW18097   2.805   2.377   1.535 -0.2442  0.1413 -0.4201
 2155SOL    HW118098   2.716   2.351   1.512  0.5112  0.5435 -3.8829
 2155SOL    HW218099   2.805   2.463   1.492  1.0505 -0.5648 -1.8606
 2156SOL     OW18100   2.237   4.222   2.053 -0.0768  0.5275 -0.6765
 2156SOL    HW118101   2.171   4.198   1.989 -2.3820  2.2606  1.0866
 2156SOL    HW218102   2.233   4.134   2.092  1.8678  0.8230  0.2327
 2157SOL     OW18103   4.413   0.939   5.680  0.0324 -0.2946  0.3590
 2157SOL    HW118104   4.364   1.014   5.713  1.5914  0.5001  0.8430
 2157SOL    HW218105   4.482   0.934   5.747 -0.2755  2.1261  0.8484
 2158SOL     OW18106   2.409   0.124  11.539  0.4177 -0.5736  0.0470
 2158SOL    HW118107   2.424   0.218  11.527 -1.9955 -0.2561 -0.3428
 2158SOL    HW218108   2.320   0.122  11.572  0.5410 -0.6832  0.3720
 2159SOL     OW18109   4.539   0.352   5.122 -0.4465  0.3445 -0.1026
 2159SOL    HW118110   4.577   0.420   5.066 -0.1531  1.4491  1.4111
 2159SOL    HW218111   4.495   0.403   5.191  0.5103  1.4256 -0.2816
 2160SOL     OW18112   4.572   0.082  12.255 -0.0225  0.2551 -0.3403
 2160SOL    HW118113   4.534   0.135  12.324 -1.4436 -1.5624  0.2811
 2160SOL    HW218114   4.501   0.022  12.230 -1.1995  1.5640 -0.1201
 2161SOL     OW18115   1.054   1.650   4.185 -0.1531 -0.9809  0.4207
 2161SOL    HW118116   1.147   1.649   4.209 -0.0609  0.4660  0.1516
 2161SOL    HW218117   1.055   1.568   4.135  0.5587 -0.3630 -0.6090
 2162SOL     OW18118   2.994   1.572   2.923  0.4261  0.2955  0.3118
 2162SOL    HW118119   2.906   1.543   2.897  0.1584  1.1764  0.2362
 2162SOL    HW218120   3.047   1.495   2.902  0.3762 -0.0198  1.3516
 2163SOL     OW18121   3.144   4.677   2.379 -0.3405  0.9786 -0.2165
 2163SOL    HW118122   3.152   0.012   2.443  0.0109  0.3180  0.4575
 2163SOL    HW218123   3.209   4.621   2.420 -0.2939  0.5362 -0.8906
 2164SOL     OW18124   2.308   0.467  14.626 -0.0631 -0.3410  0.3932
 2164SOL    HW118125   2.282   0.553  14.659 -2.0717 -1.7277  2.5036
 2164SOL    HW218126   2.294   0.469  14.532 -0.3226  0.1539  0.4458
 2165SOL     OW18127   1.759   2.883   5.675  0.0035  0.5379 -0.2504
 2165SOL    HW118128   1.797   2.948   5.616  0.6422 -0.9034 -1.4090
 2165SOL    HW218129   1.782   2.810   5.618  0.7544 -0.7325  1.6938
 2166SOL     OW18130   1.812   2.818   2.670  0.0890  0.0062 -0.0191
 2166SOL    HW118131   1.806   2.793   2.762 -2.4294  0.5937 -0.0358
 2166SOL    HW218132   1.906   2.836   2.666 -0.2494  1.4109 -1.5816
 2167SOL     OW18133   0.554   0.720   8.112  0.4470 -0.2818 -0.3230
 2167SOL    HW118134   0.552   0.777   8.035  1.0627  0.6144  0.3127
 2167SOL    HW218135   0.538   0.782   8.184  1.7158  0.1145 -0.3724
 2168SOL     OW18136   3.836   0.039   7.970 -0.3377  0.4280 -0.2741
 2168SOL    HW118137   3.897   0.032   7.897  0.5659  1.7169  0.3611
 2168SOL    HW218138   3.801   4.685   7.971 -0.0542  0.3166 -0.3483
 2169SOL     OW18139   2.694   0.195   3.002 -0.0450  0.3078  0.2223
 2169SOL    HW118140   2.701   0.270   3.062  1.3057  1.2601 -1.1426
 2169SOL    HW218141   2.727   0.124   3.057  0.7508 -0.5157 -1.3467
 2170SOL     OW18142   3.737   2.704   5.569  0.1132  0.7714  0.1167
 2170SOL    HW118143   3.669   2.733   5.508 -0.4053  1.8759  1.2122
 2170SOL    HW218144   3.701   2.705   5.657  0.3434 -1.3689  0.2373
 2171SOL     OW18145   3.324   1.893   3.001 -0.2393 -0.1312  0.0497
 2171SOL    HW118146   3.395   1.858   2.947 -0.6924 -0.3755 -0.3904
 2171SOL    HW218147   3.252   1.859   2.947 -0.1639  3.8309 -2.4883
 2172SOL     OW18148   4.580   1.422   0.929 -0.5037 -0.2683  0.1203
 2172SOL    HW118149   4.635   1.344   0.920  0.8774  0.4008  2.7539
 2172SOL    HW218150   4.517   1.416   0.857 -0.9686 -0.3438  0.5316
 2173SOL     OW18151   1.546   1.551   6.843  0.0118  0.2879 -0.1360
 2173SOL    HW118152   1.594   1.495   6.782 -1.7470  0.5461 -1.7569
 2173SOL    HW218153   1.602   1.551   6.921 -1.7741 -0.9871  1.1612
 2174SOL     OW18154   0.216   4.137   5.117 -0.0056  1.1967  0.1627
 2174SOL    HW118155   0.263   4.068   5.068 -0.1378  1.7885 -0.8040
 2174SOL    HW218156   0.126   4.113   5.094  1.3422 -1.7362 -2.1245
 2175SOL     OW18157   3.039   4.082  11.566 -0.5064  0.2661  0.1091
 2175SOL    HW118158   2.992   3.999  11.563 -1.0813  0.5540  1.3373
 2175SOL    HW218159   2.975   4.151  11.581 -1.5826 -0.9555  1.1397
 2176SOL     OW18160   1.085   1.474   3.702 -0.0273  0.4337 -0.2768
 2176SOL    HW118161   1.119   1.563   3.702  0.1186  0.3800  0.4407
 2176SOL    HW218162   1.053   1.468   3.612  1.7358  1.1392 -0.9421
 2177SOL     OW18163   1.449   4.603  17.169  0.8456  0.2650 -0.0643
 2177SOL    HW118164   1.433   4.531  17.109  0.6359 -0.7267  1.1804
 2177SOL    HW218165   1.543   4.607  17.150  0.2863 -0.0372 -2.8785
 2178SOL     OW18166   0.151   0.360   8.365  0.5112  0.0409  0.2116
 2178SOL    HW118167   0.126   0.422   8.296 -1.2094  0.2880  1.0503
 2178SOL    HW218168   0.239   0.327   8.349  0.4116 -0.9213  1.5783
 2179SOL     OW18169   1.113   4.730   8.898 -0.5625  0.3792 -0.5479
 2179SOL    HW118170   1.144   0.068   8.844  1.3915 -0.7018 -0.8783
 2179SOL    HW218171   1.188   4.670   8.896  1.4262  2.8176  0.2557
 2180SOL     OW18172   0.062   0.239  12.217  0.0275  0.9253  0.4078
 2180SOL    HW118173   0.038   0.319  12.171 -0.3119  0.5651 -0.0459
 2180SOL    HW218174   4.716   0.190  12.231  0.7045  0.3499  2.2970
 2181SOL     OW18175   3.831   0.278   9.271 -0.1140 -0.1880  0.0826
 2181SOL    HW118176   3.824   0.229   9.188  0.3296  1.1673 -0.7537
 2181SOL    HW218177   3.761   0.343   9.265 -0.9204 -1.2198 -1.8446
 2182SOL     OW18178   2.148   4.499   3.970  0.5956  0.0987 -0.4369
 2182SOL    HW118179   2.126   4.577   4.021 -1.2383 -0.7940  0.1496
 2182SOL    HW218180   2.194   4.539   3.896 -1.6159  0.8788 -1.4027
 2183SOL     OW18181   0.522   0.962   3.677 -0.3577  0.5726  0.0706
 2183SOL    HW118182   0.598   0.986   3.624 -0.0854  1.2416  0.7529
 2183SOL    HW218183   0.573   0.920   3.747 -1.4205 -1.0751 -0.1542
 2184SOL     OW18184   0.419   0.857   1.292  0.0148 -0.7483 -0.0659
 2184SOL    HW118185   0.371   0.777   1.313  0.8588 -1.3993 -0.6063
 2184SOL    HW218186   0.367   0.884   1.216 -0.9480  1.7764  1.5024
 2185SOL     OW18187   1.916   1.403   2.848  0.1429 -0.6690  0.0560
 2185SOL    HW118188   1.964   1.406   2.766  1.1038  0.4728  0.6458
 2185SOL    HW218189   1.848   1.340   2.823 -1.3205  1.5744 -1.6061
 2186SOL     OW18190   0.920   0.848   7.291  0.2788 -0.1620  0.0727
 2186SOL    HW118191   0.841   0.888   7.255 -0.3284  0.2139  1.8519
 2186SOL    HW218192   0.938   0.909   7.362 -0.6703  1.3105 -0.9452
 2187SOL     OW18193   1.073   4.070   5.159 -0.2625 -0.4290 -0.4200
 2187SOL    HW118194   1.119   4.137   5.109 -0.6310 -2.2692 -3.1990
 2187SOL    HW218195   0.981   4.097   5.150  0.2396  0.7035 -2.1685
 2188SOL     OW18196   2.066   4.254   4.108 -0.7241 -0.5559  0.2141
 2188SOL    HW118197   1.982   4.300   4.110  0.6916  1.9285  1.3922
 2188SOL    HW218198   2.118   4.304   4.045 -0.2684  0.2563  1.2462
 2189SOL     OW18199   3.301   0.214   7.591  0.4976 -0.4280  0.4040
 2189SOL    HW118200   3.300   0.296   7.542 -2.0301  0.1958  1.5043
 2189SOL    HW218201   3.340   0.158   7.524  0.7729  0.6618 -0.3495
 2190SOL     OW18202   4.637   0.667   4.013 -0.0458 -0.1162 -0.5969
 2190SOL    HW118203   4.564   0.727   4.029  0.2931  0.1537 -0.0341
 2190SOL    HW218204   4.715   0.712   4.048  1.5381 -1.9412 -1.7898
 2191SOL     OW18205   0.215   2.670  13.529 -0.7385 -0.1316 -0.1323
 2191SOL    HW118206   0.231   2.576  13.516  1.0734  0.1504  0.0996
 2191SOL    HW218207   0.289   2.703  13.477 -0.7146  0.0275  0.0056
 2192SOL     OW18208   3.917   1.941   8.107 -0.1518  0.8178  0.1861
 2192SOL    HW118209   3.951   2.025   8.075 -0.8904  0.0596 -2.6392
 2192SOL    HW218210   3.975   1.934   8.182 -0.1071 -0.8036  0.0052
 2193SOL     OW18211   3.566   3.502  14.635 -0.7094  0.2547 -0.2348
 2193SOL    HW118212   3.506   3.481  14.707  0.1469  2.7588  1.1970
 2193SOL    HW218213   3.536   3.590  14.610  0.5743 -0.2001 -3.3281
 2194SOL     OW18214   3.182   1.835   8.440  0.3775 -0.2988 -0.0430
 2194SOL    HW118215   3.210   1.922   8.412  2.1772 -0.4900  1.1569
 2194SOL    HW218216   3.154   1.857   8.529  0.5188 -1.4474  0.2944
 2195SOL     OW18217   1.115   0.674  11.611  0.6231  0.2539  0.1338
 2195SOL    HW118218   1.133   0.755  11.659  2.2463  0.5820 -1.0002
 2195SOL    HW218219   1.071   0.703  11.531  0.9241  1.8659  0.5636
 2196SOL     OW18220   4.120   0.919   2.087 -0.2741  0.0158  0.1964
 2196SOL    HW118221   4.114   0.976   2.163 -0.3999  0.2943 -0.0218
 2196SOL    HW218222   4.028   0.900   2.066 -0.3677  0.7919 -0.1029
 2197SOL     OW18223   3.547   1.687   2.492  0.0902 -0.1887 -0.1476
 2197SOL    HW118224   3.565   1.595   2.476 -3.7848 -1.5591  3.2088
 2197SOL    HW218225   3.536   1.681   2.587 -1.9515 -0.3400 -0.3889
 2198SOL     OW18226   1.843   4.073   1.804 -0.1644  0.1762  0.0472
 2198SOL    HW118227   1.852   4.167   1.786  2.0973 -0.0137  0.1850
 2198SOL    HW218228   1.910   4.062   1.872 -0.8586 -0.4216  0.6315
 2199SOL     OW18229   0.996   1.496   1.832  0.2699  0.1549 -0.5882
 2199SOL    HW118230   1.032   1.409   1.814 -0.0917 -0.1774  0.2730
 2199SOL    HW218231   0.908   1.488   1.794 -0.1573  0.3154  0.3706
 2200SOL     OW18232   2.413   0.289   8.759 -0.6868  0.0409  0.1301
 2200SOL    HW118233   2.329   0.244   8.765  0.0069 -1.2889 -0.0886
 2200SOL    HW218234   2.453   0.271   8.844  2.9211 -0.2761 -1.6580
 2201SOL     OW18235   0.570   2.191   9.590 -0.3573  0.2548  0.0180
 2201SOL    HW118236   0.597   2.141   9.513  1.2997 -0.5448  1.1434
 2201SOL    HW218237   0.650   2.241   9.607 -0.0338 -0.1673 -0.2689
 2202SOL     OW18238   1.996   0.948   2.046 -0.2827 -0.1857 -0.1349
 2202SOL    HW118239   1.992   0.986   1.958 -1.0797 -2.3534 -1.0387
 2202SOL    HW218240   2.076   0.896   2.046  0.1007  0.4327 -3.5228
 2203SOL     OW18241   3.010   4.626  16.985  0.0424 -0.0008 -0.2663
 2203SOL    HW118242   3.088   4.570  16.977 -0.0243  0.0542 -1.2497
 2203SOL    HW218243   2.976   4.598  17.070  1.9057  1.5870  0.9896
 2204SOL     OW18244   0.773   4.229   2.616  0.1665  0.2387 -0.2155
 2204SOL    HW118245   0.846   4.231   2.554 -0.8096  2.1431 -1.3087
 2204SOL    HW218246   0.749   4.138   2.603 -1.0620  0.7220 -1.3206
 2205SOL     OW18247   3.118   3.422  12.288  0.0712  0.6502  0.1930
 2205SOL    HW118248   3.072   3.480  12.350  0.6317 -0.7302  1.9149
 2205SOL    HW218249   3.176   3.479  12.239 -0.2594  0.5573 -0.3021
 2206SOL     OW18250   4.735   3.414   8.160 -0.1083  0.2395 -0.1744
 2206SOL    HW118251   0.015   3.422   8.254  0.1503  0.4305 -0.2327
 2206SOL    HW218252   4.657   3.358   8.165 -1.3443  2.2092  2.9211
 2207SOL     OW18253   2.380   2.279   4.992 -0.1642 -0.5852  0.1168
 2207SOL    HW118254   2.461   2.243   5.026 -0.6687 -1.1117  0.7580
 2207SOL    HW218255   2.374   2.250   4.901  0.0785 -2.5085  0.7183
 2208SOL     OW18256   0.250   0.940   5.166  0.3255  0.0391 -0.0456
 2208SOL    HW118257   0.281   0.925   5.256 -0.9008  0.5952  0.4822
 2208SOL    HW218258   0.332   0.916   5.125 -1.0152  0.7682 -3.1135
 2209SOL     OW18259   0.309   0.214  14.422 -0.8492  0.2160 -0.1687
 2209SOL    HW118260   0.367   0.255  14.359 -1.1572  4.1276  2.0829
 2209SOL    HW218261   0.221   0.247  14.400  1.0460  4.1148 -1.8953
 2210SOL     OW18262   1.897   3.855   4.309 -0.1470  0.1491 -0.9069
 2210SOL    HW118263   1.959   3.784   4.294  1.1801  0.8806  1.1767
 2210SOL    HW218264   1.919   3.913   4.236 -0.1117  1.4865  0.1475
 2211SOL     OW18265   3.331   0.821   2.763 -0.3607  0.6015 -0.3278
 2211SOL    HW118266   3.283   0.788   2.688  0.1197 -0.9135  0.0127
 2211SOL    HW218267   3.417   0.783   2.742 -0.9063 -1.4610  1.1186
 2212SOL     OW18268   3.025   0.521   6.617  0.3858  0.2344  0.0479
 2212SOL    HW118269   3.025   0.448   6.555  1.7105  0.5926 -0.3691
 2212SOL    HW218270   2.994   0.482   6.698  1.1493  0.8530  0.6291
 2213SOL     OW18271   2.222   2.476  15.020  0.1027 -0.3237 -0.1572
 2213SOL    HW118272   2.251   2.389  14.994 -1.7732 -1.0141  0.1061
 2213SOL    HW218273   2.281   2.486  15.095 -0.3679  0.2099  0.1427
 2214SOL     OW18274   2.115   3.961  13.493  0.0215  0.5624 -0.0529
 2214SOL    HW118275   2.089   4.052  13.508  1.0011  1.1916 -2.1692
 2214SOL    HW218276   2.136   3.958  13.399 -0.5211 -1.4597 -0.1079
 2215SOL     OW18277   2.890   4.203   0.108 -0.1957 -0.0366 -0.3675
 2215SOL    HW118278   2.851   4.123   0.144  0.5477 -0.3652 -0.2922
 2215SOL    HW218279   2.814   4.259   0.124 -0.8450 -0.4633 -1.9896
 2216SOL     OW18280   0.804   0.463   5.236 -0.1017  0.2180  0.1063
 2216SOL    HW118281   0.881   0.489   5.286 -0.8532  1.9377  0.3746
 2216SOL    HW218282   0.839   0.445   5.149 -0.2432 -2.5646  0.6206
 2217SOL     OW18283   0.521   1.627   9.110 -0.0310 -0.4921 -0.5728
 2217SOL    HW118284   0.550   1.659   9.196 -1.5847  0.3799 -0.3638
 2217SOL    HW218285   0.496   1.709   9.066  0.8993  0.5842  0.8987
 2218SOL     OW18286   4.463   3.571   6.237 -0.4223  0.0793  0.2856
 2218SOL    HW118287   4.395   3.613   6.185 -1.5526 -1.5576  0.4444
 2218SOL    HW218288   4.449   3.479   6.218  1.0224 -0.4316  1.7433
 2219SOL     OW18289   4.654   2.015  14.582  0.1317 -0.5184 -0.2431
 2219SOL    HW118290   4.643   1.960  14.504  0.0203 -0.4176 -0.2983
 2219SOL    HW218291   4.731   2.069  14.564 -0.4423  0.3480 -0.1030
 2220SOL     OW18292   4.428   0.923  14.467  0.1614 -0.4995 -0.3551
 2220SOL    HW118293   4.511   0.897  14.506  0.0494  1.3908  1.1764
 2220SOL    HW218294   4.419   1.016  14.489  2.0407 -0.7407  1.5238
 2221SOL     OW18295   1.865   0.980   9.389 -0.5065  0.1699  0.1746
 2221SOL    HW118296   1.889   1.005   9.300 -0.5304  0.7386  0.3279
 2221SOL    HW218297   1.861   1.067   9.429 -1.1259  0.1715  0.1089
 2222SOL     OW18298   2.028   3.088   5.212 -0.2800  0.2393  0.0483
 2222SOL    HW118299   2.115   3.056   5.190 -0.3324 -0.7202  1.2378
 2222SOL    HW218300   1.999   3.015   5.266 -1.9296  1.1989  0.4682
 2223SOL     OW18301   1.453   3.186   7.338  0.1340  0.1903  0.1401
 2223SOL    HW118302   1.533   3.137   7.323 -1.3387 -2.0219 -0.4731
 2223SOL    HW218303   1.409   3.137   7.407  0.2538 -1.4223 -0.9317
 2224SOL     OW18304   1.038   3.119   7.412  0.5373 -0.0027  0.2077
 2224SOL    HW118305   1.056   3.027   7.428 -2.0863 -0.2506  1.7089
 2224SOL    HW218306   0.943   3.121   7.401  0.7714 -1.1179 -1.9253
 2225SOL     OW18307   4.590   2.274   9.012  0.0953 -0.3774 -0.1364
 2225SOL    HW118308   4.548   2.230   9.086 -1.6762  0.2463 -0.7716
 2225SOL    HW218309   4.594   2.200   8.951 -0.1418  1.5942 -2.5101
 2226SOL     OW18310   4.443   0.554   5.715 -0.0254 -0.4275 -0.1575
 2226SOL    HW118311   4.516   0.605   5.681  1.8763 -1.3549  2.4975
 2226SOL    HW218312   4.486   0.519   5.793 -2.3014 -0.6673  0.9999
 2227SOL     OW18313   4.563   2.886   8.321 -0.5363 -0.3687  0.4110
 2227SOL    HW118314   4.487   2.863   8.267 -0.7473  0.8131  0.2187
 2227SOL    HW218315   4.527   2.911   8.406 -1.8314 -0.7227 -0.0253
 2228SOL     OW18316   0.876   1.432  16.554 -0.2282 -0.3233  0.3995
 2228SOL    HW118317   0.880   1.403  16.463 -0.6049  0.5499  0.1011
 2228SOL    HW218318   0.785   1.410  16.577 -1.1685  2.8920 -0.1927
 2229SOL     OW18319   2.004   3.532   7.684 -0.1419 -0.0459  0.0580
 2229SOL    HW118320   1.930   3.592   7.675 -0.2416  0.0659  1.5801
 2229SOL    HW218321   1.953   3.461   7.644  0.2549 -0.0378 -0.4531
 2230SOL     OW18322   0.926   4.629   3.262  0.5365 -0.3119  0.2327
 2230SOL    HW118323   0.922   4.670   3.348 -1.8568  1.4409 -0.7026
 2230SOL    HW218324   0.907   4.538   3.282 -1.7226 -0.3585 -2.0382
 2231SOL     OW18325   4.331   0.775  13.002 -0.1244  0.4659  0.3126
 2231SOL    HW118326   4.324   0.835  13.076 -1.0970  1.5599 -0.6762
 2231SOL    HW218327   4.363   0.840  12.939 -1.8192 -0.2843 -1.3088
 2232SOL     OW18328   3.506   3.783   9.596 -0.7708 -0.8788 -0.7856
 2232SOL    HW118329   3.467   3.724   9.532 -0.3596  0.0190 -1.8677
 2232SOL    HW218330   3.506   3.860   9.539  1.3153 -0.2282  0.0755
 2233SOL     OW18331   2.811   1.311   0.895  0.5975  0.2073  0.4008
 2233SOL    HW118332   2.747   1.241   0.908 -1.2093  1.9745  1.0488
 2233SOL    HW218333   2.888   1.256   0.910 -1.5386 -2.0493  2.9840
 2234SOL     OW18334   4.090   3.049   8.357  0.0805  0.0996  0.2957
 2234SOL    HW118335   4.064   3.102   8.433 -2.1067  1.6764 -1.5778
 2234SOL    HW218336   4.135   2.973   8.394 -0.2036  0.2931  1.0403
 2235SOL     OW18337   3.121   3.146   8.392  0.0063 -0.0422  0.3951
 2235SOL    HW118338   3.167   3.063   8.389 -0.6668 -0.4632  1.5717
 2235SOL    HW218339   3.051   3.118   8.451  0.1154 -1.7059 -0.2862
 2236SOL     OW18340   4.520   1.887  13.440 -0.0645 -0.3834  0.1430
 2236SOL    HW118341   4.493   1.817  13.381 -0.4961  0.7988 -1.0671
 2236SOL    HW218342   4.538   1.843  13.523  0.2200  1.0507  0.8336
 2237SOL     OW18343   1.667   0.613  13.212  0.2754  0.6912  0.2094
 2237SOL    HW118344   1.702   0.664  13.285 -1.0628  0.7068  0.8389
 2237SOL    HW218345   1.588   0.587  13.260  1.1462  0.9532  1.7973
 2238SOL     OW18346   3.405   3.887   9.979 -0.2624  0.4556 -0.6009
 2238SOL    HW118347   3.322   3.933   9.965 -1.9506 -2.1817  0.7368
 2238SOL    HW218348   3.383   3.794   9.969  3.2107 -0.5687  1.3855
 2239SOL     OW18349   2.259   1.389   7.565 -0.4283 -0.1505 -0.6039
 2239SOL    HW118350   2.321   1.443   7.614 -0.2650  0.5718 -1.5957
 2239SOL    HW218351   2.304   1.305   7.566  1.0237  0.6251 -0.3244
 2240SOL     OW18352   1.529   0.139   7.287 -0.1062 -0.1596  0.0342
 2240SOL    HW118353   1.486   0.182   7.360  1.3235  0.2931  0.5937
 2240SOL    HW218354   1.619   0.119   7.309  0.0132  0.4087  0.0524
 2241SOL     OW18355   0.627   1.757   7.806  0.1331 -0.6626  0.0367
 2241SOL    HW118356   0.713   1.736   7.770  2.0746  3.5570  2.1690
 2241SOL    HW218357   0.560   1.741   7.739  0.7866 -0.0084 -0.7743
 2242SOL     OW18358   3.236   4.588  13.498 -0.7530 -0.3190 -0.5954
 2242SOL    HW118359   3.197   4.669  13.464 -1.1462  0.0515  0.7480
 2242SOL    HW218360   3.157   4.556  13.542  0.1530 -0.1865  1.0854
 2243SOL     OW18361   1.694   1.088   9.099  0.3880  0.4230  0.3298
 2243SOL    HW118362   1.667   1.015   9.043  0.8862 -1.1873  2.1762
 2243SOL    HW218363   1.785   1.073   9.127 -0.0251 -0.4812  1.1908
 2244SOL     OW18364   1.759   4.630  11.643 -0.2699  0.1004 -0.2739
 2244SOL    HW118365   1.668   4.605  11.654 -0.3685  1.2314  1.4564
 2244SOL    HW218366   1.760   4.683  11.564 -0.4665  2.8140  1.5573
 2245SOL     OW18367   4.307   1.067   2.822  0.4086 -0.2267  0.7586
 2245SOL    HW118368   4.342   1.097   2.906 -2.6006 -1.4842  2.4775
 2245SOL    HW218369   4.293   1.150   2.777 -1.3419  0.5734  2.7504
 2246SOL     OW18370   3.057   2.000  13.853  0.1134  0.0034 -0.4305
 2246SOL    HW118371   3.030   1.945  13.926  1.3835 -1.8858 -1.3774
 2246SOL    HW218372   3.096   2.075  13.897 -1.1622  1.0916 -1.1658
 2247SOL     OW18373   0.539   0.430   2.414  0.2744 -0.2584 -0.6701
 2247SOL    HW118374   0.602   0.501   2.410 -1.9372  1.7221 -0.1480
 2247SOL    HW218375   0.524   0.418   2.321 -0.7601  0.8838 -0.6547
 2248SOL     OW18376   4.689   4.195  12.334 -0.2587 -0.1360 -0.5693
 2248SOL    HW118377   4.722   4.142  12.406  1.5052  0.4419 -0.9473
 2248SOL    HW218378   4.725   4.142  12.263  1.6189  0.4593 -0.0737
 2249SOL     OW18379   0.291   0.193   8.713  0.2228 -0.4314 -0.4835
 2249SOL    HW118380   0.299   0.136   8.636 -1.4136 -0.7333 -0.4407
 2249SOL    HW218381   0.341   0.143   8.778  1.7758  0.1255 -1.2526
 2250SOL     OW18382   2.544   0.898   4.106  0.0922  0.0102 -0.4252
 2250SOL    HW118383   2.588   0.983   4.108  1.4318 -0.6323 -2.7125
 2250SOL    HW218384   2.578   0.857   4.027  0.5328 -1.8139  0.7158
 2251SOL     OW18385   0.722   0.397   2.669  0.0713  0.0562 -0.3526
 2251SOL    HW118386   0.816   0.393   2.647  0.7414  1.7935  2.1581
 2251SOL    HW218387   0.703   0.304   2.662  1.7216 -0.2335 -1.1416
 2252SOL     OW18388   0.988   2.910   7.819  0.4923  0.1404  0.4628
 2252SOL    HW118389   0.982   2.816   7.837  1.3606  0.2264  1.1580
 2252SOL    HW218390   0.997   2.903   7.723 -2.8567 -1.3065  0.2476
 2253SOL     OW18391   0.802   3.607  14.616 -0.0741  0.5298  0.0310
 2253SOL    HW118392   0.732   3.652  14.662 -0.4019 -0.4160  0.4674
 2253SOL    HW218393   0.865   3.624  14.686 -1.7298  1.7924  1.2175
 2254SOL     OW18394   1.453   3.801   8.129  0.0286 -0.0168  0.2756
 2254SOL    HW118395   1.453   3.882   8.181 -0.1746  0.2031 -0.0657
 2254SOL    HW218396   1.407   3.820   8.047  2.1200  1.0439 -0.6608
 2255SOL     OW18397   2.051   3.931  16.673 -0.2830 -0.6420 -0.1249
 2255SOL    HW118398   2.098   3.882  16.741 -2.0039 -2.8448 -0.5347
 2255SOL    HW218399   2.119   3.988  16.638  0.1815 -0.4528  1.0926
 2256SOL     OW18400   2.252   0.154  15.082 -0.0451 -0.4626  0.0212
 2256SOL    HW118401   2.239   0.247  15.069 -1.5458 -0.0356  4.8289
 2256SOL    HW218402   2.334   0.140  15.034  0.1744  0.4901  0.1256
 2257SOL     OW18403   1.973   3.780   3.072  0.1004  0.0265 -0.1833
 2257SOL    HW118404   1.940   3.694   3.099 -1.6624  0.8342  0.2623
 2257SOL    HW218405   2.033   3.798   3.145  0.5230  0.3554 -0.6194
 2258SOL     OW18406   4.112   0.607  12.102 -0.0619  0.3074  0.1081
 2258SOL    HW118407   4.147   0.672  12.162 -1.1492  0.6684  0.3625
 2258SOL    HW218408   4.139   0.636  12.015  0.1757  0.0546  0.0997
 2259SOL     OW18409   3.073   2.281   8.353 -0.3358 -0.5810  0.0974
 2259SOL    HW118410   3.091   2.226   8.277 -2.9084 -1.8821  0.4365
 2259SOL    HW218411   3.030   2.225   8.419 -3.2415  0.4933 -0.8669
 2260SOL     OW18412   4.489   0.735   3.736  0.3590  0.0105 -0.6546
 2260SOL    HW118413   4.488   0.798   3.808  1.3643 -1.0257  0.2540
 2260SOL    HW218414   4.506   0.654   3.782  1.6185  0.9842  0.5823
 2261SOL     OW18415   3.574   1.667   4.026 -0.2281 -0.2877 -0.0567
 2261SOL    HW118416   3.574   1.611   3.948  0.3041 -1.8697  1.0898
 2261SOL    HW218417   3.611   1.599   4.082 -0.7419 -0.4866  0.0422
 2262SOL     OW18418   2.640   0.462   1.661  0.0467  0.3984  0.1998
 2262SOL    HW118419   2.679   0.549   1.665 -0.0364  0.4058  0.9424
 2262SOL    HW218420   2.598   0.466   1.747 -2.1343  0.1963 -0.8496
 2263SOL     OW18421   0.966   3.616   8.175 -0.8219  0.1793 -0.7025
 2263SOL    HW118422   1.020   3.656   8.243  0.2754 -0.0551 -1.4454
 2263SOL    HW218423   0.897   3.568   8.222 -0.7737 -1.6410 -2.5470
 2264SOL     OW18424   4.568   0.778   1.082 -0.2293  0.4923 -0.0098
 2264SOL    HW118425   4.555   0.711   1.150 -0.7443  0.4341 -0.1632
 2264SOL    HW218426   4.543   0.854   1.134  1.5587 -0.6849  2.5759
 2265SOL     OW18427   0.964   0.301   0.143 -0.0448  0.0938  0.9470
 2265SOL    HW118428   1.046   0.295   0.095 -2.0468 -0.3926 -2.4327
 2265SOL    HW218429   1.003   0.300   0.230  2.0301 -0.8328  0.0178
 2266SOL     OW18430   3.059   2.658   6.772  0.6314  0.2943 -0.4522
 2266SOL    HW118431   2.997   2.601   6.818  2.2733 -0.7093  0.5189
 2266SOL    HW218432   3.090   2.721   6.837  0.1188  1.3931 -1.2815
 2267SOL     OW18433   0.932   4.478   7.980  0.0249  0.2009  0.5063
 2267SOL    HW118434   1.026   4.460   7.980 -0.1431 -0.7417 -0.6231
 2267SOL    HW218435   0.915   4.544   8.046  0.3837  0.5223  0.2784
 2268SOL     OW18436   3.156   4.056   2.224 -0.0281 -0.6674  0.0271
 2268SOL    HW118437   3.069   4.096   2.213 -1.0570 -2.5791  1.2988
 2268SOL    HW218438   3.191   4.118   2.288  0.7702 -1.5560  0.4527
 2269SOL     OW18439   4.241   2.349   9.946 -0.4678  0.1057  0.3516
 2269SOL    HW118440   4.309   2.307   9.894 -1.3753 -0.9440  0.0137
 2269SOL    HW218441   4.230   2.434   9.903  0.3356  0.7685  1.4540
 2270SOL     OW18442   4.630   1.127  13.020  0.9755  0.1140 -0.2077
 2270SOL    HW118443   4.592   1.190  13.081 -0.6649 -1.2308  0.1473
 2270SOL    HW218444   4.721   1.142  13.046  1.1487 -2.7612  0.8699
 2271SOL     OW18445   3.044   2.855   5.066  0.2705  0.4126 -0.0954
 2271SOL    HW118446   2.993   2.774   5.062  0.2020  0.3455  1.8994
 2271SOL    HW218447   2.997   2.902   5.135  0.0852  1.1090 -0.7081
 2272SOL     OW18448   0.565   0.759   7.165  0.1473  0.0949 -0.1164
 2272SOL    HW118449   0.625   0.760   7.091  1.1012 -2.0865  0.6299
 2272SOL    HW218450   0.485   0.753   7.113 -0.5451  1.1827  0.8191
 2273SOL     OW18451   2.088   3.124  15.041 -0.0472  0.1401 -0.1464
 2273SOL    HW118452   2.061   3.034  15.060 -1.9665  0.9790  1.0715
 2273SOL    HW218453   2.058   3.165  15.122  1.4072 -0.2782  0.5988
 2274SOL     OW18454   2.169   1.857   1.411 -0.0922  0.0425  0.2183
 2274SOL    HW118455   2.183   1.841   1.318  2.3845  0.0976  0.5924
 2274SOL    HW218456   2.079   1.892   1.407 -0.4885 -1.3232 -3.2378
 2275SOL     OW18457   4.266   2.123   3.844  0.1986  0.4296  0.1025
 2275SOL    HW118458   4.177   2.089   3.841  0.9714 -1.4115 -1.9044
 2275SOL    HW218459   4.264   2.212   3.810 -1.0148  0.1827 -0.4611
 2276SOL     OW18460   3.464   2.051   3.368  0.2642 -0.5030  0.4807
 2276SOL    HW118461   3.395   2.115   3.351  2.0330  0.7995 -1.8702
 2276SOL    HW218462   3.537   2.107   3.340 -1.8026  2.3750  0.7695
 2277SOL     OW18463   1.674   1.719   9.650 -0.2322  0.3990  0.1043
 2277SOL    HW118464   1.736   1.657   9.690 -1.6041 -1.0744 -0.0529
 2277SOL    HW218465   1.679   1.793   9.710 -0.1824  0.2572  0.2746
 2278SOL     OW18466   0.643   4.660   4.106 -0.1897 -0.3059 -0.2962
 2278SOL    HW118467   0.555   4.622   4.116  0.6655 -2.2028 -0.0632
 2278SOL    HW218468   0.652   4.702   4.191  3.8713 -3.1279  0.6394
 2279SOL     OW18469   1.285   2.229   7.639 -0.1512 -0.1233  0.2941
 2279SOL    HW118470   1.242   2.194   7.717 -1.1149  0.6872  0.1135
 2279SOL    HW218471   1.367   2.179   7.632 -0.0730 -0.0369  0.6204
 2280SOL     OW18472   4.474   2.406   5.056  0.5304 -0.0638 -0.1006
 2280SOL    HW118473   4.379   2.417   5.049  0.8037  2.0868 -0.5784
 2280SOL    HW218474   4.502   2.432   4.968 -0.1603 -0.4391 -0.4316
 2281SOL     OW18475   2.351   2.896   2.979  0.2667 -0.1892  0.4958
 2281SOL    HW118476   2.260   2.920   2.959 -0.5782 -1.6666  2.5731
 2281SOL    HW218477   2.352   2.807   2.943 -2.2540  0.5351 -1.3789
 2282SOL     OW18478   3.643   2.295   3.352  0.2463 -0.5956  0.5051
 2282SOL    HW118479   3.660   2.273   3.444  1.1895 -0.6095  0.3222
 2282SOL    HW218480   3.576   2.364   3.361  1.6548  0.8772 -0.2106
 2283SOL     OW18481   3.647   2.162   7.022 -0.0783 -0.2033 -0.4159
 2283SOL    HW118482   3.686   2.165   6.935  1.6089  0.9508  0.3784
 2283SOL    HW218483   3.634   2.256   7.036  0.3660 -0.3395  0.9094
 2284SOL     OW18484   0.012   3.507   7.889 -0.1529 -0.1642 -0.0434
 2284SOL    HW118485   0.004   3.513   7.984 -0.5340  1.8094 -0.2091
 2284SOL    HW218486   4.708   3.422   7.869 -0.2965 -0.1287  0.0831
 2285SOL     OW18487   2.471   1.241   3.300  0.2018 -0.0491 -0.0075
 2285SOL    HW118488   2.557   1.283   3.292  0.0684  0.1901 -0.1732
 2285SOL    HW218489   2.417   1.313   3.334 -1.9501 -0.6111 -2.2562
 2286SOL     OW18490   0.047   2.382   4.066  0.6640  0.0633  0.2229
 2286SOL    HW118491   0.075   2.299   4.105  1.1504 -0.5840 -1.5275
 2286SOL    HW218492   0.012   2.427   4.143  0.3190 -0.6137  0.4650
 2287SOL     OW18493   0.682   1.070  14.354 -0.3760 -0.3381 -0.4466
 2287SOL    HW118494   0.749   1.129  14.319 -1.7914  1.5702  0.0550
 2287SOL    HW218495   0.680   1.091  14.448  1.2759  0.2041 -0.5296
 2288SOL     OW18496   4.082   4.093   9.539 -0.4369 -0.1862 -0.0353
 2288SOL    HW118497   4.175   4.071   9.549 -0.5533 -0.6296  0.0673
 2288SOL    HW218498   4.049   4.004   9.534  2.1218 -1.1608  0.4001
 2289SOL     OW18499   0.889   2.798   2.299 -0.1767 -0.5667 -0.0633
 2289SOL    HW118500   0.873   2.887   2.268 -0.7404 -0.9656 -0.9243
 2289SOL    HW218501   0.937   2.803   2.382 -1.4003  3.2011  0.4433
 2290SOL     OW18502   3.301   3.945   8.630  0.2205  0.0249 -0.1244
 2290SOL    HW118503   3.302   3.966   8.723 -0.2607 -1.6893  0.2533
 2290SOL    HW218504   3.334   3.855   8.629  3.3797  1.1846  0.4326
 2291SOL     OW18505   2.598   3.266  10.309  0.2531  0.1245  0.4733
 2291SOL    HW118506   2.526   3.329  10.311 -0.1049 -0.3228  2.3428
 2291SOL    HW218507   2.598   3.247  10.403 -0.9074 -1.4432  0.1612
 2292SOL     OW18508   4.726   0.069  16.973 -0.0425 -0.0179  0.1254
 2292SOL    HW118509   0.070   0.094  17.021  0.7185 -0.8503 -0.6925
 2292SOL    HW218510   0.001   0.122  16.894 -1.7504 -0.5764 -0.4689
 2293SOL     OW18511   4.586   3.419   9.711  0.4223 -0.7797  0.5797
 2293SOL    HW118512   4.566   3.356   9.780  1.0554 -0.8747  0.6766
 2293SOL    HW218513   4.622   3.357   9.648 -0.3128  0.8214 -1.4293
 2294SOL     OW18514   1.755   1.224   2.684  0.2668 -0.1690  0.4431
 2294SOL    HW118515   1.693   1.186   2.623 -0.7686 -0.2974  1.5812
 2294SOL    HW218516   1.818   1.271   2.630 -0.6884  1.6407  0.9213
 2295SOL     OW18517   2.206   2.204   0.915 -0.2545  0.3515  0.2149
 2295SOL    HW118518   2.234   2.222   1.005 -2.4129  0.8306  0.7839
 2295SOL    HW218519   2.236   2.114   0.902  2.0780  0.6084  3.5864
 2296SOL     OW18520   0.206   1.536   4.918  0.4884  0.2788 -0.0867
 2296SOL    HW118521   0.127   1.485   4.903  1.2683 -1.1967  0.8059
 2296SOL    HW218522   0.170   1.624   4.928  2.4661  1.4138 -2.8435
 2297SOL     OW18523   4.486   3.351   3.799 -0.3583 -0.4305  0.4959
 2297SOL    HW118524   4.553   3.290   3.828 -0.2541 -0.5048  0.0956
 2297SOL    HW218525   4.487   3.420   3.866 -0.1419 -2.1244  2.2145
 2298SOL     OW18526   0.331   2.099  14.470  0.1217  0.0174  0.1051
 2298SOL    HW118527   0.332   2.022  14.527 -0.6055  1.3752  1.9444
 2298SOL    HW218528   0.247   2.141  14.488  1.5709  1.9867  2.2785
 2299SOL     OW18529   1.010   1.570   7.272  0.1829  0.7152  0.5069
 2299SOL    HW118530   1.003   1.661   7.242 -1.4089  0.6487  0.7086
 2299SOL    HW218531   1.001   1.513   7.195 -0.5939 -0.3478  1.3930
 2300SOL     OW18532   1.475   0.661   2.229  0.3804  0.1880  0.2724
 2300SOL    HW118533   1.481   0.574   2.188  1.7328  1.0360 -1.3225
 2300SOL    HW218534   1.387   0.683   2.199  0.7621 -0.6731 -1.4670
 2301SOL     OW18535   3.322   2.613   6.941  0.3283 -0.1559  0.8571
 2301SOL    HW118536   3.353   2.693   6.899 -2.2361  1.7690  2.6642
 2301SOL    HW218537   3.310   2.648   7.029 -1.8512  0.9565  0.1216
 2302SOL     OW18538   3.618   3.865   1.219  0.0800 -0.1875  0.4515
 2302SOL    HW118539   3.701   3.834   1.256 -0.4998 -1.0171  1.0456
 2302SOL    HW218540   3.650   3.912   1.142  1.5775 -1.1612  0.4779
 2303SOL     OW18541   4.168   1.433   5.389 -0.2691  0.6151 -0.3425
 2303SOL    HW118542   4.180   1.378   5.312 -1.7719 -0.4270  0.1850
 2303SOL    HW218543   4.093   1.388   5.427 -2.8168  1.9782 -3.6868
 2304SOL     OW18544   1.546   3.180   5.097 -0.1206  0.2400  0.1242
 2304SOL    HW118545   1.562   3.125   5.174 -2.2231 -1.7589 -0.8814
 2304SOL    HW218546   1.617   3.160   5.035 -0.4500 -0.5164 -0.0142
 2305SOL     OW18547   4.469   2.990   8.910 -0.0779  0.3072  0.1702
 2305SOL    HW118548   4.527   2.938   8.854 -0.6789 -0.6701  0.4429
 2305SOL    HW218549   4.387   3.000   8.863  0.4321 -1.4186 -1.1199
 2306SOL     OW18550   0.258   4.717   6.238  0.1059 -0.4001  0.2633
 2306SOL    HW118551   0.172   4.720   6.280 -0.7396  1.5728 -1.6195
 2306SOL    HW218552   0.294   4.646   6.292  2.1945  0.9738  0.6767
 2307SOL     OW18553   2.790   2.853  14.270 -0.5292 -0.2165  0.0723
 2307SOL    HW118554   2.769   2.890  14.184  0.4806  0.6290  0.1908
 2307SOL    HW218555   2.866   2.797  14.255 -0.3438  0.4852 -1.6372
 2308SOL     OW18556   3.042   4.357   5.131  0.6253 -0.1788 -1.0013
 2308SOL    HW118557   3.022   4.440   5.175 -2.3815 -0.3971 -1.9080
 2308SOL    HW218558   3.009   4.302   5.203  1.3712 -0.0952 -0.5949
 2309SOL     OW18559   2.385   1.003   3.224 -0.1702  0.0418  0.0027
 2309SOL    HW118560   2.399   1.095   3.244 -0.4929  0.2751 -0.8261
 2309SOL    HW218561   2.460   0.963   3.267  0.7606  0.2603 -1.4116
 2310SOL     OW18562   0.746   0.409   8.613 -0.1462  0.3673  0.2998
 2310SOL    HW118563   0.840   0.414   8.629 -0.0610  0.1105 -0.1124
 2310SOL    HW218564   0.705   0.390   8.697 -0.6406 -1.6575 -0.4156
 2311SOL     OW18565   1.986   1.416   6.763  0.3836 -0.0853  0.2284
 2311SOL    HW118566   1.989   1.360   6.840 -1.3182  0.0924  0.4173
 2311SOL    HW218567   2.003   1.495   6.813 -1.3918  0.1165  0.5303
 2312SOL     OW18568   2.061   0.930   5.258 -0.1384  0.3017 -0.1266
 2312SOL    HW118569   2.058   1.025   5.265  0.8569  0.2250  1.3924
 2312SOL    HW218570   2.008   0.903   5.333 -0.5241 -1.4415 -1.0319
 2313SOL     OW18571   2.240   1.452   9.352  0.0771  0.0817  0.1940
 2313SOL    HW118572   2.241   1.532   9.299 -1.1234  0.4873  0.7786
 2313SOL    HW218573   2.329   1.442   9.384 -0.7529 -2.1460  1.8370
 2314SOL     OW18574   2.082   2.215   2.556 -0.2137 -0.4686  0.0520
 2314SOL    HW118575   2.089   2.174   2.642 -2.2972  1.4776  1.1515
 2314SOL    HW218576   2.130   2.297   2.566  2.5194 -2.0794  0.2947
 2315SOL     OW18577   1.803   3.678  16.858  0.2074 -0.1979 -0.0662
 2315SOL    HW118578   1.763   3.605  16.906  0.3209  0.6072  1.2462
 2315SOL    HW218579   1.734   3.743  16.868 -0.9652 -1.8139  2.5075
 2316SOL     OW18580   3.279   4.335   9.296 -1.0669 -0.6392 -0.0414
 2316SOL    HW118581   3.262   4.397   9.367 -1.1296 -1.9895  1.1238
 2316SOL    HW218582   3.281   4.389   9.217  0.3177 -0.5709  0.0386
 2317SOL     OW18583   4.214   3.320   2.490  0.2015  0.3523 -0.1006
 2317SOL    HW118584   4.159   3.292   2.417 -1.3582  0.8897  0.8680
 2317SOL    HW218585   4.289   3.370   2.458 -0.7563  0.8078 -1.6216
 2318SOL     OW18586   4.508   2.493   2.091 -0.2802 -0.8912 -0.1513
 2318SOL    HW118587   4.505   2.559   2.022  0.2330 -0.6993  0.0118
 2318SOL    HW218588   4.600   2.468   2.087  0.3009  1.3858 -0.8037
 2319SOL     OW18589   1.737   3.878   5.544 -0.0431  0.2400  0.4224
 2319SOL    HW118590   1.816   3.859   5.595 -0.6388 -1.7119  0.6104
 2319SOL    HW218591   1.660   3.848   5.592  0.3747  0.1630  1.0462
 2320SOL     OW18592   2.689   2.633   8.269 -0.1086  0.4516  0.1955
 2320SOL    HW118593   2.624   2.598   8.329  0.0425 -2.1703 -1.1622
 2320SOL    HW218594   2.633   2.699   8.228 -0.9702 -1.2303 -1.3459
 2321SOL     OW18595   4.427   1.742   5.642 -0.2416 -0.2545  0.1898
 2321SOL    HW118596   4.451   1.729   5.550  2.5933 -0.9137  1.0309
 2321SOL    HW218597   4.333   1.743   5.625 -0.1892 -3.7004 -0.1420
 2322SOL     OW18598   3.305   0.925   6.750 -0.6042  0.5111  0.7723
 2322SOL    HW118599   3.257   0.842   6.745 -0.2785  0.3025  1.1719
 2322SOL    HW218600   3.358   0.919   6.671 -0.4289  0.3037  0.9075
 2323SOL     OW18601   0.949   2.426   7.307 -0.5730 -0.0470 -0.2592
 2323SOL    HW118602   0.920   2.474   7.230  3.1688  1.2384 -0.8316
 2323SOL    HW218603   0.923   2.485   7.378 -1.2092 -0.1069 -0.4389
 2324SOL     OW18604   3.219   1.373   5.140 -0.1902  0.1376 -0.3291
 2324SOL    HW118605   3.190   1.328   5.219  2.0584  0.6852  0.7882
 2324SOL    HW218606   3.279   1.439   5.172  0.5433  0.4069 -2.2330
 2325SOL     OW18607   0.237   1.851   2.363  0.3223 -0.0413 -0.2162
 2325SOL    HW118608   0.287   1.776   2.396 -3.7408 -2.1923  1.0402
 2325SOL    HW218609   0.199   1.813   2.284  0.1024 -2.4919  1.0647
 2326SOL     OW18610   3.525   2.282  13.651  0.3229 -0.1061  0.3369
 2326SOL    HW118611   3.512   2.306  13.560 -1.4727  0.7951  0.8210
 2326SOL    HW218612   3.485   2.355  13.699 -2.0734 -1.3516  0.2308
 2327SOL     OW18613   4.498   0.552   3.510  0.2838 -0.4705 -0.1262
 2327SOL    HW118614   4.587   0.541   3.543  0.5276  1.2821 -0.2049
 2327SOL    HW218615   4.481   0.629   3.564  0.5483  0.0080 -0.7174
 2328SOL     OW18616   3.317   1.159   9.625 -0.0152 -0.1468 -0.2751
 2328SOL    HW118617   3.244   1.206   9.665 -0.0133 -0.1858 -0.2250
 2328SOL    HW218618   3.310   1.079   9.677  0.2982  0.5581  0.8615
 2329SOL     OW18619   3.086   1.724  12.022  0.0513  0.0227 -0.0639
 2329SOL    HW118620   3.091   1.819  12.035  1.7922  0.3835 -3.3821
 2329SOL    HW218621   3.169   1.720  11.974  1.2755  2.2402  1.8302
 2330SOL     OW18622   4.344   3.708   6.451  0.1345  0.6055  1.0084
 2330SOL    HW118623   4.358   3.802   6.441 -3.4720  0.8270 -2.0215
 2330SOL    HW218624   4.418   3.680   6.397  0.9202  0.1904  2.2834
 2331SOL     OW18625   3.293   0.341   0.164  0.0547 -0.5062 -0.5299
 2331SOL    HW118626   3.364   0.327   0.227 -0.6581 -1.6788  0.0159
 2331SOL    HW218627   3.224   0.289   0.204 -0.7231  1.6118  0.9359
 2332SOL     OW18628   3.960   1.563  12.699 -0.6468  0.2004  0.8131
 2332SOL    HW118629   3.958   1.543  12.792 -0.5301 -0.3471  0.6990
 2332SOL    HW218630   4.054   1.577  12.687 -0.6356  0.3603  1.0786
 2333SOL     OW18631   0.038   1.447   2.332 -1.1691  0.3648  0.4180
 2333SOL    HW118632   0.107   1.414   2.274  1.4429  1.7662  2.7567
 2333SOL    HW218633   0.052   1.537   2.303  0.7238  0.2152  0.8464
 2334SOL     OW18634   0.689   1.287  15.875 -0.0317  0.3473  0.3604
 2334SOL    HW118635   0.669   1.341  15.799 -0.1078  3.1782  2.3587
 2334SOL    HW218636   0.646   1.202  15.867 -1.9961  1.4993 -1.3698
 2335SOL     OW18637   0.740   3.978  11.489 -0.2070 -0.5457  0.0509
 2335SOL    HW118638   0.825   3.955  11.526 -0.8557 -2.4854  0.3200
 2335SOL    HW218639   0.768   3.999  11.400 -2.9010 -0.3783 -0.7554
 2336SOL     OW18640   3.091   0.975   6.470  0.0382  0.0368  0.5459
 2336SOL    HW118641   3.061   0.921   6.543  2.4449 -0.1325  1.3937
 2336SOL    HW218642   3.045   0.935   6.397  1.6676 -0.1764 -0.3498
 2337SOL     OW18643   3.899   1.634  12.972 -0.2119 -0.1520 -0.0500
 2337SOL    HW118644   3.855   1.635  13.058  3.1103  0.3900  1.6311
 2337SOL    HW218645   3.865   1.717  12.938  0.8323  0.1198 -0.4191
 2338SOL     OW18646   2.418   0.979  16.053  0.1180 -0.2253  0.0714
 2338SOL    HW118647   2.377   1.065  16.065  0.0421 -0.4713  1.6906
 2338SOL    HW218648   2.483   0.980  16.124  0.3793 -1.6916 -0.1418
 2339SOL     OW18649   3.329   2.708   7.211  0.5511 -0.2938  0.1907
 2339SOL    HW118650   3.371   2.793   7.197  0.2223 -0.6349 -3.0818
 2339SOL    HW218651   3.251   2.729   7.261  0.9407  0.3000  0.5445
 2340SOL     OW18652   0.057   3.806   3.735 -0.5793 -0.0469  0.0433
 2340SOL    HW118653   0.036   3.851   3.817  1.7015  0.1187  0.5418
 2340SOL    HW218654   0.071   3.713   3.757 -1.5303 -0.1047  0.4303
 2341SOL     OW18655   2.731   0.366   3.186 -0.1690  0.0293  0.4077
 2341SOL    HW118656   2.777   0.315   3.253 -1.2759  1.0789  1.9590
 2341SOL    HW218657   2.642   0.360   3.220 -0.9132 -1.0993 -1.7543
 2342SOL     OW18658   4.016   2.034  16.386  0.0954  0.3805 -0.3209
 2342SOL    HW118659   3.928   2.070  16.392  0.0195  0.3451 -1.2103
 2342SOL    HW218660   4.053   2.040  16.474 -0.7655 -0.5719  0.1070
 2343SOL     OW18661   3.298   4.121  11.473  0.5117 -0.2028  0.6413
 2343SOL    HW118662   3.214   4.121  11.519  0.8540  0.1413  1.2588
 2343SOL    HW218663   3.355   4.104  11.548  1.0524 -0.5689  0.1482
 2344SOL     OW18664   2.061   1.634   3.597 -0.5396  0.2003  0.0273
 2344SOL    HW118665   2.048   1.557   3.543  1.5778 -0.7211  0.8268
 2344SOL    HW218666   2.090   1.701   3.535 -0.3695 -0.7523 -0.9190
 2345SOL     OW18667   1.463   4.672   0.700 -0.1741  0.6468  0.2555
 2345SOL    HW118668   1.383   4.722   0.687 -1.9735 -2.4743 -0.6624
 2345SOL    HW218669   1.491   4.657   0.610 -1.0573  0.5056  0.0116
 2346SOL     OW18670   3.662   4.390   8.429 -0.7339  0.4843  0.5204
 2346SOL    HW118671   3.713   4.309   8.432 -1.1439  0.3393  3.2622
 2346SOL    HW218672   3.686   4.422   8.516  0.6544 -0.6023  0.5384
 2347SOL     OW18673   0.082   1.370   4.069  0.5048 -0.5259  0.1487
 2347SOL    HW118674   0.175   1.383   4.088 -0.3399  1.7722  2.6224
 2347SOL    HW218675   0.092   1.277   4.051 -0.0203 -0.4098 -0.7313
 2348SOL     OW18676   0.241   4.013   3.447  0.2977  0.1709  0.6625
 2348SOL    HW118677   0.274   3.923   3.447  1.1683  0.4920  0.4447
 2348SOL    HW218678   0.328   4.049   3.431  1.0930 -0.8404  2.8267
 2349SOL     OW18679   1.291   1.776  11.122 -0.0106  0.0958  0.4656
 2349SOL    HW118680   1.217   1.803  11.067  0.7243  3.7053  1.2533
 2349SOL    HW218681   1.363   1.828  11.088  0.1977  0.0878  0.8937
 2350SOL     OW18682   3.296   3.873   4.729 -0.1201 -0.3191 -0.0513
 2350SOL    HW118683   3.215   3.828   4.705 -1.7430  2.5212  0.0902
 2350SOL    HW218684   3.344   3.798   4.764 -2.1018 -1.2566  0.6402
 2351SOL     OW18685   0.790   4.438   4.186 -0.1092  0.1752 -0.6152
 2351SOL    HW118686   0.742   4.520   4.175  2.3634  1.9448  1.9327
 2351SOL    HW218687   0.785   4.437   4.281 -0.9127 -2.5527 -0.6882
 2352SOL     OW18688   2.611   2.032   5.825 -0.3362 -0.2358 -0.2623
 2352SOL    HW118689   2.704   2.013   5.829 -0.8920 -2.2087  3.1952
 2352SOL    HW218690   2.599   2.124   5.800  0.6155  0.3853  1.5905
 2353SOL     OW18691   0.977   2.331   2.474 -0.2683  0.3558  0.2148
 2353SOL    HW118692   0.892   2.342   2.432 -0.8482  0.1134  1.3160
 2353SOL    HW218693   0.959   2.244   2.509  0.0072  1.0864  2.1851
 2354SOL     OW18694   2.019   1.701   4.041  0.5452  0.4449  0.3511
 2354SOL    HW118695   1.990   1.741   4.123  0.4220  2.0453 -0.4639
 2354SOL    HW218696   1.937   1.700   3.991  0.5172  1.6470  0.3682
 2355SOL     OW18697   4.537   2.578   7.848 -0.5035 -0.0262  0.2209
 2355SOL    HW118698   4.493   2.584   7.763 -0.2101  0.1856  0.0859
 2355SOL    HW218699   4.495   2.501   7.885 -3.1900  1.0511 -0.5643
 2356SOL     OW18700   2.156   1.969   4.414 -0.5728  0.2625 -0.3421
 2356SOL    HW118701   2.170   1.973   4.508 -0.7017 -0.6070 -0.2843
 2356SOL    HW218702   2.104   2.049   4.406 -1.4276 -0.2228  0.2973
 2357SOL     OW18703   2.316   1.038   4.145  0.2864  0.0078  0.2200
 2357SOL    HW118704   2.392   0.980   4.141  0.6276  0.3279  2.1011
 2357SOL    HW218705   2.343   1.090   4.220 -1.8512 -0.5664  1.3949
 2358SOL     OW18706   0.762   4.429  16.303  0.0387  0.3973 -0.3360
 2358SOL    HW118707   0.729   4.502  16.251  1.0914  2.7067  2.2543
 2358SOL    HW218708   0.718   4.449  16.386  1.7099 -0.7833  0.8427
 2359SOL     OW18709   2.288   2.064  12.280 -0.0461  0.1540 -0.1729
 2359SOL    HW118710   2.256   1.983  12.239  0.1816 -0.8736  1.6806
 2359SOL    HW218711   2.319   2.013  12.355 -1.8010  0.7508  0.9627
 2360SOL     OW18712   0.115   4.482   6.895  0.4068  0.0668 -0.4463
 2360SOL    HW118713   0.159   4.522   6.820  1.5717 -0.7589 -0.2079
 2360SOL    HW218714   0.105   4.390   6.871 -0.7398  0.6018 -1.9961
 2361SOL     OW18715   4.676   0.711   8.038  0.4271  0.6841 -0.0293
 2361SOL    HW118716   0.035   0.717   8.055  0.6341 -1.5902 -0.4837
 2361SOL    HW218717   4.658   0.805   8.038  1.9036  0.9728 -1.6494
 2362SOL     OW18718   2.429   2.698   2.458 -0.1839 -0.3665  0.6031
 2362SOL    HW118719   2.450   2.647   2.536  2.3302  0.1858  0.2832
 2362SOL    HW218720   2.514   2.741   2.450 -0.4780  0.5291  2.2219
 2363SOL     OW18721   3.060   2.856   4.344 -0.5459 -0.0575  0.3403
 2363SOL    HW118722   3.147   2.890   4.322 -0.8979 -0.5087 -1.7978
 2363SOL    HW218723   3.069   2.844   4.438  0.0227 -1.3575  0.1229
 2364SOL     OW18724   3.840   1.194   4.081  0.2427 -0.0901  0.7947
 2364SOL    HW118725   3.834   1.124   4.016  2.0259 -0.4953  1.0778
 2364SOL    HW218726   3.901   1.157   4.145  0.5453  1.9479  1.6830
 2365SOL     OW18727   3.585   0.224   1.954  0.1341 -0.1963  0.1337
 2365SOL    HW118728   3.545   0.137   1.960 -1.0261  0.2749 -0.6360
 2365SOL    HW218729   3.599   0.229   1.859 -0.0297  1.1632  0.1793
 2366SOL     OW18730   2.996   4.332   7.829 -0.3840  0.3005 -0.0287
 2366SOL    HW118731   2.974   4.299   7.916 -0.1552 -0.6260 -0.3229
 2366SOL    HW218732   3.075   4.282   7.810 -0.1253  0.9895 -0.7571
 2367SOL     OW18733   4.494   0.624  13.168  0.3816 -0.1727  0.5609
 2367SOL    HW118734   4.436   0.689  13.129 -1.4281 -2.4263 -0.4896
 2367SOL    HW218735   4.571   0.630  13.112  0.5313 -1.3465  0.6253
 2368SOL     OW18736   1.509   0.303   8.577  0.6086  0.2439  0.0242
 2368SOL    HW118737   1.478   0.236   8.638 -1.1797  1.4700  0.4586
 2368SOL    HW218738   1.502   0.254   8.495  5.1212  2.4166 -1.6161
 2369SOL     OW18739   3.663   3.343   3.410 -0.1642 -0.0448  0.3587
 2369SOL    HW118740   3.734   3.390   3.367  0.1675 -0.9564 -0.0950
 2369SOL    HW218741   3.685   3.360   3.502  1.6581  0.8383 -0.2233
 2370SOL     OW18742   1.063   4.598  12.057  0.2654  0.2431  0.2420
 2370SOL    HW118743   1.070   4.505  12.039  1.2447  0.6277 -1.2704
 2370SOL    HW218744   0.998   4.590  12.128  1.4104  1.1476  1.4019
 2371SOL     OW18745   3.511   4.701   5.179  0.1921  0.1379 -0.1904
 2371SOL    HW118746   3.529   0.006   5.264 -0.4459 -2.1735  1.0672
 2371SOL    HW218747   3.590   4.722   5.130  1.1823  0.9210  1.7493
 2372SOL     OW18748   2.631   2.910   2.636 -0.3970  0.6818 -0.7007
 2372SOL    HW118749   2.708   2.887   2.583  1.1815  0.7639  1.5405
 2372SOL    HW218750   2.614   2.847   2.705  0.2656  0.1818 -0.9912
 2373SOL     OW18751   4.209   3.244   6.016  0.3641  0.1773 -0.9315
 2373SOL    HW118752   4.137   3.287   5.970 -0.9362 -3.1678 -1.9671
 2373SOL    HW218753   4.252   3.208   5.938  1.3537 -0.5572 -0.0447
 2374SOL     OW18754   2.915   0.981  17.350 -0.2412  0.0621  0.2740
 2374SOL    HW118755   2.875   0.967  17.436 -1.0070 -1.0836 -0.2652
 2374SOL    HW218756   2.865   0.918  17.298  0.1999  0.1329 -0.2377
 2375SOL     OW18757   3.630   0.531   2.566 -0.9475  0.0626 -0.5060
 2375SOL    HW118758   3.537   0.527   2.546 -1.4282  0.2223  1.6456
 2375SOL    HW218759   3.615   0.591   2.640 -2.0217 -0.0472 -0.6425
 2376SOL     OW18760   1.888   1.238  10.529  0.3948 -0.1028 -0.1862
 2376SOL    HW118761   1.844   1.156  10.550 -0.6663  0.6475  0.5301
 2376SOL    HW218762   1.831   1.263  10.456 -0.5098 -3.4877 -0.5933
 2377SOL     OW18763   4.301   1.910   5.925  0.1447  0.2395  0.0292
 2377SOL    HW118764   4.247   1.873   5.854  0.1709 -0.0617  0.1643
 2377SOL    HW218765   4.330   1.825   5.959  0.8738  0.0156 -1.1388
 2378SOL     OW18766   2.806   2.357   6.410  0.0856 -0.0580 -0.7442
 2378SOL    HW118767   2.810   2.421   6.338 -0.4829  1.4821  0.6066
 2378SOL    HW218768   2.820   2.270   6.372 -0.1851 -0.6743  0.5694
 2379SOL     OW18769   3.338   0.630   3.771 -0.3051  0.5593  0.3320
 2379SOL    HW118770   3.412   0.667   3.723 -0.2238 -0.8755 -0.6498
 2379SOL    HW218771   3.304   0.578   3.699 -0.0282  1.6282 -0.5766
 2380SOL     OW18772   3.068   3.360  10.834 -0.2927 -0.4950  0.4083
 2380SOL    HW118773   3.140   3.314  10.791 -0.1101 -0.6958  0.9415
 2380SOL    HW218774   3.094   3.452  10.823 -1.1827 -0.2789  0.0706
 2381SOL     OW18775   3.140   1.872  11.639 -0.2161 -0.0617 -0.1000
 2381SOL    HW118776   3.062   1.904  11.684 -0.9120 -2.0626  0.0777
 2381SOL    HW218777   3.107   1.839  11.556 -1.3816 -0.7231  0.6359
 2382SOL     OW18778   1.130   0.396   5.504  0.4222 -0.0877 -0.0165
 2382SOL    HW118779   1.159   0.429   5.589  0.0779 -3.0309  1.2511
 2382SOL    HW218780   1.197   0.330   5.487  2.7077  2.0582  0.7518
 2383SOL     OW18781   4.171   1.889   9.021 -0.5066 -0.3758 -0.1680
 2383SOL    HW118782   4.247   1.854   9.068 -1.0255 -1.4447 -0.1153
 2383SOL    HW218783   4.182   1.839   8.940 -1.6235 -2.0425  0.7102
 2384SOL     OW18784   3.090   3.793   7.510 -0.4493 -0.1012  0.2284
 2384SOL    HW118785   3.002   3.773   7.543  0.5271 -0.2081  2.7204
 2384SOL    HW218786   3.148   3.754   7.575 -0.4900  0.0613  0.3624
 2385SOL     OW18787   2.466   1.673   5.098  0.5482  0.0185  0.0721
 2385SOL    HW118788   2.477   1.746   5.159 -0.2934  0.2420 -0.0435
 2385SOL    HW218789   2.485   1.723   5.019 -1.0386  1.4670  0.6024
 2386SOL     OW18790   4.234   4.499   6.063 -0.5894 -0.1976  0.3171
 2386SOL    HW118791   4.218   4.461   5.977 -1.7406  1.9154 -0.4151
 2386SOL    HW218792   4.188   4.582   6.049 -0.3558 -0.1783 -0.3304
 2387SOL     OW18793   2.529   1.792   1.331 -0.5204 -0.1893 -0.3403
 2387SOL    HW118794   2.492   1.874   1.297  1.5001  0.5382 -0.7886
 2387SOL    HW218795   2.554   1.748   1.250  1.4411 -0.6339  0.5098
 2388SOL     OW18796   0.380   4.441   8.246 -0.3480 -0.3713  0.2840
 2388SOL    HW118797   0.443   4.509   8.268  0.7367 -1.4924  0.6236
 2388SOL    HW218798   0.366   4.452   8.152  0.6784  2.2961  0.4628
 2389SOL     OW18799   1.658   1.970   9.192 -0.8072 -0.2517 -0.0814
 2389SOL    HW118800   1.662   1.945   9.285  0.6639 -0.1272 -0.1183
 2389SOL    HW218801   1.576   2.019   9.189  0.6532  2.0888 -1.4663
 2390SOL     OW18802   3.906   4.296   6.678 -0.1622 -0.3785  0.2949
 2390SOL    HW118803   3.879   4.388   6.666 -1.0249 -0.6119  0.4243
 2390SOL    HW218804   3.965   4.298   6.753 -0.6755 -3.2124  0.7581
 2391SOL     OW18805   4.183   2.529  15.798  0.2530  0.2138 -0.0653
 2391SOL    HW118806   4.219   2.465  15.736 -0.4486  0.3409 -0.5980
 2391SOL    HW218807   4.265   2.551  15.842  1.1669  0.3774 -1.8187
 2392SOL     OW18808   1.299   3.835   7.886  0.1485 -0.1633 -0.3520
 2392SOL    HW118809   1.213   3.865   7.915  0.2031  0.2427 -0.5923
 2392SOL    HW218810   1.286   3.741   7.892  1.5980 -0.3693 -0.5897
 2393SOL     OW18811   2.376   4.233  15.485 -1.3161  0.3458 -0.2085
 2393SOL    HW118812   2.391   4.193  15.571 -1.7434  0.4356 -0.0916
 2393SOL    HW218813   2.287   4.265  15.500 -2.5410 -2.0294 -2.5925
 2394SOL     OW18814   2.176   2.693  15.355 -0.3621  1.0090 -0.8093
 2394SOL    HW118815   2.221   2.614  15.327 -2.1885  0.5558 -2.4530
 2394SOL    HW218816   2.095   2.648  15.378  0.0581  0.1712 -1.0006
 2395SOL     OW18817   4.392   4.426   8.406  0.6079  0.0354  0.2605
 2395SOL    HW118818   4.322   4.433   8.470  0.9740  0.9019  0.5737
 2395SOL    HW218819   4.462   4.399   8.466 -0.7511  1.1235  2.3079
 2396SOL     OW18820   0.680   4.000   2.292  0.5033 -0.5246  0.1090
 2396SOL    HW118821   0.607   4.038   2.243  1.2933 -0.1407 -0.7751
 2396SOL    HW218822   0.644   3.981   2.378  0.2353 -0.6467 -0.0310
 2397SOL     OW18823   2.203   3.672  14.988 -0.5880  0.0480  0.7346
 2397SOL    HW118824   2.113   3.639  14.990 -0.1552 -1.1513  0.5593
 2397SOL    HW218825   2.246   3.591  15.017  1.0662  0.9082  0.6756
 2398SOL     OW18826   1.514   4.287   0.084  0.0531 -0.4196  0.0712
 2398SOL    HW118827   1.549   4.291   0.173  1.6397  2.5052 -0.6785
 2398SOL    HW218828   1.564   4.210   0.058 -1.0010 -0.6621 -1.2869
 2399SOL     OW18829   0.872   1.395   4.177  0.5502 -0.0123  0.3937
 2399SOL    HW118830   0.952   1.348   4.200  0.4360 -0.8131 -0.8577
 2399SOL    HW218831   0.897   1.421   4.089  1.5705  1.1236  1.0164
 2400SOL     OW18832   4.154   2.461   2.189 -0.6398 -0.2727  0.2554
 2400SOL    HW118833   4.230   2.422   2.232  1.2212  0.7777 -2.1678
 2400SOL    HW218834   4.140   2.396   2.120  1.7043 -2.7601  2.1263
 2401SOL     OW18835   4.453   2.190   6.562 -0.4441  0.3509 -0.5220
 2401SOL    HW118836   4.534   2.152   6.528 -1.5827 -1.7454 -0.8866
 2401SOL    HW218837   4.427   2.126   6.628 -1.2384  0.9411 -0.2609
 2402SOL     OW18838   3.647   1.671   5.068  0.8606 -0.0462 -0.4261
 2402SOL    HW118839   3.667   1.597   5.009 -0.4103  0.7404 -1.8546
 2402SOL    HW218840   3.699   1.649   5.145  0.2941 -2.0268 -0.6003
 2403SOL     OW18841   4.642   0.372   6.966  0.3453  0.2189 -0.4712
 2403SOL    HW118842   4.581   0.312   6.921 -1.0165 -0.2975  2.0582
 2403SOL    HW218843   4.642   0.322   7.048  2.6493 -2.2124 -1.9386
 2404SOL     OW18844   0.265   3.829   4.166 -0.2183 -0.2265  0.3884
 2404SOL    HW118845   0.321   3.818   4.243  0.7157  0.0517 -0.2429
 2404SOL    HW218846   0.183   3.851   4.211 -0.3826 -1.3903  0.6630
 2405SOL     OW18847   0.812   3.199   2.892 -0.3256  0.0243  0.5096
 2405SOL    HW118848   0.890   3.240   2.856 -0.8319  3.3157  3.1928
 2405SOL    HW218849   0.848   3.115   2.921  0.2332  0.5787  1.4270
 2406SOL     OW18850   4.163   2.663  12.436 -0.0035  0.5362  0.3047
 2406SOL    HW118851   4.149   2.597  12.368  2.2937 -0.0551  0.4164
 2406SOL    HW218852   4.176   2.742  12.385  0.2191  0.2726 -0.0404
 2407SOL     OW18853   0.648   1.218  16.840  0.5229 -0.3477  0.3732
 2407SOL    HW118854   0.655   1.125  16.862 -0.1357 -1.2694 -3.3492
 2407SOL    HW218855   0.731   1.220  16.793  0.9005 -1.8568  0.9827
 2408SOL     OW18856   3.539   1.775  11.677  0.9156  0.1279  0.0958
 2408SOL    HW118857   3.571   1.749  11.591 -0.2448 -2.4434  0.4481
 2408SOL    HW218858   3.532   1.689  11.719 -1.6719 -0.4615 -1.5554
 2409SOL     OW18859   0.030   2.757   6.663  0.0661  0.2290  0.1946
 2409SOL    HW118860   0.006   2.677   6.711  0.7722 -0.0409  0.1048
 2409SOL    HW218861   0.031   2.737   6.570 -4.7046  0.2572  0.1721
 2410SOL     OW18862   4.680   3.466   7.134 -0.0477  0.5777 -0.3006
 2410SOL    HW118863   4.709   3.376   7.120  1.3087  0.8198  0.9612
 2410SOL    HW218864   0.027   3.497   7.170 -0.7028  0.8160  1.0049
 2411SOL     OW18865   1.731   4.099   4.405  0.0650  0.0287 -0.4778
 2411SOL    HW118866   1.771   4.015   4.425 -0.9934 -0.6500 -1.1635
 2411SOL    HW218867   1.658   4.110   4.466 -1.1832 -0.3639 -1.8898
 2412SOL     OW18868   2.642   0.054  12.706 -0.4582  0.4364  0.3205
 2412SOL    HW118869   2.734   0.052  12.733 -0.6196 -0.8290  0.7463
 2412SOL    HW218870   2.596   0.082  12.786 -0.6289  2.8758 -0.6264
 2413SOL     OW18871   3.905   0.465  16.657 -0.0170  0.2502  0.2103
 2413SOL    HW118872   3.882   0.442  16.747  0.0902 -0.8118 -0.0301
 2413SOL    HW218873   3.876   0.392  16.603 -0.9550 -0.6316  1.9218
 2414SOL     OW18874   2.672   0.970   4.634  0.9655 -0.5832 -0.1770
 2414SOL    HW118875   2.723   0.935   4.560  3.2473  2.7193 -0.1686
 2414SOL    HW218876   2.739   1.019   4.681  1.1669  1.0755 -2.2278
 2415SOL     OW18877   4.286   2.066   5.531 -0.2619 -0.8557  0.0746
 2415SOL    HW118878   4.354   2.094   5.592  0.4834  0.1722 -1.2165
 2415SOL    HW218879   4.330   1.986   5.501  1.0688  0.3056 -1.0698
 2416SOL     OW18880   3.017   2.980   5.490  0.1105 -0.8905  0.3797
 2416SOL    HW118881   3.034   3.065   5.530  2.5934 -1.2285  0.0458
 2416SOL    HW218882   2.998   3.009   5.401 -1.1440 -0.2789  0.8407
 2417SOL     OW18883   2.835   1.214   7.648 -0.7109 -0.5715  0.1673
 2417SOL    HW118884   2.783   1.274   7.596 -0.9784 -1.4554 -0.5661
 2417SOL    HW218885   2.892   1.175   7.582  0.3528  0.0093  0.7344
 2418SOL     OW18886   2.905   1.558   8.311  0.4535 -0.5697 -0.1867
 2418SOL    HW118887   2.925   1.514   8.393 -1.4449 -1.4424 -0.2016
 2418SOL    HW218888   2.847   1.496   8.268  0.0592 -0.0240 -0.4424
 2419SOL     OW18889   0.049   3.240   6.438 -0.3913  0.1049  0.4530
 2419SOL    HW118890   0.132   3.208   6.403 -0.2330  0.4776  0.4927
 2419SOL    HW218891   0.079   3.319   6.482  0.4286  1.7229 -3.0285
 2420SOL     OW18892   3.636   4.608   9.436 -0.2842 -0.2046  0.5178
 2420SOL    HW118893   3.700   4.679   9.441 -0.4386  0.0031 -0.5301
 2420SOL    HW218894   3.685   4.526   9.428  0.1458  0.2434 -1.3750
 2421SOL     OW18895   0.507   3.704   3.883 -0.0386 -0.1696 -0.2261
 2421SOL    HW118896   0.547   3.638   3.828  0.9234 -1.5569  2.1120
 2421SOL    HW218897   0.478   3.772   3.822 -0.2817 -0.4337 -0.4067
 2422SOL     OW18898   4.441   4.423   2.276  0.2754 -0.2128  0.2675
 2422SOL    HW118899   4.416   4.513   2.300  0.7892  0.2426 -0.9055
 2422SOL    HW218900   4.369   4.379   2.231 -1.0772  0.4046  1.7980
 2423SOL     OW18901   2.444   3.097   5.398 -0.1634  0.4535 -0.1039
 2423SOL    HW118902   2.505   3.157   5.442 -2.3127  3.1824 -0.8229
 2423SOL    HW218903   2.474   3.010   5.422 -0.1194  0.6969  0.7285
 2424SOL     OW18904   2.771   2.414  10.920 -0.0817  0.0533 -0.0545
 2424SOL    HW118905   2.784   2.489  10.863  1.1378  0.3880  0.6888
 2424SOL    HW218906   2.793   2.443  11.008  0.8338 -2.5800  0.5868
 2425SOL     OW18907   1.729   2.761   4.252  0.1624 -0.1023 -0.3545
 2425SOL    HW118908   1.824   2.772   4.242  0.1075 -0.1572 -0.9695
 2425SOL    HW218909   1.704   2.851   4.230  1.4003  0.3856  0.2220
 2426SOL     OW18910   0.480   2.734   9.268  0.0852  0.4139  0.1647
 2426SOL    HW118911   0.541   2.705   9.200  0.1876 -0.7713  0.7518
 2426SOL    HW218912   0.395   2.699   9.239  0.6826  0.3341 -1.4835
 2427SOL     OW18913   4.241   1.154   8.523  0.8825  0.1498 -0.1848
 2427SOL    HW118914   4.253   1.085   8.588  0.6421  0.1782 -0.1098
 2427SOL    HW218915   4.228   1.099   8.446 -0.3192  0.0314  0.1054
 2428SOL     OW18916   1.953   3.184  15.271  0.2176  0.1824  0.0523
 2428SOL    HW118917   1.922   3.103  15.310  0.2314 -0.9630 -2.3338
 2428SOL    HW218918   2.002   3.230  15.339 -1.6988  1.2480  0.7341
 2429SOL     OW18919   1.026   4.130  16.792  0.2089  0.1281 -0.2453
 2429SOL    HW118920   1.095   4.119  16.727 -0.1851 -2.3340 -0.2221
 2429SOL    HW218921   0.971   4.053  16.777  0.4546  0.0456 -0.7289
 2430SOL     OW18922   2.291   3.062   6.952 -0.2832 -0.5616  0.1494
 2430SOL    HW118923   2.221   3.068   7.017 -1.6811  0.6451 -1.4861
 2430SOL    HW218924   2.309   2.968   6.958 -0.8317 -0.5619  1.8543
 2431SOL     OW18925   1.942   2.385   6.850 -0.2242 -0.1626 -0.4573
 2431SOL    HW118926   2.000   2.324   6.896  1.1702  0.2172 -1.6843
 2431SOL    HW218927   1.942   2.355   6.759 -1.3958 -1.0765 -0.1461
 2432SOL     OW18928   0.872   1.273  11.670  0.2791  0.1756  0.1511
 2432SOL    HW118929   0.954   1.305  11.707  0.2631  0.5452 -0.1283
 2432SOL    HW218930   0.909   1.280  11.582 -0.1689  0.4724 -0.0186
 2433SOL     OW18931   0.359   3.906   5.063 -0.0433  0.2753  0.5671
 2433SOL    HW118932   0.318   3.821   5.083 -2.2281  0.7719 -1.8064
 2433SOL    HW218933   0.418   3.918   5.138  1.1423 -0.2291 -0.2904
 2434SOL     OW18934   3.485   0.576  13.627 -0.1587  0.1154  0.2016
 2434SOL    HW118935   3.573   0.573  13.666 -1.3790 -0.3917  2.9411
 2434SOL    HW218936   3.483   0.656  13.575  0.4152  0.1498  0.2357
 2435SOL     OW18937   0.762   1.873   1.577 -0.2692  0.4950 -0.2772
 2435SOL    HW118938   0.745   1.784   1.545  0.0308  0.0529  0.7982
 2435SOL    HW218939   0.844   1.866   1.625 -0.1092 -0.3653 -0.6712
 2436SOL     OW18940   0.412   1.321   1.331 -0.3537 -0.4307 -0.2210
 2436SOL    HW118941   0.439   1.413   1.324  3.5819 -1.6301 -0.8411
 2436SOL    HW218942   0.483   1.294   1.388 -0.4466 -1.1378 -0.4486
 2437SOL     OW18943   3.950   3.566   1.384 -0.1442  0.5781 -0.4843
 2437SOL    HW118944   3.958   3.661   1.372  1.5850  0.6996  1.7592
 2437SOL    HW218945   4.025   3.535   1.333  0.3711 -2.2744  2.0189
 2438SOL     OW18946   3.002   4.662   8.735 -0.5357  0.0740  0.7325
 2438SOL    HW118947   2.999   4.654   8.831  0.4843 -3.2027  0.4770
 2438SOL    HW218948   2.915   4.631   8.708 -0.6670 -0.8845  2.2102
 2439SOL     OW18949   0.319   3.432   5.111  0.5008 -0.3359 -0.0043
 2439SOL    HW118950   0.266   3.352   5.101 -1.4619  0.7234  1.8960
 2439SOL    HW218951   0.401   3.397   5.077 -0.1304 -2.9431  1.0813
 2440SOL     OW18952   1.746   3.934   2.617  0.3590 -0.1830  0.3886
 2440SOL    HW118953   1.822   3.992   2.620  0.7146 -0.6067 -0.4245
 2440SOL    HW218954   1.740   3.900   2.707 -2.6522  0.4061  0.4197
 2441SOL     OW18955   4.673   1.696   1.648  0.0418  0.3717  0.1809
 2441SOL    HW118956   4.698   1.781   1.610  1.0422 -0.9857 -2.1900
 2441SOL    HW218957   4.587   1.714   1.686  0.1930  0.8454  0.2977
 2442SOL     OW18958   1.408   4.220   7.958  0.6308  0.4578 -0.0252
 2442SOL    HW118959   1.466   4.220   8.034  1.2269 -0.7454 -0.4837
 2442SOL    HW218960   1.435   4.139   7.915 -1.3631 -1.3751  2.1932
 2443SOL     OW18961   0.246   3.204  14.999  0.1780 -0.3674 -0.2882
 2443SOL    HW118962   0.176   3.255  14.961  0.5189 -0.5432 -1.1424
 2443SOL    HW218963   0.317   3.268  15.001 -1.3011  1.3056 -2.1897
 2444SOL     OW18964   0.150   2.793   2.351 -0.2800  0.3745 -0.1986
 2444SOL    HW118965   0.098   2.873   2.339  0.9118  1.0090 -1.0763
 2444SOL    HW218966   0.098   2.748   2.417 -0.2961  0.0755 -0.4143
 2445SOL     OW18967   2.330   4.095   3.537  0.2362 -0.3190 -0.4870
 2445SOL    HW118968   2.299   4.174   3.493  0.4842  1.0162  1.7344
 2445SOL    HW218969   2.415   4.126   3.569 -0.2960  0.1940  0.4138
 2446SOL     OW18970   0.736   2.306   2.354  0.3610  0.6358  0.8531
 2446SOL    HW118971   0.735   2.398   2.327  0.4956  0.1594 -0.7848
 2446SOL    HW218972   0.645   2.284   2.374  0.1723  1.4539  0.8990
 2447SOL     OW18973   1.403   1.435   4.924  0.2505  0.5350  0.2729
 2447SOL    HW118974   1.444   1.521   4.930  0.7811  0.3794 -1.0165
 2447SOL    HW218975   1.323   1.452   4.975 -0.7944 -1.8903 -0.5267
 2448SOL     OW18976   3.988   3.381   5.936  0.1957  0.1087  0.4413
 2448SOL    HW118977   3.998   3.473   5.912  2.9362 -0.2423  0.2224
 2448SOL    HW218978   3.935   3.346   5.864 -0.4323  0.1720  0.8788
 2449SOL     OW18979   3.430   2.752   4.838  0.4602  0.1901 -0.0232
 2449SOL    HW118980   3.427   2.780   4.929 -0.1954 -0.4956  0.1644
 2449SOL    HW218981   3.393   2.664   4.842 -0.0546  0.4043 -0.1453
 2450SOL     OW18982   1.354   1.726   7.899  0.1713  0.2726  0.5052
 2450SOL    HW118983   1.341   1.774   7.817  1.3516  1.7576  1.1964
 2450SOL    HW218984   1.267   1.686   7.899 -0.3557  1.3937 -1.2445
 2451SOL     OW18985   3.446   1.720   6.866 -0.4883  0.3937 -0.4875
 2451SOL    HW118986   3.536   1.703   6.837  0.0484  1.7609  0.3598
 2451SOL    HW218987   3.411   1.755   6.784  0.5685  1.4140 -0.5107
 2452SOL     OW18988   3.922   4.234  12.706  0.1099 -0.1674 -0.5520
 2452SOL    HW118989   3.991   4.190  12.656 -0.8492 -3.5196  1.0565
 2452SOL    HW218990   3.911   4.171  12.777 -3.7576  0.1612 -0.8681
 2453SOL     OW18991   4.414   3.325   9.237  0.0089 -0.2819  0.6010
 2453SOL    HW118992   4.401   3.267   9.163 -0.2350  1.3135 -0.6095
 2453SOL    HW218993   4.505   3.351   9.224 -0.0592  1.3400  3.2616
 2454SOL     OW18994   0.585   3.087   1.549 -1.1315  0.0307  0.1231
 2454SOL    HW118995   0.650   3.026   1.584 -1.1190 -1.1671 -1.9851
 2454SOL    HW218996   0.581   3.154   1.618 -1.5192  0.1202  0.0148
 2455SOL     OW18997   3.368   2.793  15.171  0.0764 -0.2229  0.4319
 2455SOL    HW118998   3.451   2.822  15.133 -1.0605  0.5372 -1.4858
 2455SOL    HW218999   3.369   2.699  15.154  0.8898  0.0115 -0.8519
 2456SOL     OW19000   3.817   3.231  17.020 -0.0260 -0.4354 -0.6029
 2456SOL    HW119001   3.817   3.326  17.015 -1.9593 -0.3645  0.3674
 2456SOL    HW219002   3.721   3.227  17.021  0.0180 -1.7160 -0.8563
 2457SOL     OW19003   3.995   3.474  15.914  0.4619 -0.4189 -0.2574
 2457SOL    HW119004   4.013   3.466  15.820 -1.6792 -3.3115 -0.4256
 2457SOL    HW219005   3.916   3.527  15.904  0.4742 -0.4034 -0.2703
 2458SOL     OW19006   0.200   2.478   4.696 -0.3709  0.0020  0.5300
 2458SOL    HW119007   0.279   2.496   4.646 -0.1835 -0.2161  0.7463
 2458SOL    HW219008   0.201   2.382   4.700  1.1453  0.0589  1.3471
 2459SOL     OW19009   2.674   1.091   7.834 -0.5564 -0.1273  0.6457
 2459SOL    HW119010   2.720   1.127   7.759 -0.3795 -0.6510  0.5073
 2459SOL    HW219011   2.731   1.015   7.836 -1.1137 -0.5631  0.1097
 2460SOL     OW19012   1.154   3.052   2.544 -0.2375  0.2103 -0.0162
 2460SOL    HW119013   1.138   3.072   2.452  1.0547 -1.3594 -0.5885
 2460SOL    HW219014   1.115   2.964   2.551  0.5102 -0.1121  0.0361
 2461SOL     OW19015   1.049   2.219   3.523  0.3614  0.2406  0.5472
 2461SOL    HW119016   0.974   2.182   3.572 -0.2463  0.4693 -0.2108
 2461SOL    HW219017   1.116   2.203   3.589  1.2827 -0.5612 -0.5924
 2462SOL     OW19018   1.120   4.000   6.772 -0.0812  0.9164 -0.0052
 2462SOL    HW119019   1.162   4.009   6.857 -1.3368 -0.2853  0.7343
 2462SOL    HW219020   1.175   4.050   6.711 -2.5930  3.4264 -0.2333
 2463SOL     OW19021   0.064   3.992   6.707  0.3450  0.6887 -0.1688
 2463SOL    HW119022   4.734   4.002   6.638 -0.2654 -0.0581  0.2961
 2463SOL    HW219023   0.141   3.955   6.665  0.8516  1.3725  0.1606
 2464SOL     OW19024   0.062   0.972  12.373  0.4603  0.3839  0.1192
 2464SOL    HW119025   0.026   1.008  12.454 -1.7783 -1.3781 -0.1076
 2464SOL    HW219026   0.139   1.026  12.353  0.7495 -0.6033 -1.4834
 2465SOL     OW19027   1.684   1.501   6.431 -0.1906  0.5628  0.2644
 2465SOL    HW119028   1.718   1.477   6.517 -2.1916  0.7610  1.1321
 2465SOL    HW219029   1.652   1.587   6.457 -1.3065 -0.4049  2.1357
 2466SOL     OW19030   2.657   2.429   3.848  0.1744  0.1018  0.3428
 2466SOL    HW119031   2.685   2.430   3.939  0.7283  1.3970  0.1589
 2466SOL    HW219032   2.594   2.501   3.843 -0.5038 -0.4255  1.3912
 2467SOL     OW19033   1.655   2.452   4.784  0.8885  0.1513 -0.0865
 2467SOL    HW119034   1.576   2.496   4.753  0.1200 -1.0067  0.2648
 2467SOL    HW219035   1.620   2.366   4.806 -3.2085  1.9970  0.5991
 2468SOL     OW19036   1.278   4.101   2.956 -0.4187  0.2503 -0.0461
 2468SOL    HW119037   1.286   4.015   2.998  0.4038  0.5897  0.4785
 2468SOL    HW219038   1.345   4.156   2.996  1.6257 -0.6303 -2.2876
 2469SOL     OW19039   1.583   1.108  15.423  0.5085  0.1851  0.2430
 2469SOL    HW119040   1.551   1.178  15.366  0.9789  2.1909  2.4480
 2469SOL    HW219041   1.627   1.051  15.360 -1.3050 -0.8257 -0.1145
 2470SOL     OW19042   4.097   3.878   4.300  0.1284  1.1311 -1.2332
 2470SOL    HW119043   4.152   3.901   4.374  0.7012 -1.1045 -0.9900
 2470SOL    HW219044   4.133   3.797   4.264  1.4227  0.7956  0.8751
 2471SOL     OW19045   3.164   0.581  11.214 -0.0811  0.2220  0.0846
 2471SOL    HW119046   3.079   0.547  11.242 -0.7422  1.4851 -0.3637
 2471SOL    HW219047   3.147   0.603  11.122 -2.4083 -1.9768 -0.0349
 2472SOL     OW19048   1.294   1.177   8.992 -0.3091  0.0782  0.4624
 2472SOL    HW119049   1.309   1.179   9.087  0.9160 -0.5284  0.2854
 2472SOL    HW219050   1.276   1.267   8.965 -2.7242  0.7202  4.2543
 2473SOL     OW19051   2.053   1.102   0.524 -0.3102 -0.1510  0.1247
 2473SOL    HW119052   2.050   1.196   0.540 -0.7980 -0.2324  0.5323
 2473SOL    HW219053   1.975   1.096   0.468 -0.0896  0.7280 -0.2688
 2474SOL     OW19054   1.358   1.109  15.585 -0.6267  0.5742  0.2161
 2474SOL    HW119055   1.434   1.105  15.528 -0.5473 -0.6059  0.4042
 2474SOL    HW219056   1.302   1.041  15.546 -1.1444  0.6519  0.8289
 2475SOL     OW19057   4.392   2.287  17.229  0.0607  0.7323 -0.3645
 2475SOL    HW119058   4.370   2.371  17.188 -1.1179  0.1020 -1.0036
 2475SOL    HW219059   4.453   2.316  17.297 -1.4528  1.6017  0.6314
 2476SOL     OW19060   4.234   2.909   4.996  0.4426 -1.1285 -0.6139
 2476SOL    HW119061   4.293   2.959   4.939  2.6152 -1.7982  1.0373
 2476SOL    HW219062   4.178   2.869   4.931 -1.7904  0.4893  0.3223
 2477SOL     OW19063   3.822   0.538   9.805 -0.3538  0.3184  0.0690
 2477SOL    HW119064   3.791   0.628   9.801  0.9090  0.7292 -0.5892
 2477SOL    HW219065   3.764   0.504   9.873 -1.3280 -0.1891 -1.0197
 2478SOL     OW19066   1.654   4.489   3.272 -0.2413  0.3183 -0.8906
 2478SOL    HW119067   1.730   4.431   3.263 -0.8033 -0.2962 -1.7032
 2478SOL    HW219068   1.654   4.508   3.365 -1.0468  0.7080 -0.9730
 2479SOL     OW19069   2.276   2.983   5.217 -0.1078 -0.3147 -0.3551
 2479SOL    HW119070   2.337   3.035   5.269  1.1646 -1.9786 -0.1675
 2479SOL    HW219071   2.314   2.992   5.130  1.2267  0.1353  0.2838
 2480SOL     OW19072   2.633   4.541   9.662 -0.7903  0.2558  0.6195
 2480SOL    HW119073   2.538   4.548   9.654 -0.8133  0.1616  0.7867
 2480SOL    HW219074   2.656   4.634   9.661 -2.1200  0.5637 -2.1957
 2481SOL     OW19075   4.356   3.532  10.459  0.0684  0.2428 -0.5811
 2481SOL    HW119076   4.364   3.436  10.454 -1.2241  0.0688  0.7718
 2481SOL    HW219077   4.270   3.538  10.417  0.3052  1.1353 -0.9361
 2482SOL     OW19078   1.459   2.253   3.162 -0.5707  0.3524  0.1505
 2482SOL    HW119079   1.440   2.201   3.241 -0.3824  0.6418  0.3844
 2482SOL    HW219080   1.492   2.334   3.200 -0.1163  0.0930  0.3009
 2483SOL     OW19081   1.215   4.170   7.729 -0.2047  0.5720  0.0370
 2483SOL    HW119082   1.303   4.136   7.712 -0.4179 -1.0141  2.0640
 2483SOL    HW219083   1.224   4.186   7.823  1.3358 -0.7163  0.1055
 2484SOL     OW19084   0.668   2.607   8.170 -0.1481  0.1622  0.4518
 2484SOL    HW119085   0.645   2.608   8.077  0.2319  0.5432  0.3590
 2484SOL    HW219086   0.716   2.690   8.167  1.7064 -0.9377 -0.5633
 2485SOL     OW19087   3.118   1.283  13.324 -0.0115 -0.0852  0.3223
 2485SOL    HW119088   3.114   1.327  13.239  0.2978 -0.9521 -0.1417
 2485SOL    HW219089   3.178   1.213  13.298 -0.9171 -1.9947  3.4180
 2486SOL     OW19090   3.502   2.033  11.811 -0.0432  0.2215 -0.2608
 2486SOL    HW119091   3.542   2.079  11.737 -0.3785 -0.1076 -0.6528
 2486SOL    HW219092   3.558   1.955  11.804 -1.0806 -0.3560 -2.1855
 2487SOL     OW19093   4.262   2.900   4.054  0.3945  0.2107  0.1586
 2487SOL    HW119094   4.269   2.994   4.041  1.6865 -0.1353 -1.7003
 2487SOL    HW219095   4.254   2.891   4.149  0.8857  1.0430  0.2753
 2488SOL     OW19096   0.817   1.965   9.194  0.2292 -0.6713  0.4439
 2488SOL    HW119097   0.809   1.955   9.099 -0.1822 -1.8340  0.6011
 2488SOL    HW219098   0.814   1.872   9.217  1.8648 -0.8270  0.0008
 2489SOL     OW19099   2.693   0.249   8.281  0.1764  0.0434 -0.0942
 2489SOL    HW119100   2.628   0.203   8.334 -0.0850  0.2984 -0.1915
 2489SOL    HW219101   2.654   0.337   8.283 -0.7351 -0.3381 -1.1838
 2490SOL     OW19102   4.343   4.344   6.289 -0.0793  0.2717  0.0428
 2490SOL    HW119103   4.291   4.348   6.208  0.7511  1.4724 -0.4257
 2490SOL    HW219104   4.324   4.431   6.325 -3.3307  0.0949 -1.2613
 2491SOL     OW19105   3.524   2.801  13.852 -0.6080 -0.1619  0.0680
 2491SOL    HW119106   3.461   2.844  13.910  0.5241  3.7313 -1.6251
 2491SOL    HW219107   3.532   2.722  13.906  0.2275 -0.4961 -0.5577
 2492SOL     OW19108   3.534   4.345  17.362 -0.4110  0.2418  0.3354
 2492SOL    HW119109   3.593   4.337  17.288 -0.7380  2.2111 -0.1373
 2492SOL    HW219110   3.511   4.436  17.347  1.5092  0.7075  0.2575
 2493SOL     OW19111   4.504   2.325   1.315  0.5288  0.0898 -0.4629
 2493SOL    HW119112   4.409   2.317   1.316  0.5969 -0.6006  0.5901
 2493SOL    HW219113   4.525   2.280   1.234 -0.4640 -0.1348 -0.5911
 2494SOL     OW19114   1.994   4.237  13.164 -0.2919 -0.1772 -0.6205
 2494SOL    HW119115   1.899   4.232  13.151 -0.1541  0.8373 -1.9565
 2494SOL    HW219116   2.017   4.283  13.083 -0.8480 -2.4261 -2.0704
 2495SOL     OW19117   2.434   2.244   7.202 -0.3694 -0.2569  0.5226
 2495SOL    HW119118   2.366   2.262   7.268  1.6931  0.7019  2.3802
 2495SOL    HW219119   2.416   2.152   7.186  0.7392 -0.5436  0.9291
 2496SOL     OW19120   0.626   4.002   6.723  0.0369 -0.1334 -0.1515
 2496SOL    HW119121   0.602   4.037   6.809  0.8584  0.1234 -0.0236
 2496SOL    HW219122   0.712   3.967   6.745  0.3013 -1.0959 -2.6858
 2497SOL     OW19123   1.096   3.023   5.791  0.2570  0.0844  0.3245
 2497SOL    HW119124   1.175   3.066   5.825  0.6772  0.7279 -1.4578
 2497SOL    HW219125   1.063   2.997   5.877 -0.9401  2.2815  0.5387
 2498SOL     OW19126   0.576   3.271   3.908  0.2199 -0.7180 -0.2945
 2498SOL    HW119127   0.664   3.243   3.935  0.0612 -2.4283 -1.5472
 2498SOL    HW219128   0.560   3.215   3.833 -1.0611  1.5809 -1.7393
 2499SOL     OW19129   3.045   2.429  15.012  0.0124 -0.1124 -0.3662
 2499SOL    HW119130   2.981   2.482  14.963  1.5612  0.4660 -1.7863
 2499SOL    HW219131   3.054   2.474  15.095 -0.8956 -2.8668  1.2173
 2500SOL     OW19132   4.045   1.024   7.231  0.0035  0.1330 -0.1746
 2500SOL    HW119133   4.140   1.019   7.220 -0.3342  0.6920 -3.1913
 2500SOL    HW219134   4.023   1.085   7.161  0.8083  0.2275 -0.3430
 2501SOL     OW19135   4.358   0.991   8.316 -0.2498  0.1912  0.3973
 2501SOL    HW119136   4.301   0.996   8.239 -0.3707  1.2076  0.5541
 2501SOL    HW219137   4.328   0.915   8.366 -0.5389  0.3314  0.4310
 2502SOL     OW19138   2.074   1.563  16.509  0.0339 -0.1282  0.1155
 2502SOL    HW119139   1.988   1.534  16.537  0.4085  0.0466  1.4577
 2502SOL    HW219140   2.098   1.623  16.580 -0.3820 -1.4838  1.3935
 2503SOL     OW19141   1.822   1.343  10.808  0.7514  0.3395  0.2665
 2503SOL    HW119142   1.817   1.325  10.714 -0.3218 -0.0709  0.4108
 2503SOL    HW219143   1.731   1.365  10.826  0.6103 -0.9920  1.1902
 2504SOL     OW19144   3.009   0.356   3.861  0.0368  0.3964 -0.3697
 2504SOL    HW119145   3.028   0.268   3.828 -1.0888  1.1580 -3.0607
 2504SOL    HW219146   2.916   0.366   3.843 -0.2134  0.4312  1.0130
 2505SOL     OW19147   3.611   2.290  16.104 -0.5911  0.1886 -0.3886
 2505SOL    HW119148   3.603   2.383  16.086 -0.0224  0.6035  1.4602
 2505SOL    HW219149   3.570   2.297  16.190 -1.2514  1.9226 -0.8461
 2506SOL     OW19150   1.621   0.485  16.483  0.1013  0.7657 -0.8495
 2506SOL    HW119151   1.652   0.523  16.401  0.1707 -1.1460 -1.7135
 2506SOL    HW219152   1.689   0.418  16.478 -1.0108 -0.7340  3.8857
 2507SOL     OW19153   1.929   2.673   8.430  0.1094 -0.2730  0.0858
 2507SOL    HW119154   1.987   2.704   8.499 -0.9538 -0.3884  1.0337
 2507SOL    HW219155   1.985   2.685   8.353  1.3794 -0.4432  0.9974
 2508SOL     OW19156   1.701   0.430   4.906  0.9411 -0.0841 -0.3602
 2508SOL    HW119157   1.640   0.395   4.842 -0.4013  1.2492  0.1823
 2508SOL    HW219158   1.764   0.474   4.848  1.3743 -2.3663 -1.6018
 2509SOL     OW19159   2.861   4.644   7.702 -0.6583  0.6666 -0.3364
 2509SOL    HW119160   2.926   4.593   7.653 -0.0448  0.2254  0.9617
 2509SOL    HW219161   2.794   4.576   7.703 -0.6578  0.6944  0.7552
 2510SOL     OW19162   1.644   3.477  16.977 -0.4440  0.4507  0.1438
 2510SOL    HW119163   1.570   3.527  16.943  0.8109  1.6120 -0.8797
 2510SOL    HW219164   1.624   3.387  16.950  1.0069  0.0147  0.5258
 2511SOL     OW19165   0.560   1.954   8.847 -0.2193 -0.0209 -0.0347
 2511SOL    HW119166   0.531   1.950   8.756  1.0320  0.1684 -0.4432
 2511SOL    HW219167   0.546   2.048   8.861  0.9061  0.3348 -1.4284
 2512SOL     OW19168   3.497   4.698  12.472 -0.2190 -0.4720 -0.2178
 2512SOL    HW119169   3.559   0.008  12.414 -3.5798  2.5620 -1.4431
 2512SOL    HW219170   3.557   4.631  12.504 -0.0778 -0.5652 -0.6735
 2513SOL     OW19171   2.847   2.344   1.810 -0.3444  0.3364 -0.3999
 2513SOL    HW119172   2.840   2.353   1.715  1.2885 -1.3374 -0.6738
 2513SOL    HW219173   2.939   2.320   1.819 -1.1488 -2.0179  1.5198
 2514SOL     OW19174   4.470   1.987   7.765  0.0533 -0.6339  0.0027
 2514SOL    HW119175   4.378   1.971   7.741  0.1375 -0.2509 -0.5524
 2514SOL    HW219176   4.476   1.917   7.831  1.2613 -0.8621 -0.3599
 2515SOL     OW19177   3.789   3.476   7.799 -0.5736 -0.6888 -0.4055
 2515SOL    HW119178   3.704   3.441   7.771 -1.6691  2.5584 -1.2307
 2515SOL    HW219179   3.824   3.527   7.726 -1.8539  1.4617  0.4735
 2516SOL     OW19180   1.347   1.810   7.017  0.4093 -0.3108  0.6264
 2516SOL    HW119181   1.425   1.759   7.039  0.3580 -1.1059 -1.0850
 2516SOL    HW219182   1.389   1.891   6.988  0.0256 -0.7469 -1.1177
 2517SOL     OW19183   4.399   0.638  13.858 -0.3939 -0.1787  0.0892
 2517SOL    HW119184   4.487   0.665  13.885  0.2445 -0.1411 -1.9781
 2517SOL    HW219185   4.400   0.673  13.769 -0.6898  0.6908  0.4367
 2518SOL     OW19186   4.123   3.535  10.316  0.4537  0.0308 -0.4025
 2518SOL    HW119187   4.102   3.627  10.328 -2.5073 -0.5836 -0.8833
 2518SOL    HW219188   4.061   3.504  10.250  0.7643 -0.0482 -0.6529
 2519SOL     OW19189   2.549   3.465   5.167  0.2617 -0.0491  0.0118
 2519SOL    HW119190   2.505   3.484   5.249  1.0521  1.0618  0.1775
 2519SOL    HW219191   2.636   3.484   5.204  0.0400 -0.2326  0.6271
 2520SOL     OW19192   4.295   3.135  16.158  0.3339 -0.1537  0.0135
 2520SOL    HW119193   4.348   3.130  16.238 -0.9361  1.4626  0.9687
 2520SOL    HW219194   4.319   3.056  16.110  2.4679  1.6680 -1.9110
 2521SOL     OW19195   2.680   2.041   7.418 -0.6521  0.1379  0.2168
 2521SOL    HW119196   2.599   2.011   7.377  0.0842 -1.3261 -0.1677
 2521SOL    HW219197   2.721   2.075   7.339  0.7525 -0.7072  0.5660
 2522SOL     OW19198   3.189   1.602   8.277  0.1202 -0.6700 -0.2234
 2522SOL    HW119199   3.116   1.612   8.215 -0.0947 -2.1400 -0.2115
 2522SOL    HW219200   3.170   1.675   8.335  0.9152 -1.4202  0.9734
 2523SOL     OW19201   0.159   4.681   2.796 -0.5340 -0.1235  0.1831
 2523SOL    HW119202   0.166   0.014   2.863 -0.7710  0.0894 -0.0058
 2523SOL    HW219203   0.237   4.637   2.829 -1.5982 -1.2694  1.1526
 2524SOL     OW19204   1.884   3.261  14.957 -0.0060  0.2373  1.1792
 2524SOL    HW119205   1.900   3.305  14.873  2.6483 -2.2790  0.3717
 2524SOL    HW219206   1.956   3.204  14.982 -0.1024 -0.6232 -0.5314
 2525SOL     OW19207   0.632   4.108   6.064 -0.4085  0.1757 -0.3154
 2525SOL    HW119208   0.719   4.079   6.093 -0.2740  1.3957  0.4965
 2525SOL    HW219209   0.587   4.023   6.055  1.1944 -0.8649  1.4076
 2526SOL     OW19210   4.363   2.941   6.372  0.2793  0.1880 -0.1772
 2526SOL    HW119211   4.395   2.857   6.341 -0.2806  0.0819 -0.4761
 2526SOL    HW219212   4.444   2.985   6.396  1.5036 -2.3160  0.1463
 2527SOL     OW19213   1.053   4.705   0.605  0.3712  0.3600 -0.4368
 2527SOL    HW119214   1.129   0.025   0.625 -1.3746  3.2286 -1.7574
 2527SOL    HW219215   1.087   4.615   0.606 -0.2747  0.1089 -1.1980
 2528SOL     OW19216   2.203   3.844   4.931  0.2921 -0.6171  0.3404
 2528SOL    HW119217   2.117   3.825   4.894 -1.9642  2.1790  4.1949
 2528SOL    HW219218   2.209   3.781   5.003 -1.2272 -1.6072 -0.4079
 2529SOL     OW19219   3.486   2.684  11.760  0.1485  0.3719 -0.2837
 2529SOL    HW119220   3.493   2.738  11.839  1.0728  0.7583 -0.6313
 2529SOL    HW219221   3.460   2.597  11.791 -1.3178  0.6262 -0.8077
 2530SOL     OW19222   0.153   2.715  11.703  0.1028 -0.2395  0.0597
 2530SOL    HW119223   0.096   2.641  11.682 -2.2950  1.4989  0.3957
 2530SOL    HW219224   0.089   2.783  11.724  0.0634  0.2723 -1.7619
 2531SOL     OW19225   2.746   2.782   2.426 -0.4838 -0.2523  0.5109
 2531SOL    HW119226   2.791   2.706   2.390 -1.2177  0.6692 -2.3463
 2531SOL    HW219227   2.812   2.794   2.495 -0.8204 -0.6622  0.9073
 2532SOL     OW19228   0.440   4.070   4.126 -0.5616  0.4514  0.2249
 2532SOL    HW119229   0.378   4.016   4.077 -2.2692  1.1068  1.6743
 2532SOL    HW219230   0.384   4.101   4.197 -0.5248  1.4131 -0.1648
 2533SOL     OW19231   2.436   2.352   9.013  0.3642  0.2313  0.0667
 2533SOL    HW119232   2.471   2.434   9.048  1.0881 -0.8373  1.8858
 2533SOL    HW219233   2.487   2.343   8.933 -0.8009  4.4333 -1.1228
 2534SOL     OW19234   0.915   1.064   8.455 -0.2596 -0.1271  0.3074
 2534SOL    HW119235   0.966   1.073   8.536  1.4191  0.6029 -0.8049
 2534SOL    HW219236   0.983   1.023   8.401 -1.3530  0.3447 -1.4118
 2535SOL     OW19237   0.471   2.874  11.737  0.3144 -0.5889 -0.0939
 2535SOL    HW119238   0.461   2.819  11.814  0.0547 -0.5220 -0.0791
 2535SOL    HW219239   0.424   2.954  11.760  1.0259 -0.2563  0.2010
 2536SOL     OW19240   3.483   2.231   2.313 -0.1626 -0.0797  0.2274
 2536SOL    HW119241   3.485   2.285   2.234 -0.5664 -0.8100 -0.2828
 2536SOL    HW219242   3.574   2.224   2.340 -0.0195  1.7456  0.2641
 2537SOL     OW19243   1.731   2.458  10.684  0.4983  0.1776 -0.1882
 2537SOL    HW119244   1.807   2.512  10.665  0.4558  0.8497  1.5581
 2537SOL    HW219245   1.658   2.521  10.688  0.0366 -0.2636 -1.8064
 2538SOL     OW19246   3.491   4.005  14.683  0.8135  0.4574 -0.2948
 2538SOL    HW119247   3.564   4.043  14.732  1.5055  0.8808 -1.6608
 2538SOL    HW219248   3.468   4.090  14.646 -0.7090  0.9504  1.7543
 2539SOL     OW19249   4.481   1.230   6.279 -0.4493 -0.1785 -0.3241
 2539SOL    HW119250   4.475   1.173   6.355  0.2526 -1.6190 -1.3456
 2539SOL    HW219251   4.404   1.209   6.225  1.7881 -1.2355 -3.1285
 2540SOL     OW19252   2.243   0.347   3.109 -0.0289 -0.4073 -0.0418
 2540SOL    HW119253   2.284   0.383   3.030  0.2632  2.0964  1.2376
 2540SOL    HW219254   2.313   0.288   3.137  1.5918  1.9630  0.8991
 2541SOL     OW19255   1.318   2.022   2.707 -0.5938 -0.3693  0.0436
 2541SOL    HW119256   1.342   2.046   2.796  1.3922 -0.7526 -0.3906
 2541SOL    HW219257   1.298   1.929   2.715  0.1306 -0.2486  2.9341
 2542SOL     OW19258   0.173   4.238   9.728 -0.3448  0.4013 -0.1191
 2542SOL    HW119259   0.242   4.263   9.667  0.7918 -1.0496  0.5582
 2542SOL    HW219260   0.181   4.304   9.796  3.1615 -0.8941  0.7073
 2543SOL     OW19261   0.469   4.019   7.563  0.1600 -0.5866 -0.4463
 2543SOL    HW119262   0.520   4.066   7.498  0.1230 -1.0715 -0.8268
 2543SOL    HW219263   0.417   3.967   7.501 -1.3124  0.4812 -0.1206
 2544SOL     OW19264   4.086   1.477   4.319 -0.1262 -0.2465  0.0292
 2544SOL    HW119265   4.002   1.516   4.295  0.5241  0.6231 -0.8745
 2544SOL    HW219266   4.132   1.466   4.236  2.5776  0.5783  1.4257
 2545SOL     OW19267   0.715   2.983   8.922 -0.5223  0.0620  0.0414
 2545SOL    HW119268   0.749   2.994   8.833  0.7732  2.4686  0.8581
 2545SOL    HW219269   0.651   3.053   8.933  0.0146  0.6803 -0.7422
 2546SOL     OW19270   2.119   3.977  13.859 -0.4827 -0.4544 -0.0085
 2546SOL    HW119271   2.060   3.927  13.803 -0.7735  1.2794 -1.2577
 2546SOL    HW219272   2.169   3.908  13.903 -1.0058 -1.0161 -0.2979
 2547SOL     OW19273   3.870   2.868   2.747  0.0598 -0.1971 -0.1057
 2547SOL    HW119274   3.784   2.828   2.757  1.0615 -2.2071  0.5092
 2547SOL    HW219275   3.920   2.789   2.727  1.3239  0.9158 -1.3644
 2548SOL     OW19276   2.197   0.145   8.786  0.1030 -0.2107  0.1693
 2548SOL    HW119277   2.200   0.113   8.876  0.2023  0.3772  0.3702
 2548SOL    HW219278   2.105   0.136   8.760  0.5521 -3.9296 -0.1065
 2549SOL     OW19279   1.099   0.789   6.897  0.0094  0.0973 -0.8757
 2549SOL    HW119280   1.128   0.835   6.818  1.7930  0.5696  0.0435
 2549SOL    HW219281   1.125   0.853   6.963  1.2286  0.7285 -1.9708
 2550SOL     OW19282   4.019   4.091   0.315  0.2026  0.1095  0.5526
 2550SOL    HW119283   4.027   4.019   0.251  1.2441  0.3414  0.4248
 2550SOL    HW219284   3.979   4.157   0.258 -2.1614 -0.8042  1.1667
 2551SOL     OW19285   4.186   2.233   0.587 -0.3755 -0.0932 -0.3704
 2551SOL    HW119286   4.232   2.197   0.663  1.0725 -1.3835 -1.8640
 2551SOL    HW219287   4.261   2.244   0.529 -0.6575  0.1308 -0.6931
 2552SOL     OW19288   1.589   3.852  13.837 -0.3451  0.5351  0.2896
 2552SOL    HW119289   1.585   3.814  13.925  0.1031  0.4818  0.2888
 2552SOL    HW219290   1.512   3.810  13.798 -0.1279 -0.7608  1.2347
 2553SOL     OW19291   1.416   2.424   0.091 -0.6538 -0.3617  0.0742
 2553SOL    HW119292   1.346   2.477   0.129 -0.4626 -0.7360  0.9546
 2553SOL    HW219293   1.375   2.341   0.070  2.2543 -2.1059  1.2545
 2554SOL     OW19294   0.752   1.813   2.774  0.1830  0.0595 -1.0941
 2554SOL    HW119295   0.818   1.796   2.707  0.8365 -1.7988  0.0284
 2554SOL    HW219296   0.694   1.872   2.725  0.0389  1.8318  1.1952
 2555SOL     OW19297   3.875   1.578   5.261  0.2649 -0.6085  0.5357
 2555SOL    HW119298   3.922   1.537   5.188 -1.7577 -0.6537 -0.7262
 2555SOL    HW219299   3.937   1.644   5.294  1.5563 -0.4793 -2.1023
 2556SOL     OW19300   4.074   3.957  16.677 -0.8637 -0.0817  0.7563
 2556SOL    HW119301   4.077   3.993  16.588  1.6204  1.1075  1.2970
 2556SOL    HW219302   4.073   3.863  16.660  2.4451  0.3462 -1.9029
 2557SOL     OW19303   3.159   3.667  13.959  0.2035  0.9865  0.5731
 2557SOL    HW119304   3.248   3.683  13.990  0.9469  0.2731 -1.2250
 2557SOL    HW219305   3.113   3.747  13.984 -0.3323  0.8379  0.0329
 2558SOL     OW19306   3.406   3.798   8.356 -0.1945 -0.0831 -0.1487
 2558SOL    HW119307   3.490   3.809   8.310 -0.5969 -0.3090 -0.9259
 2558SOL    HW219308   3.428   3.779   8.447  1.7218  1.5451 -0.2774
 2559SOL     OW19309   2.487   2.248   5.566  0.3639 -0.4837 -0.7826
 2559SOL    HW119310   2.504   2.338   5.593 -0.6865 -1.0249  1.6693
 2559SOL    HW219311   2.566   2.201   5.592  1.3996  0.6528 -1.8846
 2560SOL     OW19312   1.668   0.748   5.892  0.1532 -0.4178  0.2439
 2560SOL    HW119313   1.739   0.688   5.914 -2.3169 -3.2758  0.4255
 2560SOL    HW219314   1.642   0.724   5.803  0.7470 -2.7981  0.7241
 2561SOL     OW19315   1.148   3.869  10.869 -0.0447  0.3729  0.1472
 2561SOL    HW119316   1.174   3.944  10.923 -0.0816  0.3598  0.1834
 2561SOL    HW219317   1.100   3.813  10.930  1.6161  0.8211  1.8724
 2562SOL     OW19318   1.794   4.542   3.532 -0.0575  0.2407  0.5493
 2562SOL    HW119319   1.749   4.611   3.581  0.0658  0.0368  0.9575
 2562SOL    HW219320   1.873   4.595   3.519 -0.6083  0.2361 -2.7301
 2563SOL     OW19321   0.229   1.233   8.749  0.3988  0.0797  0.4677
 2563SOL    HW119322   0.294   1.303   8.751 -0.1322  0.5646  0.5577
 2563SOL    HW219323   0.204   1.222   8.841 -0.2105 -2.4101  0.0065
 2564SOL     OW19324   1.982   0.743  11.701  0.4472  0.2887  0.0804
 2564SOL    HW119325   2.050   0.688  11.740 -0.7346 -0.4009  1.2302
 2564SOL    HW219326   2.021   0.829  11.715 -0.2996  0.6498 -0.0249
 2565SOL     OW19327   3.255   4.229  17.145 -0.3407 -0.1758  0.4017
 2565SOL    HW119328   3.239   4.229  17.239 -2.8095  1.8780 -0.0155
 2565SOL    HW219329   3.345   4.198  17.141 -0.5244 -0.5560 -0.9398
 2566SOL     OW19330   2.785   2.289   2.980 -0.1051 -0.0989  0.0697
 2566SOL    HW119331   2.705   2.298   3.030  1.1050 -0.3419  2.0585
 2566SOL    HW219332   2.784   2.194   2.968  0.5998  0.0861 -1.4697
 2567SOL     OW19333   3.818   2.184   2.882 -0.1545 -0.5781  0.8797
 2567SOL    HW119334   3.837   2.242   2.955  2.1740 -1.9097  1.3359
 2567SOL    HW219335   3.774   2.241   2.819  0.7849 -0.8867 -0.0461
 2568SOL     OW19336   2.651   3.079  10.128 -0.1296  0.1286 -0.4363
 2568SOL    HW119337   2.708   3.142  10.083  0.8873 -0.2055  0.3829
 2568SOL    HW219338   2.629   3.140  10.199 -2.0432  1.6757 -2.3588
 2569SOL     OW19339   0.084   3.654   8.908  0.1224  0.0217  0.0414
 2569SOL    HW119340   0.159   3.656   8.967  0.0470  1.1928  0.0850
 2569SOL    HW219341   0.026   3.596   8.958 -0.6412 -1.1998 -2.2051
 2570SOL     OW19342   4.376   2.825   3.265 -0.2046  0.1406  0.3859
 2570SOL    HW119343   4.424   2.858   3.341 -0.0747 -1.0656  0.8305
 2570SOL    HW219344   4.338   2.741   3.290 -0.4810 -0.7499 -2.9944
 2571SOL     OW19345   3.235   3.409   8.324 -0.4763 -0.0672 -0.2424
 2571SOL    HW119346   3.188   3.327   8.307  3.0377 -2.1123 -0.2379
 2571SOL    HW219347   3.262   3.428   8.234 -1.0610  0.3776 -0.3230
 2572SOL     OW19348   3.534   4.053   9.495  0.7635  0.0807 -0.0917
 2572SOL    HW119349   3.519   4.075   9.402  0.1188  1.1292  0.2587
 2572SOL    HW219350   3.630   4.055   9.501  0.8631  1.6545 -1.7932
 2573SOL     OW19351   1.249   1.178  12.913 -0.6313  0.3280  0.2785
 2573SOL    HW119352   1.299   1.109  12.957  0.2583  0.1444 -1.0154
 2573SOL    HW219353   1.302   1.255  12.933  0.4229 -0.6524  1.2500
 2574SOL     OW19354   0.221   3.432   2.910  0.1091  0.3208  0.9697
 2574SOL    HW119355   0.149   3.421   2.848  0.2574 -0.6056  0.9597
 2574SOL    HW219356   0.288   3.372   2.878  0.4622  2.5486 -2.4481
 2575SOL     OW19357   3.304   3.840  13.278 -0.2876 -0.5537 -0.0695
 2575SOL    HW119358   3.240   3.892  13.327 -0.7090 -0.9250 -0.2255
 2575SOL    HW219359   3.380   3.877  13.322 -0.0997 -0.9873 -0.0325
 2576SOL     OW19360   3.960   4.189   3.149 -0.1504 -0.7205 -0.0864
 2576SOL    HW119361   3.890   4.128   3.172  0.5721 -1.3528  0.4826
 2576SOL    HW219362   3.943   4.207   3.057  1.5494 -3.6657 -0.9815
 2577SOL     OW19363   3.664   0.596   5.997 -0.0250  0.0800  0.0254
 2577SOL    HW119364   3.598   0.660   6.024 -0.7140  0.2836 -2.1213
 2577SOL    HW219365   3.735   0.644   6.040 -0.3838  0.3938  0.2674
 2578SOL     OW19366   0.155   1.185   2.659 -0.1366 -0.1784  0.2483
 2578SOL    HW119367   0.234   1.234   2.638 -1.0867  1.8898  1.4691
 2578SOL    HW219368   0.194   1.098   2.670 -1.4044 -0.7750 -0.0022
 2579SOL     OW19369   3.790   3.537   2.525  0.4477 -0.1560  0.1051
 2579SOL    HW119370   3.875   3.502   2.551  1.3851  1.8581 -0.2033
 2579SOL    HW219371   3.739   3.536   2.606  1.2218 -2.2376  0.5701
 2580SOL     OW19372   3.679   2.620   6.855  0.1768  0.5410 -0.3793
 2580SOL    HW119373   3.728   2.680   6.912  0.1064  0.2083  0.0353
 2580SOL    HW219374   3.619   2.670   6.799  2.4797  0.9543 -2.4425
 2581SOL     OW19375   2.088   4.618   7.157 -0.3188  0.3615  0.1573
 2581SOL    HW119376   2.037   4.587   7.232 -0.2164 -0.2837 -0.0458
 2581SOL    HW219377   2.022   4.664   7.104  0.9149  3.3160  1.1437
 2582SOL     OW19378   1.801   4.080  16.695 -0.3393 -0.3388  0.0395
 2582SOL    HW119379   1.787   4.170  16.725  1.1039 -0.7695  2.0254
 2582SOL    HW219380   1.889   4.054  16.723 -0.6842 -0.6332  0.8369
 2583SOL     OW19381   4.032   0.450  12.480 -0.1585  0.0647  0.0185
 2583SOL    HW119382   4.030   0.355  12.490 -0.2368 -0.0350 -0.9089
 2583SOL    HW219383   3.960   0.468  12.541 -1.5064 -1.5528 -1.0930
 2584SOL     OW19384   0.046   0.679  11.341 -0.3191 -0.4828 -0.0479
 2584SOL    HW119385   0.063   0.769  11.367 -0.7793 -0.5781  0.5882
 2584SOL    HW219386   0.053   0.686  11.246 -0.8630  1.1602  0.0432
 2585SOL     OW19387   4.225   1.447  11.602  0.1516 -0.0312 -0.3831
 2585SOL    HW119388   4.261   1.500  11.673 -0.3549  1.9754 -1.6142
 2585SOL    HW219389   4.152   1.401  11.644 -0.5216  0.3186 -1.1513
 2586SOL     OW19390   4.151   1.658   4.633  0.3614  0.2002  0.1071
 2586SOL    HW119391   4.146   1.573   4.591  0.5473 -0.2649  1.0337
 2586SOL    HW219392   4.121   1.722   4.568  0.4812  0.2428  0.0936
 2587SOL     OW19393   4.711   1.865   5.878 -0.9566 -0.1657 -0.0485
 2587SOL    HW119394   0.011   1.923   5.811  0.0221  0.4294  0.9776
 2587SOL    HW219395   0.028   1.890   5.954 -0.8779 -0.2501 -0.0761
 2588SOL     OW19396   4.651   1.891   4.292 -0.3150  0.0577  0.2221
 2588SOL    HW119397   4.601   1.810   4.304  0.0588 -0.1766  0.2070
 2588SOL    HW219398   4.586   1.948   4.251 -0.6540 -0.2510  0.3220
 2589SOL     OW19399   2.004   4.155   2.928  0.7775 -0.1864  0.2397
 2589SOL    HW119400   1.932   4.188   2.981 -0.0091  0.8097 -1.4617
 2589SOL    HW219401   2.076   4.180   2.987  0.3247  0.5838  0.4564
 2590SOL     OW19402   2.003   0.667   8.937  0.0457  0.2686  0.5810
 2590SOL    HW119403   1.999   0.754   8.899  2.7335  0.9606  1.9130
 2590SOL    HW219404   1.909   0.647   8.944 -0.1752  0.2167 -2.4446
 2591SOL     OW19405   4.591   4.395   4.023  0.3980  0.3279  0.0264
 2591SOL    HW119406   4.629   4.379   4.109  0.3112 -1.3661 -0.2428
 2591SOL    HW219407   4.601   4.490   4.024 -0.0875  0.4056 -1.7085
 2592SOL     OW19408   3.149   4.270   3.032  0.4421  0.1635 -0.3121
 2592SOL    HW119409   3.123   4.228   3.114 -1.3250  1.8327 -0.0328
 2592SOL    HW219410   3.203   4.346   3.055  0.4184 -0.7021  2.5845
 2593SOL     OW19411   1.776   1.050   4.013 -0.5644 -0.3120  0.4794
 2593SOL    HW119412   1.867   1.066   4.039 -0.0561 -2.3964 -0.0218
 2593SOL    HW219413   1.758   1.143   4.001  0.1887 -0.4798 -2.0206
 2594SOL     OW19414   3.656   4.326   6.051 -0.6359  0.3480 -0.1533
 2594SOL    HW119415   3.752   4.323   6.044 -0.7287 -1.7796 -0.4892
 2594SOL    HW219416   3.648   4.265   6.123 -1.4383  0.5075 -0.1087
 2595SOL     OW19417   0.837   1.459   6.388  0.4667 -0.5189 -0.2971
 2595SOL    HW119418   0.789   1.496   6.314 -0.5164 -1.6923 -0.2422
 2595SOL    HW219419   0.806   1.500   6.469  0.0512 -0.4358 -0.5011
 2596SOL     OW19420   4.345   0.663   6.075  0.0374 -0.7580  0.2229
 2596SOL    HW119421   4.416   0.622   6.027 -0.4026 -0.9641 -0.2422
 2596SOL    HW219422   4.271   0.609   6.048 -0.6232  0.4938 -0.4904
 2597SOL     OW19423   4.689   2.539   8.981 -0.3426 -0.1556 -0.2152
 2597SOL    HW119424   4.671   2.577   9.066 -1.2638  0.9379 -0.9045
 2597SOL    HW219425   4.648   2.453   8.990 -0.2148 -0.0521  1.3603
 2598SOL     OW19426   2.005   2.620  15.037  0.3935  0.2006 -0.1017
 2598SOL    HW119427   2.035   2.649  14.951 -0.3285  0.7136 -0.1760
 2598SOL    HW219428   2.081   2.569  15.065 -0.9320 -1.4781  0.4748
 2599SOL     OW19429   4.078   0.323   5.406 -0.4192  0.6559 -0.4207
 2599SOL    HW119430   4.115   0.348   5.491 -0.5195  1.8785 -0.7462
 2599SOL    HW219431   4.008   0.385   5.388  0.7850  1.1454 -3.3043
 2600SOL     OW19432   1.548   2.148  15.011  0.5849 -0.1330  0.0049
 2600SOL    HW119433   1.579   2.134  14.921  1.8043  1.4778  0.1695
 2600SOL    HW219434   1.603   2.076  15.042  1.3595  0.1992 -0.5875
 2601SOL     OW19435   1.249   1.189   9.277  0.2756  0.6526  0.3998
 2601SOL    HW119436   1.291   1.275   9.287  0.0611  1.0220 -1.8792
 2601SOL    HW219437   1.188   1.183   9.350 -1.4010  2.0952 -0.8893
 2602SOL     OW19438   2.920   3.954   8.848  0.1597 -0.0600  0.0888
 2602SOL    HW119439   2.853   3.887   8.861 -1.3567  1.2950 -0.8235
 2602SOL    HW219440   2.878   4.000   8.776  1.5160 -0.3272 -0.8743
 2603SOL     OW19441   4.562   2.671   3.000 -0.0280  0.2588  0.0871
 2603SOL    HW119442   4.605   2.700   3.081 -0.0773  0.6416 -0.0233
 2603SOL    HW219443   4.515   2.747   2.965 -1.7116 -0.3202  1.1036
 2604SOL     OW19444   0.640   4.292   2.074 -0.3027  0.0025  0.4667
 2604SOL    HW119445   0.622   4.332   2.159 -0.0961  0.8848  0.0924
 2604SOL    HW219446   0.734   4.273   2.079 -0.7541 -1.9822  1.3460
 2605SOL     OW19447   3.077   2.516  14.603  0.2290 -0.1952  0.2229
 2605SOL    HW119448   3.007   2.582  14.600  0.1223 -0.4293 -2.5218
 2605SOL    HW219449   3.130   2.550  14.531  1.2170  0.6471  1.3431
 2606SOL     OW19450   1.111   0.213   7.125 -0.1418 -0.1309 -0.3311
 2606SOL    HW119451   1.130   0.295   7.170 -0.5620  0.2188 -0.7970
 2606SOL    HW219452   1.016   0.205   7.132  0.0273 -1.5835  0.3683
 2607SOL     OW19453   1.133   1.436  13.183  0.2552 -1.0744 -0.0714
 2607SOL    HW119454   1.103   1.348  13.207 -1.8203 -0.6493 -1.1184
 2607SOL    HW219455   1.140   1.468  13.273  2.0502 -0.0225 -0.5791
 2608SOL     OW19456   4.433   3.509   2.463  0.5675  0.3720 -0.8250
 2608SOL    HW119457   4.430   3.589   2.516  1.4624 -0.4430  0.4572
 2608SOL    HW219458   4.496   3.463   2.518 -0.4493  0.5722  0.5218
 2609SOL     OW19459   1.925   1.504   9.385  0.0774  0.0403 -1.1016
 2609SOL    HW119460   1.996   1.477   9.326 -1.8218 -0.4133 -3.1615
 2609SOL    HW219461   1.919   1.597   9.361  1.4689 -0.2025 -2.4166
 2610SOL     OW19462   3.092   0.159   8.654 -0.0080 -0.0366 -0.3346
 2610SOL    HW119463   3.071   0.219   8.725 -2.1578 -0.0055 -1.0076
 2610SOL    HW219464   3.053   0.076   8.681  0.0605 -0.1995 -0.7406
 2611SOL     OW19465   1.105   1.211  10.557  0.0889 -0.5125  0.5784
 2611SOL    HW119466   1.065   1.165  10.631  0.8070  1.3036  2.0945
 2611SOL    HW219467   1.028   1.258  10.526 -0.1446 -0.5426  1.1173
 2612SOL     OW19468   4.057   0.051   7.795  0.0068  0.2430 -0.0687
 2612SOL    HW119469   4.072   0.049   7.890 -0.7475  0.7381  0.0627
 2612SOL    HW219470   4.130   0.105   7.764 -0.9393 -0.0664 -2.8396
 2613SOL     OW19471   3.850   3.155   0.268  0.0718  0.4615 -0.3302
 2613SOL    HW119472   3.906   3.175   0.193 -0.4234  1.3632 -0.4673
 2613SOL    HW219473   3.901   3.082   0.305  1.3858  1.2155 -0.6314
 2614SOL     OW19474   3.925   1.479   1.713 -0.2712 -0.4452 -0.0210
 2614SOL    HW119475   3.888   1.406   1.762 -1.5551  0.8788  0.9733
 2614SOL    HW219476   4.017   1.454   1.709 -0.4347 -1.1658  0.9885
 2615SOL     OW19477   3.160   1.150  14.758  0.3048  0.2518 -0.2358
 2615SOL    HW119478   3.181   1.057  14.749 -1.1640 -0.1039  0.1115
 2615SOL    HW219479   3.117   1.179  14.678  1.0229  1.6862 -0.1073
 2616SOL     OW19480   0.579   2.959   2.530  0.3635 -0.0431 -0.3798
 2616SOL    HW119481   0.657   2.914   2.561  1.7368  1.4920 -1.6386
 2616SOL    HW219482   0.588   3.044   2.573 -0.8865 -0.9851  1.7612
 2617SOL     OW19483   3.001   4.145  12.258 -0.6071  0.2277  0.1507
 2617SOL    HW119484   2.916   4.138  12.215 -0.4843  1.3847 -0.2789
 2617SOL    HW219485   3.005   4.239  12.273  2.8308  0.2161 -0.7056
 2618SOL     OW19486   2.195   2.415   5.557  0.5984  0.6187  0.1500
 2618SOL    HW119487   2.184   2.477   5.629 -2.1354  0.6801 -0.3209
 2618SOL    HW219488   2.109   2.408   5.515  0.4558  0.5838  0.4536
 2619SOL     OW19489   2.387   1.796   6.060 -0.0771 -0.7509 -0.0409
 2619SOL    HW119490   2.385   1.891   6.071  2.0389 -0.9093  1.6406
 2619SOL    HW219491   2.343   1.772   6.142 -0.2821  0.5860  0.2451
 2620SOL     OW19492   2.042   4.104   6.072 -0.5158 -0.3190 -0.2211
 2620SOL    HW119493   2.089   4.185   6.096  1.2666 -0.7984 -2.1026
 2620SOL    HW219494   1.985   4.132   6.001 -1.5158 -0.9750  0.3227
 2621SOL     OW19495   0.692   0.178   8.435  0.2941  0.1329  0.3986
 2621SOL    HW119496   0.659   0.224   8.358  0.2448 -0.2960  0.1655
 2621SOL    HW219497   0.715   0.254   8.489  3.0288  0.3499 -1.0558
 2622SOL     OW19498   2.566   2.175  16.691 -0.2960 -0.1153  0.4697
 2622SOL    HW119499   2.608   2.256  16.720 -0.3632  0.0244  0.1754
 2622SOL    HW219500   2.639   2.121  16.721 -0.7028 -0.5466  0.6787
 2623SOL     OW19501   4.522   0.047   7.309  0.3583 -0.6933 -0.5244
 2623SOL    HW119502   4.509   4.715   7.376 -2.2300 -0.1156 -0.4449
 2623SOL    HW219503   4.437   0.052   7.265  0.2534 -0.8733 -0.3438
 2624SOL     OW19504   3.268   2.196   3.284  0.0004  0.8807  0.2097
 2624SOL    HW119505   3.217   2.272   3.314 -2.0280 -0.0496 -0.9128
 2624SOL    HW219506   3.267   2.209   3.189  0.1143 -2.3699 -0.2310
 2625SOL     OW19507   2.361   3.689  12.592  0.0195 -0.1997 -0.0963
 2625SOL    HW119508   2.324   3.749  12.657 -1.3884  0.4797 -1.5181
 2625SOL    HW219509   2.323   3.607  12.624 -1.2787 -0.4839 -2.3659
 2626SOL     OW19510   3.845   1.439   6.192 -0.0158  0.2232 -0.6374
 2626SOL    HW119511   3.752   1.422   6.171  0.3915  2.0457 -3.9429
 2626SOL    HW219512   3.880   1.350   6.180 -0.0395  0.5587 -3.2045
 2627SOL     OW19513   3.607   0.228   8.815  0.6959  0.5129 -0.3399
 2627SOL    HW119514   3.610   0.270   8.729  0.7302  0.0369 -0.5703
 2627SOL    HW219515   3.520   0.194   8.835  1.1369 -0.2765  0.2414
 2628SOL     OW19516   0.527   2.470   2.490  0.2562 -0.5887  0.1326
 2628SOL    HW119517   0.511   2.463   2.584  0.4598 -2.0844  0.0526
 2628SOL    HW219518   0.506   2.563   2.479 -1.3613 -0.6130  3.0065
 2629SOL     OW19519   4.201   4.047  12.332 -0.8026 -0.2425  0.7337
 2629SOL    HW119520   4.263   4.102  12.283  0.5882 -1.2268  1.4176
 2629SOL    HW219521   4.257   3.989  12.383  1.4135  0.0768 -1.3506
 2630SOL     OW19522   2.192   1.357   2.621  0.0633 -0.9511 -0.2748
 2630SOL    HW119523   2.125   1.386   2.560  0.3230 -0.7794 -0.4761
 2630SOL    HW219524   2.243   1.298   2.565  0.1219 -0.1729 -1.0343
 2631SOL     OW19525   3.354   0.426   6.605  0.7458  0.2606 -0.0559
 2631SOL    HW119526   3.421   0.494   6.610  0.8600  0.0959  0.6741
 2631SOL    HW219527   3.401   0.364   6.662 -0.1092  1.2124  1.7049
 2632SOL     OW19528   3.098   0.015   4.606  0.8241 -0.4638  0.6297
 2632SOL    HW119529   3.169   0.016   4.670  1.4342 -0.0274 -0.0483
 2632SOL    HW219530   3.034   0.059   4.662  0.2196 -1.6912  0.8861
 2633SOL     OW19531   4.454   1.237   7.376 -0.1148  0.2419  0.3240
 2633SOL    HW119532   4.412   1.318   7.351  3.9629  1.2555 -3.3023
 2633SOL    HW219533   4.383   1.177   7.400 -0.9225  1.0352 -0.1146
 2634SOL     OW19534   3.378   2.856   4.503  0.1709  0.2479  0.0265
 2634SOL    HW119535   3.383   2.898   4.417  2.3740 -0.4339 -0.1807
 2634SOL    HW219536   3.429   2.777   4.483 -0.5509 -0.2355  0.0986
 2635SOL     OW19537   0.303   2.341  14.883 -0.1608  0.0083 -0.0042
 2635SOL    HW119538   0.387   2.347  14.928  1.9065 -0.2939 -3.7966
 2635SOL    HW219539   0.313   2.257  14.838  1.3049 -0.2423  0.8004
 2636SOL     OW19540   3.319   0.269   4.942  0.2783 -0.3154 -0.1434
 2636SOL    HW119541   3.342   0.178   4.921  0.5813 -0.2859  0.0614
 2636SOL    HW219542   3.269   0.286   4.862  2.5290  1.0202 -1.2642
 2637SOL     OW19543   2.882   2.666   3.962 -0.4648  0.1632 -0.3936
 2637SOL    HW119544   2.925   2.582   3.950 -3.7163 -1.2844 -1.8951
 2637SOL    HW219545   2.869   2.707   3.877 -1.9723  0.0563 -0.2190
 2638SOL     OW19546   2.461   4.121   5.760 -0.2662 -0.4313  0.0641
 2638SOL    HW119547   2.440   4.187   5.825  0.4027 -1.2310  1.0910
 2638SOL    HW219548   2.382   4.103   5.710  2.0160 -1.6654 -3.1028
 2639SOL     OW19549   3.685   2.441  16.591 -0.2744 -0.1662 -0.4426
 2639SOL    HW119550   3.722   2.486  16.515 -0.9112  1.5105  0.2412
 2639SOL    HW219551   3.643   2.522  16.620 -0.9615 -0.3449 -0.9250
 2640SOL     OW19552   2.350   3.551   8.954 -0.0438 -0.5988 -0.2770
 2640SOL    HW119553   2.307   3.472   8.986 -0.1255  0.7685  3.0496
 2640SOL    HW219554   2.413   3.516   8.891 -0.3022 -0.6134 -0.5267
 2641SOL     OW19555   3.199   4.700   4.145 -0.3943  0.1783 -0.3600
 2641SOL    HW119556   3.165   4.644   4.215  0.3846  0.4195  0.1995
 2641SOL    HW219557   3.132   4.692   4.077  0.4551 -1.2592 -1.0157
 2642SOL     OW19558   3.825   1.491   8.278  0.3976  0.3423  0.1074
 2642SOL    HW119559   3.837   1.478   8.184  2.3636 -2.3313  0.7367
 2642SOL    HW219560   3.744   1.445   8.302  0.9657 -0.3233  0.7440
 2643SOL     OW19561   3.965   2.070   9.075  0.3311 -0.2039 -0.2829
 2643SOL    HW119562   4.042   2.028   9.038 -0.2133 -0.9000 -0.6283
 2643SOL    HW219563   3.922   2.120   9.006  0.6865 -0.9925 -1.0655
 2644SOL     OW19564   0.611   4.665  16.220 -0.6673  1.1602 -0.0176
 2644SOL    HW119565   0.630   0.001  16.159 -0.1152  1.1109  0.0929
 2644SOL    HW219566   0.518   4.674  16.240 -1.7195 -1.5433 -3.5618
 2645SOL     OW19567   2.351   0.242   9.725 -0.0783  0.1759  0.1099
 2645SOL    HW119568   2.314   0.154   9.719 -2.4430  1.0657  1.4600
 2645SOL    HW219569   2.269   0.291   9.735 -0.3586 -0.3732  0.4917
 2646SOL     OW19570   1.155   2.619   7.519  0.2413 -0.3965  0.1577
 2646SOL    HW119571   1.169   2.622   7.613 -1.4772 -1.4798  0.4334
 2646SOL    HW219572   1.201   2.540   7.489  1.1663 -0.6383  2.2383
 2647SOL     OW19573   3.599   3.215   3.930  1.0902 -0.0251 -0.0702
 2647SOL    HW119574   3.526   3.171   3.886  0.0743  1.2812  0.2937
 2647SOL    HW219575   3.668   3.151   3.909  0.6876 -0.5102  0.0851
 2648SOL     OW19576   1.710   0.533   8.260 -0.1141  0.8191  0.1266
 2648SOL    HW119577   1.707   0.492   8.346  0.4634  1.1134  0.2854
 2648SOL    HW219578   1.748   0.455   8.219 -2.2481  0.6109 -1.4235
 2649SOL     OW19579   2.723   4.438   3.451  0.0176  0.2286 -0.4878
 2649SOL    HW119580   2.695   4.516   3.500 -2.5192 -0.1778 -1.2753
 2649SOL    HW219581   2.818   4.448   3.449 -0.0423  0.7476 -0.7685
 2650SOL     OW19582   3.109   4.222  10.750  0.4977  0.2033  0.0449
 2650SOL    HW119583   3.028   4.203  10.798 -0.0816 -0.1974 -1.0979
 2650SOL    HW219584   3.178   4.196  10.810  0.5816 -0.9317 -0.5422
 2651SOL     OW19585   2.120   2.865   3.413 -0.1223 -0.5544  0.4410
 2651SOL    HW119586   2.109   2.930   3.482  0.7446  0.1533 -0.0829
 2651SOL    HW219587   2.201   2.897   3.373 -1.1174 -0.2212 -1.3149
 2652SOL     OW19588   3.549   2.258   7.973 -0.5434  0.3552  0.1448
 2652SOL    HW119589   3.565   2.165   7.989  2.8713  0.8960 -0.0509
 2652SOL    HW219590   3.483   2.258   7.903 -0.3755 -1.5998  0.0042
 2653SOL     OW19591   0.021   1.317   6.272  0.1541 -0.1703 -0.1926
 2653SOL    HW119592   0.067   1.242   6.309 -0.0315 -0.8488 -1.3324
 2653SOL    HW219593   4.669   1.278   6.270 -0.2709  0.6549  1.5463
 2654SOL     OW19594   1.948   0.559   3.726 -0.5591 -0.4568  0.5716
 2654SOL    HW119595   2.033   0.515   3.729 -0.4924 -0.4127 -0.7791
 2654SOL    HW219596   1.975   0.651   3.732  0.6113 -0.7668  0.0010
 2655SOL     OW19597   4.428   4.572   4.847 -0.1793 -0.6495 -0.2093
 2655SOL    HW119598   4.455   4.482   4.864 -1.1304 -0.4043  2.6515
 2655SOL    HW219599   4.351   4.572   4.790 -0.1809  1.0212 -0.2144
 2656SOL     OW19600   1.676   2.436  12.661  0.3472 -0.4124  0.2128
 2656SOL    HW119601   1.763   2.478  12.660 -1.0539  2.4638 -0.2319
 2656SOL    HW219602   1.649   2.439  12.753 -1.3893  1.1629 -0.3559
 2657SOL     OW19603   0.284   3.335   2.098  0.1957  0.1145  0.4250
 2657SOL    HW119604   0.353   3.293   2.046 -0.7952 -2.0612  0.8761
 2657SOL    HW219605   0.285   3.281   2.178  1.9560 -0.5719 -0.0362
 2658SOL     OW19606   0.693   3.113   4.224 -0.4006  0.7243  0.4577
 2658SOL    HW119607   0.685   3.063   4.306 -0.3126  2.5625  1.5723
 2658SOL    HW219608   0.660   3.048   4.162  0.7739  0.5560  0.0057
 2659SOL     OW19609   0.806   2.812  16.856 -0.0431  0.5576  0.1968
 2659SOL    HW119610   0.873   2.837  16.920  0.7120 -2.7681  0.7041
 2659SOL    HW219611   0.867   2.768  16.797  1.6485  0.8533  1.7136
 2660SOL     OW19612   4.678   3.713   2.880  0.4524 -0.8527 -0.2121
 2660SOL    HW119613   4.688   3.804   2.909  0.9708 -1.1588  0.5604
 2660SOL    HW219614   4.677   3.729   2.785 -1.4915 -1.6295 -0.3299
 2661SOL     OW19615   3.701   1.130   2.348  0.1365  0.4953 -0.3834
 2661SOL    HW119616   3.654   1.060   2.393  0.5146  0.1782 -0.4781
 2661SOL    HW219617   3.791   1.105   2.370 -1.1604 -1.5525  2.5468
 2662SOL     OW19618   3.671   2.213   3.607  0.4692  0.0892 -0.2642
 2662SOL    HW119619   3.631   2.130   3.632 -2.2600  1.5057  0.1531
 2662SOL    HW219620   3.763   2.187   3.604  0.0405 -1.5194  0.7259
 2663SOL     OW19621   2.266   2.872   7.347  0.3690  0.2575  0.1599
 2663SOL    HW119622   2.333   2.865   7.279  0.6894  0.6627  0.4362
 2663SOL    HW219623   2.241   2.780   7.353 -0.0020  0.2370 -1.5286
 2664SOL     OW19624   3.968   4.614   5.183  0.2001  0.5921  0.2697
 2664SOL    HW119625   3.911   4.567   5.243 -0.9040  1.7445  0.0954
 2664SOL    HW219626   3.977   4.550   5.112  0.4039  1.1231 -0.1793
 2665SOL     OW19627   2.937   1.558   5.271  0.2069  0.1202 -0.9970
 2665SOL    HW119628   3.016   1.573   5.218  1.5116 -1.0635  0.6060
 2665SOL    HW219629   2.897   1.644   5.280  1.1562  0.3229  1.1691
 2666SOL     OW19630   3.303   1.393   4.895 -0.2530  0.3707 -0.0918
 2666SOL    HW119631   3.385   1.351   4.922 -0.9999 -0.8638  0.2622
 2666SOL    HW219632   3.265   1.395   4.983  0.6953  3.6951  0.2316
 2667SOL     OW19633   0.627   4.658   3.448  0.2448  0.8083 -0.6010
 2667SOL    HW119634   0.593   4.618   3.528 -0.2994  0.4694 -1.0010
 2667SOL    HW219635   0.722   4.655   3.454  0.2206 -0.5158 -1.0346
 2668SOL     OW19636   2.291   4.615   3.742  0.5727  0.1181 -0.1140
 2668SOL    HW119637   2.321   4.637   3.654  1.7839 -0.8727  0.0524
 2668SOL    HW219638   2.222   4.553   3.719 -0.3165  1.1559 -0.2038
 2669SOL     OW19639   0.479   3.661   7.987 -0.0240  0.3730 -0.7519
 2669SOL    HW119640   0.475   3.746   8.030  1.1892  0.5693 -1.0351
 2669SOL    HW219641   0.396   3.628   8.022  0.4744  0.1957  0.2646
 2670SOL     OW19642   2.058   1.619   7.980  0.2834 -0.4712  0.3510
 2670SOL    HW119643   2.033   1.645   7.891  0.4862  1.1165  0.7722
 2670SOL    HW219644   2.146   1.653   7.992  0.1705 -0.2305  0.5053
 2671SOL     OW19645   0.724   0.787   6.946  0.5116 -0.1820 -0.4181
 2671SOL    HW119646   0.686   0.756   6.863 -0.8833 -1.4130  0.6719
 2671SOL    HW219647   0.803   0.828   6.912  0.2526  1.3060  0.7781
 2672SOL     OW19648   4.115   3.838   5.179  0.0821 -0.0973 -0.1815
 2672SOL    HW119649   4.020   3.836   5.183  0.0753  0.3022 -0.1859
 2672SOL    HW219650   4.121   3.890   5.099  2.6991 -0.1614 -0.0287
 2673SOL     OW19651   2.929   1.984   3.515  0.1914 -0.2585  0.1813
 2673SOL    HW119652   2.861   2.020   3.573  0.6475  1.6976 -0.4874
 2673SOL    HW219653   2.924   2.048   3.444  1.7901  0.9034  1.1221
 2674SOL     OW19654   2.490   0.083   6.275 -0.5338  0.0616 -0.2921
 2674SOL    HW119655   2.460   0.016   6.213 -0.3970 -0.7774  0.5489
 2674SOL    HW219656   2.583   0.093   6.254 -0.3648  0.0276  0.4613
 2675SOL     OW19657   0.166   1.660   4.172 -0.1691  0.3785  0.0358
 2675SOL    HW119658   0.261   1.660   4.174 -0.0815 -2.6229 -3.1916
 2675SOL    HW219659   0.148   1.742   4.217 -1.2352 -0.0080  0.3209
 2676SOL     OW19660   4.463   3.276   2.883  1.1998 -0.3543  0.6842
 2676SOL    HW119661   4.455   3.364   2.848 -1.9365 -0.8470  0.1491
 2676SOL    HW219662   4.398   3.233   2.828  2.8360 -0.2087 -1.3510
 2677SOL     OW19663   4.166   1.644   8.833  0.0694 -0.3634  0.1740
 2677SOL    HW119664   4.241   1.665   8.778  0.6002 -1.0140  0.6429
 2677SOL    HW219665   4.200   1.563   8.873  1.0812  0.8762  1.8078
 2678SOL     OW19666   1.550   0.396  16.836 -0.0060  0.4350 -0.2775
 2678SOL    HW119667   1.634   0.350  16.833 -0.3053 -0.2125  1.6941
 2678SOL    HW219668   1.518   0.365  16.920 -0.8982  0.5212 -0.5891
 2679SOL     OW19669   0.638   3.880   7.262  0.4857  0.5867  0.5946
 2679SOL    HW119670   0.672   3.791   7.261  0.1215  0.4308  1.9642
 2679SOL    HW219671   0.721   3.927   7.262  1.5294 -1.2820 -0.2321
 2680SOL     OW19672   3.637   1.663  10.633 -0.1791 -0.0279 -0.1680
 2680SOL    HW119673   3.577   1.624  10.569  0.2319  0.4951 -0.8847
 2680SOL    HW219674   3.590   1.641  10.713  1.6197  2.9105  1.6961
 2681SOL     OW19675   1.248   0.632   4.530 -0.6722 -0.1522  0.1099
 2681SOL    HW119676   1.303   0.693   4.480 -0.2622 -1.3894 -0.9404
 2681SOL    HW219677   1.270   0.659   4.619 -1.7077  1.1842 -0.0333
 2682SOL     OW19678   2.055   2.085   7.209 -0.3565 -0.2937 -0.1825
 2682SOL    HW119679   2.026   1.994   7.213 -1.9401  0.3058  1.7099
 2682SOL    HW219680   2.145   2.086   7.243 -0.2099  0.3646 -0.6055
 2683SOL     OW19681   3.330   0.079   5.786 -0.2323  0.7838  0.1951
 2683SOL    HW119682   3.403   0.076   5.849 -1.7138  0.1372  1.8602
 2683SOL    HW219683   3.268   0.020   5.827  0.7840 -0.4951 -0.1141
 2684SOL     OW19684   4.285   4.164   3.116 -0.4752  0.7115  0.2821
 2684SOL    HW119685   4.325   4.162   3.203 -0.5363  4.3068  0.3825
 2684SOL    HW219686   4.191   4.173   3.132 -0.1929 -0.8025  2.7195
 2685SOL     OW19687   3.647   3.210   6.471 -0.5993  0.6471  0.2551
 2685SOL    HW119688   3.615   3.122   6.455 -0.9238  0.2329  3.1939
 2685SOL    HW219689   3.734   3.196   6.433 -1.0130 -0.0516 -0.4228
 2686SOL     OW19690   2.815   0.226  11.280  0.0983 -0.3724 -0.0537
 2686SOL    HW119691   2.789   0.143  11.239 -1.4638  0.0960 -0.0136
 2686SOL    HW219692   2.869   0.202  11.355 -0.9456  2.2279  1.5065
 2687SOL     OW19693   4.608   4.518   2.953  0.1340  0.6393 -0.4383
 2687SOL    HW119694   4.637   4.609   2.962  1.8138  0.1037 -0.4336
 2687SOL    HW219695   4.656   4.495   2.874  0.4038 -1.4128  0.3359
 2688SOL     OW19696   0.833   0.863  14.916 -0.3775  0.5352  0.0441
 2688SOL    HW119697   0.810   0.839  14.826  1.8202 -1.1227 -0.0611
 2688SOL    HW219698   0.768   0.931  14.936 -0.8630 -0.3857  1.5880
 2689SOL     OW19699   2.559   1.716   8.872 -0.1272  0.1894 -0.3400
 2689SOL    HW119700   2.548   1.723   8.777 -2.9250 -2.5676 -0.2472
 2689SOL    HW219701   2.572   1.621   8.879 -0.1692  0.2755  0.9942
 2690SOL     OW19702   1.940   1.934   9.077  0.0592  0.5059 -0.0614
 2690SOL    HW119703   1.859   1.904   9.120  0.2392  0.7033  0.4173
 2690SOL    HW219704   1.992   1.854   9.080  0.8900  1.0308 -0.6840
 2691SOL     OW19705   1.067   3.343  15.376 -0.3004 -0.1425  0.1430
 2691SOL    HW119706   1.122   3.335  15.454  1.4816  0.5290 -1.0432
 2691SOL    HW219707   1.118   3.394  15.313 -1.0208 -0.0572 -0.3776
 2692SOL     OW19708   0.616   1.447   4.238  0.2607 -0.2776 -0.7622
 2692SOL    HW119709   0.701   1.437   4.195  0.9053  0.2076  0.3754
 2692SOL    HW219710   0.620   1.367   4.291 -1.8004 -0.1803 -0.4635
 2693SOL     OW19711   2.975   4.602   7.182 -0.7368 -0.5176 -0.5573
 2693SOL    HW119712   3.060   4.594   7.140 -0.1516  2.0612  0.0926
 2693SOL    HW219713   2.995   4.631   7.271 -1.8907 -1.1934 -0.0827
 2694SOL     OW19714   2.208   2.157   3.369  0.2523 -0.2585  0.6647
 2694SOL    HW119715   2.212   2.114   3.283 -0.6430 -0.6135  0.8007
 2694SOL    HW219716   2.259   2.092   3.417 -0.0327  0.3635  1.8127
 2695SOL     OW19717   0.597   0.009   5.107 -0.6409  0.0093  0.1513
 2695SOL    HW119718   0.540   4.685   5.156  0.2641 -1.5146 -0.6630
 2695SOL    HW219719   0.640   0.059   5.177  1.0122 -1.1357 -0.0621
 2696SOL     OW19720   2.313   0.310   7.685 -0.2296  0.2060 -0.1433
 2696SOL    HW119721   2.368   0.311   7.764 -0.5750  2.2418  0.0749
 2696SOL    HW219722   2.294   0.217   7.670 -1.4045  0.5152 -0.5487
 2697SOL     OW19723   3.826   1.140   9.351 -0.2887  0.2515  0.0133
 2697SOL    HW119724   3.751   1.154   9.408  0.4171 -1.1714  1.3038
 2697SOL    HW219725   3.793   1.150   9.262  0.8322 -0.5979 -0.5066
 2698SOL     OW19726   0.993   0.719   4.690  0.0622 -0.0612 -0.0069
 2698SOL    HW119727   0.933   0.656   4.650  0.2978 -0.6743  0.6053
 2698SOL    HW219728   1.079   0.681   4.671  0.0699 -0.5205  0.9351
 2699SOL     OW19729   4.345   1.002   5.132 -0.0050  0.1505  0.5974
 2699SOL    HW119730   4.263   0.965   5.164  0.7513 -1.4951  0.6421
 2699SOL    HW219731   4.360   1.080   5.186 -2.3758 -0.5896  2.2753
 2700SOL     OW19732   0.200   0.426   8.652 -0.0705 -0.1665 -0.5063
 2700SOL    HW119733   0.230   0.347   8.698  1.2870  0.9411  0.5307
 2700SOL    HW219734   0.203   0.407   8.559 -3.3294 -1.5291 -0.3296
 2701SOL     OW19735   3.151   0.851   8.375  0.1757  0.1779 -0.5325
 2701SOL    HW119736   3.137   0.757   8.384  0.0889  0.1904 -0.5366
 2701SOL    HW219737   3.075   0.894   8.415 -0.7616  0.1617 -2.2448
 2702SOL     OW19738   3.883   1.827   2.986  0.1904  0.2084  0.3259
 2702SOL    HW119739   3.824   1.883   3.036  1.5916  0.8762  1.2523
 2702SOL    HW219740   3.831   1.799   2.911  1.1627  1.3935 -0.7844
 2703SOL     OW19741   2.883   0.659   4.016 -0.7145 -0.0455  0.1886
 2703SOL    HW119742   2.881   0.633   4.108  0.0863  1.2248  0.5549
 2703SOL    HW219743   2.967   0.630   3.980  0.0447  2.3786  0.0655
 2704SOL     OW19744   1.830   1.192   0.403 -0.2183 -0.6565 -0.1822
 2704SOL    HW119745   1.829   1.194   0.307 -0.0638  1.3238 -0.1388
 2704SOL    HW219746   1.783   1.268   0.438  0.4360 -1.0377  1.5332
 2705SOL     OW19747   1.367   1.314   5.582 -0.2004  0.1289 -0.5977
 2705SOL    HW119748   1.345   1.350   5.668  2.3922 -1.9172  0.9364
 2705SOL    HW219749   1.315   1.233   5.590  1.8877 -1.4240 -2.6433
 2706SOL     OW19750   1.522   1.064   5.447  0.2516  0.0341  0.1859
 2706SOL    HW119751   1.508   1.014   5.367 -1.0971 -0.8926  1.0084
 2706SOL    HW219752   1.490   1.153   5.429 -3.4428 -1.3803 -0.1331
 2707SOL     OW19753   0.542   2.102   6.843 -0.0207  0.1093 -0.0536
 2707SOL    HW119754   0.548   2.109   6.748  1.6950 -1.2036 -0.0360
 2707SOL    HW219755   0.597   2.027   6.864  0.2495 -0.4376 -2.7344
 2708SOL     OW19756   2.402   3.144  11.945  0.0228 -0.5083 -0.2866
 2708SOL    HW119757   2.361   3.081  11.885  1.7885 -0.9566 -1.0100
 2708SOL    HW219758   2.461   3.178  11.878 -1.2564 -0.7255 -1.5209
 2709SOL     OW19759   0.221   1.291  12.744 -0.5187  0.0720  0.2351
 2709SOL    HW119760   0.220   1.385  12.725 -1.6302 -0.0807 -0.4660
 2709SOL    HW219761   0.143   1.269  12.694 -0.5198  2.3813 -0.7963
 2710SOL     OW19762   0.523   0.871   7.858  0.2619  0.0264  0.1345
 2710SOL    HW119763   0.494   0.956   7.824  0.5030 -0.7525 -2.0042
 2710SOL    HW219764   0.617   0.876   7.837  0.4789  0.6392  1.2321
 2711SOL     OW19765   4.491   2.057   0.166  0.2212 -0.5051 -0.5636
 2711SOL    HW119766   4.429   2.114   0.211 -0.4425 -1.4466 -0.2790
 2711SOL    HW219767   4.526   2.118   0.101  1.6155  0.1843  0.8330
 2712SOL     OW19768   0.023   0.609  11.948  0.3777 -0.2823  0.3175
 2712SOL    HW119769   0.070   0.608  11.864 -0.6248 -0.5265 -0.2375
 2712SOL    HW219770   0.095   0.643  12.002  1.0093 -0.7101 -0.2554
 2713SOL     OW19771   2.723   3.912   8.130  0.4186 -0.3686  0.7220
 2713SOL    HW119772   2.710   3.902   8.224 -3.0614  0.5443  0.3362
 2713SOL    HW219773   2.680   3.831   8.102  0.0322  1.3101 -3.5688
 2714SOL     OW19774   4.480   3.045   7.836  0.3418 -0.3966 -0.6068
 2714SOL    HW119775   4.460   3.009   7.749  1.8945 -0.6027 -0.8728
 2714SOL    HW219776   4.495   2.968   7.891 -1.4250  0.1175  0.6072
 2715SOL     OW19777   3.091   1.107  16.336 -0.1710 -0.4061  0.1539
 2715SOL    HW119778   3.077   1.112  16.241 -3.7136 -1.2245  0.6222
 2715SOL    HW219779   3.094   1.201  16.354 -0.2450 -0.5016  0.6670
 2716SOL     OW19780   4.119   0.871  12.526  0.6261  0.4664  0.0707
 2716SOL    HW119781   4.175   0.948  12.535  1.3274 -0.0122 -0.1936
 2716SOL    HW219782   4.136   0.842  12.436 -1.4616 -0.7279  0.0483
 2717SOL     OW19783   2.231   0.530   6.062 -0.8267  0.0448  0.0096
 2717SOL    HW119784   2.186   0.528   5.978  0.6720 -2.0950 -0.7508
 2717SOL    HW219785   2.173   0.472   6.111 -0.4465  0.9847  1.5923
 2718SOL     OW19786   1.765   2.324   2.543  0.0177  0.0591  0.1725
 2718SOL    HW119787   1.689   2.368   2.581 -1.0539 -0.3293 -1.5136
 2718SOL    HW219788   1.832   2.389   2.560 -2.2639  1.8888  2.1947
 2719SOL     OW19789   2.370   4.729   5.591 -0.4577  0.5439  0.1730
 2719SOL    HW119790   2.423   0.066   5.555  0.1780 -1.4192 -2.8199
 2719SOL    HW219791   2.284   0.036   5.594 -0.9398 -0.2128 -2.4573
 2720SOL     OW19792   1.998   2.616   2.978  0.0041  0.6421 -0.0515
 2720SOL    HW119793   1.953   2.699   2.961 -0.8502  0.2686  0.4053
 2720SOL    HW219794   1.927   2.552   2.982  0.6845 -0.2719 -2.4742
 2721SOL     OW19795   1.891   1.918   8.619 -0.0904 -0.2334 -0.4542
 2721SOL    HW119796   1.806   1.904   8.662 -2.1504  2.1185 -3.7522
 2721SOL    HW219797   1.924   1.828   8.626  0.0926 -0.1778 -0.6241
 2722SOL     OW19798   4.163   4.249  11.990 -0.5797  0.0443 -0.5576
 2722SOL    HW119799   4.252   4.213  11.982 -0.7945 -0.7387  0.6456
 2722SOL    HW219800   4.179   4.343  12.002 -1.7304  0.5174 -2.6598
 2723SOL     OW19801   3.101   2.170   3.729  0.1247  0.2133  0.1989
 2723SOL    HW119802   3.152   2.105   3.680  0.2435  0.0775  0.5020
 2723SOL    HW219803   3.150   2.173   3.811 -1.0834  0.7158  0.9036
 2724SOL     OW19804   1.689   2.080  11.320 -0.1965  0.0393 -0.3898
 2724SOL    HW119805   1.594   2.088  11.311 -0.4566 -0.8889  1.4604
 2724SOL    HW219806   1.715   2.085  11.228 -1.3041  0.7109 -0.6754
 2725SOL     OW19807   4.089   4.412   5.497 -0.5239 -0.0621  0.4112
 2725SOL    HW119808   4.041   4.344   5.450  2.2878 -0.6275 -1.6118
 2725SOL    HW219809   4.133   4.447   5.419 -1.6856 -0.8573 -0.6002
 2726SOL     OW19810   1.035   3.788   0.906  0.3176  0.5255  0.4058
 2726SOL    HW119811   1.127   3.765   0.920 -0.2553 -2.6569 -1.1228
 2726SOL    HW219812   1.005   3.715   0.852  1.1211  2.0390 -2.0952
 2727SOL     OW19813   0.620   3.978   2.582 -0.2319  0.0068 -0.3401
 2727SOL    HW119814   0.525   3.963   2.586 -0.8848  3.9440 -1.1419
 2727SOL    HW219815   0.659   3.899   2.619 -4.2705 -1.4939  0.6602
 2728SOL     OW19816   2.499   1.276  11.800 -0.2658  0.6797 -0.1159
 2728SOL    HW119817   2.553   1.309  11.872  0.6656 -0.2984 -0.3773
 2728SOL    HW219818   2.539   1.316  11.723 -1.7003 -0.1105 -1.2768
 2729SOL     OW19819   3.885   0.488   5.315  0.1181  0.2988  0.2324
 2729SOL    HW119820   3.875   0.567   5.261  0.6005 -1.3109 -2.2178
 2729SOL    HW219821   3.897   0.424   5.245 -0.1680 -1.3207  1.6550
 2730SOL     OW19822   1.869   3.782   5.073 -0.0614 -0.3419 -0.3100
 2730SOL    HW119823   1.793   3.729   5.098 -1.6123  1.9348 -0.1475
 2730SOL    HW219824   1.857   3.809   4.981  0.5275 -1.5936 -0.7555
 2731SOL     OW19825   0.368   0.020   8.923  0.0281  0.0529 -0.0785
 2731SOL    HW119826   0.340   0.020   9.015 -0.0454  4.5849 -0.0672
 2731SOL    HW219827   0.447   4.702   8.928  0.3818  0.4976 -1.1672
 2732SOL     OW19828   0.433   1.545   6.911 -0.1345  0.0650  0.4342
 2732SOL    HW119829   0.460   1.635   6.932  1.8471 -0.8887  2.0246
 2732SOL    HW219830   0.418   1.512   6.999 -0.6917 -2.4841 -0.6093
 2733SOL     OW19831   0.593   1.432   9.644  0.4967  0.6199 -0.3888
 2733SOL    HW119832   0.638   1.495   9.702 -1.0317  0.5115  0.8978
 2733SOL    HW219833   0.557   1.367   9.704 -0.7586  0.1944 -1.6142
 2734SOL     OW19834   4.697   4.117  13.336 -0.8263 -0.1743  0.4110
 2734SOL    HW119835   4.633   4.185  13.315 -2.4763 -1.0980  2.4132
 2734SOL    HW219836   0.023   4.164  13.393 -0.3084  0.1259 -0.3884
 2735SOL     OW19837   0.975   3.238   7.121 -0.3228  0.0695  0.6565
 2735SOL    HW119838   1.015   3.317   7.157 -0.9079  1.2124 -1.1808
 2735SOL    HW219839   1.014   3.174   7.181  0.4907  0.6480  0.7500
 2736SOL     OW19840   4.732   4.175   0.428  0.2753  0.1406 -0.9764
 2736SOL    HW119841   0.091   4.162   0.435  0.4345  1.0278 -1.4461
 2736SOL    HW219842   4.717   4.175   0.333  0.2737 -2.2162 -0.9623
 2737SOL     OW19843   0.578   4.346   3.040 -0.2447  0.1978 -0.5342
 2737SOL    HW119844   0.663   4.324   3.078 -0.6041 -0.5036 -0.1271
 2737SOL    HW219845   0.563   4.261   2.997 -0.2492 -1.0828  1.9754
 2738SOL     OW19846   4.311   3.567  17.287 -0.8824 -0.2664 -0.6743
 2738SOL    HW119847   4.218   3.572  17.263 -0.8537 -1.5786 -1.0451
 2738SOL    HW219848   4.311   3.605  17.376 -3.1664 -3.2492  0.5797
 2739SOL     OW19849   3.562   1.745   8.940 -0.2913 -0.0761 -0.0059
 2739SOL    HW119850   3.647   1.745   8.983 -0.0826 -0.3766 -0.4173
 2739SOL    HW219851   3.512   1.685   8.996 -0.7686  1.0468  0.7809
 2740SOL     OW19852   2.102   0.467  16.384  0.7273 -0.2633  0.6983
 2740SOL    HW119853   2.156   0.468  16.463 -0.5028 -0.2716  1.5211
 2740SOL    HW219854   2.092   0.561  16.370  1.7061 -0.2781 -0.1421
 2741SOL     OW19855   2.072   2.884  11.608 -0.4585  0.2331 -0.5308
 2741SOL    HW119856   2.017   2.809  11.583 -0.8452  0.6324 -0.8676
 2741SOL    HW219857   2.010   2.955  11.597 -0.1675  0.6396  0.4192
 2742SOL     OW19858   1.895   4.009   7.724 -0.0827 -0.6966  1.0941
 2742SOL    HW119859   1.869   3.957   7.800 -1.1888 -1.3873  0.2389
 2742SOL    HW219860   1.868   4.097   7.752  0.5770 -0.2592  0.3576
 2743SOL     OW19861   4.680   2.617   8.708  0.4381 -0.2921 -0.3012
 2743SOL    HW119862   4.666   2.607   8.802  1.2732  0.0442 -0.1395
 2743SOL    HW219863   4.595   2.606   8.667  0.7215 -0.5346 -0.8296
 2744SOL     OW19864   0.779   1.073  17.517 -0.1933 -0.2818  0.2006
 2744SOL    HW119865   0.744   1.054  17.431  0.8282  4.0526 -1.1766
 2744SOL    HW219866   0.826   0.993  17.539  1.9482  0.4459 -1.7036
 2745SOL     OW19867   2.290   4.323   2.297  0.4305 -0.5316 -0.1560
 2745SOL    HW119868   2.292   4.286   2.209 -1.3039 -0.6541 -0.1519
 2745SOL    HW219869   2.199   4.353   2.307  0.4612 -0.8851  1.1533
 2746SOL     OW19870   1.449   0.201   8.058 -0.2843 -0.0607  0.7348
 2746SOL    HW119871   1.371   0.171   8.012 -0.6767  1.1020  0.6326
 2746SOL    HW219872   1.434   0.295   8.067  1.2224  0.4117 -1.5062
 2747SOL     OW19873   1.143   1.609  17.587 -0.0164  0.2419 -0.7461
 2747SOL    HW119874   1.113   1.629  17.676  0.7597 -0.6969 -0.2652
 2747SOL    HW219875   1.186   1.524  17.589 -0.9447 -0.2603 -2.1113
 2748SOL     OW19876   1.390   2.450   1.772 -0.2328  0.3587 -0.1155
 2748SOL    HW119877   1.470   2.398   1.767  0.2597  1.0210  0.9047
 2748SOL    HW219878   1.322   2.383   1.771  0.2959 -0.1877  0.3738
 2749SOL     OW19879   3.234   1.725   4.639  0.3657  0.4488 -0.4628
 2749SOL    HW119880   3.163   1.789   4.632 -1.5178 -1.4362  1.5216
 2749SOL    HW219881   3.242   1.694   4.730 -2.4177  0.5304 -0.1926
 2750SOL     OW19882   1.237   4.008   7.022 -0.7856  0.3044 -0.2638
 2750SOL    HW119883   1.215   4.011   7.115  1.1392  0.2486  0.1932
 2750SOL    HW219884   1.314   3.952   7.032 -0.2144  0.9109 -1.2592
 2751SOL     OW19885   4.180   2.183   5.761  0.1692  0.0162  0.5918
 2751SOL    HW119886   4.266   2.191   5.803  1.4621 -2.6152 -1.5337
 2751SOL    HW219887   4.189   2.099   5.716  1.0932 -0.4608  1.6415
 2752SOL     OW19888   1.187   4.026   8.622 -0.5493 -0.3303 -0.4640
 2752SOL    HW119889   1.176   4.057   8.712 -0.0330 -0.4136 -0.3730
 2752SOL    HW219890   1.094   4.012   8.601 -0.9843  0.6283  0.8424
 2753SOL     OW19891   1.962   0.634   2.240 -0.6831  0.2324 -0.4188
 2753SOL    HW119892   1.952   0.583   2.320  2.1659  0.3685 -0.0072
 2753SOL    HW219893   1.905   0.580   2.186 -0.4275 -0.2399 -0.2090
 2754SOL     OW19894   0.668   1.595   1.512  0.3227 -0.3075  0.0793
 2754SOL    HW119895   0.666   1.586   1.417  1.8328  0.5776 -0.0305
 2754SOL    HW219896   0.580   1.558   1.525  1.2673 -2.1504  1.2481
 2755SOL     OW19897   0.119   3.260   2.660 -0.3742  0.4329  0.5673
 2755SOL    HW119898   0.092   3.258   2.752  2.0437 -0.8343  1.2601
 2755SOL    HW219899   0.186   3.192   2.666 -0.7555 -0.0225 -0.2034
 2756SOL     OW19900   0.090   2.648  12.812 -0.0458 -0.7887  0.1044
 2756SOL    HW119901   0.141   2.691  12.879 -0.7547 -0.4741  0.4463
 2756SOL    HW219902   0.010   2.700  12.826  2.3762  3.1949 -0.9745
 2757SOL     OW19903   1.214   3.896  17.050 -0.4485 -0.0350 -0.4846
 2757SOL    HW119904   1.181   3.830  16.988 -1.2293  0.1195 -0.2314
 2757SOL    HW219905   1.136   3.945  17.074 -0.7908 -1.8671  2.0630
 2758SOL     OW19906   1.498   2.011   0.970 -0.1196  0.2023  0.1555
 2758SOL    HW119907   1.457   1.991   0.886  1.9711  0.7182 -0.9912
 2758SOL    HW219908   1.475   2.104   0.964  0.0370  0.1625 -1.1455
 2759SOL     OW19909   0.411   2.384   6.316  0.0119  0.1253 -0.0918
 2759SOL    HW119910   0.458   2.324   6.258 -1.1235 -2.2297  1.4464
 2759SOL    HW219911   0.411   2.332   6.396 -1.3174  0.9430  0.4503
 2760SOL     OW19912   4.098   4.605  13.313 -0.9067  0.7024  0.3188
 2760SOL    HW119913   4.017   4.557  13.294 -0.2004 -0.5116  0.3564
 2760SOL    HW219914   4.117   4.649  13.230  2.1944 -1.1187  0.0875
 2761SOL     OW19915   1.445   3.519  11.912 -0.0539  0.4685 -0.2776
 2761SOL    HW119916   1.540   3.528  11.921 -0.1579 -1.1489  2.4523
 2761SOL    HW219917   1.434   3.429  11.883 -2.4064  0.3670  0.8744
 2762SOL     OW19918   3.977   1.621   0.643 -0.0800 -0.1965  0.1087
 2762SOL    HW119919   4.070   1.619   0.664 -0.1585  1.9162  0.5933
 2762SOL    HW219920   3.952   1.704   0.682  1.9824 -0.3133  1.6855
 2763SOL     OW19921   4.223   4.668   1.992 -0.2104 -0.0859  0.2108
 2763SOL    HW119922   4.202   4.734   2.058 -1.3405  0.6738 -0.9083
 2763SOL    HW219923   4.143   4.615   1.991  1.4953 -2.6854  0.6994
 2764SOL     OW19924   4.513   0.650  12.041 -0.0858 -0.7813 -0.1775
 2764SOL    HW119925   4.591   0.612  12.001  0.5938  0.7875 -0.3352
 2764SOL    HW219926   4.562   0.718  12.089 -0.4855 -1.0761  0.6473
 2765SOL     OW19927   0.933   3.817   7.730  0.0806 -0.5189 -0.4810
 2765SOL    HW119928   0.984   3.736   7.725  0.9030  0.1064 -2.2043
 2765SOL    HW219929   0.884   3.816   7.648  0.1125  0.1961 -0.5123
 2766SOL     OW19930   0.348   3.417  15.423 -0.3869  0.4111  0.8376
 2766SOL    HW119931   0.364   3.462  15.507  0.9037  1.3468  0.0895
 2766SOL    HW219932   0.402   3.342  15.447 -2.6023 -1.3464  0.2472
 2767SOL     OW19933   4.615   0.748  13.946  0.4014 -0.0458 -0.4597
 2767SOL    HW119934   4.632   0.745  14.040 -0.0007 -1.5369 -0.4345
 2767SOL    HW219935   4.618   0.843  13.937 -0.9187 -0.0554 -1.0363
 2768SOL     OW19936   2.834   1.768   8.940  1.0165  0.4676  0.2538
 2768SOL    HW119937   2.845   1.687   8.890  0.5812  1.3481 -1.2546
 2768SOL    HW219938   2.739   1.759   8.941  0.8987  1.5672 -1.2178
 2769SOL     OW19939   2.619   3.017   5.029 -0.2788  0.0879  0.3047
 2769SOL    HW119940   2.676   2.943   5.008  0.1548  0.5109 -0.0403
 2769SOL    HW219941   2.657   3.054   5.109  0.6174  0.8046 -0.4341
 2770SOL     OW19942   2.521   3.897   4.360  0.1448  0.4871  0.0478
 2770SOL    HW119943   2.443   3.935   4.321  0.3098  0.2836 -0.4791
 2770SOL    HW219944   2.543   3.820   4.308  1.8319  0.7853  0.3155
 2771SOL     OW19945   3.202   1.208  15.027 -0.0480 -0.1601 -0.7103
 2771SOL    HW119946   3.137   1.277  15.017 -0.2141 -0.1326  0.4654
 2771SOL    HW219947   3.212   1.180  14.936  2.2295 -1.9011  0.0575
 2772SOL     OW19948   1.093   1.017   4.227 -0.1145 -0.1374 -0.3251
 2772SOL    HW119949   1.005   1.011   4.189  1.0466 -0.2560 -3.0129
 2772SOL    HW219950   1.073   1.033   4.319 -1.5570 -2.5575 -0.2047
 2773SOL     OW19951   3.517   1.187   2.164  0.2415 -0.2508 -0.6695
 2773SOL    HW119952   3.581   1.168   2.232 -0.4432  0.4461  0.1536
 2773SOL    HW219953   3.453   1.115   2.168 -0.6850  0.6896  1.2865
 2774SOL     OW19954   3.419   4.132   4.629  0.2581 -0.5914 -0.5586
 2774SOL    HW119955   3.373   4.049   4.642  2.0212 -1.5556 -0.3923
 2774SOL    HW219956   3.433   4.163   4.718 -2.1645 -1.3632  0.0919
 2775SOL     OW19957   1.810   3.306   7.856  0.0715 -0.0562  0.2888
 2775SOL    HW119958   1.791   3.386   7.904  1.9263  1.9379 -2.3100
 2775SOL    HW219959   1.784   3.330   7.767  1.5024 -1.0337 -0.3845
 2776SOL     OW19960   0.881   3.230   4.427  0.2499  0.2156  0.1346
 2776SOL    HW119961   0.797   3.272   4.445 -0.0886 -0.3486 -0.1286
 2776SOL    HW219962   0.887   3.189   4.514  1.2115 -1.5255 -0.7465
 2777SOL     OW19963   1.031   2.737   4.491  0.1927 -0.4326  0.2185
 2777SOL    HW119964   1.085   2.688   4.428  3.3236  2.5712  0.5466
 2777SOL    HW219965   1.094   2.733   4.564 -0.1434  1.6638  0.6315
 2778SOL     OW19966   1.732   4.240  16.009 -0.5851 -0.1545  0.2476
 2778SOL    HW119967   1.738   4.217  16.102  0.9277  0.7804  0.3968
 2778SOL    HW219968   1.669   4.183  15.966  0.2494 -0.4407 -0.6037
 2779SOL     OW19969   2.879   2.266   7.019 -0.0334  0.1805  0.3146
 2779SOL    HW119970   2.816   2.219   6.965 -0.5527  0.2792  0.8409
 2779SOL    HW219971   2.935   2.294   6.946  0.5284  2.8651  1.7594
 2780SOL     OW19972   0.310   3.316   2.439 -1.0222 -0.4003 -0.1155
 2780SOL    HW119973   0.316   3.401   2.397 -1.6607  0.4574  1.5437
 2780SOL    HW219974   0.261   3.329   2.520  1.1651 -3.0733  1.6818
 2781SOL     OW19975   1.736   1.659  16.942  0.0602  0.3043 -0.6187
 2781SOL    HW119976   1.817   1.634  16.898 -0.2611 -2.4742  0.3567
 2781SOL    HW219977   1.669   1.640  16.877  2.1125  0.5499 -2.7969
 2782SOL     OW19978   1.559   3.772  14.091 -0.9721 -0.6083  0.0889
 2782SOL    HW119979   1.492   3.704  14.101 -2.9408  1.3255  0.0372
 2782SOL    HW219980   1.580   3.791  14.182 -0.7543  0.4989 -0.1964
 2783SOL     OW19981   3.835   0.044  14.043  0.4899  0.6650  0.0779
 2783SOL    HW119982   3.895   0.047  13.969 -1.4633 -1.2486 -1.6057
 2783SOL    HW219983   3.852   0.126  14.088 -0.1068  0.8576 -0.0374
 2784SOL     OW19984   4.535   1.351   7.931  0.2302 -0.5196 -0.4188
 2784SOL    HW119985   4.582   1.295   7.992 -1.4472  1.3709  2.6386
 2784SOL    HW219986   4.600   1.353   7.862 -1.0742 -0.2907 -1.6466
 2785SOL     OW19987   1.241   4.564  16.403  0.2921 -0.4730 -0.0353
 2785SOL    HW119988   1.275   4.555  16.314 -1.9871 -1.7328 -0.7784
 2785SOL    HW219989   1.163   4.511  16.384  0.7407 -1.2790  0.3533
 2786SOL     OW19990   1.399   0.175   3.804 -0.1863 -0.3816  0.2048
 2786SOL    HW119991   1.358   0.096   3.838  0.8037 -1.2763 -0.6898
 2786SOL    HW219992   1.342   0.187   3.728 -0.4790 -0.1659  0.4575
 2787SOL     OW19993   0.242   0.559   3.350  0.0405  0.2095  0.6776
 2787SOL    HW119994   0.182   0.632   3.365  1.2728  1.5627 -0.9705
 2787SOL    HW219995   0.216   0.530   3.263 -1.2403 -0.4177  1.2690
 2788SOL     OW19996   3.543   3.138   5.052 -0.5271  0.1517  0.0601
 2788SOL    HW119997   3.528   3.044   5.040  3.4039 -0.3071 -1.2469
 2788SOL    HW219998   3.614   3.155   4.990  0.3368 -0.3513  0.9161
 2789SOL     OW19999   0.238   2.590  12.604 -0.0185  0.0397  0.0369
 2789SOL    HW120000   0.223   2.669  12.552 -2.4183  0.6906  1.7047
 2789SOL    HW220001   0.177   2.596  12.678  1.1927  1.0860  0.9459
 2790SOL     OW20002   3.090   4.421  12.329  0.6569  0.5871  0.3167
 2790SOL    HW120003   3.046   4.504  12.346 -2.1492  0.1899 -4.8297
 2790SOL    HW220004   3.151   4.413  12.402  0.4165  1.1427  0.5756
 2791SOL     OW20005   1.488   4.567   3.810  1.1296  0.1138 -0.0010
 2791SOL    HW120006   1.437   4.497   3.770 -0.5914  1.1075  0.4747
 2791SOL    HW220007   1.512   4.518   3.888 -0.9739 -1.7779 -0.5637
 2792SOL     OW20008   4.006   1.708   1.321 -0.0897  0.2658 -0.0422
 2792SOL    HW120009   4.048   1.738   1.401  1.4904  1.3381 -1.2668
 2792SOL    HW220010   4.079   1.649   1.302  0.3150  1.0096 -0.8472
 2793SOL     OW20011   4.294   4.641   4.483 -0.4937 -0.2921 -0.0393
 2793SOL    HW120012   4.212   4.609   4.521  0.4877  1.4820  3.6329
 2793SOL    HW220013   4.256   4.667   4.399  0.3980  0.8779 -0.0946
 2794SOL     OW20014   2.705   2.330   5.821  0.8838 -0.0081  0.0351
 2794SOL    HW120015   2.656   2.377   5.889  0.2944 -0.2580 -0.2158
 2794SOL    HW220016   2.742   2.405   5.775  1.2081 -0.2495 -0.0947
 2795SOL     OW20017   1.734   3.278  13.400 -0.5336 -0.0275  0.1007
 2795SOL    HW120018   1.647   3.296  13.363 -0.2193  0.2365 -0.5027
 2795SOL    HW220019   1.704   3.262  13.490  1.3917 -1.3735  0.4907
 2796SOL     OW20020   1.340   3.886   9.540 -0.2846 -0.1286 -0.5965
 2796SOL    HW120021   1.299   3.823   9.598  1.3624  1.8433  2.7028
 2796SOL    HW220022   1.324   3.845   9.455  1.1358  0.5727 -1.2037
 2797SOL     OW20023   1.421   1.450   8.896 -0.2392 -0.1484  0.2737
 2797SOL    HW120024   1.440   1.484   8.984 -1.1581  0.1976  0.3450
 2797SOL    HW220025   1.503   1.455   8.848  0.5300  0.7710  1.6684
 2798SOL     OW20026   2.860   2.450   3.675 -0.7851  0.4134 -0.0651
 2798SOL    HW120027   2.945   2.420   3.706 -0.3306  0.0130 -1.6800
 2798SOL    HW220028   2.805   2.417   3.746  2.3471 -1.8244  1.3056
 2799SOL     OW20029   4.003   2.071  15.336  0.1785 -0.1573 -0.5554
 2799SOL    HW120030   4.009   1.975  15.346 -1.5318 -0.1899  0.0951
 2799SOL    HW220031   4.046   2.085  15.421 -1.6915 -0.4005  0.4386
 2800SOL     OW20032   2.334   3.760  15.204 -0.4633 -0.5637 -0.2357
 2800SOL    HW120033   2.355   3.846  15.168  0.4178  0.3562  2.4706
 2800SOL    HW220034   2.309   3.706  15.130 -2.5871  0.4789 -0.2743
 2801SOL     OW20035   1.268   1.863   0.241 -0.0688 -0.1186  0.1773
 2801SOL    HW120036   1.266   1.772   0.271 -1.2005 -0.1845 -0.1094
 2801SOL    HW220037   1.259   1.857   0.146 -0.7033  0.1631  0.2187
 2802SOL     OW20038   2.358   1.296   6.980  0.4822  0.0719  0.2483
 2802SOL    HW120039   2.355   1.341   7.064 -1.1475 -0.8057  0.6556
 2802SOL    HW220040   2.386   1.208   7.006  3.5895  0.8241 -0.5301
 2803SOL     OW20041   3.462   2.439  14.812  0.2039  0.0949  0.5807
 2803SOL    HW120042   3.375   2.399  14.807  0.9688 -1.3187 -1.3762
 2803SOL    HW220043   3.465   2.453  14.907  0.5507 -2.4920  0.9609
 2804SOL     OW20044   0.513   1.387   9.387  0.4429  0.3112 -0.2227
 2804SOL    HW120045   0.418   1.399   9.386  0.4853  0.8740  1.8040
 2804SOL    HW220046   0.530   1.429   9.472 -0.7855 -1.8385  1.0710
 2805SOL     OW20047   1.555   0.553   4.634 -0.6265  0.1295  0.0683
 2805SOL    HW120048   1.515   0.467   4.647  1.4058 -0.7045  0.8148
 2805SOL    HW220049   1.577   0.556   4.541 -0.2984  0.7593  0.1665
 2806SOL     OW20050   2.539   2.390  14.442  0.8762  0.0684 -0.8313
 2806SOL    HW120051   2.484   2.447  14.389 -0.0402 -0.5282 -0.5253
 2806SOL    HW220052   2.551   2.324  14.374 -0.4800 -0.1204 -0.8814
 2807SOL     OW20053   4.435   1.549   2.422 -0.0669  0.8754 -0.2535
 2807SOL    HW120054   4.388   1.480   2.375  0.7173 -1.2893  2.1309
 2807SOL    HW220055   4.486   1.584   2.349  1.6430  0.9171  0.9675
 2808SOL     OW20056   3.951   3.370   6.209  0.2130 -0.0237 -0.4492
 2808SOL    HW120057   4.030   3.423   6.216  0.3820 -0.5683  1.7016
 2808SOL    HW220058   3.934   3.377   6.115  0.4937  2.6149 -0.3005
 2809SOL     OW20059   0.885   2.642   7.479 -0.2580 -0.9984  0.3173
 2809SOL    HW120060   0.947   2.610   7.544 -0.7710 -1.1328  0.7414
 2809SOL    HW220061   0.811   2.664   7.536 -0.9239 -0.9583 -0.5497
 2810SOL     OW20062   0.833   3.862   9.221 -0.0555  0.4749 -0.1404
 2810SOL    HW120063   0.774   3.934   9.199  2.1434  2.4020  0.2247
 2810SOL    HW220064   0.798   3.853   9.310  0.2735  0.1410 -0.0449
 2811SOL     OW20065   4.379   3.840   7.697 -0.0259 -0.2544  0.0492
 2811SOL    HW120066   4.383   3.745   7.692 -2.5589 -0.4469  1.7398
 2811SOL    HW220067   4.351   3.832   7.788  1.2984 -0.7472  0.4117
 2812SOL     OW20068   0.994   1.328   9.739 -0.3102  0.1622  0.1101
 2812SOL    HW120069   0.969   1.346   9.830 -0.8754  0.6455 -0.1458
 2812SOL    HW220070   1.081   1.366   9.740  0.6647 -2.0239 -0.7137
 2813SOL     OW20071   3.890   2.905  16.601  0.1936 -0.2428  0.0574
 2813SOL    HW120072   3.842   2.942  16.675  2.1597  0.3974  1.0075
 2813SOL    HW220073   3.910   2.817  16.633 -1.5606  0.0711  1.9924
 2814SOL     OW20074   0.851   0.912   2.408  0.6463 -0.1531 -0.3036
 2814SOL    HW120075   0.929   0.939   2.458  1.1497 -0.3745 -0.9668
 2814SOL    HW220076   0.899   0.870   2.337  2.5953  1.0523  0.2918
 2815SOL     OW20077   0.414   0.778   6.947 -0.5855  0.3084  0.2135
 2815SOL    HW120078   0.374   0.862   6.923  1.2365  0.7342 -1.2757
 2815SOL    HW220079   0.487   0.770   6.886  0.0093  0.5310  0.9030
 2816SOL     OW20080   0.403   0.589   3.065  0.0998  0.1581  0.1769
 2816SOL    HW120081   0.446   0.532   3.002 -1.0267  1.0967 -1.4307
 2816SOL    HW220082   0.331   0.528   3.081  0.2015 -0.6167 -2.3892
 2817SOL     OW20083   3.068   1.433   7.215 -0.1279 -0.1594  0.5013
 2817SOL    HW120084   3.075   1.527   7.233  2.3110 -0.0213 -1.0963
 2817SOL    HW220085   3.161   1.410   7.221  0.3721  1.9447  0.8924
 2818SOL     OW20086   1.905   4.680   6.556  0.7135  0.3927 -0.1278
 2818SOL    HW120087   1.816   4.700   6.586  0.6382  1.3537 -0.9958
 2818SOL    HW220088   1.891   4.588   6.531  0.8878  0.3360 -0.0186
 2819SOL     OW20089   0.828   0.140  10.244  0.3103 -0.5331  0.4516
 2819SOL    HW120090   0.819   0.216  10.187  1.0079 -1.1292 -0.4541
 2819SOL    HW220091   0.853   0.064  10.192  2.7537 -0.4368  1.4913
 2820SOL     OW20092   3.435   0.722  15.267  0.0869 -0.4905  0.7243
 2820SOL    HW120093   3.460   0.640  15.226 -0.3059  0.9133 -2.2815
 2820SOL    HW220094   3.341   0.703  15.259  0.6930 -2.2776 -1.9979
 2821SOL     OW20095   3.741   0.122   6.532  0.4129 -0.2298 -0.1690
 2821SOL    HW120096   3.652   0.153   6.549  0.4354 -0.4433  0.3648
 2821SOL    HW220097   3.739   0.107   6.438 -0.3025  0.7045 -0.3054
 2822SOL     OW20098   4.404   0.046  14.228 -0.0233  0.1741  0.0201
 2822SOL    HW120099   4.497   0.030  14.211  0.0824  0.1895  0.5888
 2822SOL    HW220100   4.413   0.139  14.247 -0.3486  0.1045  0.5062
 2823SOL     OW20101   1.428   4.040   8.278 -0.3725  0.6733  0.0732
 2823SOL    HW120102   1.486   4.099   8.326 -0.7718  1.4499 -0.3838
 2823SOL    HW220103   1.341   4.079   8.282 -0.6981 -0.2802  2.0174
 2824SOL     OW20104   1.854   0.282  16.482  0.0235 -0.7902 -0.1466
 2824SOL    HW120105   1.905   0.343  16.429  0.5053 -0.7906  0.3197
 2824SOL    HW220106   1.925   0.241  16.532 -1.0508 -3.4595 -0.8444
 2825SOL     OW20107   0.008   2.373  15.212  0.0119 -0.3314 -0.4334
 2825SOL    HW120108   0.043   2.293  15.172 -0.1716 -0.0480 -1.1555
 2825SOL    HW220109   0.033   2.433  15.142  2.7754  1.5237  2.1207
 2826SOL     OW20110   2.826   1.485   2.655 -0.1185  0.2039  0.1962
 2826SOL    HW120111   2.730   1.489   2.652 -0.2496 -1.7663  1.6671
 2826SOL    HW220112   2.840   1.460   2.564  1.6046  1.6710  0.0561
 2827SOL     OW20113   0.203   0.394   3.129  0.7254  0.0479  0.2287
 2827SOL    HW120114   0.109   0.404   3.116  1.0421  1.6725 -0.8124
 2827SOL    HW220115   0.212   0.314   3.181 -1.4309 -0.3542 -0.0181
 2828SOL     OW20116   1.587   0.216  15.594  0.2311  0.4873 -0.2079
 2828SOL    HW120117   1.620   0.137  15.553  0.0684 -0.4986  1.5771
 2828SOL    HW220118   1.560   0.192  15.682 -2.3943  0.3834 -1.0604
 2829SOL     OW20119   1.812   1.849   7.322 -0.0086 -0.2144 -0.5681
 2829SOL    HW120120   1.812   1.905   7.400  2.0573  0.4741 -1.0577
 2829SOL    HW220121   1.719   1.860   7.303  0.5599 -0.1967 -3.3233
 2830SOL     OW20122   3.698   3.400  10.788  0.2306 -0.1618 -0.0027
 2830SOL    HW120123   3.688   3.305  10.798 -3.6942  0.4808  2.3776
 2830SOL    HW220124   3.736   3.419  10.874  1.3411  0.2908 -0.5988
 2831SOL     OW20125   2.963   2.079   1.910  0.1267 -0.2780 -0.1302
 2831SOL    HW120126   2.968   2.024   1.988  0.9262 -0.9781 -0.6736
 2831SOL    HW220127   3.054   2.095   1.885 -0.4186  2.1982 -0.4852
 2832SOL     OW20128   1.246   3.899   6.472  0.2561 -0.0586 -0.0815
 2832SOL    HW120129   1.280   3.847   6.544 -1.5310  1.0304  1.5527
 2832SOL    HW220130   1.312   3.883   6.405  0.2886 -3.4202  0.7837
 2833SOL     OW20131   0.672   0.704  15.435 -0.0207  0.3070 -0.5845
 2833SOL    HW120132   0.712   0.781  15.396  0.5057 -1.0793 -2.7901
 2833SOL    HW220133   0.597   0.742  15.480 -1.2736 -1.2948 -1.2861
 2834SOL     OW20134   0.976   3.094  12.706 -0.2753  0.5510 -0.0375
 2834SOL    HW120135   1.042   3.139  12.654 -1.0020  1.7814  0.0829
 2834SOL    HW220136   0.908   3.072  12.643  0.2001 -1.3671  0.1221
 2835SOL     OW20137   1.235   0.969   9.767 -0.6634  0.0901 -0.1076
 2835SOL    HW120138   1.277   1.054   9.754 -3.2032  1.5477  1.2089
 2835SOL    HW220139   1.311   0.915   9.788 -0.2951  1.1606  1.3619
 2836SOL     OW20140   0.840   2.606   9.388 -0.4218 -0.1913  0.7681
 2836SOL    HW120141   0.875   2.641   9.470  0.5449  1.0584 -0.1782
 2836SOL    HW220142   0.919   2.612   9.335 -0.2440 -2.1158  0.8352
 2837SOL     OW20143   4.192   0.223   5.021 -0.1744  0.2527 -0.4728
 2837SOL    HW120144   4.271   0.208   5.073 -0.1433 -0.0896 -0.6187
 2837SOL    HW220145   4.208   0.181   4.936 -0.9101  1.3121 -1.1237
 2838SOL     OW20146   1.740   2.443   4.023 -0.2228  0.2044  0.4717
 2838SOL    HW120147   1.656   2.490   4.033  0.1576  1.1203 -0.6782
 2838SOL    HW220148   1.741   2.376   4.091 -0.7849 -1.0984 -0.8162
 2839SOL     OW20149   2.472   2.025   3.912  0.5175  0.0970 -0.4916
 2839SOL    HW120150   2.392   2.024   3.860 -1.1367 -0.7388  2.0657
 2839SOL    HW220151   2.536   2.066   3.854 -1.0985  0.1297 -2.2318
 2840SOL     OW20152   1.927   0.502   4.118 -0.6408  0.4811  0.4531
 2840SOL    HW120153   1.925   0.578   4.059 -0.9309  0.8566  0.9470
 2840SOL    HW220154   1.896   0.535   4.202 -1.2799 -0.3651  0.5497
 2841SOL     OW20155   1.667   1.505   8.017  0.0568 -0.3059  0.4414
 2841SOL    HW120156   1.609   1.443   8.061 -0.0110 -0.4626  0.1295
 2841SOL    HW220157   1.695   1.442   7.951  0.1675 -1.9411  2.0517
 2842SOL     OW20158   1.846   3.360   5.187  0.2752 -0.2990  0.0939
 2842SOL    HW120159   1.905   3.386   5.116 -0.3191  3.6381  1.0115
 2842SOL    HW220160   1.896   3.284   5.215  0.0414 -0.0973  1.0624
 2843SOL     OW20161   1.091   2.662   3.374 -0.3064  0.1160  0.1166
 2843SOL    HW120162   1.035   2.609   3.431 -2.4363  2.0372 -0.1921
 2843SOL    HW220163   1.023   2.675   3.308 -0.0377 -0.6586 -0.3136
 2844SOL     OW20164   1.876   4.563  14.936  0.4100 -0.5257  0.4946
 2844SOL    HW120165   1.928   4.642  14.947  2.9380 -2.1265  0.1523
 2844SOL    HW220166   1.882   4.548  14.842 -2.1311 -3.5488  0.8104
 2845SOL     OW20167   2.365   3.534   5.383 -0.5215 -1.0396 -0.1869
 2845SOL    HW120168   2.279   3.514   5.421 -0.4282 -1.5470 -0.2461
 2845SOL    HW220169   2.420   3.549   5.460  0.9374  0.6693 -1.5524
 2846SOL     OW20170   3.065   3.298   4.089  0.3510 -0.2802 -0.1226
 2846SOL    HW120171   3.078   3.225   4.028 -1.2357 -1.9936  1.6059
 2846SOL    HW220172   3.089   3.379   4.044  0.1697 -0.6280 -0.8549
 2847SOL     OW20173   2.899   2.040  15.203 -0.2914 -0.0931  0.1961
 2847SOL    HW120174   2.984   1.996  15.196  0.8389  2.3333 -1.5385
 2847SOL    HW220175   2.866   2.026  15.114  0.7512  1.9957 -0.5316
 2848SOL     OW20176   2.376   1.231   5.623 -0.2983 -0.4305 -0.3780
 2848SOL    HW120177   2.367   1.316   5.580  3.5271 -0.9050 -2.1304
 2848SOL    HW220178   2.469   1.215   5.607 -0.3763 -1.9820  0.7285
 2849SOL     OW20179   4.449   0.344   9.328  0.0144 -0.2053  0.1024
 2849SOL    HW120180   4.475   0.366   9.239 -0.7765  1.8530  0.3773
 2849SOL    HW220181   4.353   0.337   9.326  0.0303 -0.3989  0.0777
 2850SOL     OW20182   4.198   4.197  10.767  0.5141 -0.2477  0.2501
 2850SOL    HW120183   4.275   4.145  10.740  0.4919  0.1477 -0.5886
 2850SOL    HW220184   4.207   4.272  10.708  2.2195 -1.5672 -1.2011
 2851SOL     OW20185   0.038   2.717  15.825  0.1821 -0.7788 -0.4466
 2851SOL    HW120186   4.720   2.771  15.766  0.1484  1.3661  1.5544
 2851SOL    HW220187   0.106   2.701  15.759 -0.4014 -0.5128 -1.1106
 2852SOL     OW20188   4.100   1.485  15.141  0.1301 -0.3580  0.3402
 2852SOL    HW120189   4.100   1.392  15.161 -0.6289 -0.2346  0.9180
 2852SOL    HW220190   4.194   1.501  15.131  0.0351 -0.9578 -1.3367
 2853SOL     OW20191   4.333   1.540   6.994  0.3950  0.1796  0.3049
 2853SOL    HW120192   4.274   1.597   6.946 -0.6476 -0.3139  0.9793
 2853SOL    HW220193   4.417   1.582   6.977 -0.2167  0.4937 -1.9631
 2854SOL     OW20194   4.445   3.603  12.452 -0.6011 -1.1225 -0.4628
 2854SOL    HW120195   4.533   3.587  12.485 -0.9541 -0.4295  0.8200
 2854SOL    HW220196   4.430   3.526  12.397  0.0989 -1.0082 -0.8123
 2855SOL     OW20197   2.383   4.099   3.107  0.0854  0.0323 -0.1141
 2855SOL    HW120198   2.443   4.156   3.155  2.0420 -1.6093 -0.5920
 2855SOL    HW220199   2.304   4.153   3.108 -0.8699 -1.3596 -0.3094
 2856SOL     OW20200   1.961   0.750   7.748  0.0821 -0.3044 -0.0121
 2856SOL    HW120201   2.025   0.686   7.717  2.7683  1.2853  2.2606
 2856SOL    HW220202   1.945   0.806   7.672 -3.3792 -1.5942 -0.2071
 2857SOL     OW20203   1.025   0.378   8.656 -0.4478  0.0317  0.3006
 2857SOL    HW120204   1.053   0.409   8.742  2.6300  1.2269 -1.1564
 2857SOL    HW220205   1.101   0.392   8.599 -0.2372  0.3324  0.6617
 2858SOL     OW20206   3.376   2.268   5.810  0.0523 -0.2445 -0.1416
 2858SOL    HW120207   3.336   2.225   5.886  1.5013 -0.8141  0.3141
 2858SOL    HW220208   3.322   2.246   5.734  1.6562 -1.0965 -1.0352
 2859SOL     OW20209   3.683   2.720   8.047  0.4767 -0.1375  0.2536
 2859SOL    HW120210   3.726   2.660   8.109  2.9041  0.0374 -1.2696
 2859SOL    HW220211   3.604   2.742   8.096  0.1241 -0.6386 -0.0796
 2860SOL     OW20212   4.415   0.863   4.410  0.0546 -0.1699  0.4839
 2860SOL    HW120213   4.472   0.790   4.386 -1.8293 -1.9966  1.6325
 2860SOL    HW220214   4.342   0.834   4.355 -0.8356 -0.7149  1.9516
 2861SOL     OW20215   1.705   0.012   1.670  0.0185 -0.3513  0.2295
 2861SOL    HW120216   1.627   0.062   1.696 -0.1013 -0.0846 -0.6227
 2861SOL    HW220217   1.720   0.039   1.579  0.4813  1.7282  0.9190
 2862SOL     OW20218   1.389   2.678   9.147 -0.4914 -0.5873 -0.0242
 2862SOL    HW120219   1.442   2.701   9.224  3.2755  0.9469 -3.1017
 2862SOL    HW220220   1.300   2.703   9.170 -0.0420  0.3475  0.7315
 2863SOL     OW20221   1.587   4.653   0.944  0.3098  0.6036 -0.3153
 2863SOL    HW120222   1.619   4.572   0.904  1.4876  0.3225  1.2052
 2863SOL    HW220223   1.550   4.693   0.865 -1.8243  1.0914  0.9201
 2864SOL     OW20224   3.602   0.980   9.181 -0.2353  0.3355  0.4818
 2864SOL    HW120225   3.673   1.019   9.130  3.2389 -0.7810  4.4380
 2864SOL    HW220226   3.622   1.015   9.268  2.0270  1.3242 -0.4423
 2865SOL     OW20227   0.716   0.875   6.299 -0.6927 -0.1304  0.1825
 2865SOL    HW120228   0.662   0.921   6.363  1.5536 -0.5745  2.3888
 2865SOL    HW220229   0.782   0.852   6.365 -0.2441 -1.6497 -0.7867
 2866SOL     OW20230   1.238   1.248  14.077  0.1518 -0.2039 -0.2039
 2866SOL    HW120231   1.229   1.232  14.171  1.4917 -1.1999 -0.2390
 2866SOL    HW220232   1.322   1.202  14.075 -0.6789 -1.7370 -0.1381
 2867SOL     OW20233   4.507   2.504   3.580  0.0011  0.1448  0.7227
 2867SOL    HW120234   4.450   2.550   3.519 -0.2967 -0.5572  0.4702
 2867SOL    HW220235   4.557   2.446   3.523 -1.4651 -0.2927 -0.1264
 2868SOL     OW20236   4.024   2.256   4.710 -0.1912 -0.2856 -0.1834
 2868SOL    HW120237   4.053   2.236   4.620  0.6035  0.1721 -0.0324
 2868SOL    HW220238   4.070   2.189   4.761 -0.5050  0.1542  0.6694
 2869SOL     OW20239   0.587   1.498   6.181  0.3917  0.2605  0.7302
 2869SOL    HW120240   0.528   1.545   6.122 -0.6624 -1.5618  0.3269
 2869SOL    HW220241   0.567   1.531   6.269 -3.1204  2.8794 -1.0356
 2870SOL     OW20242   3.702   0.840   8.523  0.3846  0.3120 -0.2364
 2870SOL    HW120243   3.728   0.932   8.518 -1.8449  1.0623  1.8717
 2870SOL    HW220244   3.637   0.838   8.593  1.3003 -0.0563  0.5996
 2871SOL     OW20245   4.522   3.269  15.919  0.7204 -0.3028 -0.8392
 2871SOL    HW120246   4.529   3.365  15.915 -1.4542 -0.0935  0.3323
 2871SOL    HW220247   4.439   3.263  15.967  0.2911  0.2009 -1.5187
 2872SOL     OW20248   3.984   2.257   5.581 -0.2122 -0.2068 -0.2868
 2872SOL    HW120249   3.946   2.334   5.622 -0.4894 -2.0261  2.8742
 2872SOL    HW220250   4.074   2.270   5.610 -0.2274  0.6465 -0.6177
 2873SOL     OW20251   1.058   2.981   5.018  0.1233 -1.1502  0.1192
 2873SOL    HW120252   1.125   2.988   5.086  0.1231 -1.1200  0.1162
 2873SOL    HW220253   1.113   2.962   4.942  0.6294 -2.0087  0.6997
 2874SOL     OW20254   2.137   1.081   6.891 -0.1751 -0.4014 -0.2229
 2874SOL    HW120255   2.179   1.151   6.841 -1.4363 -0.4511 -1.3527
 2874SOL    HW220256   2.211   1.040   6.937  0.0201  0.5733  0.3375
 2875SOL     OW20257   4.401   1.552  15.632  0.0474  0.0354 -0.0778
 2875SOL    HW120258   4.382   1.479  15.690 -1.0758  0.4504  0.0701
 2875SOL    HW220259   4.410   1.509  15.547  2.5026  0.7214 -0.1652
 2876SOL     OW20260   2.305   2.791   4.168  0.0990  0.0478  0.3203
 2876SOL    HW120261   2.219   2.785   4.211 -1.2184  1.4534 -2.1049
 2876SOL    HW220262   2.307   2.716   4.108 -3.0170  1.5825 -1.6872
 2877SOL     OW20263   1.028   3.675   4.772  0.4963 -0.6423  0.0870
 2877SOL    HW120264   1.117   3.670   4.804  0.9871 -0.3058 -1.2053
 2877SOL    HW220265   0.999   3.753   4.820  0.1436 -1.1938  0.7703
 2878SOL     OW20266   1.380   4.541  17.693 -0.0912  0.5900  0.2697
 2878SOL    HW120267   1.291   4.539  17.727  0.0681  3.3501  0.8849
 2878SOL    HW220268   1.414   4.460  17.731  2.1268  1.4790  0.2036
 2879SOL     OW20269   2.662   1.475   3.523  0.5164 -0.2831  0.0695
 2879SOL    HW120270   2.705   1.516   3.448  0.7791 -2.3576 -0.9123
 2879SOL    HW220271   2.687   1.536   3.592 -0.6350 -0.4300  0.6097
 2880SOL     OW20272   2.057   4.619   5.554  0.9989 -0.3623 -0.2650
 2880SOL    HW120273   2.055   4.715   5.561  0.7891 -0.5890  2.7114
 2880SOL    HW220274   1.968   4.596   5.528  0.0370  3.6992 -0.6460
 2881SOL     OW20275   1.699   1.849   0.234 -0.4810 -0.0986  0.0345
 2881SOL    HW120276   1.687   1.763   0.193 -1.6880 -0.7477  1.7483
 2881SOL    HW220277   1.630   1.900   0.191 -0.5174 -0.2167 -0.0475
 2882SOL     OW20278   4.544   0.122   9.613 -0.2175  0.1959  0.3993
 2882SOL    HW120279   4.487   0.120   9.689 -1.0721 -0.8193 -0.2780
 2882SOL    HW220280   4.534   0.033   9.580  0.1531  0.8616 -1.5226
 2883SOL     OW20281   2.015   1.048   5.758 -0.3784  0.3336  0.1333
 2883SOL    HW120282   1.941   1.058   5.697 -2.7532  0.8715  3.0935
 2883SOL    HW220283   1.977   1.085   5.838  1.8393  0.5545  1.0639
 2884SOL     OW20284   2.443   4.400   2.664  0.0986  0.0635  0.1268
 2884SOL    HW120285   2.461   4.323   2.611 -0.6731 -1.2262  1.7359
 2884SOL    HW220286   2.376   4.437   2.607 -0.4436  0.8200  1.2549
 2885SOL     OW20287   3.656   0.287   2.225  0.4224  0.1754  0.3428
 2885SOL    HW120288   3.600   0.347   2.176 -0.0802 -1.0429 -0.5583
 2885SOL    HW220289   3.703   0.249   2.151  2.4280  1.4960  0.9278
 2886SOL     OW20290   1.931   0.785   4.131  0.0869 -0.2438 -0.0226
 2886SOL    HW120291   1.989   0.846   4.176  0.2582  2.1634 -3.4686
 2886SOL    HW220292   1.885   0.749   4.207 -0.7253  0.0114 -0.3922
 2887SOL     OW20293   0.804   4.225   0.664 -0.0823  0.6518  0.0776
 2887SOL    HW120294   0.859   4.199   0.590 -0.0180  0.2470  0.2685
 2887SOL    HW220295   0.862   4.256   0.734  0.7839 -0.0026 -0.3540
 2888SOL     OW20296   2.439   1.962  16.221  0.1320 -0.3933 -0.0920
 2888SOL    HW120297   2.453   2.037  16.279 -0.3663 -0.4173  0.0586
 2888SOL    HW220298   2.528   1.931  16.205  0.5203  0.0436  1.2492
 2889SOL     OW20299   3.298   2.125  16.303 -0.7085 -0.0713 -0.5273
 2889SOL    HW120300   3.363   2.193  16.318  0.2426 -1.1635  0.3191
 2889SOL    HW220301   3.259   2.102  16.387  0.0930  0.1909 -0.0864
 2890SOL     OW20302   2.344   1.962   7.227 -0.3721 -0.3135 -0.1573
 2890SOL    HW120303   2.403   1.901   7.182  1.9520  1.6434  0.2249
 2890SOL    HW220304   2.358   1.957   7.321 -3.0326  1.6442  0.3122
 2891SOL     OW20305   3.584   3.818   5.013 -0.1227  0.4182  0.0423
 2891SOL    HW120306   3.591   3.751   5.081  0.5720  0.2984 -0.1526
 2891SOL    HW220307   3.514   3.787   4.956 -0.9404  1.0207  0.7113
 2892SOL     OW20308   0.181   4.713   8.526  0.6007  0.7073  0.1901
 2892SOL    HW120309   0.086   4.727   8.523  1.0836  3.5010 -2.4684
 2892SOL    HW220310   0.210   4.730   8.437 -0.7139  1.1585 -0.1442
 2893SOL     OW20311   1.075   2.621  11.323  0.5007 -0.1754  0.7181
 2893SOL    HW120312   1.079   2.536  11.279  1.8461  1.5278 -2.4794
 2893SOL    HW220313   1.151   2.603  11.379  0.8411 -0.9595  0.0059
 2894SOL     OW20314   0.004   1.832   3.251 -0.2730  0.1797  0.2057
 2894SOL    HW120315   4.686   1.824   3.172  2.2027  0.2295 -1.4893
 2894SOL    HW220316   4.703   1.761   3.304  2.3487  0.0125  1.7820
 2895SOL     OW20317   3.359   3.207   3.179 -0.0221 -0.4015  0.5260
 2895SOL    HW120318   3.433   3.173   3.129  0.0675  1.1897 -0.4443
 2895SOL    HW220319   3.382   3.183   3.268  0.6684  0.9310  0.7113
 2896SOL     OW20320   1.889   3.729  16.590  0.2034 -0.2973  0.1591
 2896SOL    HW120321   1.943   3.807  16.600  0.0602 -0.0734 -0.8389
 2896SOL    HW220322   1.859   3.712  16.680 -1.6154 -1.7902 -0.7277
 2897SOL     OW20323   2.544   0.100   4.031  0.0911  0.1178 -0.3782
 2897SOL    HW120324   2.466   0.120   4.083 -0.2877  1.1684 -1.3502
 2897SOL    HW220325   2.611   0.140   4.087  0.8473  2.3786 -2.8924
 2898SOL     OW20326   1.730   3.334  12.244 -1.0528  0.0162  0.4274
 2898SOL    HW120327   1.810   3.347  12.195 -0.5949  1.3711  1.5520
 2898SOL    HW220328   1.676   3.304  12.171 -0.9192  3.2665 -0.9903
 2899SOL     OW20329   3.565   0.605   9.099 -0.0446  0.5240 -0.5626
 2899SOL    HW120330   3.500   0.675   9.095 -1.2474 -0.7035 -2.4142
 2899SOL    HW220331   3.545   0.570   9.186  1.8622 -1.3181 -0.8649
 2900SOL     OW20332   3.670   3.425   4.080  0.1362  0.4479  0.8274
 2900SOL    HW120333   3.634   3.350   4.033  1.6092 -0.2859  0.8557
 2900SOL    HW220334   3.728   3.373   4.136 -3.7136 -2.0827  2.4429
 2901SOL     OW20335   3.055   2.746   5.601  0.1005  0.6611 -0.1394
 2901SOL    HW120336   3.042   2.838   5.577  2.5113  0.8616 -0.6110
 2901SOL    HW220337   3.043   2.712   5.512  3.3336  0.8615 -0.6512
 2902SOL     OW20338   3.087   1.418   3.600  0.8259 -0.0934 -0.5556
 2902SOL    HW120339   3.161   1.368   3.636  0.2931 -1.3392 -1.1920
 2902SOL    HW220340   3.135   1.500   3.609  0.9553 -0.1017 -1.2113
 2903SOL     OW20341   3.734   0.659  10.704  0.2106  0.6684  0.3162
 2903SOL    HW120342   3.672   0.595  10.738 -0.7688  0.5025 -1.7692
 2903SOL    HW220343   3.705   0.653  10.613 -1.3301  3.2936  0.6578
 2904SOL     OW20344   1.333   3.427   2.375  0.1826  0.6234 -0.0209
 2904SOL    HW120345   1.242   3.449   2.395 -0.4202 -0.5928 -1.4406
 2904SOL    HW220346   1.352   3.465   2.289 -0.2459  2.6881  0.7975
 2905SOL     OW20347   0.183   2.130   7.857 -0.4357  0.2109  0.0966
 2905SOL    HW120348   0.199   2.150   7.949 -0.1459 -0.0218  0.0937
 2905SOL    HW220349   0.166   2.036   7.864  0.4267 -0.0543 -1.4755
 2906SOL     OW20350   1.945   1.262   4.590 -0.2382 -0.2150  0.0709
 2906SOL    HW120351   1.945   1.269   4.685 -0.8548 -0.0267  0.0598
 2906SOL    HW220352   1.919   1.174   4.562  0.5296  0.1162 -1.6861
 2907SOL     OW20353   3.337   0.640   6.158  0.0320 -0.6070  0.2337
 2907SOL    HW120354   3.381   0.724   6.142 -2.0324  0.4287 -0.0540
 2907SOL    HW220355   3.305   0.628   6.069  2.4999 -1.1798 -0.5669
 2908SOL     OW20356   3.946   1.671  10.122  0.2123  0.2518  0.0237
 2908SOL    HW120357   4.021   1.667  10.063 -0.3194 -0.0320 -0.6353
 2908SOL    HW220358   3.935   1.578  10.146 -0.2868  0.3803  0.2860
 2909SOL     OW20359   4.597   0.436   8.081  0.1638  0.0455 -1.1181
 2909SOL    HW120360   4.678   0.388   8.062  0.9679  0.8887  0.2315
 2909SOL    HW220361   4.633   0.522   8.103  0.2601 -0.4580  0.6901
 2910SOL     OW20362   2.901   0.947  10.720  0.0258  0.4102 -0.3957
 2910SOL    HW120363   2.815   0.911  10.701 -0.2564 -0.2822  2.3294
 2910SOL    HW220364   2.960   0.904  10.657  1.7190 -0.5386  1.8570
 2911SOL     OW20365   2.396   2.652  14.392 -0.2084  0.5443  0.4763
 2911SOL    HW120366   2.445   2.630  14.313 -0.4655  1.0160  0.1864
 2911SOL    HW220367   2.450   2.724  14.424  1.3307 -0.0747 -0.7876
 2912SOL     OW20368   3.291   4.533   4.839  0.2344 -0.1406 -0.0544
 2912SOL    HW120369   3.272   4.588   4.915 -1.1785 -0.6352 -0.0570
 2912SOL    HW220370   3.335   4.598   4.785 -0.8373  1.3164  0.8425
 2913SOL     OW20371   0.246   4.354   5.807 -0.0987  0.4808 -0.0641
 2913SOL    HW120372   0.248   4.284   5.873 -0.7856 -1.3214 -1.9429
 2913SOL    HW220373   0.213   4.425   5.861 -0.3382 -0.5420  1.1353
 2914SOL     OW20374   2.877   0.066   8.206 -0.4401 -0.3003 -0.5065
 2914SOL    HW120375   2.832   0.083   8.123 -0.4010  0.1518 -0.4372
 2914SOL    HW220376   2.821   0.104   8.275 -0.3985 -0.2878 -0.4796
 2915SOL     OW20377   4.156   0.757   1.884  0.0206 -0.0343  0.5027
 2915SOL    HW120378   4.136   0.815   1.958  0.9615  1.0532 -0.1025
 2915SOL    HW220379   4.188   0.686   1.941 -0.7605  1.5936  2.9440
 2916SOL     OW20380   3.557   3.960   4.177  0.1744 -0.3816  0.4360
 2916SOL    HW120381   3.490   3.969   4.109 -0.5786  4.7389  1.8190
 2916SOL    HW220382   3.620   3.912   4.124 -1.6231 -0.6568 -1.4387
 2917SOL     OW20383   3.264   4.277   4.393  0.1970 -0.8937  0.2711
 2917SOL    HW120384   3.289   4.223   4.468  1.1089 -1.6295 -0.5584
 2917SOL    HW220385   3.215   4.337   4.449 -0.2870  1.3110 -2.5183
 2918SOL     OW20386   0.298   3.095  11.792 -0.6769 -0.3744 -0.0812
 2918SOL    HW120387   0.318   3.188  11.799  2.5941 -1.1046  0.4331
 2918SOL    HW220388   0.254   3.080  11.709 -2.7696 -0.2690  1.0074
 2919SOL     OW20389   2.896   0.488   2.717 -0.2500  0.0354 -0.0428
 2919SOL    HW120390   2.864   0.399   2.731  1.7770 -0.5399  0.8522
 2919SOL    HW220391   2.935   0.481   2.630 -0.8723 -1.0955 -0.2272
 2920SOL     OW20392   2.911   3.585   5.922  0.2139  0.1085 -0.2277
 2920SOL    HW120393   2.944   3.503   5.886  0.3690  0.5180 -1.0176
 2920SOL    HW220394   2.910   3.553   6.012  0.1598  2.4514  0.6133
 2921SOL     OW20395   4.335   0.930   6.149 -0.0602  0.5255 -0.1904
 2921SOL    HW120396   4.429   0.946   6.138  0.1803 -0.3778  0.5435
 2921SOL    HW220397   4.337   0.835   6.138 -0.3246  0.8599 -3.2787
 2922SOL     OW20398   2.623   2.598  12.438  0.1445 -0.1053 -0.0227
 2922SOL    HW120399   2.539   2.623  12.400  1.4306  2.4346 -1.1939
 2922SOL    HW220400   2.677   2.670  12.404 -1.1672  1.0384  0.3211
 2923SOL     OW20401   0.169   3.882  13.555  0.4393  0.2660 -0.2623
 2923SOL    HW120402   0.131   3.967  13.576 -2.5497 -1.2872  0.6574
 2923SOL    HW220403   0.232   3.894  13.484 -0.1539 -2.4575 -1.2573
 2924SOL     OW20404   3.305   1.769  11.846  0.1221  0.6478  0.4474
 2924SOL    HW120405   3.274   1.832  11.781  0.5190 -1.6392 -1.9533
 2924SOL    HW220406   3.399   1.786  11.848  0.3929 -0.8364 -0.0214
 2925SOL     OW20407   2.200   4.031   7.877  0.2832  0.0627  0.6269
 2925SOL    HW120408   2.278   4.060   7.923  1.3802  1.5082 -2.1608
 2925SOL    HW220409   2.173   3.958   7.933  0.2821  0.8106  1.6027
 2926SOL     OW20410   4.035   4.355   4.202 -0.1888 -0.2313 -0.0185
 2926SOL    HW120411   4.101   4.350   4.133 -0.1520 -0.0485  0.0029
 2926SOL    HW220412   3.965   4.390   4.148 -1.7563 -4.0051 -0.4478
 2927SOL     OW20413   1.840   3.777  15.777 -0.2899  0.1614  0.6752
 2927SOL    HW120414   1.867   3.868  15.791 -0.0484  0.0855  0.7043
 2927SOL    HW220415   1.851   3.768  15.683  0.0342  0.5693  0.6725
 2928SOL     OW20416   2.288   0.813   1.900  0.1139 -1.2204 -0.1311
 2928SOL    HW120417   2.233   0.742   1.934 -0.0008 -1.1635 -0.2000
 2928SOL    HW220418   2.256   0.823   1.811  0.2002 -0.0755 -0.0255
 2929SOL     OW20419   3.639   1.190  10.429 -0.0856 -0.0169 -0.2701
 2929SOL    HW120420   3.584   1.167  10.504 -1.1771 -0.1679 -1.1138
 2929SOL    HW220421   3.686   1.256  10.479 -1.2297  0.2359  0.4872
 2930SOL     OW20422   2.806   4.161  14.677  0.3556 -0.3791 -0.0199
 2930SOL    HW120423   2.712   4.155  14.697  0.5676  0.8615  1.3289
 2930SOL    HW220424   2.809   4.214  14.597  0.1950 -0.7958 -0.3041
 2931SOL     OW20425   4.266   2.910   7.284 -0.5018  0.2071 -0.5828
 2931SOL    HW120426   4.228   2.899   7.371  0.9226 -0.4797 -0.0359
 2931SOL    HW220427   4.325   2.834   7.283 -0.8271 -0.0614  1.0115
 2932SOL     OW20428   1.346   2.767   1.412  0.0512  0.6187 -0.0518
 2932SOL    HW120429   1.326   2.710   1.338 -3.8678  1.3146  0.4873
 2932SOL    HW220430   1.432   2.737   1.443 -0.1127  1.1547  0.9311
 2933SOL     OW20431   1.387   2.192   3.453 -0.1936  0.8426  0.1176
 2933SOL    HW120432   1.452   2.258   3.476  0.9802  0.7179 -2.8301
 2933SOL    HW220433   1.308   2.243   3.433 -1.0943 -1.5633 -2.5825
 2934SOL     OW20434   0.036   3.370   7.422 -0.8764  0.2523 -0.8867
 2934SOL    HW120435   0.019   3.464   7.429  2.0869  0.8005 -1.0057
 2934SOL    HW220436   0.082   3.347   7.503  0.0103 -0.7662 -1.6763
 2935SOL     OW20437   2.405   4.249   5.464 -0.1348 -0.1706 -0.0168
 2935SOL    HW120438   2.359   4.203   5.535  1.5131 -1.0842  0.4661
 2935SOL    HW220439   2.349   4.327   5.461 -1.3508 -1.0656 -0.7905
 2936SOL     OW20440   0.208   4.120   6.227  0.7195  0.0507 -0.5667
 2936SOL    HW120441   0.124   4.074   6.231 -0.5699  2.3262 -1.6162
 2936SOL    HW220442   0.228   4.128   6.134  0.7448 -0.5307 -0.6163
 2937SOL     OW20443   2.865   2.699  13.827  0.9636  0.3184 -0.4715
 2937SOL    HW120444   2.812   2.642  13.771 -0.5294  1.0093  0.2720
 2937SOL    HW220445   2.929   2.636  13.862  2.9632  1.8941 -1.2482
 2938SOL     OW20446   1.667   2.836   3.315  0.2091  0.3011 -0.5657
 2938SOL    HW120447   1.628   2.759   3.356  3.0343 -0.1726  1.2703
 2938SOL    HW220448   1.721   2.807   3.241  0.7506  1.1251 -0.4943
 2939SOL     OW20449   0.941   3.249   5.098  0.4457  0.4944  0.1860
 2939SOL    HW120450   0.848   3.271   5.092  0.3449  0.3215  1.2426
 2939SOL    HW220451   0.947   3.191   5.174  1.1193  0.4803  0.1222
 2940SOL     OW20452   3.610   4.450   7.096 -0.2836 -0.2576  0.3424
 2940SOL    HW120453   3.651   4.510   7.033 -1.1344 -0.0837 -0.0453
 2940SOL    HW220454   3.553   4.508   7.146 -0.8511 -1.3585  0.9557
 2941SOL     OW20455   3.398   0.182  11.734 -0.5176  0.3391  0.0657
 2941SOL    HW120456   3.386   0.255  11.795  0.1657  1.7539 -1.4611
 2941SOL    HW220457   3.478   0.218  11.694 -0.9513  2.5273  1.1458
 2942SOL     OW20458   0.802   3.501   4.816 -0.0096 -0.0870  0.6029
 2942SOL    HW120459   0.872   3.436   4.818 -1.4575 -1.6781  0.0651
 2942SOL    HW220460   0.837   3.571   4.760  0.1451 -0.8278 -0.2384
 2943SOL     OW20461   0.944   0.394   2.321  0.4645  0.0151 -0.2304
 2943SOL    HW120462   1.000   0.318   2.308  1.0281  0.5060 -0.6685
 2943SOL    HW220463   0.917   0.388   2.413 -0.0734  0.8558 -0.3218
 2944SOL     OW20464   3.220   0.369   7.386  0.2026  0.0673 -0.2484
 2944SOL    HW120465   3.221   0.399   7.295  1.1098  0.3453 -0.1426
 2944SOL    HW220466   3.129   0.339   7.385  0.7507 -1.6225  1.1128
 2945SOL     OW20467   4.274   0.041   4.232  0.6079  0.0174  0.1591
 2945SOL    HW120468   4.277   4.682   4.212  1.7116 -0.8460  4.5206
 2945SOL    HW220469   4.366   0.063   4.239  0.4448  0.1884  1.6826
 2946SOL     OW20470   2.566   4.203  14.438 -0.4295  0.1442 -0.1752
 2946SOL    HW120471   2.491   4.237  14.390 -1.5435  0.7944  2.0194
 2946SOL    HW220472   2.572   4.114  14.403  0.6505 -0.0787  0.5805
 2947SOL     OW20473   2.563   2.221  17.215 -0.3150  0.9059 -0.3350
 2947SOL    HW120474   2.629   2.224  17.145 -1.1902 -0.5376 -1.2256
 2947SOL    HW220475   2.562   2.315  17.235 -1.4368  0.9753 -0.7511
 2948SOL     OW20476   2.127   0.791   7.154  0.4147  0.0318 -0.0952
 2948SOL    HW120477   2.157   0.714   7.104  1.0187  0.4083 -0.3113
 2948SOL    HW220478   2.037   0.815   7.135  0.0777 -0.9160  0.2885
 2949SOL     OW20479   0.022   2.337   6.066  0.0152  0.0926  0.3638
 2949SOL    HW120480   4.697   2.263   6.071  1.6122 -1.0532  2.6539
 2949SOL    HW220481   0.026   2.339   5.970  1.9626 -0.7738  0.4174
 2950SOL     OW20482   3.253   1.086   2.766 -0.1409 -0.4846  0.1067
 2950SOL    HW120483   3.298   1.002   2.776  3.4914  1.2726 -1.4165
 2950SOL    HW220484   3.199   1.060   2.691  1.0793 -1.8314 -0.3077
 2951SOL     OW20485   4.274   0.975   8.726 -0.2973 -0.0738  0.4501
 2951SOL    HW120486   4.208   0.952   8.792  0.2298  1.7353  1.6160
 2951SOL    HW220487   4.345   0.986   8.790  0.3504 -0.3173 -0.2209
 2952SOL     OW20488   3.789   2.236   2.111  0.1402  0.2814  0.2886
 2952SOL    HW120489   3.768   2.144   2.096 -0.0989  0.1176  1.6819
 2952SOL    HW220490   3.794   2.227   2.206 -1.0754  1.4719  0.4775
 2953SOL     OW20491   0.488   0.920   5.029  0.7758 -0.1992  0.5515
 2953SOL    HW120492   0.482   0.869   4.949  0.2151 -0.6904  0.9031
 2953SOL    HW220493   0.541   0.859   5.081  1.3932  0.9017  1.2126
 2954SOL     OW20494   3.564   3.924   7.660  0.4589  0.2370  0.5685
 2954SOL    HW120495   3.604   3.998   7.615  0.6540 -0.5232 -0.5038
 2954SOL    HW220496   3.499   3.970   7.714 -0.4076 -1.5391  1.0362
 2955SOL     OW20497   3.200   3.824   7.257 -0.0542  0.1194 -0.5460
 2955SOL    HW120498   3.288   3.835   7.292  0.4854  0.0331 -1.8922
 2955SOL    HW220499   3.150   3.817   7.339 -0.7195 -1.3144 -1.0780
 2956SOL     OW20500   1.404   4.496   1.921 -0.1819  0.1047  0.0106
 2956SOL    HW120501   1.357   4.470   1.842  0.7127 -0.2127 -0.4160
 2956SOL    HW220502   1.364   4.574   1.959 -1.4313 -0.4824 -0.0840
 2957SOL     OW20503   2.312   4.403   0.893 -0.6477  0.9527 -0.4323
 2957SOL    HW120504   2.263   4.456   0.831  0.5694 -1.3066 -3.3371
 2957SOL    HW220505   2.295   4.454   0.972 -2.3249 -0.0001 -0.1766
 2958SOL     OW20506   1.934   2.830   8.137  0.2525  0.9459 -0.4535
 2958SOL    HW120507   1.945   2.738   8.116  1.9333  0.6812  1.6149
 2958SOL    HW220508   1.885   2.865   8.062 -2.3646  0.2155  0.8870
 2959SOL     OW20509   4.144   2.338   1.611 -0.2486  0.3537  0.4233
 2959SOL    HW120510   4.087   2.413   1.600  0.1642  0.5399 -0.4511
 2959SOL    HW220511   4.227   2.376   1.582 -0.3000  0.7159  0.7449
 2960SOL     OW20512   0.978   4.204   0.379  0.3699  0.2844 -0.1014
 2960SOL    HW120513   0.892   4.168   0.359  0.4184 -0.6794  1.4094
 2960SOL    HW220514   0.987   4.261   0.303  1.8051 -0.8682 -0.8033
 2961SOL     OW20515   2.538   2.146   4.367 -0.3180  0.3539  0.4506
 2961SOL    HW120516   2.516   2.053   4.371 -0.9713  0.5783  2.1025
 2961SOL    HW220517   2.475   2.187   4.308  0.0774 -0.5782 -0.6158
 2962SOL     OW20518   3.175   3.425   3.852  0.2448 -0.1384  0.5241
 2962SOL    HW120519   3.267   3.418   3.875 -0.4928 -1.1614  3.1486
 2962SOL    HW220520   3.157   3.376   3.771 -0.5543 -0.9673  1.2040
 2963SOL     OW20521   1.981   1.022   9.131  0.1313 -0.4155 -0.5145
 2963SOL    HW120522   1.996   0.960   9.060  1.7091  0.8090 -1.2636
 2963SOL    HW220523   2.051   1.080   9.101  0.3294 -1.5207 -2.2124
 2964SOL     OW20524   0.071   3.159   4.681 -0.0382  0.1316  0.2146
 2964SOL    HW120525   0.141   3.168   4.747 -0.4684 -0.0935  0.6986
 2964SOL    HW220526   0.130   3.139   4.608  0.9237  0.8330  0.7854
 2965SOL     OW20527   4.436   0.451   4.177  1.0323  0.2939  0.2742
 2965SOL    HW120528   4.428   0.379   4.114 -0.4482  1.0031 -0.3442
 2965SOL    HW220529   4.485   0.409   4.247 -0.2237  0.2758  1.1413
 2966SOL     OW20530   0.098   4.119   4.079 -0.5880  0.4340  0.0802
 2966SOL    HW120531   0.153   4.064   4.134 -1.0050  0.6145  0.6774
 2966SOL    HW220532   0.039   4.161   4.141  0.4033  1.7914  0.0988
 2967SOL     OW20533   3.271   4.612  10.331  0.8831  0.3881  0.2747
 2967SOL    HW120534   3.310   4.669  10.398  0.6338  2.0062 -0.9550
 2967SOL    HW220535   3.208   4.560  10.381  1.2325  0.5719  0.9065
 2968SOL     OW20536   4.066   3.984   9.221  0.1255  0.0069  0.4616
 2968SOL    HW120537   4.040   4.059   9.168  0.8677  1.7456  2.5578
 2968SOL    HW220538   4.146   4.007   9.267  1.8235 -3.6199 -0.6464
 2969SOL     OW20539   1.153   0.152  16.388  0.1115 -0.4635 -0.4641
 2969SOL    HW120540   1.224   0.208  16.358  0.1774 -0.2474  0.0845
 2969SOL    HW220541   1.143   0.178  16.480 -2.5385  1.0112 -1.1931
 2970SOL     OW20542   0.418   3.550   6.067 -0.6007 -0.3949 -0.1042
 2970SOL    HW120543   0.339   3.513   6.028 -1.2384 -0.3142  1.1200
 2970SOL    HW220544   0.445   3.487   6.133  0.2696  1.2545  1.1249
 2971SOL     OW20545   0.351   4.689  16.250  0.3173  0.1191  0.2755
 2971SOL    HW120546   0.302   4.607  16.258 -0.8258  0.8218  0.5123
 2971SOL    HW220547   0.287   0.020  16.222 -2.0151 -2.6458 -0.9534
 2972SOL     OW20548   0.383   4.389   9.608 -0.0274  0.3283 -0.0949
 2972SOL    HW120549   0.447   4.414   9.675  0.4810 -0.0726 -0.4308
 2972SOL    HW220550   0.357   4.478   9.581 -0.0979  0.3378  0.0076
 2973SOL     OW20551   2.101   4.561   8.322 -0.1563  0.7490  0.1748
 2973SOL    HW120552   2.073   4.564   8.230  1.2301 -0.6344 -0.3048
 2973SOL    HW220553   2.138   4.647   8.339 -2.0364  1.6234 -0.2229
 2974SOL     OW20554   2.067   2.017   4.059  0.3893  0.0319 -0.3824
 2974SOL    HW120555   2.086   1.932   4.098  1.0846  0.4925  0.2794
 2974SOL    HW220556   1.989   2.046   4.106 -0.4274 -0.5480 -1.3841
 2975SOL     OW20557   2.458   1.758  16.009  0.0726  0.1654 -0.6689
 2975SOL    HW120558   2.446   1.826  16.075 -1.3651 -0.4051 -0.3515
 2975SOL    HW220559   2.417   1.788  15.928 -1.5587 -0.2811 -0.0037
 2976SOL     OW20560   4.159   0.566   7.725 -0.1580  0.2916 -0.5683
 2976SOL    HW120561   4.141   0.660   7.724  0.6908  0.4822  1.3990
 2976SOL    HW220562   4.085   0.518   7.763  0.2390  0.5583  0.5423
 2977SOL     OW20563   4.090   4.119  16.340 -0.1909 -0.1717  0.5036
 2977SOL    HW120564   4.094   4.204  16.296 -1.4904 -0.3185  0.0743
 2977SOL    HW220565   3.995   4.109  16.349 -0.2761 -0.1383 -0.3231
 2978SOL     OW20566   3.734   1.654  17.647 -0.3869 -0.0222 -0.4741
 2978SOL    HW120567   3.759   1.572  17.604 -0.9053  0.6238 -2.0284
 2978SOL    HW220568   3.657   1.626  17.696 -0.7027 -0.7551 -1.3841
 2979SOL     OW20569   1.123   3.167   0.897 -0.0346  0.2545  0.2584
 2979SOL    HW120570   1.139   3.220   0.820 -2.5852  0.8690  0.1417
 2979SOL    HW220571   1.185   3.194   0.965  0.5639  1.3219 -0.7352
 2980SOL     OW20572   4.706   2.629   8.409  0.7015  0.6834 -0.0746
 2980SOL    HW120573   4.678   2.717   8.386  0.3578  0.5348 -0.2305
 2980SOL    HW220574   0.023   2.646   8.487  0.7974 -2.1157  0.4857
 2981SOL     OW20575   3.657   0.495   7.823  0.2733 -0.0240  0.2261
 2981SOL    HW120576   3.590   0.544   7.776 -1.5413 -0.8134  1.9736
 2981SOL    HW220577   3.730   0.556   7.818 -0.4292  0.6823 -1.4678
 2982SOL     OW20578   0.125   1.096   4.054  0.4124 -0.0998  0.0972
 2982SOL    HW120579   0.203   1.057   4.014  0.4417 -1.0691  1.1127
 2982SOL    HW220580   0.087   1.018   4.094 -0.3319 -0.6363 -1.6295
 2983SOL     OW20581   2.658   3.635   4.280  0.3562  0.6885 -0.3417
 2983SOL    HW120582   2.653   3.681   4.196 -2.0428  0.2815 -0.4403
 2983SOL    HW220583   2.700   3.553   4.255  1.6194  0.7668  1.4814
 2984SOL     OW20584   0.217   4.121   7.047 -0.3238  0.3316 -0.4372
 2984SOL    HW120585   0.157   4.164   6.986 -0.9639  0.0406 -0.0186
 2984SOL    HW220586   0.271   4.073   6.984  0.7888  0.5020  0.3929
 2985SOL     OW20587   2.407   1.696   3.504  0.3863 -0.2016  0.0509
 2985SOL    HW120588   2.402   1.661   3.593  0.6714  1.6366  0.7966
 2985SOL    HW220589   2.459   1.776   3.512 -1.8012  0.9867  2.6471
 2986SOL     OW20590   3.232   0.688   5.365  0.2591 -0.3137 -0.2769
 2986SOL    HW120591   3.254   0.764   5.312  1.4172 -0.6597 -0.3131
 2986SOL    HW220592   3.178   0.727   5.434  0.2275  0.2298 -0.6166
 2987SOL     OW20593   3.801   0.115   6.207 -0.4323  0.1090 -0.1253
 2987SOL    HW120594   3.794   0.125   6.112 -1.6810  1.9024  0.1615
 2987SOL    HW220595   3.725   0.066   6.238  0.4991 -1.3976 -0.2210
 2988SOL     OW20596   3.669   1.041   1.757  0.0086  0.3025 -0.2436
 2988SOL    HW120597   3.605   1.101   1.795  0.6189 -1.0838  2.9977
 2988SOL    HW220598   3.633   0.958   1.789 -3.2979  1.5212 -0.8194
 2989SOL     OW20599   0.049   0.807   2.464 -0.1002  0.6904  0.4386
 2989SOL    HW120600   0.027   0.895   2.433 -0.2471  0.8005  0.8518
 2989SOL    HW220601   0.145   0.813   2.468  0.0166 -0.7698 -0.1604
 2990SOL     OW20602   3.860   1.355  17.620  0.2243 -0.4188 -0.2532
 2990SOL    HW120603   3.881   1.373  17.528 -0.9614 -0.3280 -0.5036
 2990SOL    HW220604   3.831   1.264  17.628  1.2081 -0.5614  1.7218
 2991SOL     OW20605   1.848   2.460   3.265  0.1966  0.7364  0.1918
 2991SOL    HW120606   1.908   2.524   3.302  1.5170 -0.9175  0.9246
 2991SOL    HW220607   1.887   2.382   3.305  0.6522  0.4060 -0.8922
 2992SOL     OW20608   1.567   1.142   2.523 -0.0944  0.2968  0.3545
 2992SOL    HW120609   1.572   1.196   2.444 -0.1243 -0.6436 -0.2914
 2992SOL    HW220610   1.473   1.126   2.513  0.2170 -2.1521  1.1807
 2993SOL     OW20611   4.349   1.298   1.914  0.4053  0.0657  0.0794
 2993SOL    HW120612   4.415   1.325   1.978 -0.6149  1.6781  0.4242
 2993SOL    HW220613   4.391   1.215   1.891  0.0450 -0.7273  2.2862
 2994SOL     OW20614   1.460   1.339   4.013 -0.0203  0.0199  0.0952
 2994SOL    HW120615   1.555   1.332   4.022 -0.0408 -1.6792 -1.1544
 2994SOL    HW220616   1.465   1.421   3.964 -0.4927  0.1000  0.1842
 2995SOL     OW20617   0.909   1.979   6.299  0.3677  0.1647  0.1133
 2995SOL    HW120618   0.944   2.032   6.371 -0.3696 -0.9185  1.2796
 2995SOL    HW220619   0.986   1.972   6.242 -1.2314 -0.4422 -1.9877
 2996SOL     OW20620   1.956   2.893  15.148  0.1455  0.5443 -0.2653
 2996SOL    HW120621   1.976   2.815  15.096 -1.4185 -0.2980  0.3969
 2996SOL    HW220622   1.860   2.894  15.146  0.1596 -0.2225 -1.1612
 2997SOL     OW20623   1.382   1.982  13.361 -0.5282 -0.2316  0.4313
 2997SOL    HW120624   1.456   2.042  13.363  0.1551 -1.1530  2.3887
 2997SOL    HW220625   1.382   1.956  13.453  1.3356  2.2409  1.1354
 2998SOL     OW20626   3.595   0.582   6.852 -0.3631 -0.2235  0.2976
 2998SOL    HW120627   3.682   0.542   6.855  0.9803  2.6153 -0.3851
 2998SOL    HW220628   3.589   0.617   6.941  1.6518 -3.9417  1.8815
 2999SOL     OW20629   4.706   0.279  11.550 -0.1364  0.0712  0.0308
 2999SOL    HW120630   4.730   0.265  11.459 -2.0126 -2.8657 -0.0609
 2999SOL    HW220631   4.727   0.371  11.560 -0.3293  0.0429  0.6949
 3000SOL     OW20632   4.268   3.076  17.569 -0.0942 -0.0870 -0.0747
 3000SOL    HW120633   4.203   3.105  17.633  0.5001  0.1294  0.4385
 3000SOL    HW220634   4.309   3.013  17.629 -3.1748 -1.5030  0.5336
 3001SOL     OW20635   3.192   3.324   7.906 -0.7832  0.1066  0.4652
 3001SOL    HW120636   3.124   3.317   7.840  0.9530 -0.7464 -1.2211
 3001SOL    HW220637   3.212   3.235   7.933 -1.9964 -0.0904  0.7168
 3002SOL     OW20638   0.088   2.586   1.828  0.1476  0.6889 -0.4352
 3002SOL    HW120639   0.131   2.589   1.913 -0.3347  1.0436 -0.2008
 3002SOL    HW220640   0.168   2.582   1.776  0.2526 -0.5409 -0.1674
 3003SOL     OW20641   3.365   3.594   9.485 -0.0507 -0.5176  0.2072
 3003SOL    HW120642   3.394   3.609   9.395  1.7945  1.3922  1.1216
 3003SOL    HW220643   3.316   3.513   9.477 -1.6660  0.5451 -0.5906
 3004SOL     OW20644   4.537   0.292   7.783  0.0478  0.2769  0.2232
 3004SOL    HW120645   4.529   0.379   7.823  1.5045  0.6687 -0.3373
 3004SOL    HW220646   4.597   0.307   7.710  0.6744  0.6585  0.8152
 3005SOL     OW20647   2.710   0.386  10.381  0.3851 -0.3536 -0.4633
 3005SOL    HW120648   2.639   0.353  10.325  0.5382  3.8686 -3.1553
 3005SOL    HW220649   2.758   0.433  10.312  0.1257 -1.8576 -1.6800
 3006SOL     OW20650   0.490   1.901   6.038 -1.3176  0.1155  0.6440
 3006SOL    HW120651   0.443   1.957   5.977  1.5128  1.2582 -0.4844
 3006SOL    HW220652   0.515   1.831   5.978 -1.4521  1.5864 -1.1341
 3007SOL     OW20653   1.842   3.431   0.674  0.0429 -0.6950  0.2787
 3007SOL    HW120654   1.794   3.409   0.754  1.1181 -1.9743  0.5836
 3007SOL    HW220655   1.931   3.400   0.694 -0.0117 -0.3124  1.1066
 3008SOL     OW20656   0.114   1.947   8.404 -0.5896  0.2308 -0.9138
 3008SOL    HW120657   0.126   1.942   8.499 -3.7542 -1.4887 -0.6022
 3008SOL    HW220658   0.119   2.042   8.391 -1.4042  0.2409 -1.1167
 3009SOL     OW20659   1.683   1.449   8.751  0.0816  0.0368 -0.3859
 3009SOL    HW120660   1.674   1.353   8.747  1.3881 -0.0855 -0.5816
 3009SOL    HW220661   1.773   1.476   8.731 -0.4124  0.6220 -1.7923
 3010SOL     OW20662   1.348   0.128   4.181 -0.0969 -0.1863 -0.0972
 3010SOL    HW120663   1.442   0.124   4.199 -0.2747 -1.5681  0.4769
 3010SOL    HW220664   1.308   0.181   4.249 -0.2680 -0.0838 -0.2766
 3011SOL     OW20665   0.741   1.502  14.294  0.4962 -1.2277 -0.1887
 3011SOL    HW120666   0.762   1.557  14.369 -0.7975 -1.3210  0.2327
 3011SOL    HW220667   0.646   1.501  14.287  0.5400 -2.3561 -0.5553
 3012SOL     OW20668   0.153   2.219   1.668  0.0083 -0.1646  0.1868
 3012SOL    HW120669   0.091   2.201   1.738  1.9655 -0.8264  1.7650
 3012SOL    HW220670   0.095   2.241   1.595  1.3096 -0.2481 -0.8895
 3013SOL     OW20671   3.910   3.340  10.389  0.1594  0.2971 -1.3035
 3013SOL    HW120672   3.969   3.411  10.414 -1.2557  1.4229 -1.2146
 3013SOL    HW220673   3.831   3.371  10.434 -0.0960 -0.7293 -1.0220
 3014SOL     OW20674   4.181   4.461   5.031 -0.2618  0.8740  0.3656
 3014SOL    HW120675   4.235   4.530   5.071  1.1644 -0.0331  0.0201
 3014SOL    HW220676   4.192   4.497   4.943  1.1397  0.4298  0.3576
 3015SOL     OW20677   2.211   2.804   2.345  0.1404 -0.1695  0.2300
 3015SOL    HW120678   2.298   2.776   2.373 -0.3787 -3.6230 -1.5765
 3015SOL    HW220679   2.225   2.895   2.319  0.1998 -0.3350 -0.3202
 3016SOL     OW20680   2.933   4.412   7.589 -0.4140  0.7103 -0.1462
 3016SOL    HW120681   2.967   4.385   7.674 -0.1059  0.7681 -0.2531
 3016SOL    HW220682   3.017   4.428   7.547 -0.5228  0.4175 -0.4800
 3017SOL     OW20683   3.748   1.965   2.504  0.0629  0.4177  0.2643
 3017SOL    HW120684   3.803   1.904   2.457 -1.1230  1.7930 -2.9059
 3017SOL    HW220685   3.762   1.937   2.594  0.3204  0.9097  0.3781
 3018SOL     OW20686   0.740   1.015   1.728  0.3637 -0.2305  0.2453
 3018SOL    HW120687   0.779   1.068   1.659  1.0636  1.9404  2.3218
 3018SOL    HW220688   0.746   1.071   1.805 -0.8537  0.7440 -0.3689
 3019SOL     OW20689   1.066   0.824   9.590  0.5076 -0.0597  0.8887
 3019SOL    HW120690   1.123   0.865   9.655  1.5557 -0.4629  0.2272
 3019SOL    HW220691   1.126   0.841   9.518  0.8415  2.3358  1.7265
 3020SOL     OW20692   1.392   1.528  13.320  0.2856 -0.7943  0.5308
 3020SOL    HW120693   1.349   1.613  13.327  1.6462 -0.0898  0.3684
 3020SOL    HW220694   1.432   1.531  13.407 -1.2201  2.5179  1.1317
 3021SOL     OW20695   0.277   2.642  11.207  0.0896  0.1041  0.0144
 3021SOL    HW120696   0.264   2.634  11.301 -1.9326  1.2609 -0.1740
 3021SOL    HW220697   0.217   2.710  11.177 -0.3582  1.0287  3.0800
 3022SOL     OW20698   1.134   1.916   6.142  0.0288  0.3604 -0.4587
 3022SOL    HW120699   1.167   1.945   6.057 -0.7753  0.2193 -0.8178
 3022SOL    HW220700   1.179   1.831   6.145 -0.4664  0.0577 -1.7436
 3023SOL     OW20701   0.222   3.565  15.189 -0.3077 -0.1085 -0.0696
 3023SOL    HW120702   0.255   3.520  15.267  2.1995  0.0712 -1.0228
 3023SOL    HW220703   0.146   3.510  15.171 -1.0651  1.2559 -0.9714
 3024SOL     OW20704   2.110   2.688   6.158 -0.2256 -0.1567 -0.2466
 3024SOL    HW120705   2.164   2.759   6.195  0.8243 -0.7428 -0.6483
 3024SOL    HW220706   2.115   2.701   6.063 -2.9764 -0.7104 -0.4520
 3025SOL     OW20707   0.818   4.243  14.040  0.0951  0.2067 -0.3074
 3025SOL    HW120708   0.858   4.328  14.028 -0.3584  0.3319 -0.9620
 3025SOL    HW220709   0.894   4.186  14.051 -0.5697 -0.1089  2.5184
 3026SOL     OW20710   0.629   3.411   2.507  0.5792  0.0035 -0.0984
 3026SOL    HW120711   0.536   3.436   2.508  0.7049  0.4661 -0.0818
 3026SOL    HW220712   0.665   3.500   2.506 -2.0779  1.1176  1.1042
 3027SOL     OW20713   3.219   4.047  13.661 -0.0656 -0.4184 -0.0547
 3027SOL    HW120714   3.142   4.079  13.708  2.2952  0.2994  3.3633
 3027SOL    HW220715   3.184   4.025  13.575  0.0497 -1.5404  0.1867
 3028SOL     OW20716   2.265   0.225   5.200 -0.3167 -0.6692 -0.2782
 3028SOL    HW120717   2.194   0.163   5.184  0.6401 -1.4999 -1.2830
 3028SOL    HW220718   2.294   0.229   5.109  1.8124 -1.4180  0.3507
 3029SOL     OW20719   1.192   4.151  12.770  0.8617  0.5842  0.4183
 3029SOL    HW120720   1.262   4.086  12.764 -0.3153 -0.6143 -0.2453
 3029SOL    HW220721   1.173   4.156  12.676  2.1364  0.7191  0.1689
 3030SOL     OW20722   0.910   3.651   0.712  0.2876 -0.5121 -0.2291
 3030SOL    HW120723   0.905   3.601   0.630 -2.7263  0.9563 -0.9363
 3030SOL    HW220724   0.852   3.592   0.761  1.1113 -1.3251 -0.2300
 3031SOL     OW20725   3.581   4.383   3.693 -0.1900  0.3187 -0.3650
 3031SOL    HW120726   3.498   4.357   3.654 -0.9444  1.4685  0.4506
 3031SOL    HW220727   3.632   4.306   3.668  0.3967  0.0197  1.7186
 3032SOL     OW20728   1.806   2.934  13.698  0.0274  0.4483 -0.2486
 3032SOL    HW120729   1.798   2.894  13.784 -2.1423 -2.7487 -1.9334
 3032SOL    HW220730   1.890   2.980  13.708 -0.3518  1.2329 -0.6655
 3033SOL     OW20731   2.562   4.063   4.084  0.4486  0.5028  0.3341
 3033SOL    HW120732   2.485   4.046   4.138  0.8249  0.1899  0.7692
 3033SOL    HW220733   2.525   4.141   4.043 -0.1434 -1.8579 -3.7316
 3034SOL     OW20734   1.631   3.552   1.121  0.4807  0.1301 -0.1773
 3034SOL    HW120735   1.703   3.593   1.072  0.8555 -1.4466 -0.9490
 3034SOL    HW220736   1.562   3.617   1.110  0.9649  0.1375 -3.0974
 3035SOL     OW20737   2.665   0.801   3.897 -0.1258 -0.2183 -0.3448
 3035SOL    HW120738   2.721   0.864   3.851 -1.0210 -0.2991 -1.5166
 3035SOL    HW220739   2.726   0.756   3.956 -0.5207  1.8906  1.6783
 3036SOL     OW20740   4.206   1.022   4.036 -0.2146  0.3402 -0.0087
 3036SOL    HW120741   4.254   1.104   4.047  3.6499 -1.9210 -0.1515
 3036SOL    HW220742   4.172   1.043   3.949  0.7841  0.3941 -0.3890
 3037SOL     OW20743   2.087   2.295   2.274 -0.1579  0.0770  0.2680
 3037SOL    HW120744   2.011   2.342   2.240 -0.1300  0.9255  1.3704
 3037SOL    HW220745   2.061   2.246   2.352 -1.8012 -0.2854 -0.5192
 3038SOL     OW20746   2.328   2.120   6.323  0.2172 -0.0571 -1.1350
 3038SOL    HW120747   2.374   2.041   6.352 -1.2417 -0.3584  0.3153
 3038SOL    HW220748   2.354   2.129   6.231 -1.3893  1.2009 -1.4658
 3039SOL     OW20749   4.106   1.164   1.876  0.2469 -0.1669  0.0185
 3039SOL    HW120750   4.108   1.074   1.908 -1.6773  0.1473  1.0349
 3039SOL    HW220751   4.188   1.207   1.899  0.6183 -1.1147  0.4887
 3040SOL     OW20752   1.720   2.513   7.205  0.0076  0.0329 -0.4746
 3040SOL    HW120753   1.788   2.451   7.232 -0.4084 -0.4535 -0.5503
 3040SOL    HW220754   1.646   2.457   7.228 -0.0778  0.4831  0.3414
 3041SOL     OW20755   0.978   3.279   9.393 -0.2104  0.2512 -0.0209
 3041SOL    HW120756   1.028   3.358   9.416 -1.2267  0.8576  0.1407
 3041SOL    HW220757   1.023   3.207   9.437 -0.6047  0.0335  0.0215
 3042SOL     OW20758   4.102   3.132  10.250  0.0235 -0.0674 -0.5345
 3042SOL    HW120759   4.016   3.091  10.250  0.8213 -1.7585 -2.4953
 3042SOL    HW220760   4.125   3.121  10.342  0.9941  1.2613 -0.6126
 3043SOL     OW20761   3.862   3.922   4.474  0.3721 -0.2450 -0.6577
 3043SOL    HW120762   3.917   3.980   4.420 -0.0040 -0.1418 -0.9348
 3043SOL    HW220763   3.829   3.976   4.545  2.4021 -0.3746  0.3751
 3044SOL     OW20764   0.236   0.007   8.254 -0.3539 -0.0484 -0.4021
 3044SOL    HW120765   0.243   0.038   8.163  0.0088 -0.8625 -0.6536
 3044SOL    HW220766   0.155   4.690   8.255  1.2359 -2.3876  3.7281
 3045SOL     OW20767   0.256   2.426   0.721 -0.0181 -0.4187 -0.2060
 3045SOL    HW120768   0.250   2.420   0.625  2.1047  0.4459 -0.3896
 3045SOL    HW220769   0.300   2.510   0.732 -1.4966  0.2336  0.7110
 3046SOL     OW20770   4.431   0.563   7.007 -0.1320 -0.3367 -0.1786
 3046SOL    HW120771   4.493   0.489   7.003  0.3854  0.0893 -0.0887
 3046SOL    HW220772   4.362   0.523   6.954  0.3988  0.6071 -1.5872
 3047SOL     OW20773   2.912   0.739   7.072 -0.6778  0.0809 -0.0440
 3047SOL    HW120774   2.970   0.815   7.066  1.0799 -1.1178  2.0628
 3047SOL    HW220775   2.846   0.758   7.005  0.6151 -0.8703 -1.5869
 3048SOL     OW20776   3.529   3.321   9.238 -0.4827  0.4039 -0.0148
 3048SOL    HW120777   3.496   3.406   9.208 -0.4139  0.2924 -0.4020
 3048SOL    HW220778   3.617   3.345   9.268  0.0705  0.7714 -1.9596
 3049SOL     OW20779   1.245   2.865   3.933  0.2717  0.1612  0.1561
 3049SOL    HW120780   1.321   2.913   3.901  0.0235  2.0036  2.3652
 3049SOL    HW220781   1.292   2.782   3.941 -0.0546 -0.2350 -1.9385
 3050SOL     OW20782   2.946   2.640  16.295 -0.5417 -0.0565 -0.2689
 3050SOL    HW120783   2.977   2.576  16.231 -1.5312 -0.1094 -0.7004
 3050SOL    HW220784   2.903   2.706  16.241 -1.5993  0.2225  0.9035
 3051SOL     OW20785   2.885   0.009   6.049  0.1861  0.8146 -0.3540
 3051SOL    HW120786   2.873   0.036   5.958  0.6805 -0.0753 -0.6833
 3051SOL    HW220787   2.903   4.651   6.039 -1.2227  0.4921  0.1303
 3052SOL     OW20788   2.896   3.297   6.884 -0.3366  0.0914 -0.0322
 3052SOL    HW120789   2.920   3.354   6.957  1.9753  0.9854 -1.4822
 3052SOL    HW220790   2.877   3.217   6.933  2.3625  0.0935  0.9978
 3053SOL     OW20791   2.088   1.850  16.052 -0.0971  0.5288 -0.2793
 3053SOL    HW120792   2.029   1.836  15.978  1.2960 -0.3072 -1.2405
 3053SOL    HW220793   2.065   1.936  16.087  1.7073  0.0219  2.2003
 3054SOL     OW20794   3.067   4.729   2.941  0.1461 -0.0659  0.0922
 3054SOL    HW120795   3.048   4.663   2.875  1.0798 -0.5718  0.3305
 3054SOL    HW220796   2.993   4.709   2.998  0.2484  0.9753  0.5971
 3055SOL     OW20797   3.915   3.037   6.101 -0.5447  0.1911 -0.0101
 3055SOL    HW120798   3.868   3.002   6.177  0.4643 -0.9916  0.0781
 3055SOL    HW220799   3.988   3.085   6.142  0.7420 -0.7925 -1.1332
 3056SOL     OW20800   4.210   2.227   9.382  0.5450 -0.2938  0.5467
 3056SOL    HW120801   4.268   2.293   9.420  0.1603 -0.8863  2.1841
 3056SOL    HW220802   4.256   2.148   9.411 -0.9174 -0.6124  2.0690
 3057SOL     OW20803   1.897   3.170  14.539  0.1737  0.3017 -0.4475
 3057SOL    HW120804   1.980   3.175  14.491 -0.4269 -0.5395 -1.5652
 3057SOL    HW220805   1.889   3.254  14.585  0.7744 -0.1086  0.4084
 3058SOL     OW20806   0.112   4.428   4.746 -0.2523 -0.0018  0.1530
 3058SOL    HW120807   0.079   4.410   4.834  0.2637  0.1599  0.3773
 3058SOL    HW220808   0.197   4.464   4.772 -0.1140  0.3775 -0.8108
 3059SOL     OW20809   1.535   3.331   3.577  0.3801 -0.3982 -0.2781
 3059SOL    HW120810   1.595   3.338   3.502  0.4598  1.6633 -0.0195
 3059SOL    HW220811   1.559   3.402   3.635 -0.2943 -0.4726  0.0866
 3060SOL     OW20812   3.715   4.513   7.720 -0.0079 -1.0350 -0.1327
 3060SOL    HW120813   3.629   4.480   7.694 -0.7290  1.1621 -0.5746
 3060SOL    HW220814   3.713   4.596   7.673 -1.3053 -0.8944  0.1632
 3061SOL     OW20815   3.139   2.075   6.318  0.3908 -0.5855 -0.0255
 3061SOL    HW120816   3.195   2.145   6.350 -1.7533 -0.1719  2.8513
 3061SOL    HW220817   3.146   2.032   6.403 -1.5899  0.7052  0.7997
 3062SOL     OW20818   2.421   0.372  14.196  0.0361  0.1196  0.7281
 3062SOL    HW120819   2.478   0.295  14.185 -0.6896  0.0788 -2.5612
 3062SOL    HW220820   2.436   0.426  14.119  1.7298 -1.4994 -0.0858
 3063SOL     OW20821   1.866   4.052  12.345  0.2445  0.5018 -0.3035
 3063SOL    HW120822   1.912   4.131  12.373 -1.8782  1.5256  0.2769
 3063SOL    HW220823   1.925   4.010  12.283 -1.0864  0.2689 -1.4031
 3064SOL     OW20824   1.019   0.046   4.254  0.3639  0.2450 -0.4990
 3064SOL    HW120825   1.060   4.696   4.244  0.5233  0.4871 -1.9069
 3064SOL    HW220826   1.001   0.073   4.164 -0.8190  0.1395 -0.2962
 3065SOL     OW20827   0.674   0.638   3.449  0.3512 -0.6566 -0.3650
 3065SOL    HW120828   0.669   0.620   3.543  0.3756  1.9612  0.1288
 3065SOL    HW220829   0.608   0.581   3.411 -0.4781  0.6963 -0.9467
 3066SOL     OW20830   1.551   2.654  10.738  0.0863 -0.6820 -0.1604
 3066SOL    HW120831   1.464   2.649  10.699 -0.5260  2.2398  0.8024
 3066SOL    HW220832   1.571   2.747  10.744 -0.9694 -0.3532 -1.6262
 3067SOL     OW20833   0.535   0.725   4.143 -0.2872 -0.3921  0.0483
 3067SOL    HW120834   0.510   0.654   4.202 -1.1632  1.4660  1.9131
 3067SOL    HW220835   0.525   0.800   4.201  0.2969  0.3837 -0.8452
 3068SOL     OW20836   0.624   3.888   1.917  0.1552 -0.1262 -0.6784
 3068SOL    HW120837   0.701   3.944   1.929  0.8960 -1.6703  1.7753
 3068SOL    HW220838   0.582   3.921   1.838 -0.5200 -1.5782 -0.9281
 3069SOL     OW20839   3.237   2.476   7.869 -0.2438  0.6051  0.2284
 3069SOL    HW120840   3.268   2.535   7.800 -0.4035 -0.1078 -0.4420
 3069SOL    HW220841   3.221   2.394   7.823  1.5840 -0.2301  1.0867
 3070SOL     OW20842   1.443   2.865  13.731  0.2113  0.3899  0.3039
 3070SOL    HW120843   1.429   2.914  13.812 -3.3016  0.9019 -0.6148
 3070SOL    HW220844   1.533   2.836  13.746  0.2337  0.4208  0.2306
 3071SOL     OW20845   0.534   3.488  11.529 -0.4984 -0.0205 -1.2423
 3071SOL    HW120846   0.512   3.550  11.599  0.4839 -1.3199  0.2090
 3071SOL    HW220847   0.573   3.557  11.475  0.7771 -0.2198 -0.5772
 3072SOL     OW20848   3.451   2.876   5.096  0.3562  0.1531 -0.6408
 3072SOL    HW120849   3.384   2.807   5.102  3.3160 -2.6025  0.5463
 3072SOL    HW220850   3.454   2.896   5.190  2.4850  1.0539 -0.9074
 3073SOL     OW20851   1.307   4.701   5.324 -0.0292  0.2556  0.0722
 3073SOL    HW120852   1.372   4.630   5.323  0.5733  0.7914  1.0125
 3073SOL    HW220853   1.332   0.008   5.406  5.2059 -1.9081 -0.3962
 3074SOL     OW20854   1.902   1.687   4.726  0.5191  0.0393 -0.7654
 3074SOL    HW120855   1.997   1.685   4.739  0.3266 -2.5009  0.3528
 3074SOL    HW220856   1.876   1.775   4.755 -3.3403 -0.8881 -1.4652
 3075SOL     OW20857   3.552   1.823   6.255  0.3752 -0.2239 -0.1814
 3075SOL    HW120858   3.647   1.826   6.266  0.6329 -1.8111 -1.8894
 3075SOL    HW220859   3.523   1.895   6.311  2.0393  0.1981  0.1672
 3076SOL     OW20860   0.858   2.850   4.273 -0.0124  0.2213 -0.2218
 3076SOL    HW120861   0.804   2.922   4.304 -0.3360 -0.8079  1.5892
 3076SOL    HW220862   0.886   2.798   4.349 -2.2850 -1.4677 -0.5619
 3077SOL     OW20863   1.206   3.532   0.827 -0.0728 -0.4056 -0.4426
 3077SOL    HW120864   1.230   3.494   0.911  1.5849  0.3215 -0.5804
 3077SOL    HW220865   1.280   3.593   0.820  1.3503 -2.1245 -0.5412
 3078SOL     OW20866   2.683   0.583   3.023 -0.4842 -0.5648 -0.3874
 3078SOL    HW120867   2.718   0.501   3.058 -0.5506 -0.8061 -0.8845
 3078SOL    HW220868   2.759   0.613   2.974 -0.7864 -0.8020 -1.0116
 3079SOL     OW20869   2.936   0.489   8.725 -0.5106  0.6184 -0.1772
 3079SOL    HW120870   2.931   0.446   8.810 -0.7658  1.2377  0.1205
 3079SOL    HW220871   2.871   0.557   8.743  0.6089  1.5001  0.5029
 3080SOL     OW20872   0.734   2.566   8.780 -0.5280  0.0377  0.3507
 3080SOL    HW120873   0.648   2.553   8.820 -0.4135 -0.1400  0.5391
 3080SOL    HW220874   0.788   2.568   8.858 -0.6450 -0.9408  0.4491
 3081SOL     OW20875   0.462   2.465   3.772  0.3756 -0.0686 -0.2241
 3081SOL    HW120876   0.409   2.405   3.719 -0.3360 -1.0094  1.5208
 3081SOL    HW220877   0.509   2.515   3.706 -0.1791 -0.0826 -0.6304
 3082SOL     OW20878   2.752   1.798   5.261 -0.0575 -0.0052  0.5511
 3082SOL    HW120879   2.659   1.779   5.258  0.4936 -2.6595  0.0832
 3082SOL    HW220880   2.779   1.816   5.171  0.6852  3.8694  1.5595
 3083SOL     OW20881   4.456   3.241  10.409  0.2888 -0.0584  0.0118
 3083SOL    HW120882   4.544   3.203  10.406  0.3704  0.2325 -1.2667
 3083SOL    HW220883   4.417   3.222  10.324  0.6347 -0.1702 -0.1245
 3084SOL     OW20884   1.933   1.746  15.644  0.4547  0.0396 -0.1370
 3084SOL    HW120885   2.019   1.713  15.670  0.4483  0.3866  0.3229
 3084SOL    HW220886   1.905   1.666  15.599 -1.9131 -0.6832  2.7039
 3085SOL     OW20887   3.850   2.346   3.097 -0.1491 -0.4636 -0.0220
 3085SOL    HW120888   3.795   2.335   3.175  0.7151  0.7039  0.7585
 3085SOL    HW220889   3.937   2.318   3.127  0.0438 -0.7377 -0.8445
 3086SOL     OW20890   3.271   0.494   1.676  0.4243  0.4520 -0.1373
 3086SOL    HW120891   3.218   0.507   1.597 -0.1314  1.0939  0.3397
 3086SOL    HW220892   3.258   0.401   1.694  0.1893  0.2192 -1.5302
 3087SOL     OW20893   0.265   3.600  14.033  0.2544 -0.2787 -0.3611
 3087SOL    HW120894   0.174   3.625  14.017 -0.4430 -2.3243  0.3951
 3087SOL    HW220895   0.278   3.625  14.125  0.4213  1.7825 -0.9401
 3088SOL     OW20896   0.602   2.842   7.260  0.1356 -0.0401 -0.6957
 3088SOL    HW120897   0.627   2.756   7.294  1.3608  0.2174 -0.9312
 3088SOL    HW220898   0.603   2.818   7.168  4.6939  0.8726 -0.9066
 3089SOL     OW20899   2.461   3.468   7.901  0.1505  0.2024  0.0927
 3089SOL    HW120900   2.366   3.472   7.915 -0.1112  1.3340 -2.0737
 3089SOL    HW220901   2.473   3.548   7.851 -1.8551  0.6344  0.3203
 3090SOL     OW20902   3.252   1.476   2.115  0.1029  0.1325  0.5140
 3090SOL    HW120903   3.280   1.498   2.026 -2.7348 -1.0075 -0.6651
 3090SOL    HW220904   3.248   1.556   2.166 -0.8919  0.9286 -0.8251
 3091SOL     OW20905   1.806   4.350   8.495 -0.2118 -0.6218  0.1632
 3091SOL    HW120906   1.795   4.327   8.402  0.7022 -0.2743 -0.0341
 3091SOL    HW220907   1.901   4.356   8.503 -0.1662 -2.0290  0.5870
 3092SOL     OW20908   0.806   4.644  11.312  0.4274 -0.0549  0.0555
 3092SOL    HW120909   0.763   4.725  11.283 -1.3230 -1.6231 -1.7311
 3092SOL    HW220910   0.894   4.681  11.320 -0.8875  3.0295  0.3590
 3093SOL     OW20911   3.220   4.035  11.194 -0.5931  0.4417  0.7236
 3093SOL    HW120912   3.237   3.942  11.179  1.5259  0.7610  1.0985
 3093SOL    HW220913   3.263   4.046  11.279 -2.5470  0.0442  1.7556
 3094SOL     OW20914   1.750   2.717   6.738 -0.5609 -0.1243 -0.2849
 3094SOL    HW120915   1.816   2.740   6.673 -0.5680 -1.1798 -0.6709
 3094SOL    HW220916   1.806   2.706   6.815 -1.1854 -0.3055  0.1428
 3095SOL     OW20917   1.514   4.508   5.331  0.0240  0.4617  0.2877
 3095SOL    HW120918   1.470   4.453   5.395 -1.8825 -0.0028 -1.4106
 3095SOL    HW220919   1.601   4.469   5.327 -0.1476  0.3096 -1.9024
 3096SOL     OW20920   1.598   4.268   8.151  0.4262 -0.3189  0.2171
 3096SOL    HW120921   1.548   4.266   8.233 -0.0306 -1.5007 -0.0976
 3096SOL    HW220922   1.673   4.211   8.166  1.6712  0.6056 -2.4748
 3097SOL     OW20923   2.697   1.851  13.144  0.1571 -0.2970 -0.0582
 3097SOL    HW120924   2.780   1.848  13.192  1.4430  0.2699 -2.2441
 3097SOL    HW220925   2.640   1.892  13.209  1.1766  0.4229  0.3933
 3098SOL     OW20926   2.536   0.471   1.894 -0.1357  0.2100 -1.0095
 3098SOL    HW120927   2.462   0.431   1.940  0.8764 -0.8459 -0.2975
 3098SOL    HW220928   2.565   0.545   1.946 -0.0395 -1.2548  1.0269
 3099SOL     OW20929   2.681   2.323   7.517  0.1923 -0.3891  0.1237
 3099SOL    HW120930   2.597   2.351   7.483  2.0767  1.7961 -2.6844
 3099SOL    HW220931   2.742   2.383   7.475  0.6527  0.8049  2.4711
 3100SOL     OW20932   2.785   0.778  10.963  0.0570  0.3345  0.0620
 3100SOL    HW120933   2.875   0.804  10.984  0.6553 -1.6419 -0.0807
 3100SOL    HW220934   2.742   0.863  10.949 -1.3986 -0.5343 -0.7736
 3101SOL     OW20935   2.040   3.365   2.512  0.1551 -0.6180  0.1542
 3101SOL    HW120936   1.994   3.447   2.525 -2.7924 -2.2553 -0.0184
 3101SOL    HW220937   2.044   3.333   2.602  0.7629 -1.0408 -0.0151
 3102SOL     OW20938   0.393   1.764   6.549  0.4932 -0.2754  0.2210
 3102SOL    HW120939   0.385   1.680   6.505  1.3933  1.4193 -3.2411
 3102SOL    HW220940   0.300   1.787   6.547  0.1928 -1.4878  0.7014
 3103SOL     OW20941   2.436   2.580   8.150  0.5354 -0.5241  0.2518
 3103SOL    HW120942   2.466   2.636   8.078  1.2531  1.2043  1.8823
 3103SOL    HW220943   2.393   2.507   8.106 -0.5358  0.4978 -0.3889
 3104SOL     OW20944   2.684   4.726  15.142  0.1655  0.7537  0.2203
 3104SOL    HW120945   2.709   4.679  15.062 -0.7134  0.1128  0.3242
 3104SOL    HW220946   2.613   0.049  15.118 -1.0840 -1.0897 -0.5903
 3105SOL     OW20947   2.853   1.552   4.862 -0.0510  0.3234 -0.3599
 3105SOL    HW120948   2.834   1.556   4.768 -0.1804  2.6042 -0.2418
 3105SOL    HW220949   2.912   1.476   4.866  2.1855  2.1564  1.6629
 3106SOL     OW20950   1.057   4.573   6.012 -0.4425  0.0735 -0.1189
 3106SOL    HW120951   0.999   4.507   6.049  1.4300 -1.9305 -0.7409
 3106SOL    HW220952   0.997   4.647   6.008 -0.5166  0.0088 -0.1941
 3107SOL     OW20953   3.128   0.841   4.440 -0.1678 -0.2875  0.2848
 3107SOL    HW120954   3.097   0.832   4.350  0.6622  1.3792 -0.1712
 3107SOL    HW220955   3.156   0.933   4.446 -1.8105  0.1467  1.2408
 3108SOL     OW20956   2.957   2.276  15.343 -0.1047  0.1227  0.1294
 3108SOL    HW120957   2.971   2.188  15.310 -1.5487  0.3674 -1.1551
 3108SOL    HW220958   2.876   2.299  15.297 -0.5904 -1.0379  0.4051
 3109SOL     OW20959   0.927   2.464   3.453 -0.3425  0.5106 -0.0681
 3109SOL    HW120960   0.975   2.384   3.473  0.8810  1.0872 -0.7081
 3109SOL    HW220961   0.837   2.439   3.433  0.3411 -0.8869 -1.4105
 3110SOL     OW20962   3.687   2.949   5.368 -0.1750 -0.0272  0.6127
 3110SOL    HW120963   3.767   2.994   5.341 -0.2342 -0.6531 -0.6302
 3110SOL    HW220964   3.687   2.868   5.317 -0.2806 -1.0633  2.2984
 3111SOL     OW20965   1.195   4.703   2.487 -0.0847  0.1687  0.3565
 3111SOL    HW120966   1.228   4.618   2.459 -1.6745 -0.4849  0.4663
 3111SOL    HW220967   1.135   4.686   2.560 -1.2504 -4.7150 -1.7593
 3112SOL     OW20968   2.968   2.616  14.195 -0.2975 -0.8642  0.0845
 3112SOL    HW120969   3.020   2.630  14.274 -1.4886  0.6914  0.6212
 3112SOL    HW220970   3.020   2.655  14.125  0.6659 -2.9293 -0.3386
 3113SOL     OW20971   1.721   2.769   4.741 -0.4232 -0.2347 -0.3967
 3113SOL    HW120972   1.782   2.715   4.791 -1.2715 -1.5823 -0.8203
 3113SOL    HW220973   1.736   2.730   4.655  0.7036 -0.5406 -0.0608
 3114SOL     OW20974   4.443   2.389   4.023  0.0196 -0.4849 -0.4416
 3114SOL    HW120975   4.393   2.338   3.960  0.3741 -0.6035 -0.6259
 3114SOL    HW220976   4.469   2.469   3.976  0.4024  0.9402  2.1878
 3115SOL     OW20977   2.361   1.666   5.800  0.5013 -0.0049 -0.0072
 3115SOL    HW120978   2.326   1.722   5.869  0.2725 -2.4060  1.8317
 3115SOL    HW220979   2.299   1.593   5.798 -1.9637  2.1415 -1.4651
 3116SOL     OW20980   1.423   1.316   6.350 -0.0781 -0.4929 -0.1351
 3116SOL    HW120981   1.445   1.396   6.398 -0.2109 -0.5539  0.0248
 3116SOL    HW220982   1.461   1.249   6.407  0.6429 -1.5247 -1.8432
 3117SOL     OW20983   0.279   1.404   7.612 -1.0631  0.0023  0.1494
 3117SOL    HW120984   0.354   1.345   7.612 -0.1129  1.1899  0.4916
 3117SOL    HW220985   0.240   1.403   7.525  1.3900  2.5342 -1.0052
 3118SOL     OW20986   2.688   1.279   7.301  0.6189  0.4818  0.5913
 3118SOL    HW120987   2.736   1.323   7.371  0.6804  0.9246  0.2732
 3118SOL    HW220988   2.766   1.258   7.249 -0.8789 -0.3999 -1.2596
 3119SOL     OW20989   1.868   0.257  11.584 -0.4262 -0.7438  0.2144
 3119SOL    HW120990   1.946   0.310  11.598 -1.4283  0.4190  1.3623
 3119SOL    HW220991   1.820   0.246  11.666 -2.9281 -0.6334 -1.2187
 3120SOL     OW20992   2.336   4.342   5.902  0.2993 -0.1539  0.1638
 3120SOL    HW120993   2.253   4.374   5.867  0.3090  0.2861  0.5457
 3120SOL    HW220994   2.339   4.392   5.983 -0.6441 -1.5104  1.0488
 3121SOL     OW20995   4.051   1.023  13.217 -0.0552  0.5308 -0.3759
 3121SOL    HW120996   4.027   1.076  13.293  2.4308 -0.2197  0.9667
 3121SOL    HW220997   3.967   0.994  13.184 -0.2373 -1.7332  2.0921
 3122SOL     OW20998   3.063   2.307   5.206  0.1144 -0.2408  0.0305
 3122SOL    HW120999   3.147   2.310   5.252 -0.1209  1.9800  0.3413
 3122SOL    HW221000   3.001   2.285   5.275  0.1503  1.7186  0.6930
 3123SOL     OW21001   1.461   0.395   2.735  0.4231  0.4513 -0.7650
 3123SOL    HW121002   1.408   0.317   2.753  0.1061  0.9422  0.4739
 3123SOL    HW221003   1.545   0.352   2.747  0.9224  0.9471 -2.4943
 3124SOL     OW21004   1.072   0.690   4.323  0.1865  0.1203  0.0966
 3124SOL    HW121005   1.123   0.665   4.400 -1.5944 -0.1020  1.2046
 3124SOL    HW221006   1.113   0.773   4.302  0.8244 -0.4477 -0.8850
 3125SOL     OW21007   2.307   0.010  15.309 -0.5450 -0.1148 -0.0804
 3125SOL    HW121008   2.269   0.071  15.247 -1.5945  0.3453  1.0105
 3125SOL    HW221009   2.331   4.677  15.247  1.1352 -0.3332  0.7928
 3126SOL     OW21010   1.649   4.325   0.456 -0.3022  0.0533 -0.0756
 3126SOL    HW121011   1.731   4.373   0.448  0.5095 -1.3241 -0.1013
 3126SOL    HW221012   1.589   4.391   0.423 -2.2314 -1.2713  0.7524
 3127SOL     OW21013   0.122   0.416   9.608 -0.2094 -0.1434 -0.1290
 3127SOL    HW121014   0.106   0.340   9.665  1.2076 -0.1622  0.2532
 3127SOL    HW221015   0.149   0.484   9.670 -1.1041  0.0877  0.0081
 3128SOL     OW21016   3.790   4.008   4.976 -0.2951  0.3078 -0.4645
 3128SOL    HW121017   3.715   3.953   4.998 -0.8192  0.9446 -0.6935
 3128SOL    HW221018   3.763   4.090   5.017  0.5735  0.7575 -0.8010
 3129SOL     OW21019   1.539   0.403   6.090  0.1908  0.0897  0.6064
 3129SOL    HW121020   1.634   0.405   6.102  0.5149 -1.4107 -1.6375
 3129SOL    HW221021   1.518   0.491   6.058  1.8677  0.0889 -0.4863
 3130SOL     OW21022   1.448   1.949  11.026  0.0824  0.2772  0.1245
 3130SOL    HW121023   1.411   2.005  10.958 -0.1095 -0.3225 -0.2701
 3130SOL    HW221024   1.539   1.970  11.005  0.3637 -0.3293  0.7186
 3131SOL     OW21025   1.658   0.799  14.820  0.0690  0.0257  0.3198
 3131SOL    HW121026   1.639   0.850  14.899 -2.5536  1.5533 -1.2935
 3131SOL    HW221027   1.715   0.866  14.783  0.0631 -1.5022 -2.5049
 3132SOL     OW21028   2.011   4.453   2.245  0.0349  0.5781 -0.0652
 3132SOL    HW121029   2.061   4.504   2.181  3.0382  1.0888  2.6461
 3132SOL    HW221030   1.935   4.427   2.194 -1.1988 -1.7998  2.9561
 3133SOL     OW21031   2.259   3.027  11.738 -0.2365  0.7038  0.1943
 3133SOL    HW121032   2.255   3.095  11.671 -0.7000  1.0061  0.5284
 3133SOL    HW221033   2.185   2.975  11.705  0.0562  0.8838 -0.7448
 3134SOL     OW21034   0.170   3.194   9.749 -0.0379 -0.2522  0.0866
 3134SOL    HW121035   0.194   3.114   9.702  0.4012 -0.3954  0.5526
 3134SOL    HW221036   0.097   3.224   9.694  0.8224  2.4885  0.4594
 3135SOL     OW21037   0.859   4.391  11.416 -0.2387 -0.8216 -0.0746
 3135SOL    HW121038   0.850   4.483  11.394  1.0293 -0.5340  0.6162
 3135SOL    HW221039   0.918   4.395  11.492 -1.4351  0.7150  0.7850
 3136SOL     OW21040   4.351   1.674   5.086  0.2882  0.2256  0.0941
 3136SOL    HW121041   4.434   1.720   5.081  1.1997 -1.2440  1.6457
 3136SOL    HW221042   4.372   1.599   5.143  1.7549 -0.0762 -0.8433
 3137SOL     OW21043   1.753   0.137   3.041  0.0871  0.0860 -0.6010
 3137SOL    HW121044   1.801   0.069   3.089  0.3106  1.1051  0.6012
 3137SOL    HW221045   1.723   0.187   3.117  0.0122  2.8950 -2.5261
 3138SOL     OW21046   2.071   2.143  13.282 -0.0835 -0.1712 -0.5132
 3138SOL    HW121047   2.081   2.101  13.367  1.0265 -0.5818 -0.8478
 3138SOL    HW221048   2.131   2.093  13.225  0.8844 -3.5482  3.4641
 3139SOL     OW21049   3.750   2.585   3.533 -0.0839 -0.6146 -0.4846
 3139SOL    HW121050   3.683   2.572   3.600 -1.2702  0.4049 -1.4548
 3139SOL    HW221051   3.756   2.679   3.518 -0.5875 -0.5195 -0.0903
 3140SOL     OW21052   2.429   3.886   4.636  1.0161  0.4261 -0.6112
 3140SOL    HW121053   2.472   3.914   4.555 -0.3797  2.0889 -0.7899
 3140SOL    HW221054   2.345   3.852   4.605  2.3261 -1.3297 -2.2461
 3141SOL     OW21055   4.203   2.925   9.102 -0.4967 -0.3107 -0.7865
 3141SOL    HW121056   4.234   2.966   9.021  2.4785  0.4489  0.7121
 3141SOL    HW221057   4.257   2.846   9.101 -1.8938 -1.2685  0.3624
 3142SOL     OW21058   3.521   4.344  10.078  0.1821 -0.2077 -0.6288
 3142SOL    HW121059   3.494   4.272  10.135  2.1485  1.4457  2.3125
 3142SOL    HW221060   3.459   4.320  10.009  0.7022 -0.5906 -0.9623
 3143SOL     OW21061   1.023   4.439  16.264  0.3363  0.5633 -0.5381
 3143SOL    HW121062   1.033   4.347  16.239 -3.3443  0.5171 -1.9556
 3143SOL    HW221063   0.928   4.447  16.277  0.4270 -1.1079  1.1320
 3144SOL     OW21064   2.345   1.995   1.218  0.7313  0.0920 -0.3018
 3144SOL    HW121065   2.381   2.082   1.236  0.4057  0.3424 -0.8596
 3144SOL    HW221066   2.310   2.006   1.130  1.3186 -1.7434 -0.7704
 3145SOL     OW21067   2.563   3.241   7.991  0.6478  0.1672  0.5215
 3145SOL    HW121068   2.535   3.326   7.956  1.4576  0.4507  0.5570
 3145SOL    HW221069   2.648   3.257   8.032  1.3443 -1.0034 -0.4589
 3146SOL     OW21070   1.867   2.966   1.430 -0.1606 -0.1627 -0.1124
 3146SOL    HW121071   1.840   2.986   1.341  0.1100  0.8837  0.0510
 3146SOL    HW221072   1.887   2.872   1.426  0.0269 -0.1585  0.6571
 3147SOL     OW21073   3.329   4.519   1.808 -0.0319  0.4388 -0.1231
 3147SOL    HW121074   3.360   4.447   1.863  1.0827  0.2590 -0.9814
 3147SOL    HW221075   3.337   4.483   1.719  2.7703  1.8849 -0.4622
 3148SOL     OW21076   4.004   0.104  10.437 -0.2480  0.2457 -0.1016
 3148SOL    HW121077   4.047   0.040  10.379  1.9139  1.6946 -0.1031
 3148SOL    HW221078   4.009   0.049  10.516 -0.1811 -0.3010 -0.4834
 3149SOL     OW21079   0.713   1.302   3.131  0.5873 -0.0620 -0.2789
 3149SOL    HW121080   0.708   1.239   3.202  1.6434  0.6836  0.4587
 3149SOL    HW221081   0.799   1.271   3.103  0.7877  0.8707 -0.6976
 3150SOL     OW21082   0.777   3.287   9.807 -0.2142 -0.0957 -0.2662
 3150SOL    HW121083   0.719   3.223   9.766 -1.1617 -0.0535  0.9962
 3150SOL    HW221084   0.842   3.224   9.838  0.7697  1.0399 -0.0229
 3151SOL     OW21085   2.953   0.846   8.921 -0.1690 -0.3732 -0.2736
 3151SOL    HW121086   2.927   0.911   8.856 -1.0694  1.0816  1.5550
 3151SOL    HW221087   3.024   0.812   8.866  1.2321  2.4338 -0.2569
 3152SOL     OW21088   3.222   0.258  13.979 -0.0324  0.3530  0.3842
 3152SOL    HW121089   3.268   0.235  13.899 -1.8434 -0.5986 -0.3858
 3152SOL    HW221090   3.276   0.216  14.046 -1.2619  0.5358  1.5023
 3153SOL     OW21091   4.629   0.148   0.463 -0.3270 -0.5110 -0.3233
 3153SOL    HW121092   4.667   0.187   0.384  1.9533 -3.1314 -0.5553
 3153SOL    HW221093   4.563   0.208   0.496  1.0153  0.5368  0.4724
 3154SOL     OW21094   1.792   2.541  11.341 -0.1823 -0.0770 -0.4950
 3154SOL    HW121095   1.701   2.543  11.312 -0.0812 -0.1864 -0.8201
 3154SOL    HW221096   1.834   2.475  11.287  1.3362 -1.0496  1.8417
 3155SOL     OW21097   0.155   4.691   2.059  0.0842  0.6137 -0.2177
 3155SOL    HW121098   0.060   4.688   2.047 -0.1120 -0.6338  1.6212
 3155SOL    HW221099   0.186   4.608   2.024  0.0328  0.2475  0.5988
 3156SOL     OW21100   2.044   2.201   6.343 -0.0032 -0.1681 -0.7122
 3156SOL    HW121101   2.010   2.112   6.352  2.6648 -1.2097 -0.9555
 3156SOL    HW221102   2.131   2.178   6.309  0.1513  0.8333 -0.9856
 3157SOL     OW21103   3.047   2.554   4.599  0.4112  0.0952  0.1972
 3157SOL    HW121104   3.050   2.552   4.503  0.6346  0.3931  0.1968
 3157SOL    HW221105   3.092   2.637   4.617  1.5420 -0.2868 -0.8658
 3158SOL     OW21106   2.099   4.382   8.543  0.1621 -0.2545  0.0393
 3158SOL    HW121107   2.113   4.430   8.625 -2.2105 -0.5365  0.6297
 3158SOL    HW221108   2.098   4.454   8.481 -1.9438  0.1462  0.5196
 3159SOL     OW21109   2.129   1.600   2.265  0.5126 -0.2871 -0.2337
 3159SOL    HW121110   2.151   1.507   2.267  1.0175 -0.1473  0.5553
 3159SOL    HW221111   2.210   1.652   2.262  0.0708  0.4440  0.5967
 3160SOL     OW21112   0.229   1.116   4.416  0.6497 -0.1686  0.1080
 3160SOL    HW121113   0.150   1.068   4.443  0.0075 -0.2704 -1.9599
 3160SOL    HW221114   0.200   1.159   4.336 -1.5415 -0.2807  0.8411
 3161SOL     OW21115   0.308   1.105   3.288  0.2638 -0.2297  0.0860
 3161SOL    HW121116   0.220   1.070   3.303 -0.1217  0.3967 -0.6558
 3161SOL    HW221117   0.364   1.042   3.333 -0.9451 -1.1471  0.3081
 3162SOL     OW21118   1.752   1.954   1.896  0.6467 -0.1920  0.2722
 3162SOL    HW121119   1.728   2.046   1.882  0.9310  0.1714  2.1590
 3162SOL    HW221120   1.768   1.948   1.990  3.8070 -0.4456 -0.2980
 3163SOL     OW21121   1.720   1.385   3.313  0.0810 -0.0905  0.1105
 3163SOL    HW121122   1.799   1.365   3.264  0.2260  0.0887  0.2723
 3163SOL    HW221123   1.750   1.375   3.403  0.2765  0.3797  0.0996
 3164SOL     OW21124   3.159   3.235   1.442 -0.2116  0.7262  0.5955
 3164SOL    HW121125   3.204   3.220   1.358 -1.6830  0.1983 -0.0946
 3164SOL    HW221126   3.226   3.209   1.505  0.4614 -0.1914 -0.4901
 3165SOL     OW21127   3.116   4.549   6.867  0.3556 -0.0195  0.5680
 3165SOL    HW121128   3.153   4.562   6.954  1.3846 -1.0723  0.2966
 3165SOL    HW221129   3.023   4.569   6.878  0.3530  0.3242 -0.0747
 3166SOL     OW21130   2.041   0.091   7.559  0.0936  1.0734 -0.0976
 3166SOL    HW121131   2.101   0.039   7.611  1.0109  0.5211 -1.7115
 3166SOL    HW221132   2.097   0.107   7.483  0.2503  0.7992 -0.0406
 3167SOL     OW21133   0.371   2.050   9.318 -0.1544 -0.0133  0.6494
 3167SOL    HW121134   0.286   2.095   9.316  0.4871  1.1616  0.1405
 3167SOL    HW221135   0.354   1.988   9.389 -0.5677  1.1819  1.5957
 3168SOL     OW21136   3.423   2.560  14.020  0.6185 -0.7501 -0.6213
 3168SOL    HW121137   3.396   2.514  13.940  0.0872 -0.1126 -0.8161
 3168SOL    HW221138   3.421   2.479  14.071 -1.7660  0.6417  1.4797
 3169SOL     OW21139   3.562   2.923   1.963 -0.4611  0.0158 -0.0721
 3169SOL    HW121140   3.563   3.018   1.976 -1.3648 -0.0058  0.2020
 3169SOL    HW221141   3.644   2.907   2.010 -0.0679  0.0425 -0.7459
 3170SOL     OW21142   2.054   3.092   8.524  0.0314 -0.4567 -0.0272
 3170SOL    HW121143   2.059   3.038   8.445 -0.2867  1.6153 -1.4739
 3170SOL    HW221144   1.961   3.105   8.540  0.8968  1.1112  3.7061
 3171SOL     OW21145   2.435   0.577  13.998 -0.3287 -0.6332 -0.2658
 3171SOL    HW121146   2.372   0.525  13.948  0.3745 -0.6007 -1.1714
 3171SOL    HW221147   2.508   0.554  13.941  0.6087 -1.1858  1.1364
 3172SOL     OW21148   0.474   2.059   7.579  0.2822 -0.0195  0.5039
 3172SOL    HW121149   0.513   2.041   7.664  1.0515  0.0962  0.1739
 3172SOL    HW221150   0.540   2.120   7.545  0.1587 -0.2792 -0.2015
 3173SOL     OW21151   0.426   3.754   4.391 -0.3034  0.6003  0.2100
 3173SOL    HW121152   0.438   3.667   4.354  1.3317 -0.3160  2.9305
 3173SOL    HW221153   0.511   3.773   4.431 -0.4304  0.8267  0.3736
 3174SOL     OW21154   0.110   2.541  14.869 -0.2017  0.7351  0.7634
 3174SOL    HW121155   0.157   2.459  14.876 -0.7078  0.4978  1.3740
 3174SOL    HW221156   0.140   2.585  14.948 -0.1027  1.8225  0.1295
 3175SOL     OW21157   1.754   1.336   4.009  0.2395  0.2475  0.2130
 3175SOL    HW121158   1.795   1.359   3.926  0.0759  1.4997  0.4840
 3175SOL    HW221159   1.806   1.387   4.071  0.8770 -0.8890  0.6320
 3176SOL     OW21160   4.450   1.655   4.248 -0.6594  0.1223  0.2456
 3176SOL    HW121161   4.537   1.617   4.237  0.2136  1.8665  1.1199
 3176SOL    HW221162   4.412   1.613   4.171 -1.9085  1.2609  0.2451
 3177SOL     OW21163   4.734   2.685   1.345 -0.2927  0.0523  0.8652
 3177SOL    HW121164   4.651   2.690   1.393 -1.7537 -0.3800 -1.6310
 3177SOL    HW221165   4.703   2.632   1.272  3.1615 -2.6584  1.3409
 3178SOL     OW21166   3.793   0.468  12.599  0.3127  0.1464  0.5768
 3178SOL    HW121167   3.759   0.429  12.680  0.2423 -1.4990 -0.2490
 3178SOL    HW221168   3.717   0.465  12.540 -1.4240  0.5468  2.7839
 3179SOL     OW21169   3.779   3.342   9.351  0.2014  0.6583  0.5294
 3179SOL    HW121170   3.827   3.260   9.348  0.7217  0.9665  0.3427
 3179SOL    HW221171   3.742   3.347   9.440  0.5277 -1.7889  0.7805
 3180SOL     OW21172   1.825   2.153   5.284 -0.1632  0.5008  0.3716
 3180SOL    HW121173   1.808   2.153   5.379  3.1804 -3.6767  0.9302
 3180SOL    HW221174   1.909   2.199   5.282  0.7608 -1.3477 -2.9544
 3181SOL     OW21175   3.140   3.276  13.498  0.0207  0.2489 -0.2381
 3181SOL    HW121176   3.211   3.271  13.561 -0.4147  0.9650  0.3064
 3181SOL    HW221177   3.062   3.314  13.537  0.9207  1.7198  0.1078
 3182SOL     OW21178   1.421   3.064   5.819  0.6308  0.2820  0.4306
 3182SOL    HW121179   1.396   3.148   5.857 -3.0510 -0.8859  0.6573
 3182SOL    HW221180   1.477   3.027   5.887  2.4643 -0.1316 -1.3278
 3183SOL     OW21181   1.586   1.336   4.382  0.4838 -0.2889 -0.1870
 3183SOL    HW121182   1.497   1.341   4.348  0.0230 -1.3213  0.8789
 3183SOL    HW221183   1.631   1.278   4.321  0.3456  1.5236 -2.0105
 3184SOL     OW21184   2.662   4.713   8.507  0.2662  0.0256  0.1224
 3184SOL    HW121185   2.659   4.705   8.603 -1.9833  1.9485  0.2223
 3184SOL    HW221186   2.741   4.663   8.487  0.0370 -0.3044  0.0561
 3185SOL     OW21187   1.737   1.568  14.789  0.9845  0.0344  0.2247
 3185SOL    HW121188   1.761   1.553  14.698 -1.7852 -2.6039 -0.0763
 3185SOL    HW221189   1.817   1.615  14.815 -0.7027  2.8432  0.3627
 3186SOL     OW21190   2.940   0.280  17.066 -0.2839  0.4572 -0.1587
 3186SOL    HW121191   2.944   0.313  17.155  1.9475 -1.9038  0.6095
 3186SOL    HW221192   2.926   0.362  17.018  2.8965  1.3987  0.5090
 3187SOL     OW21193   3.986   1.136   0.791 -0.3908 -0.1505  0.0497
 3187SOL    HW121194   4.007   1.177   0.708 -0.8316  1.0041  0.5218
 3187SOL    HW221195   3.899   1.104   0.767 -0.7818 -0.1594  1.4644
 3188SOL     OW21196   1.806   4.101   8.182 -0.0580  0.4023 -1.2070
 3188SOL    HW121197   1.829   4.031   8.121 -0.1361 -1.8860  1.4292
 3188SOL    HW221198   1.887   4.151   8.194 -0.0593 -0.2159  1.3319
 3189SOL     OW21199   3.135   4.004   6.631  0.3911 -0.1402 -0.5616
 3189SOL    HW121200   3.133   4.093   6.666 -1.0028  0.0005 -1.0088
 3189SOL    HW221201   3.063   3.975   6.687  0.7090  1.9713  0.9491
 3190SOL     OW21202   3.442   4.041   2.466  0.1119 -0.8453 -0.2172
 3190SOL    HW121203   3.398   3.958   2.448 -1.6218 -0.3059  1.5680
 3190SOL    HW221204   3.495   4.018   2.543 -0.1418 -3.7032 -0.9197
 3191SOL     OW21205   1.573   1.125   6.499 -0.2139 -0.0506  0.0387
 3191SOL    HW121206   1.625   1.137   6.578  2.5896 -1.9234 -1.5265
 3191SOL    HW221207   1.634   1.094   6.431 -2.0212 -0.1245 -1.5460
 3192SOL     OW21208   4.414   1.362   0.720  0.3241 -0.1187 -0.8647
 3192SOL    HW121209   4.395   1.430   0.655  1.1472  1.5971  0.6809
 3192SOL    HW221210   4.375   1.290   0.671 -2.0036  0.2624  0.4045
 3193SOL     OW21211   0.321   0.233   5.208 -0.0363 -0.8160 -0.0616
 3193SOL    HW121212   0.232   0.269   5.203 -0.0822 -0.7720  1.0806
 3193SOL    HW221213   0.326   0.178   5.130  0.9799 -1.3807  0.4055
 3194SOL     OW21214   0.764   3.281   0.875 -0.4025 -0.3980 -0.2445
 3194SOL    HW121215   0.721   3.363   0.902  0.8607  1.4171 -3.7525
 3194SOL    HW221216   0.782   3.302   0.784 -0.6045 -2.5904 -0.7979
 3195SOL     OW21217   2.427   1.163   9.467 -0.1322  0.2798  0.2788
 3195SOL    HW121218   2.394   1.184   9.554  0.6145  3.2304 -0.1625
 3195SOL    HW221219   2.488   1.097   9.499 -0.4993 -0.4913 -0.6138
 3196SOL     OW21220   3.544   1.998  16.026 -0.9391  0.8155  0.4665
 3196SOL    HW121221   3.604   1.971  15.956  0.8247 -0.5220  2.5157
 3196SOL    HW221222   3.577   2.087  16.037  1.7569 -0.0174 -0.8334
 3197SOL     OW21223   4.695   0.495   0.815 -0.7690 -0.7250  0.5968
 3197SOL    HW121224   0.008   0.427   0.862 -0.6217 -2.2364 -1.7156
 3197SOL    HW221225   0.023   0.542   0.761 -1.1348  0.9357  1.6272
 3198SOL     OW21226   0.647   2.702   4.064  0.1684  0.0415  0.0703
 3198SOL    HW121227   0.629   2.789   4.100  0.9482 -1.1021  3.2167
 3198SOL    HW221228   0.680   2.718   3.975 -2.3967  1.4255 -0.6241
 3199SOL     OW21229   0.502   0.172  11.542 -0.3866  0.2866 -0.0347
 3199SOL    HW121230   0.584   0.215  11.564  1.0093 -2.0033 -0.7478
 3199SOL    HW221231   0.455   0.188  11.624 -2.1381  0.8597 -1.1388
 3200SOL     OW21232   1.716   3.695   6.721  0.1418 -0.2230 -0.0198
 3200SOL    HW121233   1.745   3.783   6.743  0.2025 -0.5499  1.2246
 3200SOL    HW221234   1.729   3.692   6.626  1.4377  1.6740  0.0921
 3201SOL     OW21235   4.473   0.688   9.067  0.2653 -0.5764 -0.2924
 3201SOL    HW121236   4.380   0.709   9.063  0.7290  1.7900  1.7951
 3201SOL    HW221237   4.479   0.694   9.162  1.2905 -0.4945 -0.3654
 3202SOL     OW21238   4.004   1.536  16.103 -0.6726 -0.5103 -0.1482
 3202SOL    HW121239   4.063   1.466  16.130  0.9261  1.0135  0.3261
 3202SOL    HW221240   3.989   1.521  16.009 -1.0172 -3.0860  0.3187
 3203SOL     OW21241   1.646   4.250   3.746 -0.0184 -0.4634  0.3700
 3203SOL    HW121242   1.714   4.312   3.771  1.6860 -1.8456 -0.8105
 3203SOL    HW221243   1.608   4.216   3.827 -0.3069  0.9108  0.8193
 3204SOL     OW21244   3.170   0.476  16.561 -0.6872 -0.1262  0.7442
 3204SOL    HW121245   3.249   0.509  16.520 -2.5061  1.4779 -1.4782
 3204SOL    HW221246   3.194   0.397  16.610 -2.7200 -0.9400  0.4247
 3205SOL     OW21247   0.330   1.963   4.806  0.3246 -0.2054 -0.2981
 3205SOL    HW121248   0.385   1.888   4.826 -0.3821 -0.4813  0.6077
 3205SOL    HW221249   0.309   1.948   4.713  2.0159  2.6489 -1.1067
 3206SOL     OW21250   2.260   1.689   8.669 -0.4180 -0.2353  0.1869
 3206SOL    HW121251   2.233   1.771   8.710 -0.7003 -0.6499  0.8300
 3206SOL    HW221252   2.235   1.630   8.740  1.1899  1.6961  2.3640
 3207SOL     OW21253   3.099   4.013   0.279 -0.4789  0.1401 -1.0193
 3207SOL    HW121254   3.078   4.091   0.228  0.7959  0.3842 -1.1580
 3207SOL    HW221255   3.053   3.954   0.219  0.0132 -1.9264  0.5961
 3208SOL     OW21256   0.229   3.187   5.552 -0.4515 -0.0598  0.8009
 3208SOL    HW121257   0.312   3.141   5.544 -1.2109 -1.1405 -0.8459
 3208SOL    HW221258   0.250   3.279   5.568 -0.6956 -0.0829  1.2714
 3209SOL     OW21259   1.292   1.983   1.539 -0.0207 -0.4504 -0.1942
 3209SOL    HW121260   1.331   1.899   1.519  1.2778  0.0486  0.2523
 3209SOL    HW221261   1.347   2.018   1.609 -0.2020  0.6081 -0.5754
 3210SOL     OW21262   0.566   3.749   8.513  0.1094 -0.4072  0.6883
 3210SOL    HW121263   0.525   3.671   8.551 -1.3162 -0.1027 -0.2468
 3210SOL    HW221264   0.549   3.815   8.581 -2.5655 -2.7991  2.3387
 3211SOL     OW21265   3.919   0.039   2.770 -0.1153  0.1054 -0.1522
 3211SOL    HW121266   3.981   0.009   2.837 -1.4133 -2.0645  0.0863
 3211SOL    HW221267   3.908   0.128   2.802 -0.6449  0.3081 -0.9081
 3212SOL     OW21268   0.073   0.631   5.340 -0.6629  0.2792 -0.4650
 3212SOL    HW121269   0.119   0.681   5.407  0.0423  0.8069 -1.3438
 3212SOL    HW221270   4.724   0.618   5.384 -0.1373 -1.9051 -0.0915
 3213SOL     OW21271   0.565   0.708   6.720 -0.5047 -0.1530 -0.0509
 3213SOL    HW121272   0.491   0.648   6.714 -0.0925 -0.4468 -2.0696
 3213SOL    HW221273   0.626   0.675   6.654 -0.3385  1.5752 -0.7708
 3214SOL     OW21274   3.989   4.100  11.830  0.3618  0.3630 -0.0360
 3214SOL    HW121275   4.039   4.156  11.890  0.7906  2.1654 -2.1112
 3214SOL    HW221276   3.902   4.114  11.866  1.4896  2.8907  1.7301
 3215SOL     OW21277   0.250   3.826   2.817 -0.3818  0.0462 -0.4809
 3215SOL    HW121278   0.157   3.813   2.798 -0.7397  2.1456 -0.1437
 3215SOL    HW221279   0.257   3.779   2.900  2.0203  0.9447 -0.1794
 3216SOL     OW21280   0.366   2.022   9.752  0.2366  0.5448  0.3378
 3216SOL    HW121281   0.419   1.966   9.808 -1.3346 -1.5698 -0.2566
 3216SOL    HW221282   0.433   2.078   9.714  0.2939  0.2309 -0.0353
 3217SOL     OW21283   3.271   0.601  14.830  0.8251 -0.1573 -0.9462
 3217SOL    HW121284   3.316   0.549  14.764  0.0246 -2.7694  0.5918
 3217SOL    HW221285   3.206   0.645  14.775  2.1083 -2.9947 -4.7201
 3218SOL     OW21286   3.549   0.075   3.496 -0.6069 -0.3831  0.5253
 3218SOL    HW121287   3.601   4.731   3.510  2.7108  1.7039 -0.0994
 3218SOL    HW221288   3.622   0.136   3.499 -1.4239  0.7133 -2.2359
 3219SOL     OW21289   0.975   0.119   5.434  0.7187 -0.0889  0.1778
 3219SOL    HW121290   0.987   0.214   5.441  0.9646 -0.1809  1.0387
 3219SOL    HW221291   0.965   0.099   5.527 -0.1945 -1.0450 -0.1288
 3220SOL     OW21292   1.450   0.661   6.068 -0.3934 -0.0520  0.1559
 3220SOL    HW121293   1.443   0.722   6.141 -0.4345  1.2008 -0.8863
 3220SOL    HW221294   1.516   0.707   6.016  0.4797 -2.1836 -0.6313
 3221SOL     OW21295   2.128   0.665   2.029  0.0013 -0.2502 -0.4323
 3221SOL    HW121296   2.147   0.573   2.044 -0.6578 -0.6068 -1.7811
 3221SOL    HW221297   2.094   0.689   2.116 -0.6591 -1.5144 -0.3413
 3222SOL     OW21298   2.892   0.898   2.750 -0.0822  0.1916  0.1590
 3222SOL    HW121299   2.909   0.847   2.829  0.4438 -0.1697 -0.1917
 3222SOL    HW221300   2.801   0.930   2.751  0.0997  0.7187 -0.3290
 3223SOL     OW21301   0.097   0.001   4.911 -0.0166 -0.0864 -0.0610
 3223SOL    HW121302   0.115   4.685   4.832 -1.6914  0.3627 -0.7166
 3223SOL    HW221303   0.187   0.034   4.921 -0.1589 -0.8780  3.9822
 3224SOL     OW21304   2.280   0.800  11.920  0.5068  0.2543 -0.1629
 3224SOL    HW121305   2.204   0.750  11.949  1.4127 -1.4175 -0.6293
 3224SOL    HW221306   2.258   0.885  11.958  1.2835  1.2965 -2.0266
 3225SOL     OW21307   0.236   3.572   2.003  0.6755 -0.2464 -0.3686
 3225SOL    HW121308   0.324   3.604   2.022 -0.0869  0.6203  1.7187
 3225SOL    HW221309   0.244   3.485   2.041 -1.3859  0.1239  0.9510
 3226SOL     OW21310   0.763   0.850   7.730  0.4797 -0.0540  0.3038
 3226SOL    HW121311   0.843   0.868   7.779  0.5889 -1.6320  0.6947
 3226SOL    HW221312   0.782   0.769   7.683 -1.3137 -0.2325 -0.1250
 3227SOL     OW21313   1.551   4.665   3.125 -0.8072 -0.2021 -0.3391
 3227SOL    HW121314   1.591   4.601   3.183 -1.6368 -0.8559 -0.4754
 3227SOL    HW221315   1.629   4.692   3.076  0.7320  0.2432  2.3964
 3228SOL     OW21316   4.016   0.253   8.823  0.5170  0.1411  0.3283
 3228SOL    HW121317   3.969   0.209   8.753 -0.1737  0.1214  0.8097
 3228SOL    HW221318   3.965   0.220   8.897  2.2834  0.9998  1.9246
 3229SOL     OW21319   4.147   2.860  12.235  0.4281 -0.1648  0.1335
 3229SOL    HW121320   4.139   2.921  12.161  0.8964 -1.6839 -1.1716
 3229SOL    HW221321   4.186   2.920  12.298  1.3513 -0.4999 -0.1117
 3230SOL     OW21322   1.091   3.960   0.290  0.1186  0.0173  0.0483
 3230SOL    HW121323   1.185   3.960   0.306 -0.0635  0.9663  1.1054
 3230SOL    HW221324   1.064   4.047   0.321  0.4506 -0.7698  2.5315
 3231SOL     OW21325   1.095   1.908  14.470 -0.2034 -0.5677 -0.0433
 3231SOL    HW121326   1.179   1.952  14.462 -0.5365  0.0219 -0.2701
 3231SOL    HW221327   1.089   1.869  14.382 -1.7078 -1.6657  0.5317
 3232SOL     OW21328   2.080   0.887   4.874  0.4591  0.0320 -0.0090
 3232SOL    HW121329   2.045   0.822   4.813 -0.0016  0.0697  0.2175
 3232SOL    HW221330   2.086   0.837   4.955  1.2231  2.2152  1.2900
 3233SOL     OW21331   3.347   3.898   0.351  0.6160  0.4678  0.0926
 3233SOL    HW121332   3.361   3.852   0.268 -1.9512  1.9781 -1.1828
 3233SOL    HW221333   3.260   3.935   0.337  0.3047 -0.0694  0.6245
 3234SOL     OW21334   0.361   3.468   8.876 -0.1163  0.2022  0.6482
 3234SOL    HW121335   0.346   3.391   8.931 -3.1258  1.4465  1.5813
 3234SOL    HW221336   0.382   3.530   8.946 -1.2397 -0.8429  1.9235
 3235SOL     OW21337   1.132   0.592  17.020  0.4475 -0.2902  0.6552
 3235SOL    HW121338   1.196   0.524  16.999  0.9277 -0.2756  2.0383
 3235SOL    HW221339   1.143   0.589  17.115 -3.0029  1.6292  1.1273
 3236SOL     OW21340   0.025   0.345  10.849  0.5182 -0.2720 -0.1188
 3236SOL    HW121341   4.729   0.392  10.926  1.0787  1.7609 -1.1126
 3236SOL    HW221342   4.729   0.261  10.881 -0.6916 -0.6193 -2.2040
 3237SOL     OW21343   4.402   2.788   2.793  0.4402 -0.1361 -0.0401
 3237SOL    HW121344   4.320   2.799   2.843  1.4401 -2.6290  2.1645
 3237SOL    HW221345   4.379   2.848   2.722 -0.3508 -0.7694 -0.3311
 3238SOL     OW21346   1.151   3.044   6.471  0.5441  0.0221  0.0789
 3238SOL    HW121347   1.129   3.108   6.539 -0.9063  2.8840 -3.0824
 3238SOL    HW221348   1.229   3.008   6.513 -0.0079  0.5906  1.5727
 3239SOL     OW21349   1.191   2.569   0.194 -0.0942 -0.4108  0.4653
 3239SOL    HW121350   1.170   2.638   0.256  0.0453 -0.2588  0.3448
 3239SOL    HW221351   1.107   2.527   0.179  0.4820 -0.8550 -1.6107
 3240SOL     OW21352   0.801   1.641  16.903  0.0817  1.0259  0.6890
 3240SOL    HW121353   0.765   1.729  16.919  0.9562  0.7825  3.9074
 3240SOL    HW221354   0.722   1.589  16.895  1.8942 -1.9661  2.3937
 3241SOL     OW21355   4.674   3.253   7.800 -0.6134  0.2281 -0.4114
 3241SOL    HW121356   4.636   3.186   7.857 -1.8059  0.1040 -1.3545
 3241SOL    HW221357   0.019   3.222   7.759 -0.3917 -0.2352  0.3782
 3242SOL     OW21358   1.639   0.330   2.480  0.3861  0.4450  0.0391
 3242SOL    HW121359   1.727   0.320   2.516  0.3860  0.3827  0.0223
 3242SOL    HW221360   1.619   0.420   2.505  1.8703  0.9985 -0.8009
 3243SOL     OW21361   0.965   1.076   9.053 -0.4263 -0.1313  0.3856
 3243SOL    HW121362   0.958   1.069   9.148 -1.8257  2.5016  0.4688
 3243SOL    HW221363   1.057   1.055   9.036 -0.7379 -0.9114 -0.3556
 3244SOL     OW21364   3.680   3.254   2.461  0.3245  0.4222  0.2231
 3244SOL    HW121365   3.756   3.213   2.420 -0.4201 -2.5574  1.8210
 3244SOL    HW221366   3.714   3.310   2.531  1.1504  1.0906 -0.7112
 3245SOL     OW21367   0.530   4.404   9.837  0.1393 -0.3052  0.0490
 3245SOL    HW121368   0.455   4.357   9.872 -0.4988  2.5437  2.5056
 3245SOL    HW221369   0.568   4.442   9.916  1.0293  0.0262 -0.5292
 3246SOL     OW21370   4.107   4.129   8.523  0.0344 -0.2913 -0.3637
 3246SOL    HW121371   4.163   4.052   8.530  0.3353 -0.0462 -0.0960
 3246SOL    HW221372   4.139   4.193   8.587  1.2245 -0.7925 -0.4529
 3247SOL     OW21373   1.307   2.872   2.937 -0.3973  0.5387  0.5831
 3247SOL    HW121374   1.341   2.940   2.877 -1.1892 -1.3045 -1.9491
 3247SOL    HW221375   1.242   2.928   2.979 -0.6477  0.7748 -0.1148
 3248SOL     OW21376   1.273   3.834   7.518 -0.0807  0.3635  0.0052
 3248SOL    HW121377   1.314   3.921   7.522  0.7733 -0.1343  1.6064
 3248SOL    HW221378   1.330   3.774   7.565 -0.8994  0.9937  1.7772
 3249SOL     OW21379   0.868   1.505  11.357 -0.0306 -0.2887  0.1032
 3249SOL    HW121380   0.922   1.521  11.434 -2.3615  1.2207  1.4156
 3249SOL    HW221381   0.891   1.418  11.324 -6.1447 -1.7399 -0.3526
 3250SOL     OW21382   3.314   3.659   6.026  0.4875  0.6437  0.1881
 3250SOL    HW121383   3.391   3.678   6.079  1.7736 -0.6047 -1.2030
 3250SOL    HW221384   3.249   3.661   6.095  0.5940 -0.4920  0.3155
 3251SOL     OW21385   4.166   3.174   4.102  0.3159 -0.3822 -0.2416
 3251SOL    HW121386   4.141   3.222   4.023 -0.2377 -1.7053 -0.8806
 3251SOL    HW221387   4.083   3.142   4.137  0.5611  0.8373  1.4683
 3252SOL     OW21388   1.137   4.438   0.603 -0.1879  0.0828  0.4934
 3252SOL    HW121389   1.077   4.369   0.629  0.1728  0.8666  3.4446
 3252SOL    HW221390   1.206   4.422   0.668 -1.0199 -0.3303  1.2689
 3253SOL     OW21391   0.538   4.602   2.487  0.3032 -0.5642 -0.4491
 3253SOL    HW121392   0.520   4.696   2.478 -1.1254 -0.8975 -1.0204
 3253SOL    HW221393   0.465   4.577   2.543  0.6090  0.4708  0.4209
 3254SOL     OW21394   2.885   4.120   3.093  0.1141 -0.1094  0.0323
 3254SOL    HW121395   2.792   4.110   3.113 -0.0598  0.4882 -0.4378
 3254SOL    HW221396   2.923   4.068   3.163 -2.2660  0.2035  1.5595
 3255SOL     OW21397   0.600   0.064  15.802  0.1958  0.3419 -0.6263
 3255SOL    HW121398   0.642   0.114  15.872  0.7812 -0.0148 -0.7277
 3255SOL    HW221399   0.660   0.086  15.732  1.3629 -0.0658  0.2530
 3256SOL     OW21400   2.953   4.501   9.462  0.6253 -0.1139 -0.0926
 3256SOL    HW121401   3.016   4.569   9.489  0.7350 -0.4667  0.5318
 3256SOL    HW221402   3.012   4.426   9.449  0.1366 -0.1391 -2.1163
 3257SOL     OW21403   3.006   2.251   3.145  0.1276  0.3742 -0.2398
 3257SOL    HW121404   2.950   2.280   3.073 -1.5475  1.3711  1.4819
 3257SOL    HW221405   3.090   2.224   3.107 -0.3348 -0.3357 -0.7422
 3258SOL     OW21406   0.406   4.537   6.438  0.2887  0.0134 -0.5730
 3258SOL    HW121407   0.462   4.465   6.408  1.0251 -0.0969  1.0936
 3258SOL    HW221408   0.473   4.606   6.437  0.5186 -0.2099 -0.7727
 3259SOL     OW21409   2.252   1.014  12.912  0.0140 -0.2343  0.3339
 3259SOL    HW121410   2.202   1.096  12.915 -0.2259 -0.4483  2.2820
 3259SOL    HW221411   2.210   0.958  12.977  0.4116 -2.0099 -0.9486
 3260SOL     OW21412   0.828   4.160   5.178 -0.2691 -0.4596 -0.1198
 3260SOL    HW121413   0.843   4.255   5.173 -1.4406 -0.2273  0.7824
 3260SOL    HW221414   0.736   4.151   5.153 -0.8208  0.2471  1.6364
 3261SOL     OW21415   1.805   1.537  14.534  0.3873 -0.1900  0.1857
 3261SOL    HW121416   1.860   1.459  14.531 -0.2112 -0.6159  0.4918
 3261SOL    HW221417   1.823   1.571  14.446 -2.6475 -0.0781 -0.3776
 3262SOL     OW21418   2.075   4.613   6.818  0.0248 -0.5349  0.3100
 3262SOL    HW121419   2.007   4.550   6.794 -0.3308  0.2273 -0.6842
 3262SOL    HW221420   2.033   4.687   6.774  0.7905  0.1694  0.7656
 3263SOL     OW21421   1.905   0.271   5.056  0.2192  0.5154 -0.6485
 3263SOL    HW121422   1.843   0.308   5.119  0.3022 -0.4868  0.0365
 3263SOL    HW221423   1.879   0.319   4.978  0.6726 -0.8003 -1.6001
 3264SOL     OW21424   2.599   0.227  12.471  0.5109 -0.0325 -0.2348
 3264SOL    HW121425   2.510   0.260  12.482  0.3153 -0.3044 -1.0548
 3264SOL    HW221426   2.597   0.156  12.536  1.2811 -1.2834 -1.5956
 3265SOL     OW21427   3.579   3.861   6.126 -0.0799  0.9974 -0.1318
 3265SOL    HW121428   3.664   3.839   6.087 -0.4540  0.3811 -0.5946
 3265SOL    HW221429   3.527   3.870   6.046  0.7034  1.4864 -0.5885
 3266SOL     OW21430   0.024   3.376   6.847 -0.1932  0.7633 -0.2764
 3266SOL    HW121431   4.710   3.445   6.891  1.0303  1.1456  0.4840
 3266SOL    HW221432   4.727   3.297   6.891  0.8983  1.1824  1.2850
 3267SOL     OW21433   3.888   4.285   8.103  0.2714 -0.1127 -0.2662
 3267SOL    HW121434   3.870   4.284   8.009  1.5170 -0.7001 -0.4911
 3267SOL    HW221435   3.983   4.297   8.099  0.2050  1.0136  1.6775
 3268SOL     OW21436   1.250   2.813   8.435 -0.4904  0.1221 -0.2994
 3268SOL    HW121437   1.299   2.866   8.498 -2.6443  1.9641 -0.1458
 3268SOL    HW221438   1.276   2.730   8.474 -0.5475  1.3974  2.4876
 3269SOL     OW21439   1.071   2.402   6.658 -0.0457  0.2923 -0.1571
 3269SOL    HW121440   1.094   2.360   6.742 -3.2344 -1.3870 -0.1345
 3269SOL    HW221441   1.156   2.411   6.614  0.8408  0.1443  1.5232
 3270SOL     OW21442   1.422   3.547   7.894 -0.4243 -0.1221 -0.0263
 3270SOL    HW121443   1.377   3.471   7.931  0.5947 -0.5061  0.4189
 3270SOL    HW221444   1.392   3.534   7.804 -0.4228  0.3386 -0.0931
 3271SOL     OW21445   0.264   1.697  15.006  0.2037 -0.1115 -0.3332
 3271SOL    HW121446   0.269   1.643  14.927 -1.1478 -1.2995  0.3996
 3271SOL    HW221447   0.217   1.633  15.060  0.4952  0.1202  0.1973
 3272SOL     OW21448   1.861   2.725   2.370 -0.4713  0.1334  0.2887
 3272SOL    HW121449   1.817   2.769   2.442 -0.5490  3.1762 -1.6063
 3272SOL    HW221450   1.787   2.715   2.310 -0.2950  0.2978  0.0453
 3273SOL     OW21451   1.220   3.144   6.213 -0.0451 -0.1044  0.5931
 3273SOL    HW121452   1.311   3.162   6.235  0.5586 -0.5102 -1.5342
 3273SOL    HW221453   1.182   3.098   6.287 -3.2139  2.0019  0.3253
 3274SOL     OW21454   0.588   0.452  15.368  0.2204  0.3054  0.2279
 3274SOL    HW121455   0.623   0.537  15.394 -0.3728  1.0965 -1.5556
 3274SOL    HW221456   0.547   0.479  15.286  2.0080 -1.5874 -1.2680
 3275SOL     OW21457   0.054   1.689   8.744  0.2825  0.4392  0.4361
 3275SOL    HW121458   0.002   1.615   8.711  3.9462 -1.3027 -1.4542
 3275SOL    HW221459   0.131   1.649   8.784  1.2054  1.8298  0.0499
 3276SOL     OW21460   2.996   2.431   4.326 -0.3148 -0.3599  0.1312
 3276SOL    HW121461   2.997   2.422   4.231  1.8629  0.4694  0.0893
 3276SOL    HW221462   2.934   2.362   4.349  1.6767 -2.0297  0.5251
 3277SOL     OW21463   3.703   3.611   5.813  0.1787  0.4179 -0.1108
 3277SOL    HW121464   3.667   3.532   5.853 -2.2243  0.6426 -1.8586
 3277SOL    HW221465   3.619   3.655   5.823 -0.1519  0.3045 -2.4870
 3278SOL     OW21466   3.254   0.016   7.381  0.4282  0.2156 -0.0741
 3278SOL    HW121467   3.244   0.070   7.302 -0.5481  1.9807  1.2665
 3278SOL    HW221468   3.161   0.011   7.405  0.7890 -1.1619  1.0090
 3279SOL     OW21469   2.257   2.921  13.468 -0.6091  0.3670 -0.0072
 3279SOL    HW121470   2.200   2.893  13.540  2.1646  0.1218  2.1123
 3279SOL    HW221471   2.216   2.908  13.383  1.7454 -0.9713 -0.9422
 3280SOL     OW21472   1.457   3.496   2.712 -0.2897 -0.0287 -0.4904
 3280SOL    HW121473   1.463   3.590   2.729  4.2210  0.0578 -2.4932
 3280SOL    HW221474   1.462   3.463   2.802  2.2680  0.2505 -0.5083
 3281SOL     OW21475   2.295   0.517   4.912 -0.8777 -0.5535  0.4222
 3281SOL    HW121476   2.322   0.597   4.866 -3.2210 -0.7940 -1.4165
 3281SOL    HW221477   2.212   0.543   4.952 -1.3851 -1.6262  0.0629
 3282SOL     OW21478   1.071   2.289  15.414  0.3506 -0.2157  0.3348
 3282SOL    HW121479   1.095   2.381  15.398 -0.1478 -0.1978 -0.3027
 3282SOL    HW221480   1.058   2.298  15.508 -2.9986  1.8065 -0.3024
 3283SOL     OW21481   1.821   2.967   7.639 -0.2338  0.4507 -0.7639
 3283SOL    HW121482   1.750   2.994   7.697  0.9519  1.3300  0.2794
 3283SOL    HW221483   1.889   2.957   7.705 -1.6631 -0.4582  0.5758
 3284SOL     OW21484   3.237   1.932   4.881  0.1760 -0.4741 -0.5980
 3284SOL    HW121485   3.258   1.848   4.922 -0.3802  0.4201  1.5145
 3284SOL    HW221486   3.329   1.944   4.859 -0.3597  1.8925 -1.4523
 3285SOL     OW21487   4.548   1.354   3.582 -0.4536 -0.1887  0.2409
 3285SOL    HW121488   4.528   1.442   3.612  0.1500 -0.1331  0.4825
 3285SOL    HW221489   4.628   1.327   3.628  0.0096  1.2965  0.3025
 3286SOL     OW21490   3.148   0.824   7.277  0.8023 -0.1539  0.2463
 3286SOL    HW121491   3.199   0.835   7.357  0.2912 -1.5651  0.7441
 3286SOL    HW221492   3.084   0.760   7.306  0.7374  0.5355  1.5776
 3287SOL     OW21493   2.364   0.830   2.997  0.5015  0.3051  0.1088
 3287SOL    HW121494   2.316   0.749   3.016  0.1999  0.8586  1.7374
 3287SOL    HW221495   2.374   0.874   3.081 -3.5847  2.5433 -0.5688
 3288SOL     OW21496   2.903   4.059  13.431  0.6361 -0.9482 -0.4797
 3288SOL    HW121497   2.866   4.045  13.518  0.2202 -0.6617 -0.6064
 3288SOL    HW221498   2.833   4.109  13.388  0.0600 -0.0187  1.5058
 3289SOL     OW21499   0.549   1.264   9.163  0.3605 -0.1901  0.1498
 3289SOL    HW121500   0.527   1.320   9.238  1.7642  2.1143 -1.1619
 3289SOL    HW221501   0.496   1.191   9.196 -0.4865  1.3221  2.1736
 3290SOL     OW21502   1.634   3.027   0.550 -0.4439 -0.6139  0.3214
 3290SOL    HW121503   1.728   3.012   0.554 -0.4302 -1.5282 -3.4209
 3290SOL    HW221504   1.614   3.060   0.638 -2.1138  0.3135 -0.4015
 3291SOL     OW21505   3.830   3.010  16.837  0.5394  0.4919 -0.0991
 3291SOL    HW121506   3.834   3.087  16.893 -2.6807  0.6561 -0.0748
 3291SOL    HW221507   3.760   2.959  16.878  3.8310 -3.5726  0.4958
 3292SOL     OW21508   0.859   1.481   6.078 -0.5100 -0.6716 -0.4129
 3292SOL    HW121509   0.775   1.527   6.088 -1.6128 -2.1139 -2.8756
 3292SOL    HW221510   0.905   1.556   6.040  1.6666 -1.1252  1.3874
 3293SOL     OW21511   0.362   0.049   7.465  0.3879 -0.0306  0.5391
 3293SOL    HW121512   0.336   0.141   7.468 -0.0561 -0.1172 -0.9677
 3293SOL    HW221513   0.281   4.733   7.464 -1.1244  2.3723  0.6020
 3294SOL     OW21514   0.927   1.338   5.196  0.2740  0.4648  0.1151
 3294SOL    HW121515   0.901   1.293   5.116 -0.3389 -0.2258  0.6933
 3294SOL    HW221516   0.863   1.305   5.260 -0.5426 -0.1390 -1.0099
 3295SOL     OW21517   0.039   2.387   7.927 -0.4569  0.4600  0.1787
 3295SOL    HW121518   4.705   2.448   7.899 -0.3441 -0.0686 -1.2756
 3295SOL    HW221519   0.005   2.307   7.886 -0.8015 -0.5321  2.3833
 3296SOL     OW21520   3.049   0.193   0.286 -0.7521  0.1990 -0.0363
 3296SOL    HW121521   3.090   0.148   0.360  2.4639  0.8244 -1.4483
 3296SOL    HW221522   3.061   0.121   0.225 -2.4399 -0.6242  0.5795
 3297SOL     OW21523   3.297   2.314   5.335 -0.1046 -0.1128 -0.1858
 3297SOL    HW121524   3.277   2.222   5.317  1.9812 -0.9719  1.9504
 3297SOL    HW221525   3.380   2.308   5.382 -2.4921 -0.1606  3.9744
 3298SOL     OW21526   0.018   4.400   4.992 -0.1854  0.0617 -0.5253
 3298SOL    HW121527   4.726   4.316   5.028 -1.7342  1.6266  2.0185
 3298SOL    HW221528   4.699   4.451   5.053 -1.5941  0.3004 -1.9864
 3299SOL     OW21529   3.581   1.670   7.250 -0.7642  0.3059 -0.0714
 3299SOL    HW121530   3.648   1.650   7.315 -1.3952 -0.9851  0.1886
 3299SOL    HW221531   3.497   1.695   7.289 -1.0283  2.2326 -1.8613
 3300SOL     OW21532   4.451   2.639   1.298  0.1386  0.3524  0.1400
 3300SOL    HW121533   4.366   2.627   1.341  0.2212  1.3219  0.5757
 3300SOL    HW221534   4.459   2.572   1.230  1.5407 -0.1958  0.8495
 3301SOL     OW21535   0.792   3.558   9.822 -0.5693 -0.2311 -0.9319
 3301SOL    HW121536   0.815   3.543   9.914  2.1961  2.1131 -1.2210
 3301SOL    HW221537   0.790   3.464   9.805 -0.0126 -0.5331  0.6153
 3302SOL     OW21538   2.045   0.590   5.083 -0.0043 -0.4658 -0.5324
 3302SOL    HW121539   1.971   0.650   5.085  0.3185 -0.0632 -0.9072
 3302SOL    HW221540   2.059   0.572   5.176  0.2177  0.5503 -0.3700
 3303SOL     OW21541   0.225   2.099   3.832 -0.2753 -0.2746 -0.5967
 3303SOL    HW121542   0.254   2.011   3.811 -1.1305 -1.3421  2.6740
 3303SOL    HW221543   0.280   2.151   3.773  1.1786 -0.7380  0.3259
 3304SOL     OW21544   1.238   0.617   5.260 -0.0787 -0.4439 -0.5043
 3304SOL    HW121545   1.294   0.552   5.302 -1.8788 -0.7980  1.3255
 3304SOL    HW221546   1.307   0.645   5.200 -0.7970 -2.8425 -2.4900
 3305SOL     OW21547   0.274   4.619   4.485 -0.5525 -0.2650 -0.0489
 3305SOL    HW121548   0.339   4.687   4.470  0.4962 -1.8733 -2.8399
 3305SOL    HW221549   0.333   4.544   4.482 -0.2130  0.0477 -0.9317
 3306SOL     OW21550   4.541   2.000   2.058  0.1108  0.6130 -0.0193
 3306SOL    HW121551   4.499   1.958   2.133  0.7341 -0.5701 -0.3419
 3306SOL    HW221552   4.503   2.088   2.054 -1.0526  0.0883 -0.8816
 3307SOL     OW21553   1.408   0.869  11.563 -0.5288  0.2061 -0.5213
 3307SOL    HW121554   1.404   0.811  11.639  1.0570  2.2640  1.1058
 3307SOL    HW221555   1.444   0.813  11.493  0.2617 -0.3532  0.3371
 3308SOL     OW21556   1.647   0.009   3.698 -0.0958 -0.1675  0.2553
 3308SOL    HW121557   1.583   0.056   3.751  1.9519  1.4701  1.2611
 3308SOL    HW221558   1.595   4.665   3.712  2.6678 -2.0249  0.0084
 3309SOL     OW21559   1.499   2.568   1.194 -0.1097  0.0155  0.3712
 3309SOL    HW121560   1.560   2.600   1.261 -0.0877  0.8380 -0.0359
 3309SOL    HW221561   1.431   2.522   1.242 -0.5252 -1.1469 -1.3637
 3310SOL     OW21562   1.839   4.481   0.263  0.0324 -0.6979 -0.6163
 3310SOL    HW121563   1.787   4.555   0.232  1.1981 -0.7833 -2.7699
 3310SOL    HW221564   1.888   4.459   0.184  0.6503  2.6075 -1.1466
 3311SOL     OW21565   0.469   4.308   8.627 -0.4279  0.5042 -0.4091
 3311SOL    HW121566   0.492   4.323   8.719  2.9329 -0.9833 -1.0005
 3311SOL    HW221567   0.395   4.367   8.615  1.1614  2.1806 -1.8509
 3312SOL     OW21568   1.908   4.717  16.654  0.1854 -0.1194  0.1119
 3312SOL    HW121569   1.998   4.698  16.626  0.2897  1.6594 -0.7315
 3312SOL    HW221570   1.854   4.666  16.594  0.5399 -0.9406  0.4771
 3313SOL     OW21571   0.222   0.624  10.727 -0.0784 -0.5821  0.1913
 3313SOL    HW121572   0.196   0.585  10.644  0.2428  1.4066 -0.8517
 3313SOL    HW221573   0.140   0.636  10.776 -0.2205  0.8962 -0.4069
 3314SOL     OW21574   0.474   3.866   3.671 -0.2095  0.3318  0.0611
 3314SOL    HW121575   0.551   3.813   3.648 -1.5221 -0.2781 -2.8852
 3314SOL    HW221576   0.411   3.850   3.601 -0.8772 -0.5757  0.8693
 3315SOL     OW21577   1.247   1.643  11.780  0.3722  0.5171  0.5804
 3315SOL    HW121578   1.192   1.660  11.856  0.3389 -0.2466  0.7329
 3315SOL    HW221579   1.311   1.592  11.830 -1.5362 -1.3477  1.1256
 3316SOL     OW21580   0.390   1.458   8.372  0.2542 -0.6514 -0.5176
 3316SOL    HW121581   0.448   1.448   8.296  0.6534  2.4887 -0.6077
 3316SOL    HW221582   0.323   1.395   8.346 -0.5073  0.8643 -2.2634
 3317SOL     OW21583   3.851   3.093   3.866  0.2031 -0.2264  0.3337
 3317SOL    HW121584   3.884   3.176   3.901  3.1916 -0.8697 -0.9762
 3317SOL    HW221585   3.923   3.032   3.879 -0.2061 -0.1927  2.8516
 3318SOL     OW21586   1.048   3.949   1.776 -0.1462 -0.3630  0.5636
 3318SOL    HW121587   1.133   3.969   1.737  0.4958  0.0270  2.1523
 3318SOL    HW221588   1.002   3.975   1.697  0.0171 -1.1426  0.2085
 3319SOL     OW21589   4.646   2.935   9.584 -0.6561  0.1744  0.1225
 3319SOL    HW121590   4.587   2.992   9.533  0.0851  0.1564 -0.7477
 3319SOL    HW221591   4.724   2.990   9.592 -0.0889 -0.2150 -2.7584
 3320SOL     OW21592   2.617   3.003   7.304  0.3400 -0.2179 -0.0534
 3320SOL    HW121593   2.564   3.079   7.329  0.7853 -0.5104  1.7435
 3320SOL    HW221594   2.704   3.041   7.295  0.6180 -0.3984  1.9915
 3321SOL     OW21595   2.165   0.007   4.979  0.4839  0.0737  0.2930
 3321SOL    HW121596   2.209   0.080   4.935 -1.9337  0.9696 -0.6477
 3321SOL    HW221597   2.219   4.666   4.961  1.4923  0.6935  0.6747
 3322SOL     OW21598   3.591   4.358   2.542 -0.1674  0.2919 -0.7345
 3322SOL    HW121599   3.574   4.341   2.449 -0.5978 -0.1577 -0.5762
 3322SOL    HW221600   3.656   4.296   2.574 -0.1175  0.5190 -0.3959
 3323SOL     OW21601   2.191   3.568   0.836  0.7598 -0.1370  0.3005
 3323SOL    HW121602   2.141   3.493   0.804  0.5334 -0.9442  2.5931
 3323SOL    HW221603   2.202   3.527   0.921 -0.1330 -1.3312 -0.1689
 3324SOL     OW21604   2.953   1.306   0.532 -0.1741 -0.1407 -0.1771
 3324SOL    HW121605   3.048   1.295   0.543 -0.0002  3.1411  1.7393
 3324SOL    HW221606   2.921   1.226   0.573 -0.9648  0.5790  0.6103
 3325SOL     OW21607   3.616   3.474   6.217  0.0733 -0.4065 -0.4033
 3325SOL    HW121608   3.565   3.473   6.298 -1.1181  0.8150 -1.1316
 3325SOL    HW221609   3.703   3.459   6.255 -0.6981 -0.5344  1.3009
 3326SOL     OW21610   2.813   2.684   0.468 -0.4325  0.8377  0.5898
 3326SOL    HW121611   2.813   2.596   0.432 -1.1404  1.5592 -1.1898
 3326SOL    HW221612   2.815   2.674   0.563  0.5506  0.1356  0.5014
 3327SOL     OW21613   2.219   3.202   8.696  0.3473  0.0867  0.5837
 3327SOL    HW121614   2.235   3.282   8.646  0.2935  0.4765  1.1905
 3327SOL    HW221615   2.192   3.142   8.626  1.2063  0.8699 -0.4240
 3328SOL     OW21616   4.141   1.408  16.865  0.0168  0.2034  0.4182
 3328SOL    HW121617   4.103   1.472  16.925  1.3539  1.3843  0.0075
 3328SOL    HW221618   4.103   1.332  16.909 -0.1977  0.1967  0.2225
 3329SOL     OW21619   2.049   1.348  12.990  0.3708 -0.2097 -0.0106
 3329SOL    HW121620   2.098   1.425  13.019 -1.9341  2.1652 -2.5677
 3329SOL    HW221621   1.959   1.361  13.019  1.0296  0.4475  1.7704
 3330SOL     OW21622   0.683   4.573   7.018 -0.1006 -0.9888  0.0877
 3330SOL    HW121623   0.600   4.540   6.983 -0.2160  1.2580 -1.7527
 3330SOL    HW221624   0.679   4.549   7.110 -1.8813  0.9953  0.5012
 3331SOL     OW21625   1.302   2.322   2.634  0.1154 -0.9735  0.1053
 3331SOL    HW121626   1.390   2.361   2.632  0.2923 -1.3100  1.0735
 3331SOL    HW221627   1.312   2.232   2.665  0.4786 -0.7142  0.7418
 3332SOL     OW21628   1.862   3.638   3.546 -0.1039 -0.0936  0.3566
 3332SOL    HW121629   1.858   3.543   3.544  1.2435 -0.1085 -1.8779
 3332SOL    HW221630   1.934   3.667   3.602 -0.0399  0.5204 -0.0382
 3333SOL     OW21631   4.630   1.873   7.241  0.3030  0.0866 -0.0743
 3333SOL    HW121632   4.708   1.819   7.253 -0.7284 -1.2556  0.6291
 3333SOL    HW221633   4.593   1.876   7.329 -3.1703 -1.7721 -1.4924
 3334SOL     OW21634   2.052   1.293  13.450  0.1737  0.0079 -0.3067
 3334SOL    HW121635   1.969   1.285  13.402  0.0708 -0.7481  0.0058
 3334SOL    HW221636   2.027   1.331  13.534  0.7301 -0.4830  0.0753
 3335SOL     OW21637   0.178   0.874   8.021  0.1442 -0.2094 -0.3277
 3335SOL    HW121638   0.205   0.966   8.028 -0.0965 -0.1415 -0.2879
 3335SOL    HW221639   0.208   0.831   8.101  2.2293  1.7584 -0.0404
 3336SOL     OW21640   4.335   3.163   5.348  0.0369  0.1368  0.1588
 3336SOL    HW121641   4.357   3.255   5.367  2.7735 -0.4355 -0.1327
 3336SOL    HW221642   4.329   3.161   5.253  1.0675 -0.2184  0.0929
 3337SOL     OW21643   0.669   0.705   5.153 -0.2740  0.5995  0.0785
 3337SOL    HW121644   0.725   0.628   5.161 -0.7382  0.3183  0.6146
 3337SOL    HW221645   0.691   0.750   5.234 -0.0163 -0.6822  0.7169
 3338SOL     OW21646   0.902   4.222  13.284  0.0065  0.4856  0.4728
 3338SOL    HW121647   0.926   4.228  13.377  1.0106  2.7582  0.0460
 3338SOL    HW221648   0.949   4.298  13.252 -0.1966 -0.0978 -1.2088
 3339SOL     OW21649   2.621   4.342   3.205 -0.0879 -0.3782  0.5704
 3339SOL    HW121650   2.702   4.371   3.164  0.3097 -0.6106  1.1945
 3339SOL    HW221651   2.635   4.375   3.294  0.4369 -1.2091  0.7963
 3340SOL     OW21652   2.324   3.267   6.615 -0.4894  0.3203 -0.2432
 3340SOL    HW121653   2.269   3.345   6.622 -2.3369 -1.0237  0.0929
 3340SOL    HW221654   2.262   3.208   6.573  0.8957 -0.4295 -1.2314
 3341SOL     OW21655   3.795   1.232   5.793 -0.1831  0.2564 -0.2033
 3341SOL    HW121656   3.768   1.168   5.859 -0.2576  0.6449  0.1386
 3341SOL    HW221657   3.881   1.257   5.826 -0.4746  2.6238 -1.2558
 3342SOL     OW21658   1.764   4.492  16.498  0.3540 -0.3317  0.6524
 3342SOL    HW121659   1.686   4.493  16.443 -0.6365  0.1609  2.0533
 3342SOL    HW221660   1.821   4.451  16.433  0.2952 -0.2237  0.5321
 3343SOL     OW21661   4.647   4.652  10.376  0.5778  0.1090  0.3667
 3343SOL    HW121662   4.623   4.703  10.299 -1.4329 -1.9037 -0.3613
 3343SOL    HW221663   4.713   4.705  10.420 -0.1022  0.4633  0.9545
 3344SOL     OW21664   1.126   1.129   1.440 -0.2558  0.3755 -0.2392
 3344SOL    HW121665   1.209   1.146   1.485 -0.3755  1.6674 -0.5010
 3344SOL    HW221666   1.113   1.036   1.458  1.5030 -0.0120 -1.0060
 3345SOL     OW21667   1.330   3.975   0.911 -0.2363 -0.3341 -0.3732
 3345SOL    HW121668   1.382   4.042   0.956  0.1410 -0.7236 -0.2286
 3345SOL    HW221669   1.285   4.030   0.847 -0.2726 -0.4473 -0.4458
 3346SOL     OW21670   3.656   2.350   2.713 -0.4173  0.2218  0.2257
 3346SOL    HW121671   3.608   2.417   2.761 -2.4822 -1.5592  0.6317
 3346SOL    HW221672   3.598   2.332   2.639  1.3004 -0.0473 -1.0522
 3347SOL     OW21673   3.669   3.746   2.846 -0.2064  0.0360 -0.2206
 3347SOL    HW121674   3.757   3.709   2.854 -0.6039 -0.4239  2.0053
 3347SOL    HW221675   3.626   3.661   2.848  1.2590 -0.6900  0.8274
 3348SOL     OW21676   2.547   0.022   6.807 -0.2184  0.1779 -0.0085
 3348SOL    HW121677   2.458   0.049   6.787  0.7699  1.7697 -2.3190
 3348SOL    HW221678   2.544   4.667   6.776  0.6409  0.1380  0.0049
 3349SOL     OW21679   4.221   0.156   3.858 -0.2031 -0.3319  0.1267
 3349SOL    HW121680   4.223   0.155   3.762 -2.9142 -2.0427  0.0714
 3349SOL    HW221681   4.239   0.065   3.881 -0.6403 -0.6280 -0.6883
 3350SOL     OW21682   0.747   4.089   0.289  0.1622 -0.5778 -0.0029
 3350SOL    HW121683   0.745   4.049   0.202 -1.8061  0.4815 -0.4284
 3350SOL    HW221684   0.668   4.142   0.280  0.1770  0.1719  4.0928
 3351SOL     OW21685   3.745   4.092   8.218  0.3582  1.0507 -0.3433
 3351SOL    HW121686   3.775   4.175   8.182  1.8624 -0.4413 -2.4916
 3351SOL    HW221687   3.783   4.090   8.306  2.3058 -1.3373 -1.2278
 3352SOL     OW21688   3.024   2.590  16.589  0.6920  0.1730  0.2778
 3352SOL    HW121689   3.020   2.653  16.517 -2.3091 -2.6181 -2.0297
 3352SOL    HW221690   2.964   2.623  16.656  2.7077  2.3863  0.9610
 3353SOL     OW21691   3.072   1.613   1.417 -0.2984 -0.1174 -0.3182
 3353SOL    HW121692   3.026   1.683   1.462 -0.4897  0.8535 -1.9937
 3353SOL    HW221693   3.038   1.535   1.459  2.1635 -0.4597  1.0107
 3354SOL     OW21694   1.943   3.630   2.514 -0.3906  0.8220 -0.9219
 3354SOL    HW121695   1.993   3.697   2.467  3.2901 -0.5315  0.9930
 3354SOL    HW221696   1.972   3.657   2.601  2.7622 -2.8917 -0.7956
 3355SOL     OW21697   2.068   2.811  10.252 -0.2261  0.1792 -0.2380
 3355SOL    HW121698   2.156   2.850  10.252  0.5559 -1.6129 -3.7392
 3355SOL    HW221699   2.074   2.756  10.174 -0.2397 -1.7522  1.1306
 3356SOL     OW21700   1.115   2.137   4.044 -0.2308 -0.2783  0.0684
 3356SOL    HW121701   1.087   2.102   4.129  0.8334  1.2516  1.0548
 3356SOL    HW221702   1.208   2.122   4.060 -0.3331 -0.4418  0.5129
 3357SOL     OW21703   0.898   2.630   0.501 -0.4987  0.1113  0.4926
 3357SOL    HW121704   0.808   2.639   0.532 -0.5286  2.5923 -0.2738
 3357SOL    HW221705   0.942   2.596   0.579 -0.0553 -0.6135 -0.0773
 3358SOL     OW21706   0.147   4.065   4.734  0.2475  0.2629 -0.0524
 3358SOL    HW121707   0.081   4.134   4.734  0.9967  0.9672 -1.2487
 3358SOL    HW221708   0.108   3.995   4.787  0.8362 -0.6095 -0.7676
 3359SOL     OW21709   0.377   3.884   7.182 -0.0852 -0.0981  0.1218
 3359SOL    HW121710   0.460   3.914   7.219  0.1797  0.5134 -0.9499
 3359SOL    HW221711   0.325   3.964   7.185  1.2196  0.6364  3.0851
 3360SOL     OW21712   3.098   0.468   3.009  0.0031 -0.5910  0.2660
 3360SOL    HW121713   3.122   0.410   3.082 -1.2812 -0.6268  0.6684
 3360SOL    HW221714   3.085   0.412   2.933  0.0069 -3.9169  2.7075
 3361SOL     OW21715   3.250   1.255   0.566  0.0544 -0.1951 -0.6873
 3361SOL    HW121716   3.269   1.348   0.580 -0.0695 -0.1021 -1.1397
 3361SOL    HW221717   3.318   1.245   0.499 -1.5429  1.1698 -2.5137
 3362SOL     OW21718   1.067   0.403  17.546 -0.4790 -0.0833  0.7038
 3362SOL    HW121719   1.141   0.464  17.547  0.9401 -1.7832 -0.9190
 3362SOL    HW221720   1.109   0.328  17.503 -1.5690  0.1265 -0.7245
 3363SOL     OW21721   1.111   0.964   7.114 -0.0355 -0.3580  0.0590
 3363SOL    HW121722   1.161   0.974   7.195 -2.5643  3.5798  1.1585
 3363SOL    HW221723   1.040   0.908   7.144  2.5566 -2.6442  1.8308
 3364SOL     OW21724   1.299   2.073   8.562  0.1109  0.4137  0.5075
 3364SOL    HW121725   1.292   1.989   8.516 -2.3178  0.5159  0.7085
 3364SOL    HW221726   1.211   2.107   8.551 -0.0045 -0.6982 -1.9870
 3365SOL     OW21727   3.761   3.359   6.682 -0.5843  0.2422 -0.4015
 3365SOL    HW121728   3.717   3.310   6.612 -1.0446  0.6314 -0.3851
 3365SOL    HW221729   3.783   3.296   6.750  0.1748 -1.5090 -2.2857
 3366SOL     OW21730   0.286   2.743   3.809 -0.2442 -0.6893  0.1807
 3366SOL    HW121731   0.208   2.690   3.824 -1.7350  2.0782  2.1207
 3366SOL    HW221732   0.352   2.673   3.817 -1.2474 -1.6938 -0.2964
 3367SOL     OW21733   3.056   3.454   6.380  0.0850  0.1909  0.6423
 3367SOL    HW121734   3.102   3.371   6.393  1.8751  1.3566  1.8055
 3367SOL    HW221735   3.058   3.493   6.467  1.1016  0.1382  0.6519
 3368SOL     OW21736   0.584   2.166   9.972 -0.0197 -0.2482  0.0184
 3368SOL    HW121737   0.588   2.259   9.953 -1.0410 -1.3174 -5.2260
 3368SOL    HW221738   0.623   2.135   9.891  1.7271 -0.3091  0.8829
 3369SOL     OW21739   3.195   3.353   9.444 -0.0666  0.2266 -0.0092
 3369SOL    HW121740   3.202   3.266   9.405 -0.6511 -0.1398  0.7076
 3369SOL    HW221741   3.196   3.328   9.536  0.8818  1.5907  0.3568
 3370SOL     OW21742   3.603   3.783   6.837 -0.2449  0.3395  0.0456
 3370SOL    HW121743   3.690   3.765   6.871 -0.1176 -2.0027 -1.4573
 3370SOL    HW221744   3.547   3.715   6.873 -1.0137  0.6898 -0.4817
 3371SOL     OW21745   2.743   0.566   9.048  0.4660 -0.3483  0.2475
 3371SOL    HW121746   2.673   0.608   9.097 -0.8604 -0.0160 -1.9105
 3371SOL    HW221747   2.701   0.565   8.962 -0.5814  0.7946  0.7486
 3372SOL     OW21748   0.739   3.207   0.395  0.3145 -0.1432 -0.4988
 3372SOL    HW121749   0.776   3.244   0.315 -2.4795 -1.5862 -2.4984
 3372SOL    HW221750   0.674   3.151   0.352  0.1653  0.6631 -1.3137
 3373SOL     OW21751   1.326   1.074  10.201  0.2314  0.0185  0.1311
 3373SOL    HW121752   1.321   1.170  10.196  0.8770  0.1105  1.1327
 3373SOL    HW221753   1.239   1.043  10.178  0.3273  0.8275 -1.3388
 3374SOL     OW21754   0.014   2.331   7.418  0.1323  0.1681 -0.9227
 3374SOL    HW121755   0.041   2.345   7.327  2.8375 -1.0855 -0.3179
 3374SOL    HW221756   0.004   2.237   7.429  1.9105 -0.0621 -1.2553
 3375SOL     OW21757   0.621   3.446  17.183  0.2100 -0.1980 -0.2219
 3375SOL    HW121758   0.576   3.388  17.245 -1.6752 -0.2219 -1.5964
 3375SOL    HW221759   0.566   3.420  17.109 -0.7760 -0.3080  0.5491
 3376SOL     OW21760   1.913   1.824   3.377 -0.2670  0.2040 -0.0698
 3376SOL    HW121761   2.008   1.834   3.385 -0.0499  0.2583 -2.5602
 3376SOL    HW221762   1.875   1.901   3.419 -3.1430 -1.5965  0.6020
 3377SOL     OW21763   3.218   2.545   2.797 -0.5461  0.4039 -0.2826
 3377SOL    HW121764   3.182   2.488   2.729  2.6280 -1.3898 -0.4599
 3377SOL    HW221765   3.270   2.606   2.745  0.7178 -0.2349  0.2483
 3378SOL     OW21766   1.241   3.727   7.245  0.2175 -1.0865  0.1634
 3378SOL    HW121767   1.325   3.758   7.211 -0.0855 -0.4194  0.0207
 3378SOL    HW221768   1.238   3.763   7.333 -1.2066  0.3439 -0.4624
 3379SOL     OW21769   0.346   0.968   3.964 -0.5501  0.0680 -0.2988
 3379SOL    HW121770   0.394   1.051   3.956  2.2448 -1.4508  0.8648
 3379SOL    HW221771   0.410   0.900   3.943  0.0075  0.0680  1.4203
 3380SOL     OW21772   1.579   0.346   2.201  0.1181  0.3705 -0.0441
 3380SOL    HW121773   1.636   0.318   2.271  0.3175 -2.0917 -1.1939
 3380SOL    HW221774   1.556   0.267   2.152  3.5400 -1.6037  1.5879
 3381SOL     OW21775   3.550   3.513   7.031 -0.0910  0.0579 -0.2759
 3381SOL    HW121776   3.561   3.597   7.076 -0.9971  0.5095 -0.9052
 3381SOL    HW221777   3.644   3.495   7.021 -0.0130 -0.5548  1.4868
 3382SOL     OW21778   3.356   1.216   0.844 -0.2454 -0.0471  0.1367
 3382SOL    HW121779   3.314   1.239   0.761  2.5229 -0.6200 -1.4222
 3382SOL    HW221780   3.446   1.245   0.832 -0.0650 -0.0758  1.4410
 3383SOL     OW21781   3.523   3.373   4.573 -0.0596  0.3573 -0.3731
 3383SOL    HW121782   3.465   3.357   4.647 -0.2165 -1.3837 -0.8728
 3383SOL    HW221783   3.469   3.381   4.494 -0.2845 -0.5579 -0.3111
 3384SOL     OW21784   1.597   3.992   2.384  0.3978 -0.4451 -0.7223
 3384SOL    HW121785   1.574   3.908   2.344 -0.9267 -1.8720  3.0898
 3384SOL    HW221786   1.646   3.970   2.463 -0.0904  0.8898 -0.0503
 3385SOL     OW21787   4.190   1.666  13.384  0.3012  0.0540 -0.1794
 3385SOL    HW121788   4.227   1.690  13.469 -0.6492 -1.2900  0.6242
 3385SOL    HW221789   4.101   1.700  13.388  0.1924 -0.0537 -1.5285
 3386SOL     OW21790   2.235   4.637   8.665 -0.1470  0.3582 -0.2223
 3386SOL    HW121791   2.229   4.680   8.579  2.8125 -1.4875 -1.3789
 3386SOL    HW221792   2.234   4.713   8.722 -1.4098 -1.4067  2.0820
 3387SOL     OW21793   4.436   0.996   6.427  0.6737 -0.2845 -0.2323
 3387SOL    HW121794   4.382   1.020   6.502  0.4421 -1.3581 -0.0660
 3387SOL    HW221795   4.374   0.940   6.381 -0.0998 -0.2512  0.7825
 3388SOL     OW21796   2.076   4.239   8.256  0.6299  0.4906  0.1587
 3388SOL    HW121797   2.106   4.325   8.286 -0.4600  1.2538 -0.9603
 3388SOL    HW221798   2.156   4.194   8.228  0.9736  1.0861  0.1905
 3389SOL     OW21799   2.181   2.742   5.318  0.3300  0.8690 -0.0049
 3389SOL    HW121800   2.214   2.829   5.294  0.1370  0.8212 -0.4374
 3389SOL    HW221801   2.256   2.711   5.369 -0.4972 -0.3419  0.4807
 3390SOL     OW21802   4.535   2.899   6.775 -0.0173  0.0812 -0.0557
 3390SOL    HW121803   4.581   2.977   6.746 -1.6249  0.6589 -1.0626
 3390SOL    HW221804   4.597   2.828   6.757 -0.7841 -0.8371  0.9226
 3391SOL     OW21805   3.434   3.215   7.384  0.4635 -0.1796 -0.1230
 3391SOL    HW121806   3.404   3.176   7.466 -0.1272 -2.1958 -1.2991
 3391SOL    HW221807   3.507   3.162   7.354 -0.2516 -1.5833  0.6006
 3392SOL     OW21808   4.727   1.949   2.608  0.3023  0.1631  0.5849
 3392SOL    HW121809   0.080   1.937   2.574  0.8062  1.2050  1.5394
 3392SOL    HW221810   4.720   1.879   2.673  1.5154  1.4361  2.0722
 3393SOL     OW21811   2.581   3.222   4.071  0.7437 -0.6050 -0.1263
 3393SOL    HW121812   2.578   3.242   3.978  1.2667  0.7504  0.1478
 3393SOL    HW221813   2.488   3.208   4.089  0.6973  0.0605  0.1395
 3394SOL     OW21814   2.767   2.558   2.147 -0.6691  0.9407  0.2142
 3394SOL    HW121815   2.763   2.590   2.057 -3.9799 -0.7263 -0.2175
 3394SOL    HW221816   2.854   2.519   2.150 -0.5450  1.5055  3.7813
 3395SOL     OW21817   0.729   1.830   3.030 -0.2577 -0.1063  0.3004
 3395SOL    HW121818   0.761   1.748   3.067 -1.1471 -0.1948  0.9018
 3395SOL    HW221819   0.727   1.815   2.936 -1.6253 -1.4497  0.5441
 3396SOL     OW21820   3.537   2.658   2.533  0.5627 -0.3903  0.2086
 3396SOL    HW121821   3.455   2.696   2.565  1.4329  1.1082  0.6532
 3396SOL    HW221822   3.515   2.575   2.489 -2.5099 -0.2269  1.4033
 3397SOL     OW21823   1.891   3.183   5.820 -0.7043  0.1686 -0.0105
 3397SOL    HW121824   1.889   3.117   5.889 -0.0020 -1.5753 -1.6646
 3397SOL    HW221825   1.832   3.148   5.754  0.5797  0.6026 -1.4025
 3398SOL     OW21826   0.257   3.493   3.482 -0.4354  0.0427 -0.0111
 3398SOL    HW121827   0.234   3.451   3.565  1.5248 -0.1989  0.4291
 3398SOL    HW221828   0.326   3.432   3.455  0.0852  0.4947  0.2826
 3399SOL     OW21829   4.265   4.378   3.997  0.3077 -0.4448 -0.6140
 3399SOL    HW121830   4.191   4.380   3.936 -0.1223  0.2896 -0.0721
 3399SOL    HW221831   4.323   4.313   3.957  2.6309  1.9050 -1.0487
 3400SOL     OW21832   3.825   2.141   7.526 -0.0735  0.2749  0.3276
 3400SOL    HW121833   3.803   2.233   7.536 -0.9837 -0.1110  1.9442
 3400SOL    HW221834   3.802   2.126   7.434  1.9620  0.8618 -0.2729
 3401SOL     OW21835   1.515   4.362   3.528 -0.0620 -0.0200  0.4221
 3401SOL    HW121836   1.571   4.323   3.596 -0.4341 -2.0097 -0.4179
 3401SOL    HW221837   1.439   4.367   3.586 -1.0458 -2.7026 -0.6416
 3402SOL     OW21838   3.600   2.619  13.048  0.6221 -0.1227  0.4497
 3402SOL    HW121839   3.665   2.575  13.102  0.9686 -0.5293 -0.3038
 3402SOL    HW221840   3.663   2.678  13.006  1.9626 -1.7028  0.2740
 3403SOL     OW21841   3.146   2.711   8.266  0.2401  0.1472  0.2371
 3403SOL    HW121842   3.064   2.720   8.217  0.4653 -1.9350 -0.5312
 3403SOL    HW221843   3.203   2.655   8.214  0.8138  3.0345 -2.2332
 3404SOL     OW21844   0.106   3.395  11.958  0.0999 -0.0231 -0.4895
 3404SOL    HW121845   0.199   3.386  11.941  0.2858  1.3590 -0.1612
 3404SOL    HW221846   0.063   3.413  11.874  0.9081 -1.3965 -1.1932
 3405SOL     OW21847   0.248   0.932   2.717  0.5431 -0.5053  0.3097
 3405SOL    HW121848   0.244   0.879   2.637  1.3917  0.0861 -0.1201
 3405SOL    HW221849   0.343   0.938   2.719  0.5756 -0.5372 -1.2624
 3406SOL     OW21850   1.777   3.070  15.696 -0.3887  1.2343  0.0678
 3406SOL    HW121851   1.754   3.073  15.789 -0.2350 -1.6348  0.1912
 3406SOL    HW221852   1.685   3.063  15.671 -0.2723 -0.5132  0.1394
 3407SOL     OW21853   2.378   0.581   7.937 -0.0625  0.1849  0.4806
 3407SOL    HW121854   2.463   0.559   7.899  0.5327  1.4967  1.0592
 3407SOL    HW221855   2.392   0.670   7.967  1.4708 -0.2753  1.1590
 3408SOL     OW21856   2.879   0.901   7.829 -0.3525  0.1666 -0.0042
 3408SOL    HW121857   2.879   0.827   7.769 -0.2724 -1.0243  1.4521
 3408SOL    HW221858   2.965   0.938   7.810  0.4808 -1.9200 -0.3613
 3409SOL     OW21859   2.238   0.499   8.463  0.3091 -0.7154 -0.4124
 3409SOL    HW121860   2.155   0.517   8.419  0.5196  1.1789 -0.0367
 3409SOL    HW221861   2.255   0.586   8.500  0.2786 -0.7691 -0.2735
 3410SOL     OW21862   4.706   0.165   0.783 -0.2105 -0.3146  0.0174
 3410SOL    HW121863   4.710   0.133   0.693  0.4922  2.3186 -0.8635
 3410SOL    HW221864   4.611   0.174   0.787 -0.1781  0.3260 -0.8060
 3411SOL     OW21865   1.708   1.753   2.234  0.2370 -0.0764  0.3363
 3411SOL    HW121866   1.783   1.711   2.191  0.3556 -0.2737  0.7331
 3411SOL    HW221867   1.735   1.844   2.223 -0.3393 -0.0365 -0.7431
 3412SOL     OW21868   2.686   3.495   6.896  0.6855 -0.0501 -0.6065
 3412SOL    HW121869   2.759   3.444   6.860 -1.4250 -1.9070 -2.2125
 3412SOL    HW221870   2.667   3.453   6.980  0.1980  0.6730 -0.3619
 3413SOL     OW21871   0.872   0.969   2.820  0.2214  0.2102  0.0058
 3413SOL    HW121872   0.901   0.884   2.787 -1.3142 -0.7648  1.1694
 3413SOL    HW221873   0.946   1.019   2.784  0.5551  0.7182  1.4023
 3414SOL     OW21874   3.501   3.830   3.118  0.0767 -0.2146 -0.4053
 3414SOL    HW121875   3.480   3.897   3.053 -0.1063 -0.8996 -1.0486
 3414SOL    HW221876   3.535   3.764   3.059  0.4758 -0.0142 -0.3996
 3415SOL     OW21877   0.430   1.658   2.142 -0.1582  0.0981  0.1917
 3415SOL    HW121878   0.453   1.749   2.122  0.6847 -0.6351 -2.1140
 3415SOL    HW221879   0.477   1.618   2.069 -0.8682  0.8754 -0.6910
 3416SOL     OW21880   4.055   0.625  10.057 -0.5150  0.0522 -0.1308
 3416SOL    HW121881   4.003   0.678   9.996  2.3331  2.8661 -0.1170
 3416SOL    HW221882   3.988   0.598  10.119  0.2030 -2.7289 -0.5865
 3417SOL     OW21883   0.726   1.317   7.746 -0.0383  0.2512  0.5086
 3417SOL    HW121884   0.755   1.339   7.834  0.5745 -0.2134  0.4176
 3417SOL    HW221885   0.809   1.293   7.706 -0.1755  0.9742 -0.2154
 3418SOL     OW21886   1.657   1.644   8.561 -0.0497  0.2884 -0.0152
 3418SOL    HW121887   1.609   1.632   8.643  1.4682  1.2852  1.0112
 3418SOL    HW221888   1.593   1.694   8.510 -1.4190 -0.8319  0.6155
 3419SOL     OW21889   1.097   1.225   1.774  0.0822  0.1317 -0.2351
 3419SOL    HW121890   1.090   1.138   1.812 -1.8936  0.7727  0.9066
 3419SOL    HW221891   1.184   1.254   1.803 -1.2137  2.0855  1.7417
 3420SOL     OW21892   0.985   3.350   1.924 -0.1584 -0.1986  0.1761
 3420SOL    HW121893   0.931   3.428   1.937  0.1998  0.3631 -1.7020
 3420SOL    HW221894   0.963   3.322   1.835 -1.9924  0.0801  0.5522
 3421SOL     OW21895   2.086   4.649  12.829 -0.7958  0.0603 -0.3113
 3421SOL    HW121896   2.082   0.005  12.802 -1.2139  0.4650  1.1381
 3421SOL    HW221897   2.024   4.653  12.902 -0.4607 -0.2626 -0.0096
 3422SOL     OW21898   0.466   4.409   6.979  0.1574  0.2226 -0.3922
 3422SOL    HW121899   0.430   4.354   6.910  4.2801 -1.0195 -1.5533
 3422SOL    HW221900   0.387   4.456   7.008 -1.0095 -0.4704 -2.5052
 3423SOL     OW21901   2.488   3.427   8.764  0.0763  0.2760  0.3246
 3423SOL    HW121902   2.475   3.437   8.670 -1.3691  0.6452  0.5590
 3423SOL    HW221903   2.517   3.336   8.763 -0.2232  0.2017 -1.5570
 3424SOL     OW21904   0.899   1.110  10.976 -0.5355 -0.3736 -0.8650
 3424SOL    HW121905   0.834   1.065  11.031  0.4503  0.2745  0.8054
 3424SOL    HW221906   0.869   1.099  10.886  3.0817 -2.0219 -1.8508
 3425SOL     OW21907   1.002   2.249  17.424 -0.1036 -0.7717 -0.5796
 3425SOL    HW121908   1.047   2.220  17.344  0.8367 -0.6184 -0.1065
 3425SOL    HW221909   1.028   2.184  17.490 -1.5755 -1.4486 -0.6732
 3426SOL     OW21910   0.277   3.633   4.010 -0.2014 -0.1404  0.0362
 3426SOL    HW121911   0.277   3.711   4.067 -0.6311  0.3388 -0.6146
 3426SOL    HW221912   0.356   3.653   3.959 -0.5245 -1.5253 -1.0051
 3427SOL     OW21913   4.103   0.613   4.579 -0.2535 -0.1598 -0.1737
 3427SOL    HW121914   4.140   0.585   4.663 -0.0451  2.8950  0.7847
 3427SOL    HW221915   4.184   0.615   4.529 -0.9242  1.1847 -1.2060
 3428SOL     OW21916   2.305   3.685  13.323  0.0927 -0.1514  0.1338
 3428SOL    HW121917   2.264   3.601  13.345  0.2218  0.4371  2.6162
 3428SOL    HW221918   2.300   3.694  13.228  0.9779 -1.0486 -0.0041
 3429SOL     OW21919   4.004   0.494   1.143 -0.1417 -0.1386  0.1443
 3429SOL    HW121920   4.026   0.528   1.230 -1.5377  1.9866 -0.3303
 3429SOL    HW221921   4.094   0.483   1.113 -0.4300 -0.0141 -0.7702
 3430SOL     OW21922   1.466   1.379   2.836  0.0620 -0.3638 -0.0734
 3430SOL    HW121923   1.535   1.415   2.893  0.7941 -1.1207 -0.4791
 3430SOL    HW221924   1.500   1.289   2.839  0.1392 -0.3405 -0.2861
 3431SOL     OW21925   3.069   2.036  10.525  0.9286 -0.2252 -0.0530
 3431SOL    HW121926   3.104   1.974  10.462  4.1113  1.1677  0.3703
 3431SOL    HW221927   3.007   1.981  10.574  0.8541 -0.7278 -0.7179
 3432SOL     OW21928   0.575   0.145   7.632  0.1932 -0.7103  0.8570
 3432SOL    HW121929   0.487   0.133   7.595  1.7416  0.9592 -3.4116
 3432SOL    HW221930   0.623   0.076   7.586  0.7104 -0.1268  0.5281
 3433SOL     OW21931   3.105   4.450   3.672 -0.0110  0.3788  0.4678
 3433SOL    HW121932   3.065   4.442   3.759 -0.0001 -1.2962  0.3268
 3433SOL    HW221933   3.172   4.517   3.683  1.3813 -1.2182  1.7914
 3434SOL     OW21934   0.988   0.166  16.612 -0.3114 -0.5415 -0.3216
 3434SOL    HW121935   0.988   0.073  16.634  0.1936 -0.3612  0.4073
 3434SOL    HW221936   0.914   0.157  16.551 -1.3774 -0.2029  0.9442
 3435SOL     OW21937   2.000   2.800   6.674 -0.3401 -0.4823  0.2856
 3435SOL    HW121938   1.995   2.816   6.768  0.8739  1.6603  0.0041
 3435SOL    HW221939   2.061   2.727   6.669  2.4874  1.8659 -0.0282
 3436SOL     OW21940   4.474   1.464  16.558 -0.7863 -0.1672  0.0905
 3436SOL    HW121941   4.501   1.454  16.467  1.4331  1.1606  0.6081
 3436SOL    HW221942   4.404   1.398  16.557  0.9689 -1.9667 -2.1914
 3437SOL     OW21943   0.566   4.700  17.013 -0.0230 -0.0007  0.0820
 3437SOL    HW121944   0.627   0.008  16.953  0.2618 -2.1155 -1.1527
 3437SOL    HW221945   0.564   0.023  17.089  1.4065  0.2912 -0.0937
 3438SOL     OW21946   2.212   2.269   4.049 -0.0249 -0.0825  0.0148
 3438SOL    HW121947   2.166   2.185   4.036  1.8865 -1.3901  1.7407
 3438SOL    HW221948   2.175   2.321   3.978  1.4990  0.8818 -0.0620
 3439SOL     OW21949   3.539   2.227  12.030  0.6278 -0.5133 -0.3051
 3439SOL    HW121950   3.461   2.188  12.068  0.2587  1.2113  0.7167
 3439SOL    HW221951   3.597   2.157  12.000  1.3225 -0.1134  0.0984
 3440SOL     OW21952   4.175   1.850   7.413 -0.3570  0.1068 -0.0806
 3440SOL    HW121953   4.230   1.828   7.338  0.1297  0.5188  0.1556
 3440SOL    HW221954   4.094   1.808   7.383  0.0686 -1.1396  0.5212
 3441SOL     OW21955   1.096   2.526   2.632  0.6181  0.6604 -0.7015
 3441SOL    HW121956   1.167   2.472   2.669  1.3395  1.0916 -1.4637
 3441SOL    HW221957   1.058   2.452   2.585  0.7555 -1.2590  2.1593
 3442SOL     OW21958   0.801   1.957   8.312  0.4005 -0.1661  0.4589
 3442SOL    HW121959   0.827   2.041   8.274  0.2958 -0.0302  0.6857
 3442SOL    HW221960   0.857   1.943   8.388  0.4139 -3.7094 -0.2007
 3443SOL     OW21961   0.102   0.325   0.980 -0.2915  0.3184 -0.4494
 3443SOL    HW121962   0.192   0.292   0.973 -1.2037 -2.3945  0.9058
 3443SOL    HW221963   0.043   0.253   0.958  1.1279 -1.4993  1.6376
 3444SOL     OW21964   3.542   2.679  16.553 -0.1716 -0.1421 -0.3462
 3444SOL    HW121965   3.449   2.680  16.531  0.3910 -0.3023 -2.7497
 3444SOL    HW221966   3.545   2.741  16.627  1.1840 -0.5735 -0.0326
 3445SOL     OW21967   2.204   0.829   1.629 -0.0111  0.0736 -0.0109
 3445SOL    HW121968   2.200   0.886   1.553 -0.4780 -1.3591 -1.0593
 3445SOL    HW221969   2.283   0.778   1.610 -0.7471 -0.5587 -1.3171
 3446SOL     OW21970   4.614   1.404   3.878  0.5895 -0.0226  0.0581
 3446SOL    HW121971   4.685   1.344   3.852  0.6567  0.2645 -0.4172
 3446SOL    HW221972   4.647   1.438   3.961  3.3683 -2.8096  0.1180
 3447SOL     OW21973   2.500   3.512   4.497 -0.6037 -0.8901  0.1638
 3447SOL    HW121974   2.546   3.429   4.483  0.9979 -0.1064  0.7637
 3447SOL    HW221975   2.545   3.557   4.425  1.0748 -2.5752  0.1684
 3448SOL     OW21976   0.696   0.079   1.521  0.2220  0.4443 -0.2519
 3448SOL    HW121977   0.614   0.122   1.543 -0.8353 -2.5403  1.5811
 3448SOL    HW221978   0.753   0.115   1.590 -0.0442  1.3517 -0.5007
 3449SOL     OW21979   4.259   0.692   7.405  0.5819  0.2287 -0.5788
 3449SOL    HW121980   4.283   0.600   7.401  1.6441  0.5872 -2.3681
 3449SOL    HW221981   4.322   0.733   7.465  1.4095 -0.3636 -1.0448
 3450SOL     OW21982   3.581   4.284  12.151  0.1072  0.4982 -0.5742
 3450SOL    HW121983   3.489   4.286  12.177 -0.2527 -2.9952 -1.5367
 3450SOL    HW221984   3.586   4.338  12.072 -2.8630  2.3119  0.4804
 3451SOL     OW21985   2.353   0.501   5.772  0.4880 -0.1814  0.1954
 3451SOL    HW121986   2.399   0.582   5.751  0.0493  0.3363  1.2283
 3451SOL    HW221987   2.264   0.537   5.768 -0.8871 -3.4918  0.9879
 3452SOL     OW21988   0.279   1.687   8.506  0.5224 -0.0203  0.0093
 3452SOL    HW121989   0.261   1.756   8.443  0.4714  1.0533  1.2010
 3452SOL    HW221990   0.315   1.616   8.452  1.0542  1.3698 -1.4403
 3453SOL     OW21991   2.803   3.263   8.907  0.0788  0.2185  0.0009
 3453SOL    HW121992   2.893   3.235   8.893 -0.3572 -1.3045  0.2666
 3453SOL    HW221993   2.758   3.216   8.838 -0.1248 -1.1964  1.0982
 3454SOL     OW21994   3.447   3.292  13.483  0.6182 -0.0021 -0.2396
 3454SOL    HW121995   3.482   3.313  13.570 -1.5854 -1.3211  0.9830
 3454SOL    HW221996   3.498   3.347  13.424  0.6876  0.0884 -0.0972
 3455SOL     OW21997   3.852   1.604   4.734 -0.5211  0.5006  0.2982
 3455SOL    HW121998   3.929   1.552   4.707 -2.5537 -3.0065  1.2634
 3455SOL    HW221999   3.887   1.691   4.751  1.8169 -1.0408  3.3198
 3456SOL     OW22000   3.366   2.439   7.367  0.0693  0.0540 -0.0362
 3456SOL    HW122001   3.408   2.511   7.319 -0.7915  1.4952  1.3423
 3456SOL    HW222002   3.424   2.438   7.443 -1.1915  2.9828  0.9966
 3457SOL     OW22003   2.570   2.108   1.617 -0.6374  0.7401  0.1672
 3457SOL    HW122004   2.581   2.079   1.707  0.9032 -2.3498 -1.0052
 3457SOL    HW222005   2.626   2.042   1.576  1.1732  0.3359  3.2769
 3458SOL     OW22006   2.822   3.951  10.004 -0.2056 -0.0013  0.3945
 3458SOL    HW122007   2.886   3.977   9.937 -1.9024  2.4888 -0.2569
 3458SOL    HW222008   2.761   3.897   9.954 -0.5888  0.9948 -0.2197
 3459SOL     OW22009   2.129   4.306   3.468  0.7570 -0.4664  0.0891
 3459SOL    HW122010   2.087   4.358   3.537  1.4673  2.3568 -1.6118
 3459SOL    HW222011   2.140   4.378   3.406 -0.0208 -2.6140 -2.5384
 3460SOL     OW22012   3.910   1.727   3.710  0.7576 -0.1293  0.0791
 3460SOL    HW122013   3.902   1.822   3.719 -1.5134 -0.3248  0.0738
 3460SOL    HW222014   3.954   1.696   3.789  0.1923 -0.7670  0.1364
 3461SOL     OW22015   0.879   1.950   7.038 -0.1896  0.5705  0.2288
 3461SOL    HW122016   0.838   1.883   7.092  1.0271 -0.4220 -0.0845
 3461SOL    HW222017   0.947   1.899   6.994  1.6741  0.9886  2.6800
 3462SOL     OW22018   4.039   3.509  17.359 -0.3612 -0.3010  0.0426
 3462SOL    HW122019   4.100   3.436  17.347 -0.1146  0.1809 -1.5533
 3462SOL    HW222020   3.962   3.473  17.404  0.2319  0.4215  1.6459
 3463SOL     OW22021   1.566   0.682  11.318 -0.1916  0.1190 -0.2962
 3463SOL    HW122022   1.553   0.716  11.230 -0.2713  0.5502 -0.1140
 3463SOL    HW222023   1.660   0.696  11.329 -0.0224  0.2883 -1.9066
 3464SOL     OW22024   2.443   0.881   4.958 -0.1285 -0.0593  0.1272
 3464SOL    HW122025   2.538   0.879   4.971  0.2115 -0.6129 -2.4183
 3464SOL    HW222026   2.415   0.906   5.046  0.5934  0.2488  0.2688
 3465SOL     OW22027   2.809   1.863   3.882 -0.5185  0.1929  0.0858
 3465SOL    HW122028   2.771   1.938   3.929 -0.2006  0.8214 -0.6536
 3465SOL    HW222029   2.888   1.841   3.932 -1.2740  0.7389  1.5067
 3466SOL     OW22030   4.094   3.705   7.166 -0.4359 -0.0425  0.3288
 3466SOL    HW122031   4.164   3.661   7.215  0.4460  1.8341  0.7700
 3466SOL    HW222032   4.082   3.778   7.227  0.1004  0.8927 -0.6783
 3467SOL     OW22033   2.378   2.948   4.689  0.0718 -0.6787  0.4223
 3467SOL    HW122034   2.351   2.887   4.620 -1.2297  0.0747  0.2635
 3467SOL    HW222035   2.432   3.011   4.641 -1.4246  0.3479  0.0949
 3468SOL     OW22036   0.054   0.647   2.210  0.0238  0.2937 -0.7363
 3468SOL    HW122037   0.145   0.651   2.241 -0.7374  0.8804  1.4827
 3468SOL    HW222038   0.039   0.553   2.217 -1.6840  0.7723  1.9103
 3469SOL     OW22039   3.061   1.023   2.578 -0.0259 -0.3168  0.0325
 3469SOL    HW122040   2.996   0.991   2.641 -1.1490 -0.8370 -1.3779
 3469SOL    HW222041   3.063   1.115   2.604 -0.0709  0.4951 -2.7766
 3470SOL     OW22042   1.240   1.749  13.325 -0.0580 -0.4836  0.2318
 3470SOL    HW122043   1.192   1.756  13.408  1.8952  1.7813  1.1517
 3470SOL    HW222044   1.282   1.835  13.331 -0.4030 -0.3073  0.1369
 3471SOL     OW22045   0.651   2.447   4.646 -0.2168 -0.2818 -0.2081
 3471SOL    HW122046   0.702   2.527   4.648  0.7199 -0.7560 -3.7449
 3471SOL    HW222047   0.572   2.474   4.599  0.7132  2.4478 -0.1846
 3472SOL     OW22048   2.307   2.947   7.758  0.0457 -0.0081 -0.1124
 3472SOL    HW122049   2.394   2.985   7.760 -0.5512  1.3033  1.1463
 3472SOL    HW222050   2.270   3.003   7.690 -0.9328  1.1509  1.3660
 3473SOL     OW22051   4.557   3.978   5.592  0.0772  0.5907  0.3798
 3473SOL    HW122052   4.557   4.045   5.524  3.8395  0.9517  0.7188
 3473SOL    HW222053   4.572   4.044   5.660 -0.6078  1.5528 -0.3976
 3474SOL     OW22054   1.398   1.654  14.749  0.3994 -0.1432 -0.2197
 3474SOL    HW122055   1.392   1.627  14.840  0.7459  0.6285  0.0407
 3474SOL    HW222056   1.352   1.738  14.748  0.7627  0.0544 -0.6672
 3475SOL     OW22057   0.186   3.376   3.718 -0.4043 -0.4368 -0.0316
 3475SOL    HW122058   0.210   3.307   3.780 -0.8637 -1.8073 -1.3729
 3475SOL    HW222059   0.146   3.436   3.782  0.2263 -0.7545  0.6646
 3476SOL     OW22060   1.111   3.778  17.535 -0.5313 -0.4100  0.2836
 3476SOL    HW122061   1.173   3.780  17.608  1.4903  1.0822 -1.4777
 3476SOL    HW222062   1.051   3.710  17.564 -0.6993 -1.0454 -1.6045
 3477SOL     OW22063   1.056   4.069   5.849 -0.8064  0.3057 -0.1162
 3477SOL    HW122064   1.002   3.990   5.851 -1.3252  0.6373 -1.1779
 3477SOL    HW222065   1.108   4.054   5.928  0.7004  1.2283 -0.9141
 3478SOL     OW22066   2.002   3.498  11.497 -0.5451 -0.0611 -0.7473
 3478SOL    HW122067   1.931   3.488  11.560 -0.8997 -0.9984 -1.2908
 3478SOL    HW222068   2.089   3.482  11.534 -1.2731  0.1085  1.0195
 3479SOL     OW22069   4.499   0.872   7.446 -0.2344  0.5113 -0.2196
 3479SOL    HW122070   4.550   0.953   7.446  1.0878 -0.3435  0.8377
 3479SOL    HW222071   4.539   0.813   7.509 -2.6960  0.6630  1.5127
 3480SOL     OW22072   4.672   2.854  10.829  0.0696 -0.0559  0.0100
 3480SOL    HW122073   4.709   2.914  10.894 -0.1739 -0.9487  0.9676
 3480SOL    HW222074   4.603   2.899  10.781  1.5160  0.7203 -1.3714
 3481SOL     OW22075   0.827   1.570   3.133  0.5832  0.4119 -0.1308
 3481SOL    HW122076   0.877   1.490   3.146 -1.6021 -1.2866 -2.1937
 3481SOL    HW222077   0.749   1.545   3.084  0.5515 -0.3883  0.3402
 3482SOL     OW22078   4.048   4.653   2.397 -0.4854 -0.0270  0.2347
 3482SOL    HW122079   3.957   4.639   2.425 -0.5504 -0.6577 -0.2998
 3482SOL    HW222080   4.044   0.005   2.359 -2.2353 -0.1864  0.0551
 3483SOL     OW22081   1.707   1.611   4.361 -0.1583  0.0509 -0.2216
 3483SOL    HW122082   1.774   1.575   4.303  0.3260  0.7368 -0.0882
 3483SOL    HW222083   1.662   1.530   4.386  0.9937  0.4145  3.0436
 3484SOL     OW22084   3.583   3.038  13.403 -0.8090  0.2751  0.0232
 3484SOL    HW122085   3.592   3.107  13.468  0.6670 -0.7466  0.9028
 3484SOL    HW222086   3.498   3.052  13.361 -0.9836 -0.9312 -0.0212
 3485SOL     OW22087   0.204   3.131   3.057 -0.3055 -0.1705  0.0582
 3485SOL    HW122088   0.224   3.221   3.081  0.9544 -0.5514  0.4462
 3485SOL    HW222089   0.123   3.136   3.007 -0.2218  1.0787  0.0526
 3486SOL     OW22090   2.042   3.744   6.409 -0.1428  0.6180 -0.0182
 3486SOL    HW122091   1.982   3.819   6.409  0.0515  0.7675 -2.2350
 3486SOL    HW222092   2.081   3.748   6.322  3.0876 -0.8747  1.3685
 3487SOL     OW22093   1.208   0.153   7.941  0.3189  0.1910  0.0907
 3487SOL    HW122094   1.215   0.110   7.856 -3.3610 -2.0110  0.8865
 3487SOL    HW222095   1.193   0.078   7.999  2.4228  1.9437  2.8683
 3488SOL     OW22096   4.340   2.621   5.702  0.1209  0.7228 -0.0735
 3488SOL    HW122097   4.370   2.585   5.619 -1.6826 -1.1070  0.0841
 3488SOL    HW222098   4.249   2.593   5.694  0.0361  1.5446 -2.0906
 3489SOL     OW22099   2.571   1.977   8.952  0.0321  0.1149  0.5903
 3489SOL    HW122100   2.554   2.005   9.041 -0.0242  0.5176  0.4508
 3489SOL    HW222101   2.529   1.891   8.942  0.7941 -0.2948  0.9154
 3490SOL     OW22102   4.696   3.846  12.386  0.2269  0.0069 -0.2657
 3490SOL    HW122103   0.049   3.864  12.419 -0.4066  1.0291  0.8803
 3490SOL    HW222104   4.697   3.752  12.403 -2.4227 -0.3010 -1.8902
 3491SOL     OW22105   0.926   1.383   2.072 -0.2149  0.9819  0.7127
 3491SOL    HW122106   0.837   1.418   2.079 -1.0016 -0.8487 -0.1657
 3491SOL    HW222107   0.960   1.433   1.998  2.3188 -0.5425  0.8659
 3492SOL     OW22108   3.752   4.594   3.655 -0.1172  0.5452 -0.2174
 3492SOL    HW122109   3.686   4.525   3.647  2.0934 -1.7861  1.5258
 3492SOL    HW222110   3.838   4.551   3.653 -1.7849 -2.8766  1.6243
 3493SOL     OW22111   4.289   3.970   5.716 -0.2625  0.4665 -0.4342
 3493SOL    HW122112   4.367   3.944   5.667 -1.7294 -1.0767 -1.9530
 3493SOL    HW222113   4.234   3.991   5.641 -1.0581 -0.9242 -0.2270
 3494SOL     OW22114   1.824   3.613  14.819  0.2647 -0.1755  0.6282
 3494SOL    HW122115   1.857   3.695  14.782 -1.8263  0.8005  0.8889
 3494SOL    HW222116   1.895   3.597  14.881  1.5110 -1.2022 -1.0826
 3495SOL     OW22117   3.331   3.833   4.326  0.2788  0.4383 -0.0013
 3495SOL    HW122118   3.352   3.890   4.252 -1.4288  3.1004  1.5674
 3495SOL    HW222119   3.412   3.825   4.377  0.7532  0.7158 -0.7200
 3496SOL     OW22120   0.679   2.049  17.672 -0.4981  0.0161 -0.0080
 3496SOL    HW122121   0.742   1.994  17.718 -0.7166  0.7976  1.2067
 3496SOL    HW222122   0.691   2.136  17.709 -1.2712  0.6324 -1.2288
 3497SOL     OW22123   1.586   0.803  16.330  0.0499  0.0569  0.2275
 3497SOL    HW122124   1.668   0.831  16.370  0.1772 -2.3517  1.6435
 3497SOL    HW222125   1.520   0.837  16.390 -0.1023  0.3675 -0.1191
 3498SOL     OW22126   1.510   0.456   8.930 -0.0011  0.2741 -0.5428
 3498SOL    HW122127   1.601   0.484   8.919 -0.2802  1.4453  0.1199
 3498SOL    HW222128   1.469   0.529   8.977  2.3450  1.1468  0.1325
 3499SOL     OW22129   4.511   0.388   9.608 -0.2265 -0.2298 -0.3208
 3499SOL    HW122130   4.504   0.416   9.517  1.5536  0.4942 -0.2334
 3499SOL    HW222131   4.520   0.293   9.606 -2.3445 -0.4502  0.5867
 3500SOL     OW22132   2.330   1.189  13.450 -0.0113  0.3608 -0.0874
 3500SOL    HW122133   2.333   1.163  13.542 -1.7983  2.6872  0.6165
 3500SOL    HW222134   2.241   1.223  13.447  0.2809  1.3731  2.7285
 3501SOL     OW22135   1.788   0.089   7.416  0.1352  0.2185 -0.1669
 3501SOL    HW122136   1.884   0.086   7.412  0.1353 -0.1702  0.2408
 3501SOL    HW222137   1.757   4.734   7.415  3.2293 -0.8683  0.6873
 3502SOL     OW22138   2.617   4.236   0.137 -0.0025  0.0279  0.3225
 3502SOL    HW122139   2.589   4.228   0.046 -1.7304 -1.2826  0.9633
 3502SOL    HW222140   2.536   4.205   0.178 -0.8378  0.0128 -1.3385
 3503SOL     OW22141   2.098   2.827  13.271  0.7848 -0.2631  0.2249
 3503SOL    HW122142   2.115   2.797  13.181 -0.6979 -0.2479 -0.0550
 3503SOL    HW222143   2.017   2.870  13.245 -0.6305 -1.2560  3.0475
 3504SOL     OW22144   2.228   2.393  16.252 -0.0197 -0.0530 -0.4367
 3504SOL    HW122145   2.143   2.400  16.296 -0.6549 -0.1453 -1.6686
 3504SOL    HW222146   2.254   2.479  16.284  0.1123  0.3984 -1.8053
 3505SOL     OW22147   1.900   3.977   0.633  0.1219  0.6416  0.3012
 3505SOL    HW122148   1.984   3.988   0.589 -0.2274 -0.5152 -0.6684
 3505SOL    HW222149   1.884   3.886   0.605  0.0864  0.0989  2.0650
 3506SOL     OW22150   0.057   4.183   3.576 -0.1061  0.1293  0.0313
 3506SOL    HW122151   0.113   4.115   3.539  1.1512  0.8776  0.5446
 3506SOL    HW222152   4.706   4.144   3.565  0.9956 -2.2663 -0.0133
 3507SOL     OW22153   4.190   3.073  12.093 -0.4179 -0.5099 -0.1226
 3507SOL    HW122154   4.125   3.141  12.106 -0.7839 -0.2225 -3.3313
 3507SOL    HW222155   4.276   3.116  12.103 -0.4817  0.0699 -1.9770
 3508SOL     OW22156   0.254   2.140   2.354 -0.2506 -0.1892  0.2094
 3508SOL    HW122157   0.247   2.045   2.367 -0.2900 -0.3365 -0.8250
 3508SOL    HW222158   0.281   2.137   2.262 -1.1246  0.0642 -0.0613
 3509SOL     OW22159   0.269   0.322  10.721  0.0634 -0.4699  0.2067
 3509SOL    HW122160   0.286   0.372  10.800 -1.4033 -0.1755  0.3428
 3509SOL    HW222161   0.182   0.301  10.755  0.6791 -1.0650  1.4351
 3510SOL     OW22162   4.345   3.979   6.342  0.4675  0.1494 -0.0282
 3510SOL    HW122163   4.270   4.034   6.363 -0.2081 -0.0440 -1.8983
 3510SOL    HW222164   4.338   3.978   6.246  1.3251  2.5878 -0.1376
 3511SOL     OW22165   1.873   0.894   2.922  0.6511 -0.1340 -0.2505
 3511SOL    HW122166   1.867   0.811   2.969  2.2034  0.6059  1.2633
 3511SOL    HW222167   1.897   0.953   2.993  1.0538  0.8757 -1.2258
 3512SOL     OW22168   0.826   0.616   7.598  0.2379 -0.6283  0.5227
 3512SOL    HW122169   0.859   0.594   7.511 -3.4714 -0.5163 -0.9235
 3512SOL    HW222170   0.861   0.548   7.655  3.4665  1.9680  1.6138
 3513SOL     OW22171   0.598   2.721  11.509  0.5913 -0.4340 -0.0038
 3513SOL    HW122172   0.610   2.761  11.595  0.4266 -0.8810  0.2251
 3513SOL    HW222173   0.690   2.699  11.492  0.2827 -0.3657 -1.8318
 3514SOL     OW22174   3.520   2.043   4.799  0.5677  0.2980 -0.1500
 3514SOL    HW122175   3.552   2.133   4.805 -3.0307  1.5360  0.5356
 3514SOL    HW222176   3.580   2.001   4.738 -0.2414 -1.6375  0.3683
 3515SOL     OW22177   4.572   0.204   3.346  0.1746  0.2873  0.4605
 3515SOL    HW122178   4.636   0.234   3.411  0.2584 -1.0815  1.0160
 3515SOL    HW222179   4.526   0.286   3.328 -1.5304 -0.5045  1.2684
 3516SOL     OW22180   3.495   1.454   7.452  0.1273 -0.1480 -0.9508
 3516SOL    HW122181   3.512   1.432   7.544  0.6360 -2.8161 -1.6932
 3516SOL    HW222182   3.579   1.493   7.429 -0.6672  1.6836 -0.7273
 3517SOL     OW22183   1.135   3.282   8.227  0.5934 -0.7085 -0.1625
 3517SOL    HW122184   1.084   3.325   8.158 -0.0506  1.3085  1.5410
 3517SOL    HW222185   1.084   3.202   8.235 -3.5921  1.8993 -0.2572
 3518SOL     OW22186   2.814   2.011   8.356  0.3784  0.1214  0.8531
 3518SOL    HW122187   2.725   2.001   8.389 -0.2867  5.0434  0.5728
 3518SOL    HW222188   2.847   2.067   8.426 -1.6474 -1.5178  3.1348
 3519SOL     OW22189   0.397   3.617  12.197 -0.1196  0.0575  0.8251
 3519SOL    HW122190   0.397   3.548  12.130 -2.1747  0.1047  0.7783
 3519SOL    HW222191   0.363   3.564  12.270 -0.4756 -0.1555  0.5072
 3520SOL     OW22192   4.707   2.287   1.863  0.2050 -0.0675 -0.1445
 3520SOL    HW122193   4.619   2.252   1.877 -0.0697  0.1907 -1.2100
 3520SOL    HW222194   4.719   2.329   1.948 -0.3690 -0.1854 -0.0022
 3521SOL     OW22195   1.462   0.842   9.888  0.0301  0.5115  0.2607
 3521SOL    HW122196   1.446   0.749   9.907  1.4780  0.1039 -0.5928
 3521SOL    HW222197   1.508   0.870   9.967 -0.9065  0.8732  0.6839
 3522SOL     OW22198   3.903   3.096  13.403 -0.3480 -0.0569  0.5840
 3522SOL    HW122199   3.904   3.017  13.349  1.7211 -0.5919  1.3993
 3522SOL    HW222200   3.991   3.133  13.399 -0.9279  1.1992 -0.7703
 3523SOL     OW22201   0.649   3.262   6.607 -0.4007 -0.0284  0.1959
 3523SOL    HW122202   0.583   3.310   6.558 -1.3033 -1.8844 -0.4127
 3523SOL    HW222203   0.604   3.250   6.690 -0.4790 -1.9078 -0.1234
 3524SOL     OW22204   4.673   3.729   6.553 -0.0200  0.6461 -0.0363
 3524SOL    HW122205   0.003   3.723   6.484 -0.5453 -0.3895 -0.4497
 3524SOL    HW222206   4.692   3.655   6.610  0.1849  2.6552  2.5459
 3525SOL     OW22207   4.038   4.300   9.814 -0.2189 -0.3772  0.3326
 3525SOL    HW122208   3.970   4.233   9.815 -0.6046  0.0337  1.1326
 3525SOL    HW222209   4.118   4.251   9.796 -0.4682  0.1314 -2.2722
 3526SOL     OW22210   3.512   1.000  13.079  0.1753 -0.0656  0.7283
 3526SOL    HW122211   3.466   1.079  13.050  0.7086  0.1813  0.5656
 3526SOL    HW222212   3.472   0.931  13.026  0.4916 -0.5438  1.1187
 3527SOL     OW22213   1.485   2.556   2.076  0.7002  0.2894  0.1406
 3527SOL    HW122214   1.422   2.550   2.004  1.0072 -3.0652  0.1686
 3527SOL    HW222215   1.440   2.534   2.157  0.7078  1.9132  0.6022
 3528SOL     OW22216   3.085   3.473  16.514 -0.0641  0.1100 -0.6961
 3528SOL    HW122217   3.058   3.527  16.588 -1.1794  0.0615 -1.0542
 3528SOL    HW222218   3.063   3.387  16.550  2.0471 -0.0273  0.2552
 3529SOL     OW22219   2.800   2.491   2.786  0.0620 -0.1211 -0.5806
 3529SOL    HW122220   2.799   2.432   2.711  1.3148 -1.1282  0.2066
 3529SOL    HW222221   2.786   2.422   2.851  0.5070 -0.3270 -0.7060
 3530SOL     OW22222   0.952   2.227  16.371 -0.3774  0.5724 -0.3828
 3530SOL    HW122223   0.976   2.290  16.303 -1.5640 -0.8006 -2.0758
 3530SOL    HW222224   0.908   2.163  16.315 -1.0581  1.1540 -0.5321
 3531SOL     OW22225   2.552   4.372   4.795 -0.3597  0.1000 -0.1257
 3531SOL    HW122226   2.553   4.452   4.847  0.7431  0.3421 -0.5148
 3531SOL    HW222227   2.462   4.376   4.763 -0.2886  1.2465 -0.1847
 3532SOL     OW22228   2.186   0.550  11.739 -0.4612  0.2107  0.1431
 3532SOL    HW122229   2.225   0.497  11.669 -1.8531 -1.9957  1.0365
 3532SOL    HW222230   2.178   0.483  11.807 -0.9394 -0.3301 -0.4430
 3533SOL     OW22231   1.248   1.935  17.376 -0.6031 -0.0839 -0.7224
 3533SOL    HW122232   1.190   2.000  17.336  0.6704  1.2374 -0.4405
 3533SOL    HW222233   1.315   1.944  17.307 -0.5467  0.5528 -0.5859
 3534SOL     OW22234   0.471   1.375   3.042 -0.3543  0.5160  0.4438
 3534SOL    HW122235   0.456   1.390   3.135  1.8296  0.6227  0.7627
 3534SOL    HW222236   0.565   1.361   3.044 -0.4630 -0.4101 -0.3554
 3535SOL     OW22237   1.210   4.508   9.179 -0.1509 -0.1448  0.1390
 3535SOL    HW122238   1.262   4.466   9.111  1.3285 -0.2827  1.3597
 3535SOL    HW222239   1.249   4.595   9.190 -0.9882 -0.0458  2.4440
 3536SOL     OW22240   3.238   2.143   2.735  0.1974  0.1710 -0.6041
 3536SOL    HW122241   3.227   2.068   2.676  2.0198 -1.3485  0.9874
 3536SOL    HW222242   3.321   2.182   2.706  1.1926  0.1976  2.3066
 3537SOL     OW22243   1.283   2.826   9.708  0.5749 -0.3737 -0.0574
 3537SOL    HW122244   1.195   2.825   9.746 -0.1545 -1.6968 -1.7926
 3537SOL    HW222245   1.289   2.913   9.669  0.1986 -0.2973  0.0595
 3538SOL     OW22246   2.803   2.839   3.359 -0.2530  0.3194  0.2186
 3538SOL    HW122247   2.783   2.833   3.265  0.5977  1.1583 -0.0177
 3538SOL    HW222248   2.827   2.748   3.376  1.4466  0.5821 -0.7932
 3539SOL     OW22249   1.654   3.544   1.897  0.2032  0.2634 -0.0441
 3539SOL    HW122250   1.627   3.478   1.960 -3.6370 -1.3888 -3.4315
 3539SOL    HW222251   1.602   3.517   1.822  0.4114  1.6019 -0.6667
 3540SOL     OW22252   4.422   1.525   5.353  0.2659  0.1122 -0.2697
 3540SOL    HW122253   4.488   1.465   5.388 -0.9331 -2.0471 -1.7195
 3540SOL    HW222254   4.341   1.474   5.353 -0.3413  1.0803 -2.0820
 3541SOL     OW22255   0.879   0.261   7.467 -0.0778  0.5240  0.5791
 3541SOL    HW122256   0.796   0.305   7.479 -1.0736 -1.8155  2.2720
 3541SOL    HW222257   0.856   0.200   7.397 -0.2646  1.4892 -0.1974
 3542SOL     OW22258   2.586   1.230   5.921 -0.3817  0.2399  0.3534
 3542SOL    HW122259   2.582   1.312   5.871 -0.9639 -1.3304 -2.1592
 3542SOL    HW222260   2.680   1.209   5.921 -0.6108 -0.7851 -1.8768
 3543SOL     OW22261   3.541   3.952   8.068 -0.6489 -0.7774  0.2231
 3543SOL    HW122262   3.449   3.965   8.090 -1.2591  0.9854 -3.3814
 3543SOL    HW222263   3.589   4.011   8.126 -1.3760 -0.6910  0.7330
 3544SOL     OW22264   0.297   3.498   8.087  0.3081  0.5131 -0.2319
 3544SOL    HW122265   0.329   3.443   8.015 -3.7133  0.9346 -2.3361
 3544SOL    HW222266   0.206   3.469   8.079  0.5550 -0.0999 -0.8543
 3545SOL     OW22267   1.682   4.553   7.411  0.3297 -0.0831  0.2408
 3545SOL    HW122268   1.764   4.520   7.374  1.3725  1.5668  1.0404
 3545SOL    HW222269   1.708   4.545   7.503 -1.5710  1.5703  0.9161
 3546SOL     OW22270   2.372   1.703   1.524  0.1492  0.2686 -0.3147
 3546SOL    HW122271   2.447   1.727   1.470 -0.8048 -0.1917 -1.8580
 3546SOL    HW222272   2.299   1.753   1.488  0.2380 -0.9131 -2.1252
 3547SOL     OW22273   3.621   4.010  10.112  0.2179  0.1056  0.2616
 3547SOL    HW122274   3.558   4.069  10.154  1.4683  0.5846  1.5039
 3547SOL    HW222275   3.563   3.972  10.046 -0.0877 -0.6484  0.9577
 3548SOL     OW22276   0.340   0.329   7.893  0.3059  0.6321  0.2892
 3548SOL    HW122277   0.349   0.360   7.803 -1.2773 -0.0210 -0.0991
 3548SOL    HW222278   0.366   0.410   7.938  1.5279 -0.3949  1.4063
 3549SOL     OW22279   1.084   1.757   7.051 -0.2604 -0.5322  0.1871
 3549SOL    HW122280   1.178   1.775   7.048 -0.0192 -2.0626 -2.0114
 3549SOL    HW222281   1.088   1.663   7.033  1.9869 -0.1589 -1.3197
 3550SOL     OW22282   4.083   3.490  10.824  0.2187  0.6810 -0.4141
 3550SOL    HW122283   4.135   3.550  10.770  0.9954  0.3206 -0.0740
 3550SOL    HW222284   4.110   3.517  10.912 -1.6279  2.4929 -0.4152
 3551SOL     OW22285   3.650   0.599   1.124  0.1548  0.2703  0.2789
 3551SOL    HW122286   3.663   0.677   1.070 -0.0536 -0.0315 -0.2090
 3551SOL    HW222287   3.555   0.590   1.127  0.1408  0.8428  1.8431
 3552SOL     OW22288   4.203   0.709   8.399  0.1096  0.4827 -0.1821
 3552SOL    HW122289   4.149   0.661   8.336 -0.3482 -0.2915  0.7979
 3552SOL    HW222290   4.276   0.649   8.414  1.8577  2.8497  0.8585
 3553SOL     OW22291   2.475   1.223   2.684  0.0629 -0.1520  0.7457
 3553SOL    HW122292   2.501   1.170   2.759  0.0776  0.2977  1.0601
 3553SOL    HW222293   2.425   1.155   2.639 -0.9640  0.5911  0.7563
 3554SOL     OW22294   3.955   2.235   6.273  0.0525 -0.2066 -0.0113
 3554SOL    HW122295   3.954   2.319   6.225  0.3534 -1.4495 -2.2126
 3554SOL    HW222296   4.040   2.203   6.242  0.0169 -0.1128 -0.2081
 3555SOL     OW22297   1.406   0.432  15.497 -0.1130 -0.0113  0.4981
 3555SOL    HW122298   1.449   0.356  15.536 -1.7009 -0.6079  1.0673
 3555SOL    HW222299   1.325   0.426  15.547  0.4273 -1.1692  1.2380
 3556SOL     OW22300   3.920   3.758   4.942  0.8276  0.6367 -0.1122
 3556SOL    HW122301   3.905   3.853   4.948 -1.6071  0.1778  1.3500
 3556SOL    HW222302   3.845   3.736   4.887  0.0820  0.8193  0.8219
 3557SOL     OW22303   1.675   4.012   5.310 -0.3216 -0.3104 -0.5159
 3557SOL    HW122304   1.581   3.998   5.307 -0.3540  0.3101 -2.2916
 3557SOL    HW222305   1.703   3.949   5.377 -0.1380  0.8091  0.4718
 3558SOL     OW22306   2.884   1.814   6.239  0.0444  0.2279 -0.0445
 3558SOL    HW122307   2.970   1.845   6.210  0.4035  0.0013  0.7888
 3558SOL    HW222308   2.889   1.840   6.331  0.2586  1.2052 -0.3403
 3559SOL     OW22309   3.232   2.060   5.275 -0.5979  0.1994  0.2547
 3559SOL    HW122310   3.164   2.058   5.343 -0.1791  1.2462  0.7171
 3559SOL    HW222311   3.263   1.969   5.272 -0.2674  0.3067  0.3765
 3560SOL     OW22312   3.336   2.166   4.019  0.4819 -0.0188  0.4338
 3560SOL    HW122313   3.404   2.227   4.049 -0.0425 -0.2888  2.1915
 3560SOL    HW222314   3.378   2.081   4.029 -0.6645 -0.8321 -1.7404
 3561SOL     OW22315   2.276   4.282   4.294 -0.1664 -0.2037  0.3400
 3561SOL    HW122316   2.306   4.366   4.259  0.2528 -0.9709 -1.1438
 3561SOL    HW222317   2.204   4.255   4.237 -1.2478  0.9311  1.1669
 3562SOL     OW22318   1.974   2.211   8.865  0.2217  0.7044 -0.1789
 3562SOL    HW122319   2.050   2.235   8.919  1.3618  0.4505 -1.6920
 3562SOL    HW222320   1.968   2.116   8.867 -0.1863  0.7003 -2.1574
 3563SOL     OW22321   0.547   2.106   8.371 -0.0552  0.2571 -1.0176
 3563SOL    HW122322   0.577   2.186   8.414  0.7552 -1.6215  1.9611
 3563SOL    HW222323   0.635   2.084   8.340 -0.9895 -3.9043 -0.7797
 3564SOL     OW22324   1.854   0.711  13.011 -0.0336  0.4376  0.1958
 3564SOL    HW122325   1.800   0.709  12.931 -0.2614  1.3877  0.3216
 3564SOL    HW222326   1.802   0.667  13.078  2.0183 -0.2841  1.3022
 3565SOL     OW22327   0.967   0.930   2.117 -0.7317  0.7572  0.0411
 3565SOL    HW122328   0.906   0.862   2.090  1.1439 -1.3598  1.1506
 3565SOL    HW222329   0.989   0.967   2.031 -0.6382 -0.9921 -0.6758
 3566SOL     OW22330   4.447   1.169   3.032 -0.0671 -0.0022  0.7224
 3566SOL    HW122331   4.428   1.116   3.109  0.7906 -0.7143  0.4405
 3566SOL    HW222332   4.435   1.258   3.065  0.3582  0.1883  0.3749
 3567SOL     OW22333   1.269   2.283  10.448 -0.2231  0.1234  0.2730
 3567SOL    HW122334   1.286   2.272  10.355 -0.1622  0.2838  0.2660
 3567SOL    HW222335   1.198   2.347  10.442 -0.9306 -0.9613 -2.8282
 3568SOL     OW22336   1.905   0.756   8.442 -0.2267 -0.1617 -0.2491
 3568SOL    HW122337   1.841   0.819   8.408 -0.6147 -0.5370 -0.2224
 3568SOL    HW222338   1.877   0.762   8.533  0.4749  1.7468 -0.1599
 3569SOL     OW22339   0.248   2.745  15.658  0.2287 -0.2783 -0.0432
 3569SOL    HW122340   0.305   2.671  15.636  0.4693 -0.5343  1.4427
 3569SOL    HW222341   0.309   2.816  15.675  1.1707 -1.2316  0.5783
 3570SOL     OW22342   2.310   0.010   3.492 -0.1938  0.0710  0.1675
 3570SOL    HW122343   2.247   4.734   3.421  1.6467 -1.2459 -1.2600
 3570SOL    HW222344   2.282   0.093   3.531  2.5032  1.1225 -0.1366
 3571SOL     OW22345   1.795   0.976  14.697 -0.4170 -0.1902 -0.5875
 3571SOL    HW122346   1.821   0.911  14.631 -1.2493 -1.0831 -0.0217
 3571SOL    HW222347   1.814   1.059  14.653 -2.4280  0.3589 -0.4111
 3572SOL     OW22348   2.187   2.488  17.104 -0.0459  0.1878  0.1474
 3572SOL    HW122349   2.272   2.494  17.061  0.1564  2.3127  0.8429
 3572SOL    HW222350   2.163   2.580  17.110 -0.8051 -0.0587  0.8350
 3573SOL     OW22351   4.727   4.386   9.391 -0.2541 -0.4568 -0.2343
 3573SOL    HW122352   4.735   4.471   9.348  1.6970  0.6132  2.1940
 3573SOL    HW222353   0.071   4.347   9.355  1.4005  1.5334  1.2590
 3574SOL     OW22354   0.162   0.549  10.069  0.1088  0.6348  0.8344
 3574SOL    HW122355   0.227   0.495  10.113  1.7297  3.0194  1.3777
 3574SOL    HW222356   0.082   0.535  10.120  0.5767 -1.9787  0.8317
 3575SOL     OW22357   2.363   1.072   1.948  0.3338 -0.0979 -0.7742
 3575SOL    HW122358   2.336   0.982   1.928 -0.7225  0.9394 -4.0230
 3575SOL    HW222359   2.424   1.082   1.875 -0.7095  0.3909 -1.5824
 3576SOL     OW22360   3.026   3.979   8.542 -0.4485 -0.3954 -0.2914
 3576SOL    HW122361   3.112   3.944   8.565 -0.4354  0.1935  0.5308
 3576SOL    HW222362   3.052   4.060   8.498  0.8061  0.6044  2.3378
 3577SOL     OW22363   4.264   3.647   5.436  0.4371 -0.0355  0.5910
 3577SOL    HW122364   4.204   3.677   5.504 -2.9834 -3.0599 -1.1185
 3577SOL    HW222365   4.248   3.709   5.366  2.3857 -0.9708 -0.6823
 3578SOL     OW22366   1.718   1.790   6.227 -0.3176  0.2436 -0.5329
 3578SOL    HW122367   1.777   1.790   6.151  0.1382 -1.4377 -0.1849
 3578SOL    HW222368   1.639   1.742   6.203  0.7424 -2.2536  0.9120
 3579SOL     OW22369   2.877   3.047   4.742  0.3530 -0.7268 -0.2057
 3579SOL    HW122370   2.964   3.058   4.781  0.1398  0.9040 -0.1824
 3579SOL    HW222371   2.848   3.137   4.757 -0.3333 -1.1500  1.0101
 3580SOL     OW22372   4.616   4.173   9.765 -0.1623  0.3399  0.0165
 3580SOL    HW122373   4.628   4.080   9.784 -0.9038  0.5836  1.6744
 3580SOL    HW222374   4.708   4.195   9.748 -0.5718  3.1518  1.5049
 3581SOL     OW22375   4.471   4.496   7.226 -0.1769 -0.5640 -0.2938
 3581SOL    HW122376   4.549   4.544   7.197  1.3361 -3.3651 -0.8747
 3581SOL    HW222377   4.483   4.405   7.199 -1.2378 -1.0235  0.7903
 3582SOL     OW22378   0.626   3.148   7.623 -0.0542  0.6497  0.1916
 3582SOL    HW122379   0.571   3.176   7.696 -3.2278 -1.2314 -1.4863
 3582SOL    HW222380   0.706   3.162   7.674 -0.4105  0.9740  0.6565
 3583SOL     OW22381   3.472   0.490   5.028 -0.7937 -0.1698  0.2829
 3583SOL    HW122382   3.551   0.469   4.979 -0.7439 -2.7113  1.4661
 3583SOL    HW222383   3.410   0.421   5.005  1.8367 -2.3313 -0.2926
 3584SOL     OW22384   1.022   1.594  16.757  0.5269 -0.5900 -0.0955
 3584SOL    HW122385   0.967   1.542  16.698  1.1368  0.1206 -1.2795
 3584SOL    HW222386   0.953   1.619  16.819  2.7131  1.2898  1.5290
 3585SOL     OW22387   2.245   2.512  15.753  0.4254 -0.1051 -0.2638
 3585SOL    HW122388   2.252   2.608  15.756  2.2176 -0.2104 -1.6068
 3585SOL    HW222389   2.327   2.479  15.789 -0.6248 -2.3359  0.0462
 3586SOL     OW22390   1.253   3.662   0.289 -0.2998  0.1999 -0.2670
 3586SOL    HW122391   1.244   3.574   0.327  0.2226  0.6378  0.8694
 3586SOL    HW222392   1.207   3.715   0.355  2.4223  1.4470  0.6509
 3587SOL     OW22393   1.931   2.843   5.387 -0.6442 -0.2241 -0.1485
 3587SOL    HW122394   2.010   2.790   5.378 -0.2334 -0.0361  2.4549
 3587SOL    HW222395   1.884   2.806   5.312 -1.0637  0.1098 -0.0524
 3588SOL     OW22396   2.127   4.419  12.965 -0.7195 -0.4726  0.0712
 3588SOL    HW122397   2.127   4.507  12.926 -0.3913 -0.2790  0.5018
 3588SOL    HW222398   2.139   4.435  13.059  0.3718 -0.9847  0.0143
 3589SOL     OW22399   0.332   3.541  11.007 -0.7732 -0.0919  0.0124
 3589SOL    HW122400   0.400   3.552  10.942 -1.1874  1.9052 -0.0858
 3589SOL    HW222401   0.295   3.629  11.019 -0.2047  0.1334  0.1269
 3590SOL     OW22402   2.051   1.661   6.542 -0.4715  0.4097 -0.0483
 3590SOL    HW122403   1.978   1.678   6.601 -1.1218  0.3209 -0.8361
 3590SOL    HW222404   2.120   1.716   6.579 -0.6667  0.2422  0.5757
 3591SOL     OW22405   3.070   1.297   5.355  0.2832  0.0928  0.0949
 3591SOL    HW122406   2.975   1.308   5.356  0.4368  1.3132  0.5765
 3591SOL    HW222407   3.101   1.310   5.444  1.2754  1.3288 -0.4362
 3592SOL     OW22408   3.533   2.195  13.289 -0.2231  0.1876 -0.1086
 3592SOL    HW122409   3.524   2.236  13.203 -4.0343 -1.3958 -0.4812
 3592SOL    HW222410   3.540   2.274  13.342 -0.2830  0.9353 -1.2337
 3593SOL     OW22411   1.746   1.563   5.164 -0.4795  0.3031  0.2609
 3593SOL    HW122412   1.815   1.620   5.199 -1.6981  0.8963  1.7205
 3593SOL    HW222413   1.676   1.621   5.135 -0.7217 -0.9150 -1.5686
 3594SOL     OW22414   2.635   1.953   8.541 -0.1230 -0.7826  0.1036
 3594SOL    HW122415   2.669   1.996   8.620  1.3918 -0.2600 -0.8492
 3594SOL    HW222416   2.623   1.864   8.576 -0.3223 -0.2350  1.4307
 3595SOL     OW22417   1.987   1.237   6.269 -0.4534  0.1342  0.2770
 3595SOL    HW122418   1.999   1.254   6.363  3.8839 -0.3771 -0.1909
 3595SOL    HW222419   2.014   1.318   6.226 -0.4830  0.1185  0.2289
 3596SOL     OW22420   2.989   1.069   9.651 -0.8903  0.6012  0.4360
 3596SOL    HW122421   3.001   1.149   9.702 -0.1469 -0.8700  2.5644
 3596SOL    HW222422   2.930   1.097   9.581  0.1631 -2.1394 -1.5676
 3597SOL     OW22423   0.166   2.162   6.742 -0.4936  0.1737 -0.1831
 3597SOL    HW122424   0.163   2.067   6.732  0.9736  0.0902  0.2410
 3597SOL    HW222425   0.077   2.177   6.775 -1.4236  1.7272 -3.3946
 3598SOL     OW22426   0.203   0.982  16.528  0.0504  0.1874  0.6743
 3598SOL    HW122427   0.190   0.891  16.552  0.7071  0.0227  0.4029
 3598SOL    HW222428   0.123   1.026  16.558 -0.8931 -2.0306  1.3637
 3599SOL     OW22429   3.580   1.920   7.494 -0.1190 -0.1326 -0.3096
 3599SOL    HW122430   3.664   1.894   7.455 -0.3581  1.0512 -1.6317
 3599SOL    HW222431   3.592   1.868   7.573 -0.6579 -0.1816 -0.2583
 3600SOL     OW22432   2.004   3.199   4.918  0.3972  0.5288  0.3148
 3600SOL    HW122433   1.983   3.289   4.941  1.8992  1.4009 -1.7942
 3600SOL    HW222434   2.084   3.177   4.967 -0.0510 -2.5146 -0.2799
 3601SOL     OW22435   3.186   1.401   4.404  0.8159  0.0400 -0.1249
 3601SOL    HW122436   3.163   1.406   4.496  0.7074  1.9664 -0.2517
 3601SOL    HW222437   3.280   1.382   4.412  1.2170  1.8185 -0.6520
 3602SOL     OW22438   2.401   0.125   2.428  0.2046  0.1805 -0.2624
 3602SOL    HW122439   2.464   0.062   2.392  0.2341 -0.9915  1.8802
 3602SOL    HW222440   2.335   0.126   2.359  0.6596  2.4460 -0.6784
 3603SOL     OW22441   1.926   0.662   6.009  0.1191 -0.5176  0.5057
 3603SOL    HW122442   1.916   0.748   6.049  1.1248 -0.9470  1.6887
 3603SOL    HW222443   1.999   0.677   5.950  1.5836 -1.0531  2.1848
 3604SOL     OW22444   3.043   1.500   0.351 -0.1199  0.1298 -0.0030
 3604SOL    HW122445   3.082   1.532   0.433 -0.9452 -0.0008  0.4339
 3604SOL    HW222446   2.991   1.426   0.379 -0.5764  0.4447 -0.0186
 3605SOL     OW22447   4.060   1.868  14.859  0.0595 -0.1103  0.1431
 3605SOL    HW122448   4.003   1.937  14.893  0.3996  0.3532 -0.2233
 3605SOL    HW222449   4.074   1.823  14.942  0.5488  1.0860  0.7020
 3606SOL     OW22450   1.227   4.302   4.250 -0.3384 -0.3574 -0.6557
 3606SOL    HW122451   1.251   4.309   4.157  0.9921 -0.9770 -0.3554
 3606SOL    HW222452   1.306   4.314   4.303 -0.5680  2.1443 -0.8626
 3607SOL     OW22453   0.109   2.686  16.082 -0.3723 -0.0539  0.2109
 3607SOL    HW122454   0.087   2.713  15.993  3.6261 -0.8763 -0.9937
 3607SOL    HW222455   0.185   2.630  16.066 -1.2687 -2.1405  3.1219
 3608SOL     OW22456   2.660   3.782   6.841 -0.2253  0.3931 -0.0298
 3608SOL    HW122457   2.669   3.692   6.872 -0.3896  0.3524 -0.1064
 3608SOL    HW222458   2.667   3.768   6.747  1.5396 -0.7976  0.2719
 3609SOL     OW22459   4.104   4.409   2.507  0.2628 -0.4699 -0.1033
 3609SOL    HW122460   4.071   4.363   2.430  1.0621 -0.2802 -0.5573
 3609SOL    HW222461   4.080   4.499   2.487  1.6075  0.4653  2.4325
 3610SOL     OW22462   3.520   3.350   8.092  0.2629 -0.0382 -0.4770
 3610SOL    HW122463   3.555   3.419   8.036  1.5041 -0.5965 -0.3741
 3610SOL    HW222464   3.569   3.371   8.172  0.4348 -0.3561 -0.4987
 3611SOL     OW22465   3.626   3.785   3.936  0.3243 -0.3186 -0.0970
 3611SOL    HW122466   3.636   3.761   3.844  2.7494 -0.5846  0.2341
 3611SOL    HW222467   3.572   3.709   3.958  1.0742 -0.6089  0.7284
 3612SOL     OW22468   1.694   0.448   3.710 -0.2015 -0.2224  0.2922
 3612SOL    HW122469   1.635   0.522   3.722  0.0176 -0.2364  1.5140
 3612SOL    HW222470   1.779   0.493   3.708  0.2722 -1.1085  0.6854
 3613SOL     OW22471   1.726   1.709   5.807 -0.1129  0.0773  0.3128
 3613SOL    HW122472   1.637   1.677   5.795  0.1749 -0.3132 -0.7812
 3613SOL    HW222473   1.776   1.634   5.773  0.1961  1.2280 -1.8032
 3614SOL     OW22474   2.972   2.678  14.915  0.4377 -0.3829 -0.2514
 3614SOL    HW122475   3.027   2.698  14.840  0.3069 -1.4676 -0.6467
 3614SOL    HW222476   3.012   2.720  14.992 -0.9974  0.6322 -0.0695
 3615SOL     OW22477   0.063   2.107  15.366  0.0394 -0.1621  0.4082
 3615SOL    HW122478   0.011   2.062  15.300  1.7393  0.3774 -1.2982
 3615SOL    HW222479   0.145   2.066  15.337 -0.1906 -0.4705  0.1823
 3616SOL     OW22480   2.857   1.986   2.598 -0.1885  0.3040 -0.0739
 3616SOL    HW122481   2.846   2.009   2.690 -0.3610 -0.1502  0.0233
 3616SOL    HW222482   2.866   1.891   2.606 -1.8122  0.1685  0.1518
 3617SOL     OW22483   2.843   2.112  14.254 -0.2151 -0.4848  0.3548
 3617SOL    HW122484   2.934   2.136  14.271 -1.0854  1.0834  2.7884
 3617SOL    HW222485   2.837   2.096  14.160  1.1594  0.6005  0.0930
 3618SOL     OW22486   2.567   1.395   7.647  0.0626  0.1735  0.2232
 3618SOL    HW122487   2.638   1.431   7.701  1.0644 -0.8664 -0.4112
 3618SOL    HW222488   2.555   1.474   7.595 -0.3469 -1.0966 -1.5942
 3619SOL     OW22489   4.030   3.243   9.649 -0.6307 -0.0037  0.3600
 3619SOL    HW122490   3.998   3.309   9.588  0.4756  1.0072  0.8786
 3619SOL    HW222491   4.003   3.271   9.737  0.7171 -1.4161  1.2315
 3620SOL     OW22492   0.296   4.186   0.435  0.1475  0.2687 -0.2796
 3620SOL    HW122493   0.328   4.096   0.430 -2.1947 -0.3866 -2.8359
 3620SOL    HW222494   0.356   4.237   0.381  1.1299 -0.3852  0.1936
 3621SOL     OW22495   0.590   1.940   6.290  0.3879  0.0214 -0.4116
 3621SOL    HW122496   0.559   1.915   6.203  1.1948 -1.4499 -0.2823
 3621SOL    HW222497   0.666   1.995   6.272  2.4767 -2.6131  0.3171
 3622SOL     OW22498   0.715   0.055  16.806  0.5828 -0.2126  0.2081
 3622SOL    HW122499   0.669   0.081  16.726  0.5872 -0.0038  0.2760
 3622SOL    HW222500   0.802   0.026  16.775 -0.1664  0.8082 -2.8705
 3623SOL     OW22501   2.156   2.570   8.972 -0.0901  0.5260  0.1227
 3623SOL    HW122502   2.172   2.514   8.896 -0.7003  0.8548 -0.2465
 3623SOL    HW222503   2.086   2.618   8.929 -0.7975 -1.4579 -0.9617
 3624SOL     OW22504   1.329   4.372   9.830 -0.5091 -0.0000  0.2123
 3624SOL    HW122505   1.236   4.363   9.809  0.0743 -2.9705 -1.1101
 3624SOL    HW222506   1.362   4.282   9.832 -3.7198 -1.2424 -3.2175
 3625SOL     OW22507   1.599   3.969   3.432  0.1543 -0.1525 -0.2629
 3625SOL    HW122508   1.582   3.875   3.431 -2.0668  0.2562  0.1895
 3625SOL    HW222509   1.512   4.006   3.440 -0.2771 -0.9986 -1.0349
 3626SOL     OW22510   0.343   0.974   8.797 -0.0389  0.4830  0.5990
 3626SOL    HW122511   0.300   1.000   8.879  0.9581 -0.7186  1.5091
 3626SOL    HW222512   0.296   1.030   8.736 -1.3075 -1.7317 -0.4736
 3627SOL     OW22513   0.001   4.643   9.323  0.5002 -0.7488 -0.0581
 3627SOL    HW122514   4.673   4.652   9.394  2.3773  0.5476  1.4473
 3627SOL    HW222515   4.700   4.710   9.267 -1.7369 -2.8455 -1.1232
 3628SOL     OW22516   1.038   2.922  12.903  0.0572  0.2372 -0.0540
 3628SOL    HW122517   1.032   2.988  12.834 -2.0351  1.2698  1.1146
 3628SOL    HW222518   0.995   2.848  12.860 -1.9996  0.9614  0.7864
 3629SOL     OW22519   0.883   2.178  11.347 -0.1354  0.6544  0.8225
 3629SOL    HW122520   0.968   2.142  11.374 -0.1498 -1.1593 -1.5322
 3629SOL    HW222521   0.828   2.122  11.401  0.7931  1.7144  2.8746
 3630SOL     OW22522   0.459   4.146   3.722  0.4875  0.1088 -0.2359
 3630SOL    HW122523   0.461   4.054   3.698 -0.7439  0.2766 -0.9905
 3630SOL    HW222524   0.387   4.157   3.784  0.0786  1.1116 -0.8788
 3631SOL     OW22525   4.098   0.242  15.618 -0.1982 -0.2089 -0.0065
 3631SOL    HW122526   4.157   0.219  15.690 -0.9354  0.8178  0.9248
 3631SOL    HW222527   4.058   0.160  15.591 -1.2019 -0.1372  1.2309
 3632SOL     OW22528   0.228   0.970   4.866 -0.3756 -0.3356  0.0648
 3632SOL    HW122529   0.142   1.003   4.890  0.7581  2.4263  0.3067
 3632SOL    HW222530   0.282   0.995   4.941 -1.7694 -0.2089  1.0111
 3633SOL     OW22531   3.618   2.687   5.812 -0.2454 -0.4111 -0.0079
 3633SOL    HW122532   3.554   2.623   5.844  0.3755 -0.7118  0.6337
 3633SOL    HW222533   3.661   2.718   5.892 -3.0469 -1.1178  1.7828
 3634SOL     OW22534   1.142   3.031   9.209  0.2066  1.0223  0.9702
 3634SOL    HW122535   1.102   3.108   9.170  0.5446  0.8017  0.1863
 3634SOL    HW222536   1.202   3.013   9.136  0.8231 -0.2225  1.7733
 3635SOL     OW22537   1.262   2.358   8.446 -0.1513 -0.3273 -0.1584
 3635SOL    HW122538   1.325   2.388   8.379  0.7136  1.0312  1.2517
 3635SOL    HW222539   1.324   2.359   8.518  0.1192  0.9057 -0.3945
 3636SOL     OW22540   0.303   3.351  11.579 -0.0757  0.3562 -0.1591
 3636SOL    HW122541   0.382   3.387  11.538 -0.7010  0.5927 -1.1486
 3636SOL    HW222542   0.321   3.364  11.672 -1.2942 -1.2067  0.2923
 3637SOL     OW22543   0.481   0.871   3.319 -0.0818  0.4235  0.3631
 3637SOL    HW122544   0.551   0.817   3.355 -0.8402 -1.8260 -1.5402
 3637SOL    HW222545   0.486   0.845   3.227 -0.8188  0.5076  0.2959
 3638SOL     OW22546   3.747   3.261   7.138 -0.3788 -0.2777 -0.1259
 3638SOL    HW122547   3.802   3.234   7.065 -2.7839 -2.5874 -1.0825
 3638SOL    HW222548   3.666   3.276   7.090 -0.2505 -3.3124 -1.2929
 3639SOL     OW22549   0.237   4.203   5.394 -0.2511 -0.3163 -0.1150
 3639SOL    HW122550   0.211   4.295   5.389 -0.8768 -0.4690  0.3341
 3639SOL    HW222551   0.256   4.182   5.302  0.3892  0.5659 -0.1875
 3640SOL     OW22552   4.289   1.014  16.374 -0.4242 -0.4400 -0.1221
 3640SOL    HW122553   4.369   0.990  16.420 -0.2944  0.8076  0.3289
 3640SOL    HW222554   4.234   1.025  16.451  2.4684 -0.1954  1.9037
 3641SOL     OW22555   3.412   2.561   6.207 -0.5606  1.0709 -0.0652
 3641SOL    HW122556   3.421   2.598   6.119  0.4428 -1.0004 -0.8455
 3641SOL    HW222557   3.318   2.550   6.222 -0.7268 -0.3374 -2.0626
 3642SOL     OW22558   1.428   1.172   9.749 -0.4367  0.1497 -0.5747
 3642SOL    HW122559   1.397   1.216   9.828 -0.7464  1.6006 -1.5115
 3642SOL    HW222560   1.448   1.252   9.700 -0.6242  0.3985 -0.2489
 3643SOL     OW22561   1.350   2.453   3.725  0.1890  0.3384  0.1435
 3643SOL    HW122562   1.263   2.492   3.715  0.4446  0.7995 -0.3155
 3643SOL    HW222563   1.362   2.475   3.818 -1.3859  2.2159 -0.0950
 3644SOL     OW22564   3.995   2.773   5.537 -0.2741  0.0245 -0.2501
 3644SOL    HW122565   4.018   2.813   5.453  0.6649  1.8046  0.8597
 3644SOL    HW222566   3.902   2.756   5.523 -0.0024 -1.8736  0.2487
 3645SOL     OW22567   2.497   3.854  10.699 -0.3683 -0.4715  0.2557
 3645SOL    HW122568   2.421   3.900  10.664 -0.2595 -0.9914 -0.6442
 3645SOL    HW222569   2.456   3.826  10.781  0.2438 -0.0857  0.6998
 3646SOL     OW22570   2.014   4.442   0.497  0.5408 -0.4746 -0.3182
 3646SOL    HW122571   1.986   4.470   0.410 -2.5389 -0.3578  0.7049
 3646SOL    HW222572   2.070   4.367   0.475  2.2415  0.6870  0.1159
 3647SOL     OW22573   3.346   0.892  14.782 -0.4478  0.0346 -0.4724
 3647SOL    HW122574   3.312   0.803  14.796  2.5509 -1.0611 -0.1668
 3647SOL    HW222575   3.377   0.908  14.871  0.4000  3.5259 -1.4277
 3648SOL     OW22576   4.091   0.302   8.458 -0.5660  0.3658  0.4577
 3648SOL    HW122577   4.181   0.273   8.470 -0.0809  1.5659 -0.1990
 3648SOL    HW222578   4.071   0.345   8.541  0.1499 -1.7411  1.7049
 3649SOL     OW22579   2.196   0.145   7.326  0.4141 -0.0677  0.1678
 3649SOL    HW122580   2.193   0.126   7.232  0.5531 -0.3439  0.2195
 3649SOL    HW222581   2.247   0.226   7.329  2.0319 -1.0433 -1.3748
 3650SOL     OW22582   1.511   3.775   5.630 -0.4444 -0.2421  0.4571
 3650SOL    HW122583   1.453   3.716   5.679 -0.7496 -1.0178 -0.8570
 3650SOL    HW222584   1.450   3.835   5.588 -0.9256  0.1502  1.7143
 3651SOL     OW22585   2.637   1.671   6.331 -0.0271  0.2794  0.1896
 3651SOL    HW122586   2.608   1.580   6.321 -0.7778  0.6133 -0.6887
 3651SOL    HW222587   2.695   1.686   6.257 -3.2234  2.1688 -1.9282
 3652SOL     OW22588   2.437   0.970   8.848  0.3465 -0.3984  0.0411
 3652SOL    HW122589   2.508   0.907   8.860  0.9702  0.1159 -0.9396
 3652SOL    HW222590   2.378   0.925   8.788  0.1673 -1.0163  0.6763
 3653SOL     OW22591   3.737   4.191  10.460 -0.0132  0.1393  0.5139
 3653SOL    HW122592   3.695   4.274  10.481  0.5579  0.9653 -1.5978
 3653SOL    HW222593   3.669   4.124  10.462  1.5235 -1.3925  1.1495
 3654SOL     OW22594   4.582   0.002  14.573 -0.6289 -0.9202  0.1165
 3654SOL    HW122595   4.587   4.694  14.658 -1.5361 -0.3709  0.4468
 3654SOL    HW222596   4.611   4.659  14.526 -0.0742 -0.5214 -0.2132
 3655SOL     OW22597   2.238   0.277   6.278  0.3902 -0.0164 -0.6027
 3655SOL    HW122598   2.275   0.357   6.316 -2.4227  0.1462  1.8062
 3655SOL    HW222599   2.300   0.214   6.314  0.3070 -0.0533 -0.5250
 3656SOL     OW22600   2.074   3.873   8.308 -0.4142  0.2122 -0.2210
 3656SOL    HW122601   2.070   3.948   8.249  0.7811  0.8218  0.4835
 3656SOL    HW222602   2.081   3.917   8.393 -1.8172  0.3418 -0.1723
 3657SOL     OW22603   3.345   1.783   7.418 -0.2247  0.1055 -0.5793
 3657SOL    HW122604   3.424   1.837   7.415  0.0280 -0.2405  0.0208
 3657SOL    HW222605   3.341   1.772   7.513 -2.6391  0.0346 -0.6825
 3658SOL     OW22606   2.469   3.777   1.825  0.2245  0.4872  0.2333
 3658SOL    HW122607   2.558   3.789   1.858  1.0738 -1.0372 -1.4883
 3658SOL    HW222608   2.447   3.860   1.783  0.2453 -0.2321 -1.1866
 3659SOL     OW22609   0.082   1.794  10.867 -0.5747 -0.1320 -0.5164
 3659SOL    HW122610   0.057   1.837  10.785 -0.4953 -0.5951 -0.7824
 3659SOL    HW222611   0.160   1.844  10.892 -0.9020 -0.1332  0.4855
 3660SOL     OW22612   1.264   1.926   6.411 -0.6145  0.1699 -0.5824
 3660SOL    HW122613   1.276   1.851   6.469 -0.1168  0.0094 -0.9024
 3660SOL    HW222614   1.194   1.896   6.352  2.0287  0.7370 -3.9880
 3661SOL     OW22615   2.374   1.936   2.709  0.6702  0.1691 -0.2170
 3661SOL    HW122616   2.307   1.867   2.713  1.8208 -0.8530  1.1790
 3661SOL    HW222617   2.449   1.892   2.668  0.8011 -0.7662  1.0552
 3662SOL     OW22618   3.787   0.561   2.292  0.2644  0.0139  0.5630
 3662SOL    HW122619   3.700   0.524   2.304  0.5765 -0.4787  1.2700
 3662SOL    HW222620   3.767   0.652   2.271 -2.8988 -1.1108 -1.2949
 3663SOL     OW22621   2.187   1.673  15.713 -0.1998 -0.6079  0.0493
 3663SOL    HW122622   2.227   1.681  15.627 -2.2253 -2.0864 -1.0304
 3663SOL    HW222623   2.243   1.730  15.766 -0.2154  1.2629 -1.9647
 3664SOL     OW22624   1.671   0.023   5.120  0.0793  0.4737  0.0761
 3664SOL    HW122625   1.676   0.003   5.027  0.1375  0.6341  0.0443
 3664SOL    HW222626   1.760   0.003   5.149  0.4097 -0.0833 -1.3374
 3665SOL     OW22627   2.426   2.680   8.632 -0.1076  0.2875  0.1215
 3665SOL    HW122628   2.382   2.737   8.570  0.5954  0.8107  0.1093
 3665SOL    HW222629   2.460   2.616   8.569 -2.0703  0.6796 -1.3317
 3666SOL     OW22630   0.526   1.453   5.787  0.4311 -0.0562 -0.5672
 3666SOL    HW122631   0.547   1.530   5.840 -1.0992  0.1888 -0.3027
 3666SOL    HW222632   0.596   1.448   5.722  1.3451 -2.7187  0.6339
 3667SOL     OW22633   0.502   1.181   3.883 -0.8747 -0.5061 -0.1436
 3667SOL    HW122634   0.594   1.158   3.879 -0.8258  0.0050 -2.3665
 3667SOL    HW222635   0.474   1.123   3.811  0.1747 -0.6447 -0.4308
 3668SOL     OW22636   1.792   3.656   6.457  0.3489  0.0365  0.1788
 3668SOL    HW122637   1.884   3.630   6.468  1.5183  2.8473 -2.9678
 3668SOL    HW222638   1.786   3.662   6.362 -0.9479  1.9085  0.3912
 3669SOL     OW22639   0.549   0.603   7.553  0.8671 -0.2391  0.7079
 3669SOL    HW122640   0.638   0.586   7.583  0.9771 -2.7641 -1.0546
 3669SOL    HW222641   0.538   0.530   7.492  1.0043  0.7130 -0.4511
 3670SOL     OW22642   1.148   3.996   3.689 -0.5366 -0.3543  0.7608
 3670SOL    HW122643   1.073   3.936   3.688 -0.3266 -0.5797 -1.1394
 3670SOL    HW222644   1.111   4.083   3.705 -2.1398 -0.8832 -0.1122
 3671SOL     OW22645   1.178   4.245   9.315 -0.3526  0.4062  0.1421
 3671SOL    HW122646   1.222   4.176   9.265 -2.6252 -2.0255  1.5353
 3671SOL    HW222647   1.185   4.322   9.258 -0.8267 -0.4190 -1.0310
 3672SOL     OW22648   1.148   3.057   3.090  0.8139 -0.3314 -0.1207
 3672SOL    HW122649   1.096   3.084   3.165 -0.5671  1.1691 -1.6294
 3672SOL    HW222650   1.080   3.030   3.028  1.2721 -0.1753 -0.6952
 3673SOL     OW22651   3.864   1.141   7.058  0.2570 -0.0961  0.0262
 3673SOL    HW122652   3.898   1.178   6.977 -2.1347 -0.1188 -0.9804
 3673SOL    HW222653   3.795   1.080   7.033 -1.3671  1.7850 -0.0651
 3674SOL     OW22654   2.213   1.815   1.844 -0.0554 -0.2095  0.0154
 3674SOL    HW122655   2.242   1.867   1.769  0.7134 -0.8245 -0.1014
 3674SOL    HW222656   2.123   1.791   1.824 -0.0500 -0.2284  0.0134
 3675SOL     OW22657   3.630   2.427   9.349 -0.0543  0.6709  0.4820
 3675SOL    HW122658   3.700   2.491   9.334  0.8147 -0.1616  1.0300
 3675SOL    HW222659   3.680   2.354   9.313 -0.9129  0.4930 -0.3533
 3676SOL     OW22660   2.565   1.527   7.096 -0.0829 -0.3800  0.1363
 3676SOL    HW122661   2.626   1.457   7.073 -0.0249 -0.0084 -0.8580
 3676SOL    HW222662   2.530   1.489   7.176  0.2237  1.3684  1.1092
 3677SOL     OW22663   0.100   0.993   7.701 -0.8635 -0.1108 -0.3704
 3677SOL    HW122664   0.187   0.958   7.682  0.5914  4.4494 -1.9185
 3677SOL    HW222665   0.119   1.029   7.788  0.3430  1.0926 -1.1457
 3678SOL     OW22666   0.844   1.804   6.055  0.0772  0.0434  0.8907
 3678SOL    HW122667   0.898   1.827   6.130  0.7932  2.0526 -0.2393
 3678SOL    HW222668   0.877   1.862   5.987  0.4256 -0.6883  0.4375
 3679SOL     OW22669   4.118   0.827   4.262  0.1575 -0.7152  0.1503
 3679SOL    HW122670   4.047   0.801   4.204  0.0710 -1.9023  0.7998
 3679SOL    HW222671   4.159   0.741   4.264  1.1771 -0.1203  4.3034
 3680SOL     OW22672   3.915   0.185   3.733  0.0829 -0.0701 -0.2085
 3680SOL    HW122673   3.938   0.096   3.705 -1.0431  0.2903 -2.2692
 3680SOL    HW222674   3.847   0.163   3.796 -0.1845 -0.4520 -0.6284
 3681SOL     OW22675   2.985   1.502   2.033  0.1290  0.3409 -0.0391
 3681SOL    HW122676   2.998   1.515   1.939 -1.4954  4.2666  0.2845
 3681SOL    HW222677   3.077   1.495   2.060  0.7807 -3.9138 -3.3787
 3682SOL     OW22678   0.930   2.661   9.693  0.2086  0.0595  0.4136
 3682SOL    HW122679   0.977   2.578   9.691 -1.0708 -0.7217  3.4313
 3682SOL    HW222680   0.988   2.727   9.732 -1.7138  1.1333  1.4266
 3683SOL     OW22681   3.724   4.188   2.959 -0.0163  0.1774 -0.1901
 3683SOL    HW122682   3.713   4.275   2.996  0.9484  0.4977 -0.6449
 3683SOL    HW222683   3.744   4.135   3.036  1.9431 -0.0850 -0.8706
 3684SOL     OW22684   1.733   4.508  10.358  0.0204  0.3824  0.1422
 3684SOL    HW122685   1.807   4.448  10.361 -0.1909  0.1754  1.3172
 3684SOL    HW222686   1.709   4.502  10.265  1.4102  2.1199 -0.3271
 3685SOL     OW22687   1.451   4.621   8.467  0.0314  0.3005 -0.1060
 3685SOL    HW122688   1.442   4.695   8.407 -1.6663 -1.2839 -1.8375
 3685SOL    HW222689   1.384   4.559   8.438 -0.4786  0.2008  1.2906
 3686SOL     OW22690   0.765   2.411   8.377  0.0276 -0.4726  0.4302
 3686SOL    HW122691   0.855   2.443   8.371 -0.0962  0.1803  2.1130
 3686SOL    HW222692   0.722   2.465   8.311  1.0724 -0.2479 -0.0648
 3687SOL     OW22693   2.183   1.674   4.730  0.4118 -0.0792  0.7510
 3687SOL    HW122694   2.212   1.655   4.641 -4.5167  0.5878 -0.9695
 3687SOL    HW222695   2.238   1.607   4.771 -0.3728 -1.2838 -0.1697
 3688SOL     OW22696   2.781   4.419   4.669  0.2966  0.3595 -0.0265
 3688SOL    HW122697   2.697   4.414   4.713  1.3435  0.5046  1.9884
 3688SOL    HW222698   2.840   4.388   4.737  0.7122  0.0480 -0.5252
 3689SOL     OW22699   0.630   0.979   7.520 -0.8142 -0.0736  0.1410
 3689SOL    HW122700   0.671   0.961   7.604 -0.9788 -0.7952  0.0657
 3689SOL    HW222701   0.571   0.904   7.519  0.9748 -1.4896  2.0081
 3690SOL     OW22702   0.003   1.605   5.123 -0.4436  0.2499  0.4027
 3690SOL    HW122703   0.074   1.541   5.122  0.1147  0.8738 -1.1692
 3690SOL    HW222704   4.659   1.557   5.101 -0.7181  1.8168 -2.0406
 3691SOL     OW22705   0.960   4.240  11.201  0.3701 -0.4455 -0.3125
 3691SOL    HW122706   0.928   4.284  11.280  2.1526 -0.6830  0.5495
 3691SOL    HW222707   0.920   4.153  11.207  1.7514 -1.0600 -0.1939
 3692SOL     OW22708   0.845   3.284   0.138  0.1654 -0.0403  0.2234
 3692SOL    HW122709   0.823   3.213   0.079 -0.4394  1.3237 -1.1986
 3692SOL    HW222710   0.932   3.309   0.109  0.4287  0.1483  1.1651
 3693SOL     OW22711   2.540   3.444   8.234  0.4488 -0.4330 -0.3121
 3693SOL    HW122712   2.504   3.356   8.233  0.1055 -0.2495 -3.3689
 3693SOL    HW222713   2.629   3.422   8.204  1.2119  2.9884 -0.6501
 3694SOL     OW22714   2.046   0.292   5.357 -0.0030  0.1626 -0.4213
 3694SOL    HW122715   2.130   0.277   5.315 -0.2312 -0.4666 -0.6591
 3694SOL    HW222716   2.035   0.387   5.356 -0.2202  0.1711  1.4975
 3695SOL     OW22717   1.630   3.918   0.461  0.0401  0.0095 -0.0199
 3695SOL    HW122718   1.634   3.971   0.540  1.5349 -0.8702  0.4852
 3695SOL    HW222719   1.685   3.845   0.489  2.4442  0.5327 -3.4513
 3696SOL     OW22720   3.661   0.483  10.021  0.5852  0.4874  0.2671
 3696SOL    HW122721   3.670   0.394  10.057  0.1584  0.9385  1.4749
 3696SOL    HW222722   3.589   0.515  10.074  2.3546  3.1628  1.0582
 3697SOL     OW22723   0.570   0.460   0.150 -0.5401 -0.4245  0.3231
 3697SOL    HW122724   0.621   0.447   0.230 -0.9632  1.7538  0.9454
 3697SOL    HW222725   0.613   0.392   0.098  2.6046  0.0114  2.3250
 3698SOL     OW22726   3.282   2.973   9.090 -0.3825 -0.2372  0.5185
 3698SOL    HW122727   3.345   3.037   9.057 -0.8912  0.4426  0.8428
 3698SOL    HW222728   3.252   2.931   9.010 -0.3987 -1.2390  1.0470
 3699SOL     OW22729   3.060   2.176   0.473  0.3391 -0.4017  0.3496
 3699SOL    HW122730   2.986   2.124   0.441  0.4963  0.2411 -1.0705
 3699SOL    HW222731   3.028   2.192   0.562  0.2376  0.2732  0.1962
 3700SOL     OW22732   2.126   1.273  11.293 -0.6185 -0.2219  0.1509
 3700SOL    HW122733   2.149   1.233  11.209 -0.5922 -0.5498  0.3113
 3700SOL    HW222734   2.079   1.347  11.255  2.5115  0.9834 -1.2867
 3701SOL     OW22735   1.914   1.134   6.000 -0.4567 -0.1999  0.4371
 3701SOL    HW122736   1.961   1.198   6.054 -2.1126 -0.4081  2.1222
 3701SOL    HW222737   1.831   1.180   5.988  1.2213  2.5221 -0.9622
 3702SOL     OW22738   4.732   3.628  11.156  0.2094 -0.6884 -0.1665
 3702SOL    HW122739   4.652   3.576  11.165 -0.0007 -0.6383 -1.7209
 3702SOL    HW222740   0.039   3.623  11.242 -0.7123 -0.7679  0.2837
 3703SOL     OW22741   2.700   2.372   4.897 -0.7427  0.1559 -0.9128
 3703SOL    HW122742   2.734   2.289   4.864  1.1162  1.3272 -1.9386
 3703SOL    HW222743   2.680   2.345   4.987 -1.1793  0.5435 -0.8919
 3704SOL     OW22744   0.588   3.550   9.488 -0.1487  0.0744 -0.0442
 3704SOL    HW122745   0.615   3.458   9.491  0.6375  0.3172  0.1214
 3704SOL    HW222746   0.671   3.592   9.508 -1.2223  2.4905 -0.6396
 3705SOL     OW22747   2.558   2.337   2.197 -0.1111  0.0202 -0.8951
 3705SOL    HW122748   2.597   2.412   2.152 -2.0751 -0.2782 -3.1317
 3705SOL    HW222749   2.605   2.272   2.145  1.1928  0.3148 -0.0817
 3706SOL     OW22750   0.272   2.827   7.342  0.0878  0.1022 -0.3575
 3706SOL    HW122751   0.249   2.793   7.255  0.3061  0.0913 -0.4106
 3706SOL    HW222752   0.314   2.906   7.308  0.9588 -0.3819 -0.4046
 3707SOL     OW22753   1.929   2.542  17.004 -0.7048  0.0861  0.4835
 3707SOL    HW122754   2.008   2.496  17.032  0.5539  1.0616 -1.4832
 3707SOL    HW222755   1.927   2.531  16.909 -0.0388 -2.0966  0.7398
 3708SOL     OW22756   0.824   3.186  12.923  0.1638 -0.1748  0.1102
 3708SOL    HW122757   0.920   3.185  12.933  0.1396 -0.1475  0.3388
 3708SOL    HW222758   0.816   3.258  12.862  2.5528  0.8117  0.9615
 3709SOL     OW22759   3.888   0.604  12.273 -0.5917 -0.1899  0.2765
 3709SOL    HW122760   3.934   0.557  12.342  1.0540 -0.0775 -0.7418
 3709SOL    HW222761   3.953   0.589  12.204 -1.2098 -3.2351  0.3413
 3710SOL     OW22762   1.676   2.947   7.000  0.1566  0.1915  0.8056
 3710SOL    HW122763   1.597   2.900   6.972  0.9825 -0.8115  0.1554
 3710SOL    HW222764   1.696   3.008   6.929  1.0228 -0.6238  0.3468
 3711SOL     OW22765   3.469   4.631   7.230  0.1224  0.2064  0.5075
 3711SOL    HW122766   3.531   4.702   7.217 -0.2404  1.0775  3.3663
 3711SOL    HW222767   3.430   4.646   7.317 -0.0394 -0.0780  0.4847
 3712SOL     OW22768   3.677   0.888   1.034 -1.1731 -0.1719  0.0675
 3712SOL    HW122769   3.702   0.912   1.123 -1.0133 -2.0282  0.5271
 3712SOL    HW222770   3.667   0.969   0.984  2.2794  0.1804 -0.0517
 3713SOL     OW22771   1.395   2.180   4.485 -0.1330 -0.2912 -0.0284
 3713SOL    HW122772   1.446   2.100   4.503 -1.2310 -0.6615  1.4430
 3713SOL    HW222773   1.310   2.153   4.520 -0.7585  2.7858  0.7607
 3714SOL     OW22774   1.103   1.008   3.857 -0.1221 -0.0460 -0.1634
 3714SOL    HW122775   1.187   1.040   3.824 -0.1528 -1.0600 -1.1881
 3714SOL    HW222776   1.104   1.023   3.952  0.3782  2.0114 -0.4796
 3715SOL     OW22777   2.583   0.103   7.070 -0.2556  0.0629 -0.0113
 3715SOL    HW122778   2.678   0.114   7.069 -0.5102  2.4982  0.9610
 3715SOL    HW222779   2.574   0.059   6.986  1.4008 -2.0500  0.9239
 3716SOL     OW22780   4.375   4.104   4.020  0.0698  0.2907  0.3598
 3716SOL    HW122781   4.282   4.087   4.007  0.0226  0.4435  0.4914
 3716SOL    HW222782   4.395   4.077   4.110 -0.6873 -0.4312  0.3161
 3717SOL     OW22783   1.007   1.052   5.255 -0.3342  0.6945 -0.1600
 3717SOL    HW122784   1.025   1.141   5.285 -0.4240  1.0689 -1.2022
 3717SOL    HW222785   1.085   1.037   5.202 -1.5769  1.7892 -2.3196
 3718SOL     OW22786   4.402   2.486   2.329  0.4482  0.2595  0.0940
 3718SOL    HW122787   4.437   2.500   2.242 -0.1092  1.0498 -0.0016
 3718SOL    HW222788   4.452   2.408   2.351  0.4123 -0.1434 -1.2800
 3719SOL     OW22789   1.273   3.156  16.961 -0.4595 -0.1347 -0.5817
 3719SOL    HW122790   1.210   3.161  17.033 -0.3038  0.1616 -0.4691
 3719SOL    HW222791   1.234   3.215  16.897 -1.0415 -0.8218 -0.8573
 3720SOL     OW22792   1.458   1.714   0.844 -0.4647  0.1342  0.2392
 3720SOL    HW122793   1.480   1.622   0.827 -1.6049 -0.0074 -0.4358
 3720SOL    HW222794   1.404   1.707   0.922 -1.7770 -2.5871 -0.9043
 3721SOL     OW22795   2.297   1.166   2.430  0.6539  0.0023 -0.5746
 3721SOL    HW122796   2.384   1.134   2.406  0.2517 -1.7794  0.3518
 3721SOL    HW222797   2.250   1.083   2.435 -0.8758  0.8838 -0.3406
 3722SOL     OW22798   2.630   3.753  10.478  0.1357 -0.0303 -0.1799
 3722SOL    HW122799   2.673   3.827  10.435 -0.4813 -0.8140 -2.1481
 3722SOL    HW222800   2.607   3.788  10.564 -2.1993  0.1467 -0.8711
 3723SOL     OW22801   1.520   4.542   6.027 -0.4820  0.7555 -0.4660
 3723SOL    HW122802   1.512   4.485   5.951  0.0497  0.5708 -0.3863
 3723SOL    HW222803   1.576   4.611   5.990  1.7521  0.1258  1.7911
 3724SOL     OW22804   2.341   0.977   7.123  1.0485  0.3468  0.6326
 3724SOL    HW122805   2.414   0.921   7.150 -0.3018 -0.8287  1.8222
 3724SOL    HW222806   2.264   0.922   7.136  0.7759  0.7034  0.5083
 3725SOL     OW22807   1.532   3.241   5.606  0.3761 -0.2536 -0.1093
 3725SOL    HW122808   1.490   3.173   5.658  3.5702 -0.4898  2.1841
 3725SOL    HW222809   1.475   3.254   5.531 -0.6132 -1.5439  0.4172
 3726SOL     OW22810   0.805   2.923   1.678 -0.8323  0.0274  0.2208
 3726SOL    HW122811   0.866   2.910   1.605  1.2095  4.7198  1.0743
 3726SOL    HW222812   0.855   2.876   1.745  0.0787 -1.9371 -1.8503
 3727SOL     OW22813   1.942   1.992   6.803 -0.7928  0.0272 -0.4655
 3727SOL    HW122814   1.898   1.930   6.861 -0.0166 -1.6227 -1.6090
 3727SOL    HW222815   2.002   1.934   6.754 -0.4302  0.7451 -0.8755
 3728SOL     OW22816   0.800   3.098   8.034  0.1247 -0.3352 -0.5925
 3728SOL    HW122817   0.720   3.054   8.006  0.8665 -1.4540 -0.9456
 3728SOL    HW222818   0.765   3.174   8.081  2.0335 -1.3191  2.4190
 3729SOL     OW22819   2.798   1.755   7.446 -0.4454  0.3811  0.7103
 3729SOL    HW122820   2.881   1.765   7.400  0.4006 -0.3617  2.0696
 3729SOL    HW222821   2.752   1.839   7.447 -1.6537 -0.2751 -0.1355
 3730SOL     OW22822   3.636   2.117  16.546  0.4164 -0.0492 -0.2078
 3730SOL    HW122823   3.658   2.101  16.454  2.0566  1.7815 -0.1203
 3730SOL    HW222824   3.583   2.039  16.566  1.2177  0.0902  2.3318
 3731SOL     OW22825   1.656   1.596   9.163 -0.2599  0.3634 -0.3941
 3731SOL    HW122826   1.748   1.609   9.140  0.4531 -1.9248  1.1628
 3731SOL    HW222827   1.655   1.520   9.221 -1.3253 -0.2522 -1.2124
 3732SOL     OW22828   4.319   0.939   7.261  0.0615 -0.2529 -0.5548
 3732SOL    HW122829   4.385   0.909   7.323 -0.2280 -1.1500 -0.6830
 3732SOL    HW222830   4.265   0.861   7.252 -0.2883  0.2728 -3.1289
 3733SOL     OW22831   2.923   3.442   3.504  0.4043  0.2991  0.0299
 3733SOL    HW122832   2.919   3.497   3.582  0.1591 -1.4244  1.2201
 3733SOL    HW222833   2.862   3.471   3.436 -0.4775 -0.6231  0.4395
 3734SOL     OW22834   2.890   3.030   5.238 -0.0443 -0.0533  0.2200
 3734SOL    HW122835   2.835   3.105   5.216  2.4321  1.7692  0.1379
 3734SOL    HW222836   2.828   2.958   5.246 -0.8594  0.5863 -0.3979
 3735SOL     OW22837   4.521   0.129   6.060 -0.8170  0.1812  0.1049
 3735SOL    HW122838   4.519   0.035   6.046 -0.1250 -0.0863  1.8004
 3735SOL    HW222839   4.538   0.164   5.973 -1.4248 -1.8622 -0.8280
 3736SOL     OW22840   0.701   2.750   3.801  0.6995 -0.0240 -0.3983
 3736SOL    HW122841   0.645   2.691   3.750  2.6821 -0.2669 -2.2813
 3736SOL    HW222842   0.777   2.751   3.743  0.9262 -1.1991 -0.1133
 3737SOL     OW22843   0.180   3.675   1.737 -0.0100  0.3539 -0.3043
 3737SOL    HW122844   0.260   3.674   1.684 -0.7156 -0.0752 -1.3423
 3737SOL    HW222845   0.219   3.679   1.825 -0.2403  2.4555 -0.2896
 3738SOL     OW22846   1.465   0.597   3.677  0.0280 -0.6047 -1.1320
 3738SOL    HW122847   1.516   0.569   3.600  1.1024 -1.3133 -0.1552
 3738SOL    HW222848   1.465   0.692   3.666  1.2454 -0.5818 -0.9477
 3739SOL     OW22849   3.092   1.634   6.406 -0.0106  0.0930 -0.3364
 3739SOL    HW122850   3.060   1.698   6.469 -2.9004  1.2866 -3.0283
 3739SOL    HW222851   3.123   1.559   6.456  1.9636  1.7339  0.8827
 3740SOL     OW22852   2.051   3.379   6.277  0.4227  0.3885 -0.1077
 3740SOL    HW122853   2.060   3.394   6.371 -1.7365 -3.6319  0.7249
 3740SOL    HW222854   2.092   3.462   6.251  1.3543  0.2312  0.8603
 3741SOL     OW22855   1.682   2.768   7.311 -0.3252 -0.7876 -0.1315
 3741SOL    HW122856   1.678   2.687   7.261 -0.1959 -0.7234 -0.2484
 3741SOL    HW222857   1.590   2.776   7.334 -0.6712 -2.8788 -0.8466
 3742SOL     OW22858   4.445   1.676   8.761 -0.1284 -0.7215 -0.4174
 3742SOL    HW122859   4.469   1.693   8.852 -1.0727 -0.5832 -0.1945
 3742SOL    HW222860   4.480   1.590   8.736 -0.5126 -0.7086 -1.0163
 3743SOL     OW22861   0.345   2.068   6.283 -0.1877  0.3212  0.8600
 3743SOL    HW122862   0.430   2.038   6.252 -0.8821  2.2102 -2.8628
 3743SOL    HW222863   0.305   1.988   6.317  1.9501 -1.6460 -1.3116
 3744SOL     OW22864   3.763   2.715   5.209 -0.0347 -0.2443  0.1383
 3744SOL    HW122865   3.854   2.694   5.189  0.4668  0.8438  1.3154
 3744SOL    HW222866   3.747   2.637   5.262  1.1206  0.0767  0.9588
 3745SOL     OW22867   4.381   0.403  12.090  0.3832  0.3169  0.2833
 3745SOL    HW122868   4.408   0.492  12.066  0.2118  1.1527  3.2426
 3745SOL    HW222869   4.321   0.425  12.161 -1.5198 -0.8339 -0.9982
 3746SOL     OW22870   3.490   4.000   5.216  0.2429  0.0197 -0.5125
 3746SOL    HW122871   3.513   3.942   5.144  0.0317 -2.0555  1.0765
 3746SOL    HW222872   3.407   3.963   5.245  0.2861  0.9236  0.7960
 3747SOL     OW22873   0.094   4.132   5.625 -0.0414  0.7482 -0.1150
 3747SOL    HW122874   0.148   4.054   5.610  2.2287  2.4280 -0.7206
 3747SOL    HW222875   0.162   4.192   5.594  0.3666  1.8249  2.8269
 3748SOL     OW22876   4.284   1.882   1.226 -0.4552 -0.5623  0.4804
 3748SOL    HW122877   4.324   1.909   1.143 -0.5073 -2.8552 -0.2727
 3748SOL    HW222878   4.247   1.801   1.192  1.7971 -0.7995 -1.3818
 3749SOL     OW22879   1.418   4.395   6.971 -0.6930 -0.0492 -0.1213
 3749SOL    HW122880   1.457   4.390   7.058  0.8155 -0.1297 -0.7997
 3749SOL    HW222881   1.326   4.377   6.988 -0.6426 -1.0946 -0.9881
 3750SOL     OW22882   4.097   1.350   7.253  0.1067 -0.2637  0.3819
 3750SOL    HW122883   4.182   1.386   7.278  0.0961  0.4512 -0.6159
 3750SOL    HW222884   4.104   1.268   7.301  3.6767  0.4630  1.0924
 3751SOL     OW22885   1.212   1.147  15.828  0.2664 -0.3612  0.0083
 3751SOL    HW122886   1.246   1.167  15.741 -0.5719 -1.3297 -0.5374
 3751SOL    HW222887   1.158   1.226  15.839  1.8269  0.7492 -0.2407
 3752SOL     OW22888   4.027   2.632   2.703 -0.0013 -0.2190 -0.0788
 3752SOL    HW122889   3.979   2.550   2.716  1.1135 -1.1752 -1.8770
 3752SOL    HW222890   4.115   2.597   2.717 -0.4050 -0.8564  0.8575
 3753SOL     OW22891   0.439   2.665   8.620  0.7299 -0.3618  0.2997
 3753SOL    HW122892   0.525   2.656   8.663  0.3723 -0.8403  0.9162
 3753SOL    HW222893   0.437   2.760   8.616 -0.9442 -0.4121 -0.0605
 3754SOL     OW22894   0.880   4.588   4.650  0.1742  0.6178  0.0413
 3754SOL    HW122895   0.959   4.548   4.615  0.2538 -0.9003  1.9154
 3754SOL    HW222896   0.876   4.670   4.601 -0.0299  0.9742  0.6516
 3755SOL     OW22897   0.348   2.092   3.337 -0.0922  0.1437  0.4896
 3755SOL    HW122898   0.293   2.146   3.393  0.6652 -0.8166  2.1790
 3755SOL    HW222899   0.283   2.076   3.270 -0.0073  3.4570 -0.3759
 3756SOL     OW22900   0.430   4.417   3.436  0.3383 -0.1381  0.3995
 3756SOL    HW122901   0.433   4.345   3.373  0.5679 -0.7535  1.1030
 3756SOL    HW222902   0.347   4.414   3.483 -0.2693  0.2399 -0.6653
 3757SOL     OW22903   3.470   0.097  11.302  0.1612  0.1930  0.4233
 3757SOL    HW122904   3.553   0.120  11.343  0.7778  0.7588 -1.1109
 3757SOL    HW222905   3.475   0.006  11.328  0.5197  0.6084  1.7791
 3758SOL     OW22906   0.485   1.583   3.353  0.0928  0.2951 -0.0408
 3758SOL    HW122907   0.443   1.664   3.327  1.8054  1.3517  0.4739
 3758SOL    HW222908   0.416   1.517   3.347 -1.4225  2.1577 -2.6988
 3759SOL     OW22909   0.101   0.868  15.446  0.1032 -0.3247  0.1269
 3759SOL    HW122910   0.093   0.783  15.488 -1.0785 -0.6481 -0.7478
 3759SOL    HW222911   0.144   0.846  15.363 -0.3117 -0.3470 -0.0832
 3760SOL     OW22912   0.421   2.581   6.798  1.2515 -0.1193  0.1958
 3760SOL    HW122913   0.372   2.512   6.752 -0.0007  2.3629 -2.1912
 3760SOL    HW222914   0.404   2.547   6.886 -0.7661 -1.7316 -0.8105
 3761SOL     OW22915   2.289   3.199   3.584 -0.4011  0.0068 -0.1725
 3761SOL    HW122916   2.222   3.131   3.580 -0.0404 -0.3040 -1.0348
 3761SOL    HW222917   2.236   3.278   3.589  0.0348  0.0472  3.8150
 3762SOL     OW22918   2.187   4.321   3.087  0.0380 -0.3366 -0.0558
 3762SOL    HW122919   2.188   4.363   3.000 -1.8834  2.1169  1.1127
 3762SOL    HW222920   2.173   4.397   3.144 -1.4602 -0.7088  0.0942
 3763SOL     OW22921   0.941   4.193   2.866  0.0924  0.2539  0.3886
 3763SOL    HW122922   0.937   4.227   2.777  1.3445 -0.4666  0.0492
 3763SOL    HW222923   1.035   4.175   2.864 -0.0443 -0.2150 -1.7242
 3764SOL     OW22924   3.046   2.513   0.646  0.4807  0.3984  0.1000
 3764SOL    HW122925   3.013   2.589   0.695  1.1073  0.6425  0.1396
 3764SOL    HW222926   2.979   2.487   0.583  0.4421  2.7109 -0.7977
 3765SOL     OW22927   2.680   4.282   6.330 -0.3954 -0.3920 -0.1905
 3765SOL    HW122928   2.775   4.285   6.320 -0.4760 -1.0629 -1.1461
 3765SOL    HW222929   2.645   4.326   6.252 -1.1784 -1.3972 -0.4027
 3766SOL     OW22930   3.491   1.338   3.333 -0.1138  0.2917  0.3311
 3766SOL    HW122931   3.411   1.340   3.281  0.4565 -0.4704 -0.5864
 3766SOL    HW222932   3.551   1.397   3.287 -0.5740  1.0246  0.6769
 3767SOL     OW22933   3.753   0.320   1.111 -0.0997 -0.0252 -0.2229
 3767SOL    HW122934   3.693   0.392   1.090 -0.1118  0.5773  1.8655
 3767SOL    HW222935   3.839   0.363   1.110 -0.6300  1.0524 -0.0888
 3768SOL     OW22936   4.650   0.927   5.283 -0.2709  0.1943 -0.5509
 3768SOL    HW122937   4.584   0.907   5.350  0.6170 -0.6385  0.0790
 3768SOL    HW222938   4.638   0.856   5.220 -1.4219 -1.2150  1.2741
 3769SOL     OW22939   0.517   4.388   8.866  0.5849  0.6933 -0.6872
 3769SOL    HW122940   0.547   4.478   8.855 -0.1385  1.0970  0.6732
 3769SOL    HW222941   0.558   4.367   8.950 -1.4848 -2.4332 -0.4399
 3770SOL     OW22942   4.471   0.349   1.037 -0.1242 -0.0768 -0.2311
 3770SOL    HW122943   4.486   0.434   0.996  1.1410 -0.4829 -0.6328
 3770SOL    HW222944   4.379   0.330   1.020  0.3807  0.3397 -3.3411
 3771SOL     OW22945   1.690   4.443   0.800  0.1833  0.1563  0.5711
 3771SOL    HW122946   1.772   4.401   0.774  0.0909 -1.2417  2.5667
 3771SOL    HW222947   1.628   4.379   0.766 -0.9157  2.3005 -1.4949
 3772SOL     OW22948   0.816   2.365   9.562  0.0770 -0.0098  0.6144
 3772SOL    HW122949   0.787   2.448   9.525 -2.1665 -1.1860 -0.2160
 3772SOL    HW222950   0.857   2.316   9.491 -0.1734  1.1546 -0.3166
 3773SOL     OW22951   3.870   0.682   8.228  0.3650 -0.8651 -0.0021
 3773SOL    HW122952   3.901   0.718   8.145 -0.4230  2.9131  1.3666
 3773SOL    HW222953   3.939   0.622   8.258  0.0193 -0.8344  0.8598
 3774SOL     OW22954   3.357   1.492   3.890 -0.2633 -0.2384 -0.1034
 3774SOL    HW122955   3.414   1.566   3.868 -0.7011  0.6881  1.8298
 3774SOL    HW222956   3.350   1.451   3.804 -1.9076 -0.0914 -0.0282
 3775SOL     OW22957   0.850   0.545  17.733 -0.3332  0.4292 -0.3462
 3775SOL    HW122958   0.943   0.566  17.729 -0.1693 -0.5728 -1.7143
 3775SOL    HW222959   0.855   0.454   0.020 -1.6065  0.4980  0.1212
 3776SOL     OW22960   3.163   4.409  12.862 -0.1623  0.0632  0.1145
 3776SOL    HW122961   3.130   4.491  12.898 -2.1789 -0.3614 -0.7253
 3776SOL    HW222962   3.079   4.363  12.858 -0.1913  0.1080  0.2256
 3777SOL     OW22963   0.192   4.102   7.751  0.4184  0.0764 -0.6815
 3777SOL    HW122964   0.224   4.185   7.716 -1.6128  0.8511 -0.6965
 3777SOL    HW222965   0.238   4.097   7.834 -0.0783  1.7211 -0.3211
 3778SOL     OW22966   1.277   2.052   4.824  0.3464 -0.4346 -1.0572
 3778SOL    HW122967   1.253   1.959   4.821  0.7769 -0.4761 -3.9231
 3778SOL    HW222968   1.246   2.080   4.910  2.4769 -0.7263 -0.1993
 3779SOL     OW22969   0.793   1.831   4.473 -0.4798  0.7950 -0.0601
 3779SOL    HW122970   0.808   1.742   4.442  1.3283  1.3415 -0.7584
 3779SOL    HW222971   0.845   1.819   4.554 -0.4963 -2.1869 -0.4735
 3780SOL     OW22972   1.129   0.968   4.504  0.7855 -0.0037 -0.1412
 3780SOL    HW122973   1.204   0.945   4.559  0.2003  0.5174  0.8789
 3780SOL    HW222974   1.091   1.045   4.546  0.1542 -1.0590  1.2281
 3781SOL     OW22975   1.712   3.105   7.432  0.2876 -0.1159 -0.4437
 3781SOL    HW122976   1.767   3.044   7.382  1.9540  0.0051  1.2394
 3781SOL    HW222977   1.720   3.063   7.517 -0.0523  0.6916 -0.0164
 3782SOL     OW22978   2.593   3.160  12.442 -0.0465  0.3744 -0.3957
 3782SOL    HW122979   2.561   3.074  12.469 -2.7050  0.8159 -2.1123
 3782SOL    HW222980   2.664   3.133  12.384  0.4084  0.6488  0.0275
 3783SOL     OW22981   1.845   1.870   7.967  0.1924  0.0954  0.3033
 3783SOL    HW122982   1.927   1.823   7.988 -0.3908  0.1454  2.6898
 3783SOL    HW222983   1.879   1.952   8.003  1.6477  0.7229 -2.5496
 3784SOL     OW22984   4.147   3.248   4.867 -0.2981  0.0223  0.4820
 3784SOL    HW122985   4.106   3.170   4.904 -2.7573 -0.0614 -2.4147
 3784SOL    HW222986   4.085   3.304   4.914  0.7913  2.0589 -0.4630
 3785SOL     OW22987   1.305   2.489   7.717  0.1538 -0.0263 -0.7839
 3785SOL    HW122988   1.387   2.523   7.681  0.2524  1.4805  0.9134
 3785SOL    HW222989   1.323   2.395   7.715  1.2764  0.2101 -1.8283
 3786SOL     OW22990   2.069   2.165   6.974  0.1879 -0.2302  0.0135
 3786SOL    HW122991   2.033   2.093   6.922  0.9495 -1.0795  0.6573
 3786SOL    HW222992   2.050   2.128   7.060  0.1000 -1.7073 -0.6419
 3787SOL     OW22993   1.764   0.536   8.886  0.4992 -0.4771  0.6351
 3787SOL    HW122994   1.817   0.475   8.938  3.5736  1.3501 -0.2985
 3787SOL    HW222995   1.759   0.490   8.803  0.5674  0.9578 -0.1699
 3788SOL     OW22996   2.671   2.778   8.647 -0.1592 -0.6193  0.1416
 3788SOL    HW122997   2.587   2.734   8.637 -0.6270  0.8510 -2.1893
 3788SOL    HW222998   2.665   2.845   8.579  1.8238 -0.5000  0.0773
 3789SOL     OW22999   0.366   2.140  12.701  0.1607  0.7674  0.3112
 3789SOL    HW123000   0.321   2.168  12.782 -0.4388 -0.6424  0.4672
 3789SOL    HW223001   0.389   2.052  12.729 -1.9620 -0.3624 -1.4998
 3790SOL     OW23002   4.520   1.361  16.995 -0.2335 -0.0470  0.2184
 3790SOL    HW123003   4.458   1.293  17.022 -1.6751  0.3773 -1.9756
 3790SOL    HW223004   4.602   1.329  17.032  0.0742 -0.1434 -0.5289
 3791SOL     OW23005   2.751   2.214   7.846  0.1474  0.0316 -0.3057
 3791SOL    HW123006   2.710   2.300   7.847  1.5907  0.7257 -0.4774
 3791SOL    HW223007   2.768   2.187   7.936  0.7700  1.7572  0.1002
 3792SOL     OW23008   3.296   4.509   9.078 -0.0665 -0.1860 -0.9053
 3792SOL    HW123009   3.349   4.587   9.058  1.5028 -1.2416 -0.8322
 3792SOL    HW223010   3.218   4.541   9.033 -1.1822 -0.9738  0.4761
 3793SOL     OW23011   1.991   1.487  13.648  0.1852  0.0364 -0.1937
 3793SOL    HW123012   1.933   1.537  13.591 -1.1036 -0.4200  0.7228
 3793SOL    HW223013   1.953   1.498  13.735 -1.9633 -0.3784 -1.0946
 3794SOL     OW23014   1.872   4.063  15.740 -0.1567  0.3208  0.0845
 3794SOL    HW123015   1.807   4.111  15.688 -1.6822 -0.8463  0.9162
 3794SOL    HW223016   1.943   4.093  15.683 -1.2270  1.6939 -0.5291
 3795SOL     OW23017   2.650   1.396   6.526  0.2932 -0.1398  0.1174
 3795SOL    HW123018   2.628   1.306   6.550 -1.9216 -0.5963 -3.5919
 3795SOL    HW223019   2.595   1.403   6.448 -0.8929 -0.7950  0.9005
 3796SOL     OW23020   1.469   1.660   7.232 -0.3898 -0.3659 -0.6610
 3796SOL    HW123021   1.506   1.733   7.282 -0.8395  0.8349 -2.0640
 3796SOL    HW223022   1.435   1.599   7.297 -2.4121  0.0364 -1.3277
 3797SOL     OW23023   3.195   4.302  17.419  0.4865 -0.3843  0.0603
 3797SOL    HW123024   3.147   4.269  17.494  0.0773  0.0700  0.0003
 3797SOL    HW223025   3.271   4.338  17.464  0.5960 -1.1426  0.4758
 3798SOL     OW23026   2.299   4.186  10.480 -0.7243  0.0529 -0.4692
 3798SOL    HW123027   2.240   4.256  10.511  0.1208  0.0702  1.1176
 3798SOL    HW223028   2.290   4.198  10.386  0.1807 -3.6573 -1.0305
 3799SOL     OW23029   0.635   3.021   1.848  0.2016 -0.2824 -0.0702
 3799SOL    HW123030   0.584   2.941   1.859  0.0374 -0.2496 -0.6080
 3799SOL    HW223031   0.715   3.000   1.800  0.7533 -3.8962  2.4221
 3800SOL     OW23032   4.059   0.232  14.298  0.0974  0.2905  0.5220
 3800SOL    HW123033   4.077   0.204  14.388  1.7459  2.5280  0.8860
 3800SOL    HW223034   4.072   0.148  14.252 -0.7025  1.3041 -1.5376
 3801SOL     OW23035   1.704   3.194   2.245  0.3345 -0.3029 -0.3545
 3801SOL    HW123036   1.670   3.169   2.331  0.0608 -0.3019 -0.4605
 3801SOL    HW223037   1.786   3.146   2.249  2.0579  2.6726 -0.2777
 3802SOL     OW23038   1.495   2.921   2.108  0.9810 -0.2102 -0.2246
 3802SOL    HW123039   1.475   2.978   2.182  2.6812  1.0840 -0.7671
 3802SOL    HW223040   1.581   2.886   2.129  1.7236  0.4149 -2.2660
 3803SOL     OW23041   0.994   3.923   0.660  0.0798 -0.2561  0.0872
 3803SOL    HW123042   0.942   3.898   0.584  0.2793 -4.8048  1.4910
 3803SOL    HW223043   0.970   3.853   0.721  2.5195 -0.8724  0.3257
 3804SOL     OW23044   1.827   4.226   7.835  0.3427 -0.1815 -0.6325
 3804SOL    HW123045   1.891   4.253   7.900 -0.5719 -1.5375  0.8266
 3804SOL    HW223046   1.752   4.284   7.849  1.8760  2.0181 -1.4428
 3805SOL     OW23047   2.974   3.839   5.963 -0.2439 -0.0101 -0.1912
 3805SOL    HW123048   2.953   3.747   5.951  0.6342 -0.2563  0.1133
 3805SOL    HW223049   3.041   3.853   5.896  0.3734  1.6264  0.7662
 3806SOL     OW23050   0.718   1.158   8.190 -0.0034  0.0122  0.5120
 3806SOL    HW123051   0.758   1.142   8.276  0.6112 -0.6685  0.0996
 3806SOL    HW223052   0.640   1.104   8.204  0.5548  0.2602  4.7949
 3807SOL     OW23053   1.107   1.025  14.805  0.4096  0.5563 -0.4244
 3807SOL    HW123054   1.064   0.941  14.819  0.8151 -0.1530 -3.4234
 3807SOL    HW223055   1.200   1.007  14.790 -0.0491 -1.3218 -0.9807
 3808SOL     OW23056   3.416   1.658   1.901  0.3683 -0.2713  0.3551
 3808SOL    HW123057   3.445   1.670   1.811  1.7344  0.1634  0.8622
 3808SOL    HW223058   3.329   1.698   1.895  0.0553 -0.7598  1.6861
 3809SOL     OW23059   0.555   3.054   0.812  0.1451  0.1870 -0.2556
 3809SOL    HW123060   0.589   3.144   0.813 -0.7682  0.5230  1.2856
 3809SOL    HW223061   0.626   3.017   0.865  1.0013  1.7715 -0.3042
 3810SOL     OW23062   2.407   2.027  14.770 -0.2976  0.1495 -0.1717
 3810SOL    HW123063   2.428   2.047  14.861 -3.0912  0.6571  0.3642
 3810SOL    HW223064   2.438   2.109  14.729  1.1975  1.2505  3.1574
 3811SOL     OW23065   1.198   1.782   4.810 -0.1128  0.4421 -0.4785
 3811SOL    HW123066   1.188   1.693   4.776  2.4972 -0.6014  1.5018
 3811SOL    HW223067   1.232   1.767   4.898 -0.7805 -2.1062 -0.6656
 3812SOL     OW23068   4.637   3.501   9.074 -0.3087 -0.0342 -0.7744
 3812SOL    HW123069   4.623   3.433   9.008  0.4702 -0.5127 -0.4411
 3812SOL    HW223070   4.586   3.577   9.045  0.2134 -0.4373 -2.7251
 3813SOL     OW23071   1.295   1.875   5.921 -0.0014  0.1908  0.2176
 3813SOL    HW123072   1.293   1.917   5.835  2.4469  0.3041  0.1989
 3813SOL    HW223073   1.353   1.799   5.909 -0.5907 -0.5007  1.7258
 3814SOL     OW23074   1.824   3.087   2.901  0.7489 -0.3771  0.4469
 3814SOL    HW123075   1.781   3.123   2.979  4.2829  2.3679  1.1686
 3814SOL    HW223076   1.782   3.125   2.824  1.5391 -1.0149 -0.2966
 3815SOL     OW23077   4.698   3.022   8.114  0.8233  0.2608  0.0256
 3815SOL    HW123078   4.668   2.980   8.194  0.7689  0.3961  0.0753
 3815SOL    HW223079   4.676   2.950   8.055  0.0571  0.7299 -0.2539
 3816SOL     OW23080   4.138   0.652   8.960  0.5157  0.2544 -0.4121
 3816SOL    HW123081   4.125   0.744   8.984  1.5211  0.8458 -2.1904
 3816SOL    HW223082   4.115   0.609   9.043  2.1413 -0.6073 -0.4003
 3817SOL     OW23083   0.023   3.173   3.634 -0.3667  0.4139  0.5631
 3817SOL    HW123084   0.083   3.244   3.655 -0.1473  0.6713 -0.9847
 3817SOL    HW223085   4.690   3.191   3.698  1.3619  1.1879  2.2185
 3818SOL     OW23086   2.592   0.874  16.250 -0.7326 -0.0554  0.1860
 3818SOL    HW123087   2.607   0.783  16.275  0.8309  0.2906  0.5189
 3818SOL    HW223088   2.668   0.881  16.308  0.3126  0.1728 -1.2318
 3819SOL     OW23089   3.973   3.223  17.250  0.3048  0.2063  0.1878
 3819SOL    HW123090   3.957   3.194  17.161 -1.1719 -0.4399  0.6671
 3819SOL    HW223091   3.889   3.261  17.275 -0.2787  1.3016 -3.4558
 3820SOL     OW23092   1.774   2.843   5.177 -0.3898  0.0151  0.3643
 3820SOL    HW123093   1.698   2.897   5.197 -1.1915 -1.1608  0.5290
 3820SOL    HW223094   1.807   2.896   5.104  0.8379  1.1587  1.7806
 3821SOL     OW23095   2.115   0.093   4.526 -0.6208  0.7220  0.3237
 3821SOL    HW123096   2.088   0.041   4.450 -3.1922  2.6305 -0.1084
 3821SOL    HW223097   2.145   0.022   4.582 -0.3240 -0.1319 -0.9134
 3822SOL     OW23098   1.018   2.812   6.411 -0.0171  0.4049 -0.3200
 3822SOL    HW123099   1.074   2.796   6.334 -1.6396 -0.4918 -1.3064
 3822SOL    HW223100   1.068   2.888   6.443  1.3568 -0.3625 -0.6336
 3823SOL     OW23101   4.123   2.988   5.405 -1.0508 -0.1113 -0.6216
 3823SOL    HW123102   4.063   3.024   5.340 -1.5663 -0.6016 -0.4249
 3823SOL    HW223103   4.193   3.053   5.398 -0.3282 -0.9431 -1.2822
 3824SOL     OW23104   0.288   3.098   2.283  0.7346 -0.2499  0.5031
 3824SOL    HW123105   0.205   3.053   2.273  0.8757 -0.3401 -0.2752
 3824SOL    HW223106   0.265   3.175   2.335 -2.7414 -0.4657 -0.6986
 3825SOL     OW23107   1.614   1.344  16.447  0.4216 -0.0048 -0.3649
 3825SOL    HW123108   1.530   1.389  16.458 -0.0287 -0.0418 -3.5750
 3825SOL    HW223109   1.618   1.313  16.357  2.0619  0.2479 -0.3741
 3826SOL     OW23110   2.017   2.155   0.498 -0.4531 -0.2879  0.4298
 3826SOL    HW123111   2.098   2.112   0.472  1.6339  2.3322  2.7061
 3826SOL    HW223112   2.010   2.225   0.434 -2.0155 -0.3735  0.4928
 3827SOL     OW23113   2.501   3.340   2.746  0.3209 -0.5581  0.3691
 3827SOL    HW123114   2.444   3.417   2.743 -0.0174 -0.8353 -0.4999
 3827SOL    HW223115   2.524   3.333   2.653  1.6091  2.1140  0.5066
 3828SOL     OW23116   3.540   1.373   8.961 -0.3719  0.1610 -0.1086
 3828SOL    HW123117   3.492   1.449   8.995  0.7218  0.6615  0.3425
 3828SOL    HW223118   3.471   1.339   8.904  0.1091  0.0038 -0.6009
 3829SOL     OW23119   3.538   0.134   8.004  0.2065  0.3291 -0.0521
 3829SOL    HW123120   3.520   0.219   8.044  1.1044  0.5615 -0.1441
 3829SOL    HW223121   3.633   0.133   7.990 -0.0993  0.6625 -2.0465
 3830SOL     OW23122   3.195   3.628   4.142 -0.3563  0.1236  0.1199
 3830SOL    HW123123   3.120   3.623   4.083  0.9946  0.0927 -1.5956
 3830SOL    HW223124   3.178   3.714   4.180  0.9933  0.3261  0.2640
 3831SOL     OW23125   0.298   3.106  17.492 -0.2596  0.1325 -0.1602
 3831SOL    HW123126   0.261   3.019  17.505  0.8536 -0.3984 -0.5557
 3831SOL    HW223127   0.268   3.120  17.402  1.4404 -0.0399 -0.7454
 3832SOL     OW23128   1.226   0.271   0.055 -0.4910 -0.2507 -0.2295
 3832SOL    HW123129   1.310   0.225   0.060 -0.1997  0.1910 -1.0652
 3832SOL    HW223130   1.214   0.265  17.700 -1.9213 -0.0841 -0.0485
 3833SOL     OW23131   0.491   4.572  11.198 -0.2547 -0.9649  0.7817
 3833SOL    HW123132   0.514   4.625  11.274  2.2308 -0.0680 -0.5917
 3833SOL    HW223133   0.422   4.625  11.157  2.5326  2.0956  0.0103
 3834SOL     OW23134   3.516   4.693   2.676 -0.5017  0.5864 -0.3239
 3834SOL    HW123135   3.473   0.040   2.697 -1.8955 -0.3585  0.5271
 3834SOL    HW223136   3.600   4.717   2.635 -0.0925  0.6165  0.5467
 3835SOL     OW23137   1.698   4.543   2.105 -0.0936 -0.1828  0.9016
 3835SOL    HW123138   1.669   4.487   2.033 -0.5037  0.9690  0.1736
 3835SOL    HW223139   1.768   4.599   2.075 -0.2382 -0.2060  0.5257
 3836SOL     OW23140   0.887   2.923   9.185  0.0845  0.0658 -0.3641
 3836SOL    HW123141   0.982   2.922   9.200 -0.7379  0.1323  4.7474
 3836SOL    HW223142   0.870   2.974   9.107  1.7055  1.9514  0.5180
 3837SOL     OW23143   2.242   2.010   1.639  0.1330  0.0990 -0.6074
 3837SOL    HW123144   2.234   1.956   1.560  2.0599  0.9612 -1.3773
 3837SOL    HW223145   2.242   2.097   1.601  0.1551  0.2297 -0.3066
 3838SOL     OW23146   4.378   1.835   4.768 -0.2393 -0.0980 -0.6158
 3838SOL    HW123147   4.399   1.745   4.742 -1.0490 -0.8668  1.4105
 3838SOL    HW223148   4.465   1.868   4.789 -1.1153 -0.6820  3.8682
 3839SOL     OW23149   2.706   3.788  17.420  0.1771  0.1603 -0.2915
 3839SOL    HW123150   2.727   3.794  17.513 -2.2656  2.9948  0.0848
 3839SOL    HW223151   2.740   3.701  17.403 -1.5052 -0.2613 -1.5553
 3840SOL     OW23152   4.065   3.474  11.616  0.4826 -0.2690  0.3013
 3840SOL    HW123153   4.032   3.420  11.687 -0.2190  0.6701  0.6929
 3840SOL    HW223154   4.095   3.550  11.666  0.7226  0.3593 -0.7917
 3841SOL     OW23155   1.595   1.890   0.671  0.0817  0.4378  0.0800
 3841SOL    HW123156   1.544   1.827   0.720 -0.7694  1.9981  1.1852
 3841SOL    HW223157   1.519   1.941   0.643  1.6334  2.4126 -0.6077
 3842SOL     OW23158   4.355   1.432   3.097  0.5533 -0.4586  0.0461
 3842SOL    HW123159   4.274   1.468   3.061  1.9024  1.8253 -0.6718
 3842SOL    HW223160   4.322   1.382   3.172  1.0674  3.4592  2.8439
 3843SOL     OW23161   2.943   0.423   8.220  0.6653  0.3497 -0.3088
 3843SOL    HW123162   2.970   0.341   8.262  3.3460  0.8681 -0.9919
 3843SOL    HW223163   2.880   0.452   8.286  1.3607 -0.4728  0.7227
 3844SOL     OW23164   1.796   0.016   2.423  0.1201 -0.1057 -0.6033
 3844SOL    HW123165   1.767   4.660   2.413  1.7850 -0.6303 -0.5258
 3844SOL    HW223166   1.710   0.057   2.431  1.6338  3.0866 -0.8631
 3845SOL     OW23167   1.780   1.500   4.868 -1.4748  0.0525 -0.2045
 3845SOL    HW123168   1.822   1.577   4.828 -0.4154  0.3593  1.5254
 3845SOL    HW223169   1.773   1.530   4.958  1.8358  0.2270  0.0054
 3846SOL     OW23170   2.224   0.541   3.681  0.1074 -0.0569  0.0420
 3846SOL    HW123171   2.246   0.626   3.719 -1.1836 -0.3733  1.4439
 3846SOL    HW223172   2.265   0.484   3.746 -0.3120 -1.9562 -1.3556
 3847SOL     OW23173   2.085   1.076  15.994  0.8258 -0.4968  0.3315
 3847SOL    HW123174   2.146   1.134  16.040  0.8947  1.2548 -1.9387
 3847SOL    HW223175   2.015   1.141  15.984  1.5347  0.3095  0.5937
 3848SOL     OW23176   2.865   0.144   3.329  0.4055  0.1624 -0.3621
 3848SOL    HW123177   2.829   0.124   3.415  0.0782 -1.7005 -0.9284
 3848SOL    HW223178   2.954   0.163   3.359  1.6901  0.6304 -4.4552
 3849SOL     OW23179   1.389   2.859   8.764  0.5412  0.2949 -0.7916
 3849SOL    HW123180   1.412   2.910   8.686  3.1125 -2.6836 -2.0393
 3849SOL    HW223181   1.380   2.775   8.717 -2.4977  0.9729 -1.4185
 3850SOL     OW23182   2.842   0.870   4.997  0.1675 -0.1477  0.0206
 3850SOL    HW123183   2.860   0.936   4.930 -3.2754 -0.2818 -1.0267
 3850SOL    HW223184   2.855   0.930   5.071 -2.3687  0.2756  0.1377
 3851SOL     OW23185   2.634   2.768   5.742  0.4534 -0.3667 -0.2147
 3851SOL    HW123186   2.688   2.822   5.685  1.5238  0.5450  1.6724
 3851SOL    HW223187   2.604   2.843   5.794 -0.4837 -1.6958  1.1991
 3852SOL     OW23188   0.930   0.801   6.445  0.2043 -0.2853 -0.1455
 3852SOL    HW123189   1.018   0.767   6.429 -0.0607 -0.7121 -0.7442
 3852SOL    HW223190   0.897   0.742   6.513 -0.5185 -0.3786 -0.5724
 3853SOL     OW23191   2.493   3.681   3.322  0.6962 -0.0390 -0.2553
 3853SOL    HW123192   2.422   3.731   3.363 -1.5000 -2.6801 -0.7785
 3853SOL    HW223193   2.553   3.754   3.309 -0.3813  0.5589 -1.9829
 3854SOL     OW23194   1.325   0.964   2.856 -0.5810 -0.2140 -0.3607
 3854SOL    HW123195   1.417   0.947   2.840 -0.5335 -1.1145  0.9169
 3854SOL    HW223196   1.323   0.964   2.952  0.3219 -0.9449 -0.3451
 3855SOL     OW23197   2.843   1.019   3.010 -0.0620 -0.0503  0.0326
 3855SOL    HW123198   2.807   1.108   3.008 -0.9356 -0.3598  2.0709
 3855SOL    HW223199   2.764   0.966   3.014  2.4087 -3.9156 -2.9598
 3856SOL     OW23200   4.150   2.897   4.540  0.1497  0.0898  0.6839
 3856SOL    HW123201   4.085   2.886   4.610 -0.3943  0.2463  0.2032
 3856SOL    HW223202   4.210   2.825   4.557  1.7340  0.9395 -1.3239
 3857SOL     OW23203   2.415   2.656   3.323  0.1731  0.1349 -0.0463
 3857SOL    HW123204   2.471   2.664   3.246  1.0651 -2.2008  0.3574
 3857SOL    HW223205   2.357   2.730   3.304 -0.3683 -0.5559 -1.0765
 3858SOL     OW23206   3.487   3.182   9.463 -0.2954  0.3443 -0.0105
 3858SOL    HW123207   3.441   3.120   9.406  2.0874 -1.8993  0.5098
 3858SOL    HW223208   3.467   3.262   9.415 -0.4955  1.0133  1.1955
 3859SOL     OW23209   2.480   4.413   6.466  0.0260  0.1828 -0.0066
 3859SOL    HW123210   2.427   4.338   6.491  1.0147 -1.0514 -1.6300
 3859SOL    HW223211   2.545   4.376   6.406  0.2818 -1.9472  1.6059
 3860SOL     OW23212   2.813   0.650   6.217  0.0424  0.4302  0.6375
 3860SOL    HW123213   2.777   0.733   6.187 -0.6418  0.3157  1.1495
 3860SOL    HW223214   2.879   0.688   6.274 -0.6022  0.4527  1.3610
 3861SOL     OW23215   2.924   2.845   2.623  0.2342 -0.1012 -0.2761
 3861SOL    HW123216   2.996   2.906   2.611 -0.5803  1.2416  1.6687
 3861SOL    HW223217   2.940   2.824   2.715 -0.2888 -1.5256 -0.5114
 3862SOL     OW23218   4.685   3.626   4.295 -0.0883 -0.6682 -0.2108
 3862SOL    HW123219   4.641   3.666   4.371 -0.8711 -1.9421  0.0149
 3862SOL    HW223220   0.038   3.649   4.323  0.2036 -1.7833 -0.2362
 3863SOL     OW23221   0.403   4.186  15.748  0.1224 -0.3036  0.1799
 3863SOL    HW123222   0.344   4.166  15.675  0.0284 -0.5087  0.3127
 3863SOL    HW223223   0.368   4.267  15.784  0.6473 -0.7126  1.6134
 3864SOL     OW23224   1.421   3.310   4.666 -0.7603 -0.2875 -0.1450
 3864SOL    HW123225   1.348   3.348   4.713  0.2957 -2.3275  3.1398
 3864SOL    HW223226   1.455   3.383   4.613 -0.4205  0.6687  1.3909
 3865SOL     OW23227   3.136   0.569   0.135  0.3530 -0.5726  0.1048
 3865SOL    HW123228   3.158   0.648   0.085 -1.1604  1.4312  2.5995
 3865SOL    HW223229   3.201   0.501   0.116  0.4782  0.4274 -3.0681
 3866SOL     OW23230   0.142   1.234  13.025 -0.1157  0.2639 -0.4088
 3866SOL    HW123231   0.168   1.240  12.933  1.9332 -1.6636  0.0421
 3866SOL    HW223232   0.186   1.304  13.072  1.0153 -0.9875  0.4065
 3867SOL     OW23233   3.898   0.210   2.086 -0.4212 -0.0999 -0.2321
 3867SOL    HW123234   3.918   0.303   2.087  0.5752 -0.3195  0.7296
 3867SOL    HW223235   3.886   0.197   1.992 -0.9967 -1.1137 -0.0246
 3868SOL     OW23236   1.683   2.684   8.558 -0.0400  0.0001  0.7110
 3868SOL    HW123237   1.639   2.742   8.496  1.6851  0.5753  0.0282
 3868SOL    HW223238   1.769   2.680   8.516  0.4793  1.2738  1.6652
 3869SOL     OW23239   4.726   1.239   2.855  0.5810  0.3490 -0.0895
 3869SOL    HW123240   0.033   1.190   2.926 -1.1401  0.7977  1.2245
 3869SOL    HW223241   0.056   1.219   2.787  0.0712  1.0913 -0.8012
 3870SOL     OW23242   4.703   2.908   8.723 -0.0792 -0.3781 -0.2464
 3870SOL    HW123243   4.648   2.950   8.656  0.2359 -1.1917 -1.0190
 3870SOL    HW223244   4.677   2.816   8.715  0.5503 -0.4788 -1.1273
 3871SOL     OW23245   4.376   3.440   4.063 -0.3135 -0.3627 -0.1440
 3871SOL    HW123246   4.308   3.374   4.077  2.3566 -3.3242 -1.0475
 3871SOL    HW223247   4.325   3.519   4.078  0.0144  0.0843 -1.3680
 3872SOL     OW23248   2.709   4.498   4.038 -0.1302  1.0083 -0.2199
 3872SOL    HW123249   2.686   4.418   3.992 -2.0391  0.8930  0.9197
 3872SOL    HW223250   2.632   4.555   4.027  0.9741  2.5757  0.1675
 3873SOL     OW23251   4.634   1.841   0.177 -0.4685  0.1408 -0.2017
 3873SOL    HW123252   4.591   1.925   0.191 -0.1400  0.3752 -0.5773
 3873SOL    HW223253   4.723   1.865   0.150  0.3115 -2.2539  0.1733
 3874SOL     OW23254   1.856   0.072   2.088  0.5638  0.1309 -0.4184
 3874SOL    HW123255   1.917   0.095   2.019  1.4064 -1.2375 -0.1327
 3874SOL    HW223256   1.905   0.093   2.168 -0.3583 -1.1431  0.4914
 3875SOL     OW23257   2.261   2.631   2.961 -0.0692  0.1879 -0.4021
 3875SOL    HW123258   2.166   2.625   2.967  0.0911  0.5177  2.4677
 3875SOL    HW223259   2.276   2.569   2.890 -1.3421 -1.9569  1.2212
 3876SOL     OW23260   3.095   4.339   4.181 -0.3338  0.3235  0.0037
 3876SOL    HW123261   3.156   4.309   4.249 -0.9135  1.3653  0.9644
 3876SOL    HW223262   3.008   4.319   4.214 -0.6968 -2.8242 -2.8576
 3877SOL     OW23263   4.714   0.561   8.601 -0.5625 -0.2148 -0.3898
 3877SOL    HW123264   0.060   0.517   8.627 -1.0653  0.3562  2.1900
 3877SOL    HW223265   4.659   0.564   8.679 -0.2444 -0.6520 -0.1465
 3878SOL     OW23266   0.715   4.162   8.619  0.2147  0.2431 -0.2899
 3878SOL    HW123267   0.740   4.254   8.608 -0.0543  0.2495 -0.8513
 3878SOL    HW223268   0.623   4.175   8.642 -0.0530 -0.9203 -0.6925
 3879SOL     OW23269   1.876   3.952   6.822  0.1798  0.4451 -0.0400
 3879SOL    HW123270   1.956   3.930   6.773 -0.3383  0.0433 -0.7072
 3879SOL    HW223271   1.914   3.972   6.907  2.3746  0.0863 -0.9313
 3880SOL     OW23272   1.025   1.872   9.491 -0.4471 -0.0219 -0.1794
 3880SOL    HW123273   1.093   1.867   9.424  0.4389 -1.1547  0.8121
 3880SOL    HW223274   1.043   1.789   9.534  1.3362  0.5765  0.2137
 3881SOL     OW23275   1.437   0.444  11.366 -0.4326 -0.5441 -0.5288
 3881SOL    HW123276   1.366   0.421  11.306  0.6451 -2.0755 -1.1972
 3881SOL    HW223277   1.476   0.520  11.324  0.1199  0.4494  1.7446
 3882SOL     OW23278   0.108   0.010   6.985 -1.0212 -0.2274  0.1022
 3882SOL    HW123279   0.083   4.657   6.956 -0.0532 -0.2632 -0.6338
 3882SOL    HW223280   0.074   0.008   7.075  1.9701 -0.6123  1.2283
 3883SOL     OW23281   3.007   3.594   2.793 -0.1387  0.5096 -0.4613
 3883SOL    HW123282   2.924   3.550   2.771  0.6034 -0.8644 -0.5269
 3883SOL    HW223283   3.071   3.525   2.773  0.1401 -0.1556  2.6794
 3884SOL     OW23284   1.928   4.337  10.332  0.8229 -0.3022  0.3299
 3884SOL    HW123285   1.939   4.260  10.387 -0.9993  0.8756  2.3274
 3884SOL    HW223286   1.904   4.298  10.248 -1.2194 -0.5472  1.0464
 3885SOL     OW23287   2.074   0.183   9.186 -0.4799  0.1781  0.6113
 3885SOL    HW123288   2.103   0.244   9.254 -1.0006 -0.2315  1.2088
 3885SOL    HW223289   2.011   0.137   9.241 -0.8484 -0.5380 -0.4078
 3886SOL     OW23290   2.625   1.100   6.772 -0.0528 -0.2725  0.7452
 3886SOL    HW123291   2.663   1.154   6.842  0.4666  0.2513  0.0552
 3886SOL    HW223292   2.695   1.114   6.708 -1.2217 -1.3443 -0.7428
 3887SOL     OW23293   1.846   1.586   7.398  0.3807 -0.2355  0.0852
 3887SOL    HW123294   1.831   1.662   7.342  5.3090  0.0065 -0.8734
 3887SOL    HW223295   1.772   1.588   7.458  0.8197  3.0530  0.5285
 3888SOL     OW23296   0.547   2.832   6.097 -0.5339  0.8051 -0.0618
 3888SOL    HW123297   0.613   2.887   6.055 -0.5640  0.8970  0.0115
 3888SOL    HW223298   0.596   2.751   6.085  0.5813  1.3471  0.7904
 3889SOL     OW23299   0.194   0.138  17.166 -0.5478  0.2106 -0.3907
 3889SOL    HW123300   0.255   0.198  17.210  1.0839 -0.4158 -1.8109
 3889SOL    HW223301   0.149   0.097  17.240 -0.2587  0.6974  0.0600
 3890SOL     OW23302   1.667   3.795  14.349  0.3758  0.2208 -0.5402
 3890SOL    HW123303   1.672   3.860  14.419  1.3555  0.7531 -1.1093
 3890SOL    HW223304   1.707   3.723  14.397  0.9343  1.4473  0.8233
 3891SOL     OW23305   1.110   0.181   2.276 -0.2306  0.3143  0.2673
 3891SOL    HW123306   1.116   0.089   2.300  0.1741 -0.2088 -1.8336
 3891SOL    HW223307   1.197   0.217   2.294  0.4105 -1.3181  0.4216
 3892SOL     OW23308   3.642   0.481   3.834  0.4903  0.0780  0.0500
 3892SOL    HW123309   3.643   0.427   3.755  2.1233  0.9206 -0.5099
 3892SOL    HW223310   3.571   0.444   3.886 -1.0400  1.5295 -1.0048
 3893SOL     OW23311   3.830   3.575   7.096 -0.1613  0.1016 -0.2149
 3893SOL    HW123312   3.870   3.649   7.051 -1.4342  0.7448 -0.3009
 3893SOL    HW223313   3.897   3.547   7.158 -1.7638  0.5826  1.7437
 3894SOL     OW23314   0.693   2.864   5.748  0.5896  0.4420 -0.8432
 3894SOL    HW123315   0.727   2.875   5.837 -1.1306 -1.3618  0.0405
 3894SOL    HW223316   0.618   2.923   5.745  0.6890  0.6382  0.9398
 3895SOL     OW23317   2.239   3.675   7.260  0.5263 -0.2336 -0.2530
 3895SOL    HW123318   2.154   3.694   7.221  1.6515  0.1549 -2.4913
 3895SOL    HW223319   2.222   3.651   7.351 -2.1108 -1.3731 -1.0748
 3896SOL     OW23320   4.396   2.060   1.446  0.1859 -0.0989  0.1020
 3896SOL    HW123321   4.359   2.007   1.376 -1.4120  1.5646 -0.3406
 3896SOL    HW223322   4.417   2.141   1.400 -0.7101 -0.9379 -1.8011
 3897SOL     OW23323   2.367   0.724   9.396 -0.3259 -0.2313  0.2077
 3897SOL    HW123324   2.425   0.782   9.348 -2.0565  1.4841  0.1770
 3897SOL    HW223325   2.291   0.779   9.417  0.3333 -0.1415  2.3457
 3898SOL     OW23326   1.902   1.858   1.408 -0.1158  0.1170 -0.4887
 3898SOL    HW123327   1.880   1.822   1.494  1.1750  0.5791  0.0367
 3898SOL    HW223328   1.835   1.829   1.346 -0.9193 -0.2376  0.5356
 3899SOL     OW23329   0.417   0.329   8.279 -0.0900 -0.1122 -0.4279
 3899SOL    HW123330   0.492   0.296   8.230  0.6325 -0.0555  0.6418
 3899SOL    HW223331   0.383   0.386   8.210 -0.5660 -1.5639 -1.3969
 3900SOL     OW23332   2.680   2.272  14.926 -0.2791 -0.2005 -0.1955
 3900SOL    HW123333   2.743   2.335  14.892 -0.8177  0.7957  0.6561
 3900SOL    HW223334   2.619   2.283  14.853 -1.1643  1.9132  0.8745
 3901SOL     OW23335   3.025   4.437  13.582 -0.1132  0.0921 -0.1224
 3901SOL    HW123336   2.946   4.479  13.616 -0.4901 -0.5244 -0.2243
 3901SOL    HW223337   2.992   4.391  13.504  2.1426 -0.1007 -0.9562
 3902SOL     OW23338   0.858   0.310   7.148 -0.6915 -0.7295  0.1188
 3902SOL    HW123339   0.796   0.321   7.077  0.6542 -0.4152 -1.0126
 3902SOL    HW223340   0.847   0.391   7.199  1.4816 -1.7424  2.2125
 3903SOL     OW23341   2.276   2.772   6.986  0.5322 -0.5507  0.0512
 3903SOL    HW123342   2.202   2.743   7.039 -1.5762  0.0513 -2.5022
 3903SOL    HW223343   2.327   2.801   7.062 -2.8700  0.3797  1.9863
 3904SOL     OW23344   0.333   2.858   5.098  0.3672  0.8749  0.1684
 3904SOL    HW123345   0.300   2.935   5.144 -2.8901  0.9596 -2.3316
 3904SOL    HW223346   0.285   2.789   5.144 -2.2000  2.7027  0.2344
 3905SOL     OW23347   1.438   3.497  14.143  0.2351  0.1305  0.2883
 3905SOL    HW123348   1.406   3.469  14.057  0.5894  2.1000 -0.4799
 3905SOL    HW223349   1.485   3.418  14.168  0.9776  0.0194 -1.4876
 3906SOL     OW23350   1.322   3.724   8.869  0.1412 -0.2199  0.0864
 3906SOL    HW123351   1.379   3.792   8.905 -2.3007  3.0081 -2.1703
 3906SOL    HW223352   1.302   3.763   8.784  0.7115  2.8563  1.3789
 3907SOL     OW23353   1.548   0.113   2.075 -0.4708  0.0316 -0.4652
 3907SOL    HW123354   1.495   0.052   2.127 -1.4109  1.7369  0.5752
 3907SOL    HW223355   1.634   0.071   2.086 -1.1799 -1.2886  0.0706
 3908SOL     OW23356   0.066   2.319   5.796 -0.2439 -0.0542  0.2700
 3908SOL    HW123357   0.156   2.326   5.765 -0.0625  0.4490  0.8923
 3908SOL    HW223358   0.029   2.403   5.769 -1.8387 -0.8115  0.1038
 3909SOL     OW23359   1.933   0.891   6.126  0.2743 -0.3517 -0.0678
 3909SOL    HW123360   1.925   0.963   6.064 -1.2060 -0.3428  0.1358
 3909SOL    HW223361   2.026   0.871   6.133 -0.3489 -2.2340  2.9663
 3910SOL     OW23362   3.334   2.542   9.109 -0.0482  0.5839  0.5445
 3910SOL    HW123363   3.362   2.497   9.189  1.9343 -0.2252 -0.6195
 3910SOL    HW223364   3.367   2.629   9.129 -0.3694  0.5158  1.3784
 3911SOL     OW23365   2.802   2.472  14.794  0.1981 -0.1201  0.3123
 3911SOL    HW123366   2.813   2.473  14.699 -1.3057  0.5338  0.1498
 3911SOL    HW223367   2.826   2.563  14.814 -1.2820  0.4710 -0.6157
 3912SOL     OW23368   3.704   1.023   7.929 -0.7141 -0.2886  0.2817
 3912SOL    HW123369   3.650   0.979   7.995 -1.7232 -1.4633 -1.3288
 3912SOL    HW223370   3.678   0.972   7.852 -1.1608 -1.7362  1.4165
 3913SOL     OW23371   1.731   3.312   0.896 -0.4286 -0.3411  0.1711
 3913SOL    HW123372   1.668   3.356   0.953 -0.0468  2.5213 -1.6424
 3913SOL    HW223373   1.796   3.286   0.962  0.5066 -1.6589 -1.2511
 3914SOL     OW23374   4.423   0.202   6.891  0.4983  0.6016 -0.0942
 3914SOL    HW123375   4.337   0.243   6.888  0.2943  0.3129  1.4570
 3914SOL    HW223376   4.418   0.130   6.829  2.0336  0.7624 -0.4268
 3915SOL     OW23377   4.313   1.734   6.317  0.0578 -0.1005  0.6482
 3915SOL    HW123378   4.232   1.784   6.320  1.6784  2.5723  0.0125
 3915SOL    HW223379   4.311   1.702   6.227  0.0830  2.6848 -0.3483
 3916SOL     OW23380   0.425   3.686   1.609  0.6044 -0.1714  0.0061
 3916SOL    HW123381   0.483   3.612   1.627 -0.1793 -0.2872  2.0280
 3916SOL    HW223382   0.474   3.762   1.642  1.0058 -0.7967  0.8527
 3917SOL     OW23383   3.007   0.915   9.400  0.0178 -0.5915 -0.3336
 3917SOL    HW123384   2.966   0.999   9.418 -0.3583 -1.1262  1.3484
 3917SOL    HW223385   2.976   0.882   9.316  2.6633  0.7414 -1.8397
 3918SOL     OW23386   1.009   1.468   5.451  0.1356 -0.0286 -0.3799
 3918SOL    HW123387   0.991   1.541   5.393 -1.4485 -0.7959 -0.8483
 3918SOL    HW223388   1.055   1.414   5.386  0.8567  0.8151 -0.5669
 3919SOL     OW23389   0.206   2.705   5.500  0.2985  0.0110  0.0176
 3919SOL    HW123390   0.198   2.642   5.429  2.8094  0.2270 -0.4545
 3919SOL    HW223391   0.121   2.748   5.496  1.2904  1.9001 -0.7383
 3920SOL     OW23392   3.760   3.415   8.835  0.3511  0.6496  0.1674
 3920SOL    HW123393   3.826   3.441   8.771 -0.4953 -0.4301 -1.1451
 3920SOL    HW223394   3.816   3.370   8.898 -2.4511 -1.7775  0.9059
 3921SOL     OW23395   2.396   4.695   4.726 -0.1656  0.4159  0.1129
 3921SOL    HW123396   2.424   0.050   4.715  2.9919 -0.7457 -1.7870
 3921SOL    HW223397   2.454   4.649   4.787 -0.4283  1.0827  0.8555
 3922SOL     OW23398   2.194   2.043   9.180 -0.6800  0.4939  0.0886
 3922SOL    HW123399   2.217   1.957   9.215 -0.3012 -0.8021 -3.3440
 3922SOL    HW223400   2.103   2.048   9.211 -0.7065  0.0792  0.0789
 3923SOL     OW23401   1.974   2.742   5.877  0.0978  0.3933  0.8953
 3923SOL    HW123402   1.955   2.795   5.799 -0.2547 -1.8834 -0.5949
 3923SOL    HW223403   2.016   2.807   5.932  0.4121  0.9422  0.0184
 3924SOL     OW23404   1.925   0.546   7.364  0.3357  0.3442 -0.0585
 3924SOL    HW123405   1.924   0.480   7.433 -0.3448 -1.5174 -1.8277
 3924SOL    HW223406   1.994   0.602   7.400  0.3933 -0.1054  0.5249
 3925SOL     OW23407   0.955   3.576   6.092 -0.6026  0.2926 -0.0350
 3925SOL    HW123408   1.030   3.613   6.046  0.9952 -1.0650  1.5033
 3925SOL    HW223409   0.987   3.558   6.180 -0.7877 -0.2643 -0.0765
 3926SOL     OW23410   2.622   1.211   5.009  0.0042 -0.1283 -0.2001
 3926SOL    HW123411   2.614   1.302   4.978 -1.7296 -0.4804 -0.8152
 3926SOL    HW223412   2.591   1.228   5.098 -0.9540  0.2223 -0.5908
 3927SOL     OW23413   4.318   0.156   5.760  0.0067  0.2276  0.1628
 3927SOL    HW123414   4.276   0.086   5.710  0.5628 -2.2909  3.2500
 3927SOL    HW223415   4.380   0.184   5.693  1.2116 -0.8797  0.8263
 3928SOL     OW23416   0.232   3.041  12.069 -0.2347 -0.6530  0.0960
 3928SOL    HW123417   0.251   3.043  11.976  0.1566  2.5716  0.2583
 3928SOL    HW223418   0.239   2.947  12.084  1.6638 -0.2169  1.9438
 3929SOL     OW23419   1.341   3.480   7.642  0.4283  0.3157 -0.2388
 3929SOL    HW123420   1.388   3.532   7.577  1.0674 -0.6167 -0.5166
 3929SOL    HW223421   1.296   3.410   7.595  0.6965  0.9954 -1.4947
 3930SOL     OW23422   3.306   0.522   3.510  0.5058  0.2625 -0.5034
 3930SOL    HW123423   3.213   0.514   3.491  0.1644 -0.1561  1.3018
 3930SOL    HW223424   3.323   0.597   3.453  0.0150  2.5069  2.2724
 3931SOL     OW23425   3.746   1.376  10.652  0.4434  0.0366  0.2562
 3931SOL    HW123426   3.711   1.464  10.642  2.0625  0.7323  0.7613
 3931SOL    HW223427   3.739   1.355  10.745  1.1974  1.4142  0.6155
 3932SOL     OW23428   4.384   3.180  12.822  0.6770 -0.0781  0.5238
 3932SOL    HW123429   4.478   3.183  12.803  1.0248  4.3226  3.0415
 3932SOL    HW223430   4.390   3.218  12.909  1.7242 -0.8698  0.8115
 3933SOL     OW23431   1.811   4.131   2.315 -0.3976 -0.1495  0.1146
 3933SOL    HW123432   1.722   4.105   2.338 -1.1246  0.2635 -2.2059
 3933SOL    HW223433   1.841   4.161   2.401  1.7353  0.9093 -1.0023
 3934SOL     OW23434   3.252   0.770   7.542  0.1254 -0.1223  0.3539
 3934SOL    HW123435   3.235   0.842   7.602 -0.2879 -0.5708  0.7778
 3934SOL    HW223436   3.202   0.706   7.592  0.5725 -1.0162 -0.3381
 3935SOL     OW23437   0.908   4.631  16.631  0.0762 -0.5397 -0.6073
 3935SOL    HW123438   0.828   4.579  16.630  0.2898 -0.8905  1.1147
 3935SOL    HW223439   0.968   4.576  16.682  0.5671  0.5367 -0.0070
 3936SOL     OW23440   2.240   4.443   7.547 -0.1195  0.4190 -0.3394
 3936SOL    HW123441   2.271   4.504   7.479  0.2826  0.7151  0.1119
 3936SOL    HW223442   2.213   4.373   7.487  2.8929 -0.3422 -0.8002
 3937SOL     OW23443   0.918   4.166   2.383 -0.5839  0.7301 -0.7021
 3937SOL    HW123444   0.849   4.115   2.341 -1.0590  0.7962 -0.0050
 3937SOL    HW223445   0.996   4.128   2.344 -0.2051  0.5021  0.2682
 3938SOL     OW23446   1.400   2.977   4.211  0.3211 -0.3475 -0.3862
 3938SOL    HW123447   1.305   2.983   4.218  0.2733 -1.2346 -0.2508
 3938SOL    HW223448   1.427   2.906   4.269  0.8681 -0.8954 -1.3007
 3939SOL     OW23449   3.559   3.903  11.242 -0.2721  0.4463 -0.0512
 3939SOL    HW123450   3.499   3.835  11.213 -0.0685  0.2549 -0.0219
 3939SOL    HW223451   3.578   3.891  11.335  0.9826 -2.7959 -0.7351
 3940SOL     OW23452   0.407   2.894  10.351  0.0473 -0.1083  0.0309
 3940SOL    HW123453   0.394   2.988  10.344 -0.0886  0.0193  2.0343
 3940SOL    HW223454   0.345   2.862  10.284  2.1014 -0.0463 -1.8883
 3941SOL     OW23455   1.230   0.771   9.183 -1.2692 -0.1176 -0.5855
 3941SOL    HW123456   1.145   0.727   9.178 -1.3600 -0.2408  1.9977
 3941SOL    HW223457   1.233   0.796   9.276  1.1016  2.4706 -1.3711
 3942SOL     OW23458   2.543   0.174   5.498  0.0131 -0.2213 -0.2060
 3942SOL    HW123459   2.519   0.236   5.429  0.9198  1.3416  0.8973
 3942SOL    HW223460   2.628   0.139   5.472 -0.0499 -0.4358 -0.1240
 3943SOL     OW23461   3.728   1.933   0.516  0.2305  0.2209 -0.1396
 3943SOL    HW123462   3.768   1.996   0.455 -0.4565 -0.1459 -0.9690
 3943SOL    HW223463   3.640   1.964   0.536  0.1895 -0.8759  1.3251
 3944SOL     OW23464   3.886   2.053  15.018  0.4286 -0.8828 -0.4543
 3944SOL    HW123465   3.917   2.076  15.106 -0.5071  4.1656 -1.4551
 3944SOL    HW223466   3.796   2.082  15.007  1.8891  3.8272  0.0362
 3945SOL     OW23467   0.979   3.844   4.006 -0.3607  0.5339  0.0220
 3945SOL    HW123468   0.891   3.844   4.044 -0.3115 -0.8402  0.1182
 3945SOL    HW223469   0.988   3.930   3.965 -0.7031  0.7663  0.4431
 3946SOL     OW23470   0.781   1.464   9.322 -0.2367 -0.3926 -0.2144
 3946SOL    HW123471   0.823   1.408   9.257  0.0788  0.8730 -1.0894
 3946SOL    HW223472   0.697   1.421   9.338  0.3482 -1.4985 -0.1059
 3947SOL     OW23473   3.340   2.201   7.798  0.1427 -0.3679  0.1313
 3947SOL    HW123474   3.248   2.196   7.773  0.4289 -0.8569 -0.8284
 3947SOL    HW223475   3.361   2.114   7.833  1.7794  1.1253  2.8151
 3948SOL     OW23476   1.494   0.931   7.049  0.0739  0.1325  0.1089
 3948SOL    HW123477   1.491   0.934   7.145 -0.2318 -1.1266  0.1378
 3948SOL    HW223478   1.545   0.850   7.046 -1.5251 -0.8147 -1.2010
 3949SOL     OW23479   0.414   3.671  15.058 -0.2593  0.4172 -0.1045
 3949SOL    HW123480   0.340   3.634  15.105  0.9189 -0.7070  0.8875
 3949SOL    HW223481   0.383   3.760  15.041  0.6599  1.1565  2.1318
 3950SOL     OW23482   4.238   0.090   3.586 -0.3339  0.3488  0.4441
 3950SOL    HW123483   4.330   0.084   3.611  0.1819 -0.7482 -1.7166
 3950SOL    HW223484   4.250   0.056   3.498  1.1482  1.7875  0.1000
 3951SOL     OW23485   2.583   3.309  14.213 -0.4197  0.4904  0.5931
 3951SOL    HW123486   2.572   3.251  14.138 -0.6533  1.3984 -0.0708
 3951SOL    HW223487   2.679   3.314  14.211 -0.3478 -0.9522  0.4757
 3952SOL     OW23488   1.671   0.685   7.296 -0.2181  0.3316 -0.1310
 3952SOL    HW123489   1.612   0.712   7.366 -0.4934  0.8673 -0.5642
 3952SOL    HW223490   1.736   0.643   7.351 -1.4796  0.0609  1.1504
 3953SOL     OW23491   4.515   1.536   3.280 -0.7141 -0.2368 -0.6967
 3953SOL    HW123492   4.451   1.508   3.214  0.2562  1.6825 -2.4661
 3953SOL    HW223493   4.601   1.525   3.239 -0.2402 -1.8454  0.7547
 3954SOL     OW23494   0.058   0.537   3.598  0.4141 -0.0676  0.1250
 3954SOL    HW123495   0.103   0.517   3.681  1.6098  0.6971 -0.3455
 3954SOL    HW223496   0.118   0.603   3.565  0.0692  0.0365 -0.2904
 3955SOL     OW23497   1.771   4.045   8.510 -0.1094  0.1191  0.1301
 3955SOL    HW123498   1.867   4.050   8.518 -0.0322 -1.0081 -0.0578
 3955SOL    HW223499   1.780   4.014   8.420  0.4940 -0.7903  0.5031
 3956SOL     OW23500   4.082   3.810   9.483  0.4088  0.3258 -0.5966
 3956SOL    HW123501   4.167   3.811   9.439 -0.4734 -1.8981 -2.3304
 3956SOL    HW223502   4.026   3.783   9.411  1.0446  0.2919 -1.0785
 3957SOL     OW23503   1.896   2.288   7.274  0.0146  0.0454 -0.3392
 3957SOL    HW123504   1.913   2.206   7.228  1.6583  0.4415 -0.4357
 3957SOL    HW223505   1.931   2.260   7.359 -1.0216  0.4185  0.2110
 3958SOL     OW23506   2.101   2.484   0.645  0.0621 -0.2297 -0.0755
 3958SOL    HW123507   2.055   2.538   0.709 -0.8369 -1.7530  0.5593
 3958SOL    HW223508   2.099   2.546   0.572 -0.7642 -0.5198 -0.2957
 3959SOL     OW23509   1.009   2.139   6.510 -0.1870 -0.3408  0.6248
 3959SOL    HW123510   1.051   2.222   6.487  0.9448 -0.1155  3.5437
 3959SOL    HW223511   1.052   2.127   6.595  3.6368 -1.7831 -1.4780
 3960SOL     OW23512   2.062   0.052  11.481 -0.4131 -0.3577  0.2763
 3960SOL    HW123513   2.061   0.104  11.401 -2.7349 -1.4712 -0.4147
 3960SOL    HW223514   1.969   0.070  11.494 -0.5946 -1.0786 -0.0452
 3961SOL     OW23515   2.258   1.536   8.916  0.2596 -0.2199 -0.1219
 3961SOL    HW123516   2.352   1.521   8.929  0.2958  0.9155  0.9096
 3961SOL    HW223517   2.230   1.452   8.881  1.5038 -0.2462 -1.0641
 3962SOL     OW23518   3.662   2.760   3.832  0.5574  0.1887  0.1943
 3962SOL    HW123519   3.624   2.775   3.745  1.5082  0.5656 -0.1519
 3962SOL    HW223520   3.651   2.666   3.841  0.4159  0.2306  0.4667
 3963SOL     OW23521   2.039   0.638  13.387  0.1169 -0.2310  0.2583
 3963SOL    HW123522   2.120   0.685  13.368  0.1568 -0.4357 -0.0683
 3963SOL    HW223523   1.976   0.708  13.369 -1.4346 -1.8487 -0.6020
 3964SOL     OW23524   0.355   0.494   6.758  0.0424  0.1898 -0.5337
 3964SOL    HW123525   0.340   0.478   6.665  0.9396 -2.5093 -0.2338
 3964SOL    HW223526   0.267   0.510   6.793  0.2142  2.7244 -1.2699
 3965SOL     OW23527   3.778   1.476   3.274  0.1927  0.0936 -0.1072
 3965SOL    HW123528   3.825   1.532   3.336 -0.6596 -0.8582  1.3957
 3965SOL    HW223529   3.706   1.532   3.246 -0.4484 -0.8764 -0.4010
 3966SOL     OW23530   2.456   0.860   6.336 -0.3020  0.4728 -0.1992
 3966SOL    HW123531   2.377   0.891   6.380  0.0097  1.0968 -0.0790
 3966SOL    HW223532   2.438   0.900   6.251  1.5077  2.9484  0.5794
 3967SOL     OW23533   4.018   3.649   9.988  0.0869 -0.0067 -0.0524
 3967SOL    HW123534   3.997   3.555   9.988 -0.5031  0.1104 -1.8491
 3967SOL    HW223535   4.032   3.656   9.893 -1.3206 -0.5633 -0.2984
 3968SOL     OW23536   3.286   2.900   7.566 -0.4617  0.1034  0.4006
 3968SOL    HW123537   3.322   2.970   7.621  0.7711 -0.6327  0.5371
 3968SOL    HW223538   3.368   2.853   7.548 -0.6020  0.7175 -1.8034
 3969SOL     OW23539   1.634   0.952   9.707 -0.2230 -0.0132  0.5347
 3969SOL    HW123540   1.683   0.871   9.692  0.5969  0.7494 -0.8948
 3969SOL    HW223541   1.566   0.923   9.768 -0.6635  1.1050  0.5743
 3970SOL     OW23542   0.556   0.350  11.327  0.2924 -0.6174  0.1598
 3970SOL    HW123543   0.562   0.400  11.408  1.4966  0.5250 -0.6398
 3970SOL    HW223544   0.464   0.359  11.305  0.7233 -0.5274 -1.5660
 3971SOL     OW23545   2.151   2.787   4.505 -0.4654  0.1718 -0.0662
 3971SOL    HW123546   2.107   2.807   4.423 -0.1408  1.3011  0.0349
 3971SOL    HW223547   2.126   2.695   4.515  0.0642  0.5415  4.8611
 3972SOL     OW23548   0.918   3.322   6.038 -0.1951 -0.3965 -0.2161
 3972SOL    HW123549   0.929   3.338   5.944  2.8792 -2.4221 -0.1959
 3972SOL    HW223550   0.929   3.411   6.072 -0.5098 -0.6253  0.4701
 3973SOL     OW23551   3.624   1.465   4.636 -0.1077 -0.0842 -0.2454
 3973SOL    HW123552   3.701   1.522   4.632 -0.2277 -0.0011 -1.5187
 3973SOL    HW223553   3.641   1.397   4.701 -2.5232 -0.0305  0.4232
 3974SOL     OW23554   1.589   2.146   7.492 -0.6528 -0.1228  0.1343
 3974SOL    HW123555   1.624   2.218   7.544 -0.9227  0.3592 -0.3558
 3974SOL    HW223556   1.633   2.075   7.539 -1.2498 -0.2252  0.5296
 3975SOL     OW23557   2.716   0.721   4.780 -0.2229  0.1625  0.1402
 3975SOL    HW123558   2.695   0.802   4.734  0.5088  0.6093  0.5853
 3975SOL    HW223559   2.760   0.745   4.861  2.5516 -2.4870 -0.5689
 3976SOL     OW23560   2.191   2.621   3.617  0.3932  0.0979 -0.0005
 3976SOL    HW123561   2.182   2.592   3.708 -0.9970  1.1594  0.2005
 3976SOL    HW223562   2.237   2.705   3.621 -2.1264  1.5465 -1.2317
 3977SOL     OW23563   1.035   1.599   2.337  0.6823 -0.8484 -0.1084
 3977SOL    HW123564   1.114   1.638   2.300 -0.5159  1.4281 -0.2833
 3977SOL    HW223565   0.988   1.554   2.267 -1.1193  0.9001 -0.0365
 3978SOL     OW23566   2.159   0.734  17.259 -0.1717  0.1026  0.3264
 3978SOL    HW123567   2.204   0.743  17.175 -2.4243 -0.0880 -0.9157
 3978SOL    HW223568   2.228   0.683  17.300  1.6642  1.1995 -1.3756
 3979SOL     OW23569   2.190   2.539   1.523 -0.3561  0.1004 -0.1371
 3979SOL    HW123570   2.149   2.514   1.605  2.8727 -0.1599  1.4081
 3979SOL    HW223571   2.279   2.510   1.544 -0.1482 -0.6610 -2.0237
 3980SOL     OW23572   0.816   4.581   5.792  0.4277  0.0967  0.1454
 3980SOL    HW123573   0.745   4.555   5.851  0.5161 -0.1763  0.1336
 3980SOL    HW223574   0.875   4.507   5.808 -0.2303 -0.8894 -2.0894
 3981SOL     OW23575   0.585   4.261  17.594 -0.2046  0.0531 -0.4879
 3981SOL    HW123576   0.641   4.204  17.543  0.1457  0.1455 -0.2061
 3981SOL    HW223577   0.640   4.339  17.605 -0.9868  0.3512  1.5025
 3982SOL     OW23578   0.244   2.272  15.817 -0.7692 -0.3048 -0.2201
 3982SOL    HW123579   0.313   2.233  15.764 -2.2544 -1.0442 -1.6328
 3982SOL    HW223580   0.174   2.267  15.751  1.9279  1.3378 -3.2346
 3983SOL     OW23581   0.914   3.519   6.586  0.4928  0.4970 -0.4105
 3983SOL    HW123582   0.840   3.525   6.646 -0.6248  1.1037 -1.8316
 3983SOL    HW223583   0.953   3.443   6.629 -0.3809  0.8714  1.0088
 3984SOL     OW23584   0.198   4.227  16.162  0.4096 -0.4071 -0.4488
 3984SOL    HW123585   0.151   4.146  16.177 -0.4657  0.6267  2.3407
 3984SOL    HW223586   0.190   4.280  16.241  1.0184 -2.0882  0.7357
 3985SOL     OW23587   2.652   1.151   4.063  0.2663 -0.5840  0.1661
 3985SOL    HW123588   2.733   1.197   4.083  0.4472 -1.0704  0.5439
 3985SOL    HW223589   2.606   1.215   4.008  0.6148 -1.5044 -1.1981
 3986SOL     OW23590   1.091   3.055   9.470 -0.2152  0.8733 -0.3029
 3986SOL    HW123591   1.051   2.973   9.497 -1.5935  0.9246 -2.1833
 3986SOL    HW223592   1.123   3.029   9.384  1.7090  1.4544  0.2275
 3987SOL     OW23593   2.102   0.923   3.341  0.1392 -0.3449 -0.0889
 3987SOL    HW123594   2.191   0.933   3.310  0.2022  0.8652  0.4431
 3987SOL    HW223595   2.053   0.974   3.276 -0.5685 -0.4029  0.3900
 3988SOL     OW23596   0.351   0.878   4.634 -0.4927 -0.4478  0.3042
 3988SOL    HW123597   0.401   0.811   4.680 -1.6786 -0.6933  1.2424
 3988SOL    HW223598   0.315   0.928   4.708 -0.7864  0.8784 -0.7207
 3989SOL     OW23599   2.272   3.992   6.325  0.2848 -0.2304 -0.0962
 3989SOL    HW123600   2.290   4.083   6.347  1.6685 -0.9163  1.6121
 3989SOL    HW223601   2.313   3.946   6.398 -1.4625  0.2577  1.1946
 3990SOL     OW23602   1.759   4.099   0.836 -0.1360  0.4261  0.0844
 3990SOL    HW123603   1.691   4.128   0.775  0.8836  2.7344  0.0487
 3990SOL    HW223604   1.818   4.060   0.771  1.6611  0.8083  1.5000
 3991SOL     OW23605   0.047   3.866   4.904 -0.6669  0.0590  0.0734
 3991SOL    HW123606   0.071   3.879   4.996 -1.6250 -1.0221  0.4662
 3991SOL    HW223607   0.003   3.781   4.910 -0.9211  0.2518  0.9625
 3992SOL     OW23608   4.462   0.955  17.142 -0.1057  0.1284  0.3990
 3992SOL    HW123609   4.437   1.047  17.130 -0.4981  0.4224  3.6176
 3992SOL    HW223610   4.446   0.923  17.053 -2.0839 -0.1805  0.8547
 3993SOL     OW23611   0.722   2.891   9.438 -0.3436 -0.2952  0.1826
 3993SOL    HW123612   0.779   2.887   9.361  1.8455 -1.6484  1.8724
 3993SOL    HW223613   0.688   2.803   9.427 -1.4238 -0.0150  1.3096
 3994SOL     OW23614   3.770   3.732   7.609 -0.2705  0.4404 -0.1854
 3994SOL    HW123615   3.708   3.685   7.554  2.4767 -0.1010 -2.8185
 3994SOL    HW223616   3.711   3.805   7.628  1.4386  1.7442  0.1577
 3995SOL     OW23617   2.286   4.442   7.952 -0.5128  0.5652 -0.3039
 3995SOL    HW123618   2.324   4.377   7.893 -0.0793  2.4065 -2.0660
 3995SOL    HW223619   2.360   4.460   8.010 -1.7072  0.0350  1.3950
 3996SOL     OW23620   0.466   2.480   8.846  0.1310 -0.0815 -0.0241
 3996SOL    HW123621   0.474   2.514   8.935 -0.6872 -0.3008  0.1264
 3996SOL    HW223622   0.382   2.504   8.808 -0.5329  1.9472  2.7313
 3997SOL     OW23623   2.853   4.717   3.107 -0.2852 -0.0625  0.2708
 3997SOL    HW123624   2.838   4.627   3.136 -0.4907  0.1950  0.9653
 3997SOL    HW223625   2.863   0.040   3.182 -1.2043  2.5633 -1.6254
 3998SOL     OW23626   3.153   1.105  11.976 -0.1200  0.4051  0.2747
 3998SOL    HW123627   3.082   1.043  11.994  1.3298 -1.5389 -0.7587
 3998SOL    HW223628   3.216   1.072  12.039 -1.4595 -0.4273  1.1926
 3999SOL     OW23629   1.212   2.063  13.144  0.0138  0.8971  0.7667
 3999SOL    HW123630   1.257   2.039  13.224 -1.2882  0.9289  1.5076
 3999SOL    HW223631   1.235   1.989  13.088 -1.0331  0.1490  1.3206
 4000SOL     OW23632   1.641   1.190   2.968  0.3105 -0.1951  0.2298
 4000SOL    HW123633   1.664   1.136   2.893  2.0750 -0.7191  1.1432
 4000SOL    HW223634   1.639   1.138   3.048 -0.8244 -0.3045  0.1283
 4001SOL     OW23635   0.892   1.603   4.404 -0.4347  0.1497  0.2084
 4001SOL    HW123636   0.901   1.508   4.408 -2.2227  0.0125  1.0068
 4001SOL    HW223637   0.918   1.624   4.314 -0.9590 -2.6542 -0.5970
 4002SOL     OW23638   1.186   2.601   1.259 -0.9173  0.0303 -0.0151
 4002SOL    HW123639   1.196   2.536   1.328  0.9399 -0.3625 -0.6691
 4002SOL    HW223640   1.125   2.663   1.300 -0.7647 -0.4983  1.0015
 4003SOL     OW23641   1.064   4.409  13.188  0.2353  0.2454  0.5081
 4003SOL    HW123642   1.021   4.494  13.188  1.2446  0.7488 -0.5597
 4003SOL    HW223643   1.124   4.406  13.113  1.2547  1.0534  1.2895
 4004SOL     OW23644   1.635   2.731  12.542 -0.4204  0.2832 -0.2981
 4004SOL    HW123645   1.585   2.653  12.570  2.0840 -2.3704 -3.2602
 4004SOL    HW223646   1.601   2.737  12.453  0.2190  0.8216 -0.4999
 4005SOL     OW23647   1.073   0.948   1.840  0.2577  0.5783  0.2761
 4005SOL    HW123648   0.998   0.892   1.820  1.5844 -1.0167 -0.2287
 4005SOL    HW223649   1.115   0.947   1.754 -0.0594  2.1492  0.0990
 4006SOL     OW23650   3.336   1.702  16.013  0.3471  0.1620 -0.4890
 4006SOL    HW123651   3.265   1.734  16.069 -0.9550 -0.5256 -1.7492
 4006SOL    HW223652   3.318   1.719  15.921  2.2845  0.1894 -0.8680
 4007SOL     OW23653   3.042   1.096   5.082 -0.2401  0.1779 -0.3211
 4007SOL    HW123654   3.108   1.036   5.046 -3.1619 -3.7366  0.8349
 4007SOL    HW223655   3.093   1.172   5.112  0.9944  0.2275 -2.5602
 4008SOL     OW23656   0.266   2.008  15.546  0.4009  0.6176  0.1320
 4008SOL    HW123657   0.214   2.007  15.626  1.5643  0.2842  0.8936
 4008SOL    HW223658   0.235   1.930  15.499  1.0401  0.3842  0.0865
 4009SOL     OW23659   2.891   0.924   6.162 -0.0967  0.1940  0.6416
 4009SOL    HW123660   2.960   0.879   6.114 -0.1100  0.1923  0.6242
 4009SOL    HW223661   2.906   1.015   6.136 -0.5743  0.5229  1.4929
 4010SOL     OW23662   3.843   3.473  15.654 -0.1427 -0.0608  0.2439
 4010SOL    HW123663   3.802   3.408  15.710 -2.0055  1.9517  1.2139
 4010SOL    HW223664   3.863   3.423  15.575  0.3965 -1.8400  1.5274
 4011SOL     OW23665   1.740   3.549  15.264  0.3068 -0.3016 -0.4046
 4011SOL    HW123666   1.730   3.477  15.326 -4.3011 -0.1315 -0.9730
 4011SOL    HW223667   1.836   3.550  15.257  0.5035 -3.1707  2.1211
 4012SOL     OW23668   2.847   3.707   0.783  0.1301 -0.2108  0.2478
 4012SOL    HW123669   2.917   3.680   0.843  1.2182  2.6042  0.2239
 4012SOL    HW223670   2.770   3.684   0.835 -1.1587 -0.7131 -1.8672
 4013SOL     OW23671   2.775   3.211  11.047 -0.3160 -0.1038  0.3530
 4013SOL    HW123672   2.753   3.302  11.023 -2.4902 -0.5492  0.6675
 4013SOL    HW223673   2.692   3.183  11.086 -1.3527  1.9505 -0.3396
 4014SOL     OW23674   1.701   4.471   1.527 -0.3129  0.0034  0.2749
 4014SOL    HW123675   1.743   4.514   1.452 -0.1433  2.1443  1.5856
 4014SOL    HW223676   1.681   4.555   1.570 -0.8158  0.6034 -1.1126
 4015SOL     OW23677   3.422   0.887   4.106  0.1557 -0.3813 -0.1269
 4015SOL    HW123678   3.394   0.957   4.166  0.9415  1.1329 -1.5149
 4015SOL    HW223679   3.411   0.804   4.152  2.1456  1.1835  3.2345
 4016SOL     OW23680   2.860   3.144   6.540 -0.6097  0.2269 -0.3158
 4016SOL    HW123681   2.841   3.111   6.452 -1.1982  2.6321 -1.0960
 4016SOL    HW223682   2.825   3.071   6.590  0.0904 -0.0237 -0.2072
 4017SOL     OW23683   3.440   3.397  16.425  0.2262 -0.0195  0.0289
 4017SOL    HW123684   3.419   3.489  16.411 -1.6173 -0.4836 -0.2286
 4017SOL    HW223685   3.535   3.397  16.417  0.2044  1.8137 -0.1384
 4018SOL     OW23686   0.168   2.219   9.735 -0.4710 -0.9205  0.4248
 4018SOL    HW123687   0.241   2.157   9.742 -0.2256 -0.7791 -0.8328
 4018SOL    HW223688   0.173   2.240   9.828  0.4391  3.7102 -0.6709
 4019SOL     OW23689   1.362   0.989   5.976  0.3546 -0.1029 -0.2042
 4019SOL    HW123690   1.274   1.028   5.978  1.4021  2.1932  0.7257
 4019SOL    HW223691   1.375   0.990   6.070  1.9929 -1.4954 -0.4281
 4020SOL     OW23692   2.812   1.083   8.287  0.5052  0.2961 -0.1658
 4020SOL    HW123693   2.774   1.150   8.230 -0.2340  1.5716  1.8296
 4020SOL    HW223694   2.841   1.015   8.226 -1.4090 -1.8113  1.2468
 4021SOL     OW23695   1.138   1.049  16.923 -0.3298  0.2887  0.1244
 4021SOL    HW123696   1.111   1.135  16.953 -0.8700 -0.2788  1.2820
 4021SOL    HW223697   1.230   1.036  16.947 -0.3860  1.0914  0.7588
 4022SOL     OW23698   3.961   1.103   8.019 -0.3877  0.2901 -0.2519
 4022SOL    HW123699   3.878   1.068   7.989 -0.9534 -0.2300  1.8976
 4022SOL    HW223700   3.948   1.183   7.968  1.3246  1.0944  0.5464
 4023SOL     OW23701   4.430   3.663  13.289  0.1455 -0.0653  0.0703
 4023SOL    HW123702   4.488   3.687  13.361  1.6943  1.1339 -1.5526
 4023SOL    HW223703   4.432   3.742  13.235  1.7642  0.3680  0.7729
 4024SOL     OW23704   3.927   1.862   9.436  0.0663  0.7442 -0.4096
 4024SOL    HW123705   3.876   1.785   9.409 -0.6415  1.1714 -0.2716
 4024SOL    HW223706   3.873   1.934   9.406 -1.5691  1.0846  3.3629
 4025SOL     OW23707   2.237   2.438   2.518  0.3218 -0.4708  0.3489
 4025SOL    HW123708   2.168   2.504   2.508  0.0759 -0.5906  1.1884
 4025SOL    HW223709   2.252   2.411   2.428  0.1005  3.3456 -0.8353
 4026SOL     OW23710   3.844   1.512  11.888 -0.1617  0.5102 -0.2304
 4026SOL    HW123711   3.874   1.588  11.838 -1.0638  0.8507 -0.2569
 4026SOL    HW223712   3.865   1.537  11.978 -1.8514  0.1412  0.2668
 4027SOL     OW23713   1.115   1.106   2.775 -0.0947 -0.4371 -0.5378
 4027SOL    HW123714   1.173   1.045   2.820 -1.3490 -0.7612  0.6406
 4027SOL    HW223715   1.151   1.103   2.687  1.7719 -2.9713  0.3130
 4028SOL     OW23716   2.023   2.143   5.782 -0.5514  0.6940 -0.5990
 4028SOL    HW123717   1.955   2.076   5.775 -0.9070  1.1371 -1.3101
 4028SOL    HW223718   2.081   2.140   5.706  0.4002 -3.5059  0.2820
 4029SOL     OW23719   1.290   4.114   5.679  0.2588  0.0161  0.1140
 4029SOL    HW123720   1.240   4.100   5.598 -2.2300  0.0553  1.6713
 4029SOL    HW223721   1.221   4.075   5.733  0.3122 -3.9842 -2.6693
 4030SOL     OW23722   3.436   3.033   4.758  0.5663  0.0027  0.3133
 4030SOL    HW123723   3.377   3.024   4.833  0.8529 -1.2143  0.3778
 4030SOL    HW223724   3.401   2.963   4.703  0.6963  1.7934 -2.0569
 4031SOL     OW23725   3.696   4.105   8.726  0.2359 -0.0922  0.0720
 4031SOL    HW123726   3.647   4.187   8.722  0.8185  0.3608  2.1416
 4031SOL    HW223727   3.761   4.117   8.795 -1.4809 -1.3592  1.9119
 4032SOL     OW23728   4.246   0.013   7.199 -0.5373  0.3797  0.5264
 4032SOL    HW123729   4.173   0.006   7.138 -0.2922 -0.3542  0.3181
 4032SOL    HW223730   4.257   4.664   7.244 -1.0158 -0.5965 -1.1988
 4033SOL     OW23731   2.116   3.767  12.436  0.0908 -0.0455 -0.1127
 4033SOL    HW123732   2.070   3.800  12.358 -3.0513  1.1097  2.2489
 4033SOL    HW223733   2.205   3.797  12.420  0.1380  0.3159  0.8535
 4034SOL     OW23734   2.395   3.275   3.352 -0.7187  0.0630  0.0757
 4034SOL    HW123735   2.463   3.211   3.373 -1.2601 -0.7488 -0.6535
 4034SOL    HW223736   2.346   3.268   3.434  1.1853  1.6570  1.3435
 4035SOL     OW23737   4.568   3.247   2.391  0.0327  0.4152  0.3094
 4035SOL    HW123738   4.575   3.318   2.327  0.5165 -0.4236 -0.5677
 4035SOL    HW223739   4.609   3.295   2.463 -2.5932 -2.2572  3.5687
 4036SOL     OW23740   0.215   2.022   8.697  0.6573 -0.2999  0.1099
 4036SOL    HW123741   0.293   1.975   8.665  0.2774 -1.7317  1.3196
 4036SOL    HW223742   0.235   2.109   8.662  1.4350 -1.4161 -2.2772
 4037SOL     OW23743   4.163   1.680   0.964  0.2641 -0.1954 -0.1900
 4037SOL    HW123744   4.179   1.614   0.897 -1.4595 -1.2047  0.4186
 4037SOL    HW223745   4.239   1.738   0.960 -0.7951  1.2186  0.2623
 4038SOL     OW23746   1.359   4.100   7.426  0.4260  0.7370  0.6225
 4038SOL    HW123747   1.387   4.092   7.335  1.0689  0.0033  0.8839
 4038SOL    HW223748   1.269   4.131   7.422  0.3219  0.2784 -0.5759
 4039SOL     OW23749   4.430   4.178  12.212 -0.2307  0.1847  0.2025
 4039SOL    HW123750   4.448   4.188  12.119 -0.9128  1.2360  0.1866
 4039SOL    HW223751   4.518   4.185  12.249 -0.1361 -0.3216  0.0687
 4040SOL     OW23752   4.423   2.931   6.057  0.4256 -0.0001  0.2655
 4040SOL    HW123753   4.465   2.847   6.038  0.5000 -0.0868  0.8387
 4040SOL    HW223754   4.485   3.002   6.041  0.0509  0.3262  0.2467
 4041SOL     OW23755   1.168   0.812   3.494 -0.3847 -0.2920 -0.2857
 4041SOL    HW123756   1.094   0.865   3.523 -1.4124 -0.8882 -1.8430
 4041SOL    HW223757   1.134   0.779   3.411  0.3189  0.4033 -0.8519
 4042SOL     OW23758   4.652   0.302   8.767 -0.6439  0.1350  0.2301
 4042SOL    HW123759   4.637   0.270   8.678  0.7125 -0.0228  0.0669
 4042SOL    HW223760   4.598   0.380   8.770 -2.1034 -0.9342  2.6860
 4043SOL     OW23761   3.408   2.477   3.451  0.1577  0.2832 -0.4509
 4043SOL    HW123762   3.409   2.551   3.391 -0.0983  3.0094  2.9269
 4043SOL    HW223763   3.316   2.456   3.436 -0.0391  1.8560 -1.4357
 4044SOL     OW23764   2.727   2.727  14.650  0.0141 -0.4339  0.4832
 4044SOL    HW123765   2.671   2.790  14.604 -0.0852 -2.3286 -1.9888
 4044SOL    HW223766   2.811   2.756  14.614 -0.0407 -0.8225  0.0414
 4045SOL     OW23767   3.400   1.478   7.000  0.0414  0.3146  0.1518
 4045SOL    HW123768   3.415   1.569   6.976  2.1061  0.0250  0.3344
 4045SOL    HW223769   3.313   1.466   6.962 -0.6196  1.4884  1.3211
 4046SOL     OW23770   1.712   1.419   0.538 -0.4800 -0.4586 -0.0253
 4046SOL    HW123771   1.754   1.411   0.624  0.7231 -0.8182 -0.6392
 4046SOL    HW223772   1.728   1.506   0.503  2.7064 -1.5773 -1.3934
 4047SOL     OW23773   0.647   1.346   6.730 -0.2815  0.7074  0.2328
 4047SOL    HW123774   0.605   1.425   6.764  1.0460  2.1478 -1.4813
 4047SOL    HW223775   0.739   1.363   6.751 -0.2269  1.0899 -0.3449
 4048SOL     OW23776   4.435   2.540   5.437 -0.2871  0.4686 -0.1723
 4048SOL    HW123777   4.371   2.472   5.414 -0.0012 -0.5174  1.9543
 4048SOL    HW223778   4.427   2.591   5.357  0.6153  1.8812  0.6475
 4049SOL     OW23779   0.902   2.950   2.989 -0.2184  0.0446 -0.6530
 4049SOL    HW123780   0.905   2.874   2.931  0.4729 -0.9029  0.6282
 4049SOL    HW223781   0.834   2.923   3.051 -0.7909  2.3953 -0.2412
 4050SOL     OW23782   0.057   0.286   5.215 -0.5890  0.1106  0.4443
 4050SOL    HW123783   0.061   0.192   5.194 -0.5866  0.2161 -0.0161
 4050SOL    HW223784   4.716   0.321   5.170  0.5020 -0.2712 -1.6978
 4051SOL     OW23785   0.001   1.072   6.426  0.0170 -0.0067  0.0671
 4051SOL    HW123786   4.648   1.059   6.392 -0.4001 -3.0555  2.2319
 4051SOL    HW223787   0.034   0.989   6.392  0.9471  0.0826  0.7553
 4052SOL     OW23788   3.921   0.700   6.557 -0.4183 -0.1388  0.1286
 4052SOL    HW123789   3.849   0.747   6.515 -0.6109 -0.8127 -0.2968
 4052SOL    HW223790   3.898   0.729   6.645  1.7729  0.6275  0.4490
 4053SOL     OW23791   0.869   1.378   7.128 -0.3655 -0.3586  0.4098
 4053SOL    HW123792   0.820   1.335   7.057 -0.2047  0.2501 -0.0705
 4053SOL    HW223793   0.811   1.415   7.194  0.7628 -0.6858  1.5920
 4054SOL     OW23794   1.520   1.175   0.344 -0.1178  0.2071  0.0818
 4054SOL    HW123795   1.535   1.132   0.260  0.0217 -0.2918  0.3625
 4054SOL    HW223796   1.485   1.099   0.390 -0.3574 -0.2061 -0.7904
 4055SOL     OW23797   4.160   3.526   6.391  0.0840  0.0626  0.0584
 4055SOL    HW123798   4.211   3.599   6.426  0.7601 -0.3650 -0.0255
 4055SOL    HW223799   4.124   3.494   6.474 -1.7453  0.6430 -0.5110
 4056SOL     OW23800   4.192   1.808   2.695 -0.2972  0.0138  0.0603
 4056SOL    HW123801   4.251   1.853   2.755  0.5280  1.2156 -1.6425
 4056SOL    HW223802   4.114   1.862   2.704  0.3066  0.7626  0.8194
 4057SOL     OW23803   2.477   1.801   0.429  0.3106 -0.3508 -0.2135
 4057SOL    HW123804   2.521   1.739   0.372 -0.7085 -0.0540 -1.3231
 4057SOL    HW223805   2.523   1.788   0.512  1.3598 -1.0828 -0.9185
 4058SOL     OW23806   2.414   3.229  15.491 -0.1194  0.6815  0.9607
 4058SOL    HW123807   2.456   3.313  15.512  0.4248  0.8930 -0.9147
 4058SOL    HW223808   2.481   3.187  15.437  0.7621 -0.3373  2.8691
 4059SOL     OW23809   2.933   0.227   9.501 -0.0196 -0.2029 -0.2298
 4059SOL    HW123810   2.999   0.220   9.570 -0.5034 -0.8214  0.1662
 4059SOL    HW223811   2.938   0.320   9.475 -0.1055 -0.0476  0.3112
 4060SOL     OW23812   1.136   1.425   5.023 -0.0337 -0.1986 -0.0686
 4060SOL    HW123813   1.083   1.400   5.098  0.2178  0.6610  0.3988
 4060SOL    HW223814   1.100   1.369   4.954 -3.5687 -1.5578  2.9365
 4061SOL     OW23815   3.119   2.446   3.795  0.7695 -0.1968  0.3073
 4061SOL    HW123816   3.187   2.400   3.746  0.0072 -0.1240 -0.8027
 4061SOL    HW223817   3.173   2.526   3.798 -0.9808  1.0547 -1.9039
 4062SOL     OW23818   1.271   0.616   8.647 -0.3091  0.7615  0.1999
 4062SOL    HW123819   1.184   0.618   8.608 -0.7297  3.5798  1.3168
 4062SOL    HW223820   1.241   0.597   8.736  0.4974 -0.5032  0.2025
 4063SOL     OW23821   3.803   2.480   8.840  0.0310 -0.0868 -0.1015
 4063SOL    HW123822   3.720   2.526   8.829  0.0346  0.6443  3.2129
 4063SOL    HW223823   3.845   2.507   8.758  3.0062 -1.8527  0.8612
 4064SOL     OW23824   0.408   1.812   1.347 -0.2446 -0.0664  0.1017
 4064SOL    HW123825   0.480   1.830   1.287 -0.3473  2.3460  0.7273
 4064SOL    HW223826   0.425   1.881   1.411 -1.9222  0.2650  0.1770
 4065SOL     OW23827   0.311   2.100  12.428 -0.7434 -0.6998  0.1964
 4065SOL    HW123828   0.313   2.114  12.523  1.3288 -0.5394  0.1267
 4065SOL    HW223829   0.401   2.080  12.401 -0.9778 -1.1498 -0.2600
 4066SOL     OW23830   0.395   2.064   1.470  0.2735 -0.1239  0.1233
 4066SOL    HW123831   0.307   2.059   1.434  0.2728 -1.6556  0.3266
 4066SOL    HW223832   0.402   2.160   1.474  0.3611 -0.1825  1.3371
 4067SOL     OW23833   3.473   3.624   9.849 -0.4216 -0.1941 -0.4339
 4067SOL    HW123834   3.485   3.667   9.765  2.1978 -0.9257 -0.4640
 4067SOL    HW223835   3.415   3.548   9.840 -2.6396  1.2686  1.5310
 4068SOL     OW23836   1.034   4.647   5.014 -0.4244  0.1698  0.1595
 4068SOL    HW123837   1.121   4.686   5.014 -0.6760  0.7098  2.4927
 4068SOL    HW223838   1.021   4.634   4.920  1.1157 -3.3232  0.4454
 4069SOL     OW23839   4.466   1.469  15.388  1.1451 -0.0065 -0.6959
 4069SOL    HW123840   4.510   1.554  15.393 -0.4619  0.6981  1.2483
 4069SOL    HW223841   4.414   1.469  15.308  0.1795 -1.6928 -0.0865
 4070SOL     OW23842   1.039   2.419   7.796 -0.2988 -0.1215  0.1030
 4070SOL    HW123843   1.131   2.415   7.770 -0.4247  0.5514 -0.4329
 4070SOL    HW223844   1.024   2.483   7.865  0.1414 -0.5066  0.5587
 4071SOL     OW23845   3.470   1.638   2.791 -0.0603  0.0939  0.6279
 4071SOL    HW123846   3.382   1.674   2.803 -0.3722  0.1882 -2.0218
 4071SOL    HW223847   3.455   1.553   2.833 -0.2315  0.9787  2.3616
 4072SOL     OW23848   3.658   3.504  10.391  0.0208 -0.5273  0.1492
 4072SOL    HW123849   3.747   3.533  10.369 -0.5481  1.1457  0.0357
 4072SOL    HW223850   3.613   3.532  10.311  2.6070  2.0145 -0.4417
 4073SOL     OW23851   1.051   3.553   6.351  0.1416 -0.3672 -0.1406
 4073SOL    HW123852   1.012   3.580   6.434  1.3141 -0.2064  0.3503
 4073SOL    HW223853   1.096   3.472   6.373  2.1753  0.7624 -0.1048
 4074SOL     OW23854   4.585   3.975   8.928 -0.0586  0.0583 -0.8571
 4074SOL    HW123855   4.623   4.048   8.978 -0.2425 -0.9122  0.7208
 4074SOL    HW223856   4.603   4.004   8.839  2.2398  0.8735 -0.1264
 4075SOL     OW23857   4.405   1.051   7.017  0.1194 -0.1630 -0.1671
 4075SOL    HW123858   4.390   1.003   7.098 -0.8200 -1.3635 -1.0529
 4075SOL    HW223859   4.319   1.040   6.978 -0.5520 -2.4124  1.9615
 4076SOL     OW23860   1.173   1.581   8.900  0.2643  1.0207  0.8049
 4076SOL    HW123861   1.150   1.523   8.973  1.7047 -1.3096 -0.6243
 4076SOL    HW223862   1.252   1.536   8.871 -0.9189  1.3397 -2.9871
 4077SOL     OW23863   2.041   3.041   9.467 -0.6720 -0.6467  0.2400
 4077SOL    HW123864   1.993   3.123   9.457 -0.0177 -0.5592 -2.2821
 4077SOL    HW223865   2.130   3.058   9.436 -0.9385 -1.2536 -0.8505
 4078SOL     OW23866   0.018   3.925   7.116  0.0376  0.0390  0.1793
 4078SOL    HW123867   0.069   4.000   7.083 -0.0666 -0.3458 -0.8479
 4078SOL    HW223868   0.036   3.853   7.056 -0.4084 -0.6151  0.8325
 4079SOL     OW23869   2.732   0.735   9.380  0.1333 -0.2102  0.3829
 4079SOL    HW123870   2.666   0.765   9.318 -0.0606 -2.2734 -0.4198
 4079SOL    HW223871   2.802   0.743   9.315 -0.1439  0.8074  0.2204
 4080SOL     OW23872   2.540   0.391   7.124 -0.2237 -0.1735  0.0954
 4080SOL    HW123873   2.529   0.322   7.059  1.0298  0.3073 -0.6240
 4080SOL    HW223874   2.530   0.476   7.080 -0.0757  0.2738  0.9121
 4081SOL     OW23875   3.585   3.613   7.939  0.2138 -0.1788  0.8210
 4081SOL    HW123876   3.593   3.709   7.938  0.4561 -0.2156 -0.4708
 4081SOL    HW223877   3.673   3.598   7.905 -1.0266 -2.5602 -1.2694
 4082SOL     OW23878   1.558   3.347   6.677 -0.3275  0.1137 -0.0188
 4082SOL    HW123879   1.496   3.297   6.730 -0.5815  0.9864  0.5069
 4082SOL    HW223880   1.507   3.408   6.624  1.1711  0.6484 -0.8521
 4083SOL     OW23881   0.274   3.652   9.121  0.5941 -0.2653  0.6308
 4083SOL    HW123882   0.349   3.686   9.168 -0.2154  1.9779  0.3000
 4083SOL    HW223883   0.209   3.670   9.189  0.3692  1.4064 -0.0297
 4084SOL     OW23884   1.186   2.071  10.597  0.5750  0.2631 -0.4351
 4084SOL    HW123885   1.228   2.149  10.560 -0.2062 -0.5525 -3.0242
 4084SOL    HW223886   1.228   2.071  10.683  1.0079 -2.1303 -0.6736
 4085SOL     OW23887   3.046   0.793   5.505 -0.0499  0.1259 -0.7013
 4085SOL    HW123888   2.974   0.783   5.566 -0.0353 -1.3562 -0.9169
 4085SOL    HW223889   3.024   0.871   5.455 -0.4072  1.3444  1.3698
 4086SOL     OW23890   3.873   4.044   5.896 -0.6565 -0.3862  0.0966
 4086SOL    HW123891   3.872   4.134   5.929 -0.3833 -1.0193  1.8564
 4086SOL    HW223892   3.911   4.057   5.809  2.0530  0.1257  1.3618
 4087SOL     OW23893   4.235   3.889   1.344  0.2622 -0.5735 -0.4550
 4087SOL    HW123894   4.209   3.905   1.254 -2.5618  0.4726  0.5479
 4087SOL    HW223895   4.250   3.981   1.364 -3.5402 -0.3472  1.2927
 4088SOL     OW23896   2.171   4.583   0.728 -0.2469  0.9155 -0.1963
 4088SOL    HW123897   2.192   4.673   0.752 -2.6735  1.6046 -0.6647
 4088SOL    HW223898   2.123   4.587   0.645 -2.8459 -1.0903  1.2161
 4089SOL     OW23899   4.715   2.550   3.245  0.3781 -0.1496 -0.8089
 4089SOL    HW123900   4.675   2.602   3.315 -1.9955 -2.3062 -0.5696
 4089SOL    HW223901   0.014   2.477   3.297  1.5324  0.1529 -1.1386
 4090SOL     OW23902   1.156   2.177   4.599 -0.5933 -0.4582 -0.9030
 4090SOL    HW123903   1.105   2.240   4.649 -0.3610  0.5811 -1.9822
 4090SOL    HW223904   1.196   2.134   4.675 -1.2542 -0.2097 -0.4137
 4091SOL     OW23905   3.232   4.275  10.482 -0.3394 -0.1286 -0.3925
 4091SOL    HW123906   3.193   4.233  10.558 -0.4901  0.0157 -0.3885
 4091SOL    HW223907   3.166   4.345  10.476 -1.1474 -0.9821 -1.3787
 4092SOL     OW23908   1.598   2.093   1.590  0.7774 -0.1913  0.6806
 4092SOL    HW123909   1.534   2.085   1.661  0.0695  1.8842  0.2760
 4092SOL    HW223910   1.537   2.105   1.517  0.6651 -1.7605  0.5289
 4093SOL     OW23911   2.724   1.718   6.593 -0.7677 -0.4582  0.2355
 4093SOL    HW123912   2.639   1.736   6.633 -0.9505  1.4240 -0.9727
 4093SOL    HW223913   2.700   1.687   6.506  1.1047  1.3565 -0.9311
 4094SOL     OW23914   3.906   3.228   4.600  0.7708 -0.2295  0.1271
 4094SOL    HW123915   3.940   3.148   4.639 -3.1480 -1.4474  1.0135
 4094SOL    HW223916   3.812   3.212   4.613  0.2759 -2.7856 -6.5651
 4095SOL     OW23917   0.494   3.654   9.817  0.0604  0.4001  0.4441
 4095SOL    HW123918   0.571   3.598   9.807 -0.6947 -0.3594 -1.0954
 4095SOL    HW223919   0.424   3.589   9.828 -1.8831  2.1794 -1.4054
 4096SOL     OW23920   0.262   4.408  11.074  0.4210  0.7371 -0.1897
 4096SOL    HW123921   0.176   4.374  11.097  0.3597  2.3134  1.8459
 4096SOL    HW223922   0.250   4.440  10.985 -3.6157 -0.1131  0.0388
 4097SOL     OW23923   3.983   1.218   4.742 -0.0901 -0.5669 -0.0563
 4097SOL    HW123924   4.035   1.291   4.710 -1.3028 -0.2022 -1.2296
 4097SOL    HW223925   3.979   1.160   4.666  0.7337 -1.7099  0.7695
 4098SOL     OW23926   0.327   1.230   1.599 -0.4949 -0.2288  0.3798
 4098SOL    HW123927   0.378   1.153   1.576  0.7260  0.7963 -0.3744
 4098SOL    HW223928   0.283   1.260   1.519 -1.6001 -3.5685 -0.2508
 4099SOL     OW23929   3.543   3.998   3.347 -0.3279  0.5553  0.0454
 4099SOL    HW123930   3.483   4.072   3.348  0.2943  1.0709 -1.8898
 4099SOL    HW223931   3.498   3.930   3.297  2.9819 -0.8320 -1.0577
 4100SOL     OW23932   2.487   2.272   3.354 -0.3315  0.1593  0.0179
 4100SOL    HW123933   2.426   2.289   3.426 -0.4744 -1.3107  0.2247
 4100SOL    HW223934   2.437   2.310   3.281 -1.3407 -1.7215 -0.2594
 4101SOL     OW23935   0.204   3.851  15.465  0.2565 -0.7683 -0.0257
 4101SOL    HW123936   0.228   3.780  15.404 -0.8955 -0.0712 -1.2851
 4101SOL    HW223937   0.110   3.840  15.473 -0.2507  2.9621 -1.1119
 4102SOL     OW23938   3.238   0.808   9.316  0.3972  0.2960  0.0556
 4102SOL    HW123939   3.283   0.867   9.377  1.1028 -1.4535  1.2175
 4102SOL    HW223940   3.151   0.836   9.343  1.4648  2.6869  0.9939
 4103SOL     OW23941   3.466   4.498  13.605  0.2169  0.3395 -0.1954
 4103SOL    HW123942   3.380   4.524  13.572  0.5546  1.6343 -0.0526
 4103SOL    HW223943   3.453   4.404  13.594  0.6471  0.2290  0.2649
 4104SOL     OW23944   2.794   0.078   3.593 -0.2455 -0.6560 -0.4972
 4104SOL    HW123945   2.725   0.127   3.636  2.7158  0.9907  2.3923
 4104SOL    HW223946   2.878   0.104   3.632 -1.0548 -2.3957  2.4025
 4105SOL     OW23947   2.150   3.884   4.598  0.5386  0.3127 -0.0178
 4105SOL    HW123948   2.074   3.923   4.640 -0.2642 -0.6160 -0.5991
 4105SOL    HW223949   2.112   3.819   4.538  0.3026  1.0145 -0.6369
 4106SOL     OW23950   1.547   1.801   2.793  0.4459  0.0369 -0.5111
 4106SOL    HW123951   1.556   1.750   2.874 -2.2556  0.3626 -0.0192
 4106SOL    HW223952   1.454   1.796   2.773 -0.5234  0.2125  3.8518
 4107SOL     OW23953   4.548   2.813   7.970 -0.0853 -0.1274 -0.2575
 4107SOL    HW123954   4.534   2.731   7.923 -1.8487  0.5285 -0.8614
 4107SOL    HW223955   4.494   2.795   8.047  3.1437  0.3779  2.1347
 4108SOL     OW23956   0.479   3.053   5.783 -1.0753  0.0481  0.3316
 4108SOL    HW123957   0.462   3.084   5.694  0.4226 -0.8282 -0.2589
 4108SOL    HW223958   0.399   3.004   5.806 -0.2388 -0.3123  2.4902
 4109SOL     OW23959   2.818   0.770   5.715 -0.3573 -0.4756 -0.1349
 4109SOL    HW123960   2.743   0.713   5.734  0.9324 -1.4880  1.9372
 4109SOL    HW223961   2.872   0.749   5.791  3.2673  0.4249 -2.4534
 4110SOL     OW23962   0.453   1.261   6.258 -0.0830  0.1480  0.7129
 4110SOL    HW123963   0.533   1.296   6.217 -0.1276  1.0647  1.3900
 4110SOL    HW223964   0.451   1.318   6.335 -2.1203  2.9799 -1.4304
 4111SOL     OW23965   4.626   2.122   0.814  0.2169 -0.3341 -0.2235
 4111SOL    HW123966   4.652   2.184   0.746 -2.8256  1.9552  0.6784
 4111SOL    HW223967   4.668   2.040   0.788  1.7183  0.2874  0.2970
 4112SOL     OW23968   3.306   2.038   2.260 -0.1782 -0.3487  0.5969
 4112SOL    HW123969   3.363   1.969   2.293  1.2145 -0.3188 -1.7455
 4112SOL    HW223970   3.369   2.110   2.268  0.2728 -0.7052  0.1858
 4113SOL     OW23971   4.227   4.220   8.286  0.2237  0.4009  0.2437
 4113SOL    HW123972   4.165   4.198   8.355 -0.9029  1.8176 -0.3212
 4113SOL    HW223973   4.302   4.268   8.321  0.1305 -0.3358  1.4311
 4114SOL     OW23974   1.865   4.485  11.999  0.2886 -0.2370  0.0584
 4114SOL    HW123975   1.884   4.400  11.959  1.2004  0.2281 -0.5067
 4114SOL    HW223976   1.848   4.465  12.091 -0.1131 -1.3759 -0.2642
 4115SOL     OW23977   0.110   0.143  10.266 -0.3863  0.1459 -0.1271
 4115SOL    HW123978   0.024   0.175  10.240 -0.1296  1.4404  0.6545
 4115SOL    HW223979   0.159   0.147  10.184 -1.3436  1.4311 -0.6199
 4116SOL     OW23980   3.121   2.246   2.352  0.1077  0.5404  0.4198
 4116SOL    HW123981   3.175   2.189   2.298 -2.3384  1.3570 -2.8695
 4116SOL    HW223982   3.036   2.237   2.309 -0.8437  1.5477  2.0963
 4117SOL     OW23983   1.039   3.838   7.989  0.1496  0.6199 -0.6223
 4117SOL    HW123984   0.988   3.771   8.035  0.0858  0.1034 -1.4415
 4117SOL    HW223985   1.004   3.818   7.902  0.1931 -0.2043 -0.4579
 4118SOL     OW23986   1.945   3.420  14.298  0.2805 -0.2252  0.4265
 4118SOL    HW123987   1.983   3.462  14.221 -0.6728  1.0397  0.6427
 4118SOL    HW223988   1.995   3.338  14.302 -1.4339 -1.2618  0.6711
 4119SOL     OW23989   2.996   4.285  17.021 -0.6491  0.0934  0.0995
 4119SOL    HW123990   2.952   4.204  16.994  0.2393 -0.5851  0.6862
 4119SOL    HW223991   3.026   4.266  17.110 -0.5252 -0.8445 -0.1419
 4120SOL     OW23992   3.663   4.127   6.227 -0.0186  0.0695 -0.1831
 4120SOL    HW123993   3.596   4.059   6.229  0.1288 -0.0178  1.8939
 4120SOL    HW223994   3.729   4.097   6.289 -1.1042  2.2187  2.0226
 4121SOL     OW23995   3.771   2.843   4.094  0.2224 -0.7045 -0.3783
 4121SOL    HW123996   3.729   2.835   4.009  1.4112 -1.5965 -0.8853
 4121SOL    HW223997   3.796   2.752   4.112 -1.0846 -0.7934  0.9465
 4122SOL     OW23998   1.576   0.644   2.741 -0.4542  0.3474  0.1390
 4122SOL    HW123999   1.521   0.566   2.744 -1.2421  0.9449  1.2363
 4122SOL    HW224000   1.587   0.641   2.646 -0.2057 -0.5643  0.1950
 4123SOL     OW24001   4.484   2.533   4.406 -0.0426 -0.4224  0.1585
 4123SOL    HW124002   4.503   2.591   4.332 -0.4772  0.5008  0.7745
 4123SOL    HW224003   4.531   2.454   4.380 -0.4506  0.7719 -4.1803
 4124SOL     OW24004   2.525   0.114  14.293 -0.6112 -0.2045  0.2680
 4124SOL    HW124005   2.449   0.067  14.259  0.9838 -2.9869  0.5586
 4124SOL    HW224006   2.583   0.081  14.224 -0.5403  1.4590 -0.4695
 4125SOL     OW24007   1.401   3.653  13.869 -0.3923  0.1232  0.5704
 4125SOL    HW124008   1.311   3.649  13.901 -0.1946 -0.5429  1.0209
 4125SOL    HW224009   1.400   3.589  13.797  3.1257 -0.3704  0.9751
 4126SOL     OW24010   4.140   2.907  11.883 -0.5953  0.2432 -0.5920
 4126SOL    HW124011   4.169   2.955  11.806 -0.4958  3.3116  1.3386
 4126SOL    HW224012   4.161   2.966  11.955 -0.1873 -1.1841  0.4622
 4127SOL     OW24013   3.404   1.909   4.088  0.0143 -0.1604  0.6671
 4127SOL    HW124014   3.457   1.830   4.093  0.4934 -0.0050 -2.0483
 4127SOL    HW224015   3.345   1.884   4.160  1.1172  1.3785  2.0998
 4128SOL     OW24016   1.774   0.269   8.181 -0.4219 -0.0264  0.2910
 4128SOL    HW124017   1.748   0.277   8.089  1.3786  0.7598 -0.1304
 4128SOL    HW224018   1.753   0.177   8.195  0.6098 -0.2543  0.3331
 4129SOL     OW24019   2.889   3.720  11.878 -0.3534  0.3880 -0.5319
 4129SOL    HW124020   2.930   3.644  11.838 -1.7954 -0.0114 -1.2439
 4129SOL    HW224021   2.965   3.776  11.859 -0.0785 -0.6147 -2.3923
 4130SOL     OW24022   2.099   2.450  13.951 -0.0816  0.2379  0.3721
 4130SOL    HW124023   2.171   2.413  14.003 -1.2643  0.3006  2.0312
 4130SOL    HW224024   2.034   2.460  14.020  0.0597 -1.6430  0.7810
 4131SOL     OW24025   1.170   4.460   5.241  0.0047 -0.3369  0.2711
 4131SOL    HW124026   1.120   4.471   5.322  0.0735  2.7117 -0.0963
 4131SOL    HW224027   1.209   4.548   5.241  3.5566 -1.9475  0.1407
 4132SOL     OW24028   3.686   3.569   4.676  0.4335  0.8119  0.0593
 4132SOL    HW124029   3.632   3.521   4.614  0.3721 -1.1601  1.6192
 4132SOL    HW224030   3.753   3.605   4.618  1.3316  0.0505  0.6247
 4133SOL     OW24031   2.660   3.318   4.428 -0.6119 -0.7051 -0.3458
 4133SOL    HW124032   2.742   3.283   4.393 -1.7367 -1.5791 -2.1200
 4133SOL    HW224033   2.645   3.249   4.493  4.4471 -1.1255  0.3708
 4134SOL     OW24034   4.437   4.475   3.169  0.3230 -0.1623 -0.4956
 4134SOL    HW124035   4.474   4.555   3.207  0.6943 -0.3342 -0.4925
 4134SOL    HW224036   4.489   4.468   3.089 -0.1750  0.7804 -0.8978
 4135SOL     OW24037   2.306   0.914   4.540 -0.0134  0.1265 -0.4213
 4135SOL    HW124038   2.282   0.978   4.606  2.3908 -1.2343  1.7985
 4135SOL    HW224039   2.380   0.962   4.502  0.5204  0.5022  1.0935
 4136SOL     OW24040   1.122   3.722   2.813 -0.3261  0.0851 -0.1290
 4136SOL    HW124041   1.147   3.752   2.901 -1.0091  1.1267 -0.2820
 4136SOL    HW224042   1.207   3.734   2.771 -1.1649 -0.4121 -1.9689
 4137SOL     OW24043   3.485   0.981  15.349  0.3543  0.2337  0.1578
 4137SOL    HW124044   3.486   0.888  15.328  2.2895 -0.0443  1.4701
 4137SOL    HW224045   3.513   0.999  15.439  2.0879 -1.3483 -0.0737
 4138SOL     OW24046   4.407   2.085  15.385  0.1474 -0.4519  0.1787
 4138SOL    HW124047   4.365   2.078  15.300 -0.5998 -1.2281  0.6115
 4138SOL    HW224048   4.445   2.172  15.374  1.3130 -1.3563 -2.9615
 4139SOL     OW24049   2.378   1.709   6.905 -0.4356 -0.1937  0.6501
 4139SOL    HW124050   2.442   1.647   6.870  0.4155 -1.4868  4.5247
 4139SOL    HW224051   2.297   1.658   6.900  0.0083 -0.8539  0.2004
 4140SOL     OW24052   3.600   3.490   2.722 -0.7665  0.1974 -0.0750
 4140SOL    HW124053   3.661   3.437   2.772  0.1045  0.4988 -0.8073
 4140SOL    HW224054   3.533   3.422   2.707 -1.9242  1.1707  0.7060
 4141SOL     OW24055   1.227   3.480  12.080 -0.4626  0.6279  0.0307
 4141SOL    HW124056   1.190   3.432  12.006  1.7143  0.3060 -0.8390
 4141SOL    HW224057   1.305   3.510  12.035  0.8034 -1.4974  0.8033
 4142SOL     OW24058   2.535   0.246   3.430 -0.2199  0.1631  0.0356
 4142SOL    HW124059   2.444   0.275   3.435  0.1030  1.3975 -1.1885
 4142SOL    HW224060   2.535   0.187   3.354  0.0425 -0.4869  0.5406
 4143SOL     OW24061   1.382   4.523  16.183 -0.8265  0.2070  0.5660
 4143SOL    HW124062   1.408   4.432  16.166 -0.1750  0.8888 -2.0892
 4143SOL    HW224063   1.459   4.558  16.227 -0.3744 -0.0743 -0.0143
 4144SOL     OW24064   1.542   0.601  16.165  0.0108  0.1838 -0.2655
 4144SOL    HW124065   1.624   0.552  16.155  0.7872  0.7924  3.0321
 4144SOL    HW224066   1.562   0.666  16.232  0.3689 -1.2436  1.0031
 4145SOL     OW24067   1.477   0.657   5.126  0.0509  0.1175 -1.2102
 4145SOL    HW124068   1.483   0.659   5.031  0.1270  3.0727 -1.1625
 4145SOL    HW224069   1.513   0.744   5.142 -2.3990  0.5259  2.1367
 4146SOL     OW24070   3.690   1.500   5.476 -0.1468 -0.1583  0.4545
 4146SOL    HW124071   3.757   1.507   5.408 -0.5738  0.8051  0.1286
 4146SOL    HW224072   3.629   1.569   5.450  1.3838  1.9284  2.4006
 4147SOL     OW24073   2.990   3.785   8.073  0.4299  0.3069 -0.3933
 4147SOL    HW124074   2.914   3.843   8.071  2.2531  2.7528  0.7973
 4147SOL    HW224075   3.044   3.830   8.138 -0.0572  1.3170 -0.6836
 4148SOL     OW24076   0.308   4.218   0.726  0.0052  0.3968 -0.2392
 4148SOL    HW124077   0.225   4.172   0.712  0.3228 -0.1043 -0.5042
 4148SOL    HW224078   0.344   4.225   0.638  0.2776  0.0376 -0.1609
 4149SOL     OW24079   4.482   2.669   6.298 -0.1152 -0.0347  0.1969
 4149SOL    HW124080   4.514   2.663   6.208 -1.1646 -1.1682 -0.0822
 4149SOL    HW224081   4.406   2.613   6.289 -0.5723  0.7186 -0.6854
 4150SOL     OW24082   3.006   3.022  12.508 -0.6090 -0.2085 -0.1153
 4150SOL    HW124083   3.067   3.006  12.580 -1.9820  2.3554  1.6313
 4150SOL    HW224084   3.012   3.117  12.510 -0.6693 -0.1577 -2.8674
 4151SOL     OW24085   3.881   2.270   8.327 -0.1957  0.0729 -0.0637
 4151SOL    HW124086   3.872   2.196   8.267  0.5750  1.4186 -1.8226
 4151SOL    HW224087   3.972   2.262   8.356  0.4472 -1.7740 -2.5480
 4152SOL     OW24088   2.737   2.087   6.809  0.0509 -0.3661 -0.3106
 4152SOL    HW124089   2.825   2.058   6.785  1.3465  2.1332  1.3556
 4152SOL    HW224090   2.709   2.127   6.726  0.4367  0.2084 -0.1668
 4153SOL     OW24091   0.919   3.398   2.296 -0.1932  0.2514 -0.0585
 4153SOL    HW124092   0.873   3.476   2.327 -1.5575  0.9679 -3.9367
 4153SOL    HW224093   0.931   3.428   2.206 -1.2772 -3.6549 -1.5196
 4154SOL     OW24094   1.020   4.705   6.481  0.3995  0.1191 -0.4755
 4154SOL    HW124095   1.088   4.639   6.465  1.6006  0.9108  1.2794
 4154SOL    HW224096   0.950   4.655   6.522  0.1602  1.1078  0.3256
 4155SOL     OW24097   1.416   1.010  13.056  0.0316 -0.1725  0.0072
 4155SOL    HW124098   1.454   0.921  13.058  0.1666 -0.0539  2.8906
 4155SOL    HW224099   1.486   1.058  13.100  3.2114 -1.7685 -3.2186
 4156SOL     OW24100   3.347   3.762   2.492 -0.5880 -0.4885  0.3986
 4156SOL    HW124101   3.276   3.716   2.446 -0.3556 -1.3899  0.9489
 4156SOL    HW224102   3.412   3.692   2.500 -1.4061 -1.3165 -0.1251
 4157SOL     OW24103   3.512   2.470   1.717  0.0623 -0.1642 -0.5653
 4157SOL    HW124104   3.465   2.442   1.797 -0.7894  0.9826 -0.6683
 4157SOL    HW224105   3.509   2.383   1.676  2.1600  0.2466 -1.5537
 4158SOL     OW24106   4.499   3.746   3.229  0.0962  0.3941 -0.2533
 4158SOL    HW124107   4.576   3.800   3.246  0.7953 -1.6173  3.0770
 4158SOL    HW224108   4.529   3.656   3.239  0.4627  0.3974 -1.3858
 4159SOL     OW24109   3.572   2.121  15.025  0.6869  0.2584  0.3799
 4159SOL    HW124110   3.484   2.121  14.988 -0.1272 -1.8493  2.3648
 4159SOL    HW224111   3.583   2.037  15.069 -0.2400 -1.3686 -2.5728
 4160SOL     OW24112   4.209   1.710  16.377 -0.3365  0.1725  0.8718
 4160SOL    HW124113   4.173   1.622  16.376 -1.6074  0.6964 -0.9182
 4160SOL    HW224114   4.135   1.768  16.356 -2.1925 -2.6096 -0.2525
 4161SOL     OW24115   1.859   0.350  10.678  0.2065  0.5080  0.1416
 4161SOL    HW124116   1.891   0.312  10.597 -0.1532 -0.6461  0.5452
 4161SOL    HW224117   1.776   0.304  10.687  0.4968  0.0398  0.4057
 4162SOL     OW24118   4.568   4.642   0.335  0.2425  0.0517 -0.1016
 4162SOL    HW124119   4.620   4.577   0.382 -1.1529 -0.7335  0.3398
 4162SOL    HW224120   4.596   4.716   0.389  0.8943  0.9028 -1.6027
 4163SOL     OW24121   2.891   2.797   3.659 -0.4379  0.4145  0.2584
 4163SOL    HW124122   2.965   2.832   3.609 -0.7035  1.0521  0.3106
 4163SOL    HW224123   2.854   2.747   3.586 -1.7128 -0.4019  1.4898
 4164SOL     OW24124   1.998   1.162   5.397 -0.1871  0.5040 -0.0159
 4164SOL    HW124125   1.989   1.202   5.483 -0.5445  1.0263 -0.2923
 4164SOL    HW224126   1.944   1.226   5.350 -0.4677  0.0543 -0.3060
 4165SOL     OW24127   0.628   3.984   7.002 -0.1721 -0.5485 -0.7632
 4165SOL    HW124128   0.670   3.900   7.025 -0.0809 -0.9173 -2.2162
 4165SOL    HW224129   0.566   4.006   7.071 -2.3442 -0.5298 -2.7505
 4166SOL     OW24130   2.629   0.591   2.543 -0.4804 -0.8634 -0.2249
 4166SOL    HW124131   2.546   0.585   2.589 -1.4664 -0.7428 -1.9789
 4166SOL    HW224132   2.619   0.515   2.486  2.0865 -0.8790 -0.6753
 4167SOL     OW24133   0.582   2.438   5.762 -0.2101 -0.1601  1.2464
 4167SOL    HW124134   0.548   2.526   5.779 -0.5581 -0.2417  0.9750
 4167SOL    HW224135   0.675   2.452   5.775 -0.2581 -0.8866  2.3998
 4168SOL     OW24136   3.041   0.170  15.721  0.6149 -0.0091 -0.0854
 4168SOL    HW124137   3.021   0.118  15.799 -1.4952 -1.6573 -1.7121
 4168SOL    HW224138   2.991   0.251  15.725  0.7936  0.0719  0.5275
 4169SOL     OW24139   4.101   1.480   9.231 -0.0918  0.5864 -0.4495
 4169SOL    HW124140   4.175   1.468   9.172  1.3221 -0.1989  1.4832
 4169SOL    HW224141   4.049   1.555   9.202 -1.1491 -0.5106 -1.4010
 4170SOL     OW24142   2.761   3.242   7.296  0.0013  0.4912 -0.4503
 4170SOL    HW124143   2.705   3.313   7.264  1.0964  1.4268 -0.3147
 4170SOL    HW224144   2.832   3.293   7.336 -0.4703  3.3203 -3.1849
 4171SOL     OW24145   3.974   1.258   5.448 -0.5639  0.3514 -0.1748
 4171SOL    HW124146   3.894   1.243   5.499 -1.2557  0.6598 -1.1907
 4171SOL    HW224147   3.961   1.199   5.374  1.1389  0.9054 -0.8936
 4172SOL     OW24148   1.648   3.331  13.986 -0.3998 -0.2118  0.0205
 4172SOL    HW124149   1.652   3.347  14.080  0.9679  0.4354 -0.1533
 4172SOL    HW224150   1.720   3.389  13.961 -1.6696  1.1276 -0.5260
 4173SOL     OW24151   2.999   3.931   3.267 -0.2746 -0.3580 -0.0924
 4173SOL    HW124152   3.043   3.846   3.267 -0.7691 -0.6224 -0.9248
 4173SOL    HW224153   2.957   3.918   3.351 -1.6439  1.4265 -0.5098
 4174SOL     OW24154   0.081   2.420   6.479 -0.0264  0.5185 -0.1598
 4174SOL    HW124155   0.094   2.344   6.423 -1.1502 -1.3343  2.1096
 4174SOL    HW224156   0.163   2.429   6.528 -0.7842  0.0781  1.1757
 4175SOL     OW24157   0.664   0.227   5.708  0.1380 -0.1469  0.0558
 4175SOL    HW124158   0.639   0.139   5.680 -1.9408  0.9641 -1.5929
 4175SOL    HW224159   0.751   0.210   5.745  0.0610  0.3980  0.4823
 4176SOL     OW24160   0.031   4.619   7.901  0.3830 -0.3563  0.4363
 4176SOL    HW124161   0.115   4.666   7.904 -1.2460  2.6249 -0.8640
 4176SOL    HW224162   0.018   4.599   7.994 -0.9364  0.7279  0.4888
 4177SOL     OW24163   3.364   3.713  11.484 -0.8650  0.0890  0.2226
 4177SOL    HW124164   3.441   3.752  11.526 -1.1118 -0.2575  1.0032
 4177SOL    HW224165   3.343   3.788  11.428  0.2573 -0.4949 -0.9939
 4178SOL     OW24166   0.044   1.983  15.811  0.0663  0.2516 -0.5473
 4178SOL    HW124167   0.029   2.070  15.772 -2.8192  1.0445  2.3228
 4178SOL    HW224168   0.000   2.004  15.893  1.4980  0.1823  0.2234
 4179SOL     OW24169   0.421   0.793   2.248 -0.5433 -0.6598  0.7024
 4179SOL    HW124170   0.463   0.831   2.171 -0.5792  1.6190  1.7983
 4179SOL    HW224171   0.394   0.711   2.206  1.2449 -1.2700  0.7865
 4180SOL     OW24172   1.881   1.049   2.252  0.0032 -0.2696  0.2165
 4180SOL    HW124173   1.923   0.997   2.320 -0.4463 -1.3074 -0.2903
 4180SOL    HW224174   1.904   1.002   2.171 -3.4607 -0.2723 -0.7633
 4181SOL     OW24175   3.122   1.876   9.957  0.3804  0.6604  0.1108
 4181SOL    HW124176   3.079   1.951   9.915  0.8024  0.6800 -0.2874
 4181SOL    HW224177   3.214   1.878   9.929  0.1560  0.9869 -0.5897
 4182SOL     OW24178   1.016   3.917  14.934 -0.4046  0.7819  0.1942
 4182SOL    HW124179   0.921   3.929  14.926 -0.1927  2.2576 -0.0394
 4182SOL    HW224180   1.014   3.838  14.988  1.7298 -0.1554 -1.1304
 4183SOL     OW24181   4.251   4.505   9.961 -0.5346  0.0691 -0.0890
 4183SOL    HW124182   4.183   4.449   9.923  1.4821 -1.8070 -0.9052
 4183SOL    HW224183   4.202   4.588   9.965 -0.5630 -0.1033  3.3599
 4184SOL     OW24184   2.559   4.383   2.291 -0.1706  0.0596  0.6175
 4184SOL    HW124185   2.466   4.384   2.315 -0.2789  1.1266  0.1883
 4184SOL    HW224186   2.567   4.445   2.218 -2.2133  0.6980  0.9341
 4185SOL     OW24187   0.779   3.320  14.747 -0.5032 -0.1220  0.2191
 4185SOL    HW124188   0.734   3.383  14.690 -1.8172  0.9000  2.3765
 4185SOL    HW224189   0.867   3.294  14.719  0.2601  0.2448  2.2756
 4186SOL     OW24190   4.620   3.160   6.020  0.0241  0.1774  0.0536
 4186SOL    HW124191   4.661   3.205   5.947  0.8518 -2.1621 -0.9195
 4186SOL    HW224192   4.688   3.116   6.071 -2.3098  1.0845  3.9446
 4187SOL     OW24193   3.547   2.736   0.126 -0.0723 -0.6617  0.9018
 4187SOL    HW124194   3.619   2.682   0.092  0.1838 -0.4408  1.0946
 4187SOL    HW224195   3.593   2.819   0.135  0.1984 -0.6103 -0.9461
 4188SOL     OW24196   0.411   0.631   3.886 -0.4679 -0.7380  0.3020
 4188SOL    HW124197   0.439   0.616   3.976  0.9011 -2.4938 -0.4147
 4188SOL    HW224198   0.462   0.710   3.867 -0.1018 -0.6875  1.5519
 4189SOL     OW24199   1.170   0.614  15.810  0.2245  0.4822  0.6212
 4189SOL    HW124200   1.210   0.697  15.835  1.8247  0.3846 -1.6260
 4189SOL    HW224201   1.238   0.564  15.855 -0.3596 -1.8219 -1.0853
 4190SOL     OW24202   3.202   3.803  14.397  0.4052  0.1709  0.0405
 4190SOL    HW124203   3.128   3.842  14.444  0.7735  1.1616 -0.1878
 4190SOL    HW224204   3.192   3.838  14.308 -1.0203 -2.3117 -0.7698
 4191SOL     OW24205   1.347   3.087   2.747  0.2443  0.5290 -0.2096
 4191SOL    HW124206   1.299   3.043   2.677 -1.3568 -0.2673  1.3957
 4191SOL    HW224207   1.396   3.153   2.698  1.4162 -1.2737 -1.4275
 4192SOL     OW24208   0.058   3.951   4.337  0.0058 -0.6893 -0.4573
 4192SOL    HW124209   0.081   3.884   4.401  0.2215  1.7289  1.9987
 4192SOL    HW224210   4.698   3.962   4.341  0.1898  0.7715 -0.0943
 4193SOL     OW24211   1.800   2.688   7.571 -0.1068  0.1374  0.0571
 4193SOL    HW124212   1.791   2.714   7.480 -0.5192 -0.1391  0.0206
 4193SOL    HW224213   1.829   2.773   7.604  0.0596  0.3406 -0.6040
 4194SOL     OW24214   1.224   1.091   5.078  0.5019  0.2497  0.2905
 4194SOL    HW124215   1.169   1.041   5.018  0.2378 -0.3745  1.0515
 4194SOL    HW224216   1.310   1.088   5.035  1.0596  1.1793  1.3130
 4195SOL     OW24217   3.288   2.163  15.622  0.1919  0.5771  0.1074
 4195SOL    HW124218   3.327   2.169  15.709  3.6681 -0.2390 -1.3683
 4195SOL    HW224219   3.238   2.082  15.636 -0.9821  1.4776  1.0843
 4196SOL     OW24220   0.116   2.633   4.907  0.3984 -0.6115  0.2633
 4196SOL    HW124221   0.164   2.573   4.850  1.9996  0.1153  0.8445
 4196SOL    HW224222   0.108   2.709   4.849 -1.4253 -0.8672  0.1948
 4197SOL     OW24223   4.077   3.227   2.931  0.0582 -0.0431 -0.0575
 4197SOL    HW124224   4.088   3.209   2.838 -0.6469 -0.0370 -0.1381
 4197SOL    HW224225   4.094   3.321   2.928  1.2223 -0.2037  1.3474
 4198SOL     OW24226   0.890   0.879   3.491  0.1561  0.0210  0.2351
 4198SOL    HW124227   0.838   0.800   3.495 -0.7808  0.5895 -0.7740
 4198SOL    HW224228   0.845   0.928   3.423  0.7159  0.7790  0.4028
 4199SOL     OW24229   3.857   0.698   7.782  0.0022 -0.1368 -0.4828
 4199SOL    HW124230   3.786   0.762   7.791 -0.1855 -0.2741 -1.0029
 4199SOL    HW224231   3.935   0.754   7.780  1.1566 -1.7769 -1.9291
 4200SOL     OW24232   3.427   1.722  13.227 -0.1228  0.6074 -0.6285
 4200SOL    HW124233   3.470   1.802  13.197  0.7123  0.4195  0.0353
 4200SOL    HW224234   3.498   1.657  13.226  0.4956  1.2542  1.6136
 4201SOL     OW24235   2.372   1.684   7.351 -0.2376 -0.3332  0.0606
 4201SOL    HW124236   2.376   1.595   7.316  0.2208 -0.4067  0.3011
 4201SOL    HW224237   2.281   1.704   7.328  0.1113 -0.6998 -1.6484
 4202SOL     OW24238   1.200   4.392   5.808 -0.3318 -0.0577  0.2664
 4202SOL    HW124239   1.187   4.411   5.901 -1.6060  1.8664 -0.3072
 4202SOL    HW224240   1.112   4.372   5.774 -1.6983 -0.8049  4.2411
 4203SOL     OW24241   2.759   0.929  15.167 -0.3327 -0.8516 -0.2813
 4203SOL    HW124242   2.727   0.858  15.222 -0.5338 -0.9313 -0.5008
 4203SOL    HW224243   2.706   1.005  15.188  0.3006 -0.8310  1.2501
 4204SOL     OW24244   3.693   3.592   3.195 -0.3867  0.2052  0.2382
 4204SOL    HW124245   3.659   3.552   3.114 -0.8215 -1.5538  1.2867
 4204SOL    HW224246   3.622   3.655   3.208 -2.0695 -0.8477 -3.6741
 4205SOL     OW24247   3.271   3.239  10.722 -0.2953 -0.0554  0.4274
 4205SOL    HW124248   3.310   3.324  10.700  0.5572 -1.0439 -1.8931
 4205SOL    HW224249   3.309   3.186  10.652 -1.3456  0.1038 -0.2558
 4206SOL     OW24250   4.288   4.379   1.820 -0.6649  0.0204 -0.1735
 4206SOL    HW124251   4.362   4.439   1.809 -1.8624  1.1855 -1.8480
 4206SOL    HW224252   4.314   4.323   1.894  0.0424  1.4532  0.6649
 4207SOL     OW24253   1.283   0.931   9.442 -0.0890 -0.3856  0.0984
 4207SOL    HW124254   1.378   0.927   9.452 -0.2069 -0.2812  1.2115
 4207SOL    HW224255   1.258   0.972   9.359  1.0333 -1.1435 -0.6093
 4208SOL     OW24256   0.530   3.624   3.249  0.3231 -0.1989 -0.2914
 4208SOL    HW124257   0.623   3.622   3.225  0.4356 -1.0594  0.2386
 4208SOL    HW224258   0.495   3.650   3.163  0.0682 -0.0755 -0.1481
 4209SOL     OW24259   4.146   3.460  15.662  0.1959 -0.4933 -0.0563
 4209SOL    HW124260   4.159   3.368  15.639  0.8674 -0.5218  0.4324
 4209SOL    HW224261   4.128   3.502  15.578 -1.1772  1.1495  1.0788
 4210SOL     OW24262   4.636   2.045  17.347 -0.0106 -0.3395 -0.1718
 4210SOL    HW124263   4.713   2.074  17.298 -0.2877 -1.3967 -1.2325
 4210SOL    HW224264   4.584   2.001  17.280  0.9541 -0.8273 -0.6119
 4211SOL     OW24265   3.768   1.687   1.472 -0.1083 -0.1586  0.5210
 4211SOL    HW124266   3.808   1.708   1.556 -0.0306  0.7895  0.2431
 4211SOL    HW224267   3.851   1.688   1.424 -0.9312 -1.0831 -0.9170
 4212SOL     OW24268   0.451   1.098  15.433 -0.4434 -0.0663  0.4408
 4212SOL    HW124269   0.496   1.080  15.350  2.0845 -1.9445  2.2017
 4212SOL    HW224270   0.527   1.125  15.485  0.1294  0.2782 -0.5648
 4213SOL     OW24271   4.387   3.909   4.792  0.5178  0.0624 -0.0036
 4213SOL    HW124272   4.477   3.940   4.799  0.2622 -0.0654  3.9238
 4213SOL    HW224273   4.408   3.834   4.736  0.0481 -0.5146  0.5821
 4214SOL     OW24274   1.406   0.832  16.106 -0.0816  0.5477 -0.8362
 4214SOL    HW124275   1.447   0.747  16.119  0.1257  0.7704 -0.0099
 4214SOL    HW224276   1.468   0.883  16.158  0.1146  1.0594 -1.5657
 4215SOL     OW24277   1.810   2.068   3.595  0.0880  0.6366  0.2948
 4215SOL    HW124278   1.845   2.150   3.561  1.7286  0.7820  2.3228
 4215SOL    HW224279   1.781   2.093   3.683 -2.3841  0.9409 -0.5974
 4216SOL     OW24280   3.240   4.461   3.257 -0.4218  0.4538  0.5985
 4216SOL    HW124281   3.219   4.382   3.306  0.0802  0.2588  0.5061
 4216SOL    HW224282   3.322   4.438   3.214 -1.1321 -0.2808 -0.3582
 4217SOL     OW24283   3.173   1.720   5.143  0.3968 -0.3466  0.1736
 4217SOL    HW124284   3.150   1.733   5.235  0.8794  1.5911  0.0027
 4217SOL    HW224285   3.239   1.788   5.133 -0.0762 -0.3311 -3.0144
 4218SOL     OW24286   4.149   1.443  16.364 -0.0828 -0.1129 -0.0665
 4218SOL    HW124287   4.120   1.389  16.290 -0.2448  1.2681 -1.0281
 4218SOL    HW224288   4.242   1.422  16.362 -0.0095  0.2223 -0.3300
 4219SOL     OW24289   4.396   3.236   4.302  0.6627 -0.0630  0.0390
 4219SOL    HW124290   4.401   3.217   4.395 -1.8226 -0.9892 -0.0260
 4219SOL    HW224291   4.301   3.236   4.290  0.7378  2.2940 -0.4264
 4220SOL     OW24292   1.828   2.433   3.761 -0.4088  0.6213 -0.1177
 4220SOL    HW124293   1.815   2.338   3.756 -3.8668  1.0141  1.0999
 4220SOL    HW224294   1.789   2.446   3.847 -0.0572  0.2567  0.0939
 4221SOL     OW24295   2.659   3.302   7.667  0.0760 -0.4183  0.4062
 4221SOL    HW124296   2.602   3.322   7.593 -0.8653 -1.3055  0.8914
 4221SOL    HW224297   2.684   3.391   7.695  1.6115 -0.5301 -0.6276
 4222SOL     OW24298   0.165   1.416  11.980  0.1627 -0.0039 -0.6231
 4222SOL    HW124299   0.156   1.500  11.935  1.5200  0.0710 -0.7568
 4222SOL    HW224300   0.240   1.376  11.936  1.8230  1.8888  0.4805
 4223SOL     OW24301   4.074   0.576   9.243 -0.2023  0.4073 -0.4587
 4223SOL    HW124302   4.043   0.585   9.333  0.2777 -2.1638 -0.0427
 4223SOL    HW224303   4.119   0.660   9.232  2.0608 -0.7680 -0.2397
 4224SOL     OW24304   4.293   1.685  11.771  0.0082 -0.5644 -0.4361
 4224SOL    HW124305   4.260   1.772  11.793  1.2677  0.1132 -1.2035
 4224SOL    HW224306   4.359   1.713  11.707  0.9356 -1.2995  0.1991
 4225SOL     OW24307   0.402   1.345  11.879  0.3160  0.2441  0.0522
 4225SOL    HW124308   0.380   1.370  11.789 -0.2808 -1.4070 -0.2439
 4225SOL    HW224309   0.495   1.323  11.872  0.5657  1.3692 -0.1847
 4226SOL     OW24310   0.236   0.232   2.688  0.2257  0.4311  0.0560
 4226SOL    HW124311   0.330   0.247   2.698 -0.3054  2.2343  2.3616
 4226SOL    HW224312   0.224   0.194   2.775 -0.1764 -1.1703 -0.7032
 4227SOL     OW24313   3.092   1.929   6.110  0.0741 -0.2565 -0.1611
 4227SOL    HW124314   3.111   1.983   6.186  0.2523 -2.3539  1.2746
 4227SOL    HW224315   3.093   1.993   6.039  4.3646 -1.3255 -1.0799
 4228SOL     OW24316   3.898   4.542  16.289  0.1011  0.2222  0.0191
 4228SOL    HW124317   3.811   4.563  16.255  0.6373  2.3211 -0.0716
 4228SOL    HW224318   3.877   4.476  16.355 -0.1977 -1.2789 -1.6111
 4229SOL     OW24319   3.102   4.184   3.317 -0.3328 -0.2321  0.0986
 4229SOL    HW124320   3.196   4.192   3.336 -0.6327  2.3802  0.5330
 4229SOL    HW224321   3.084   4.096   3.284 -0.8106  1.0986 -3.2561
 4230SOL     OW24322   0.322   0.935   6.536 -0.1296  0.0594  0.3254
 4230SOL    HW124323   0.274   0.853   6.540  1.1542 -0.7431 -0.8828
 4230SOL    HW224324   0.294   0.953   6.445 -1.0173 -0.7839  0.4293
 4231SOL     OW24325   1.023   0.679   8.588 -0.4130  0.0165  0.0593
 4231SOL    HW124326   0.981   0.621   8.652  3.1020  0.4965  2.8100
 4231SOL    HW224327   1.024   0.765   8.630 -2.0735 -0.0206  0.2069
 4232SOL     OW24328   4.634   0.810  12.221  0.5997  0.4412 -0.5218
 4232SOL    HW124329   4.571   0.806  12.293  0.7897  1.0795 -0.3247
 4232SOL    HW224330   4.696   0.872  12.257  2.5983 -0.8664 -1.7389
 4233SOL     OW24331   1.672   1.455   6.170 -0.1356  0.1704 -0.2012
 4233SOL    HW124332   1.664   1.430   6.262 -0.7677 -0.7766 -0.5107
 4233SOL    HW224333   1.602   1.519   6.156 -0.8293 -0.2035  1.5451
 4234SOL     OW24334   3.800   4.173   9.830 -0.6266  0.5368  0.5210
 4234SOL    HW124335   3.810   4.205   9.920  1.2116  0.9301  0.1780
 4234SOL    HW224336   3.791   4.081   9.855 -0.4874  0.2651 -0.4286
 4235SOL     OW24337   2.271   2.787  15.796  0.9161 -0.4232 -0.3755
 4235SOL    HW124338   2.357   2.829  15.788  1.4476 -1.0652  2.1932
 4235SOL    HW224339   2.231   2.829  15.719 -0.5009 -0.9631  0.0618
 4236SOL     OW24340   0.891   1.401  10.526 -0.3181 -0.8277 -0.9440
 4236SOL    HW124341   0.799   1.418  10.507 -0.6699 -0.0461  1.4075
 4236SOL    HW224342   0.928   1.485  10.500  2.4379 -1.7622 -0.0409
 4237SOL     OW24343   4.103   2.518   7.273 -0.8925 -0.3556  0.0673
 4237SOL    HW124344   4.100   2.516   7.368  3.0754 -3.8906  0.1601
 4237SOL    HW224345   4.180   2.573   7.256  1.2016 -3.1312  0.5325
 4238SOL     OW24346   1.502   4.593  11.622  0.2140 -0.6092 -0.9394
 4238SOL    HW124347   1.439   4.536  11.577 -0.1558 -0.7030 -0.3117
 4238SOL    HW224348   1.444   4.647  11.676  0.7417 -0.2245 -0.7658
 4239SOL     OW24349   0.618   1.320  16.538 -0.5998 -0.3754  0.0818
 4239SOL    HW124350   0.586   1.233  16.565 -1.4937 -0.2065 -0.4170
 4239SOL    HW224351   0.539   1.371  16.553 -0.4910 -1.1788  3.2426
 4240SOL     OW24352   1.562   0.568   4.054  0.1827 -0.6650 -0.0560
 4240SOL    HW124353   1.606   0.636   4.003  1.0409 -0.6213  0.7348
 4240SOL    HW224354   1.517   0.515   3.989  1.0467  0.3996 -1.5027
 4241SOL     OW24355   1.359   0.800   4.065  0.0730  0.0878 -0.1999
 4241SOL    HW124356   1.419   0.778   3.994  0.1202  0.8602 -0.3982
 4241SOL    HW224357   1.371   0.894   4.074 -0.4015  0.0835  0.4491
 4242SOL     OW24358   3.227   1.797  17.297 -0.4479  0.2259  0.2915
 4242SOL    HW124359   3.227   1.881  17.251 -1.4523  0.3015  0.4182
 4242SOL    HW224360   3.275   1.740  17.238 -0.5516  0.8088 -0.3568
 4243SOL     OW24361   3.148   3.818   6.985  0.1736  0.0330 -0.2215
 4243SOL    HW124362   3.209   3.875   6.940 -0.4340  1.1168  0.3380
 4243SOL    HW224363   3.163   3.823   7.079  0.2782  0.7813 -0.2852
 4244SOL     OW24364   1.937   4.549  10.624 -0.4733  0.0364  0.0347
 4244SOL    HW124365   1.868   4.494  10.661 -0.0514 -0.6888 -0.2487
 4244SOL    HW224366   1.952   4.604  10.701  0.9479 -0.6288  0.2258
 4245SOL     OW24367   4.565   0.556   7.803 -0.4721 -0.7909  0.4267
 4245SOL    HW124368   4.556   0.588   7.892 -1.1702  3.0442 -1.0060
 4245SOL    HW224369   4.630   0.623   7.781 -2.0448  0.0197 -1.7644
 4246SOL     OW24370   3.565   4.655   4.670 -0.3472 -0.2081 -0.2693
 4246SOL    HW124371   3.573   4.562   4.649 -2.3479 -0.3316 -0.4505
 4246SOL    HW224372   3.652   4.679   4.702  0.1960 -1.1350 -1.0585
 4247SOL     OW24373   3.296   2.845   1.892  0.7684 -0.0227 -0.1773
 4247SOL    HW124374   3.296   2.870   1.985  1.7826  0.7354 -0.3749
 4247SOL    HW224375   3.375   2.894   1.868  1.4148 -1.4497 -0.9193
 4248SOL     OW24376   1.332   4.509   7.564  0.2865 -0.1895  0.0465
 4248SOL    HW124377   1.407   4.469   7.520  1.3396  0.0571  1.5949
 4248SOL    HW224378   1.300   4.424   7.594 -1.1061 -0.0770 -1.1388
 4249SOL     OW24379   3.522   2.585  11.185 -0.3005 -0.2612 -0.4707
 4249SOL    HW124380   3.502   2.678  11.180  2.6094  0.3583 -0.4046
 4249SOL    HW224381   3.514   2.571  11.279 -0.9290  4.1298  0.1190
 4250SOL     OW24382   1.174   0.383   8.382  0.1353 -0.2502  0.5081
 4250SOL    HW124383   1.084   0.415   8.370 -0.7106 -1.3718  3.8737
 4250SOL    HW224384   1.229   0.452   8.347 -0.8721  0.0408 -0.5147
 4251SOL     OW24385   2.186   3.559   7.898  0.0269 -0.2967  0.2999
 4251SOL    HW124386   2.137   3.557   7.815  1.4691  0.1782 -0.5605
 4251SOL    HW224387   2.155   3.480   7.943  0.4247 -1.7599 -1.9961
 4252SOL     OW24388   0.495   4.127   7.326 -0.6033  0.3130  0.5248
 4252SOL    HW124389   0.551   4.194   7.287  0.2765 -0.9344 -0.3205
 4252SOL    HW224390   0.420   4.183   7.349  0.4875  2.3126 -0.8538
 4253SOL     OW24391   1.795   2.497   5.651 -0.0619 -0.4921  0.4111
 4253SOL    HW124392   1.792   2.439   5.727  1.5541 -1.8254 -0.5209
 4253SOL    HW224393   1.740   2.569   5.681  2.2230  0.7082  1.7696
 4254SOL     OW24394   4.160   2.290   8.397  0.0772 -0.1200  0.2893
 4254SOL    HW124395   4.211   2.250   8.467  0.2907 -0.8317 -0.2708
 4254SOL    HW224396   4.219   2.289   8.321  0.8626  0.5183  0.8936
 4255SOL     OW24397   4.732   4.540   3.751  0.7620 -0.1750 -0.2187
 4255SOL    HW124398   4.693   4.484   3.818  0.2164 -0.8503 -1.1075
 4255SOL    HW224399   4.656   4.585   3.714  1.1056  0.2268 -0.4358
 4256SOL     OW24400   3.963   2.610   2.384 -0.1038  0.1587 -0.3561
 4256SOL    HW124401   3.975   2.543   2.316 -1.3065 -1.2056  0.7565
 4256SOL    HW224402   3.939   2.564   2.464 -1.8870 -0.2523 -1.1273
 4257SOL     OW24403   3.697   2.341  17.211  0.1905 -0.1941 -0.0199
 4257SOL    HW124404   3.613   2.301  17.186 -0.4655  1.4430 -0.4262
 4257SOL    HW224405   3.750   2.262  17.226 -0.6932 -0.4652  1.7099
 4258SOL     OW24406   3.062   1.321   1.251 -0.3757 -0.3794  0.1751
 4258SOL    HW124407   3.051   1.402   1.201  0.1858 -0.4135  0.0030
 4258SOL    HW224408   2.986   1.333   1.308 -1.0072  2.5769 -1.3089
 4259SOL     OW24409   4.005   0.432   2.416 -0.2615 -0.4723 -0.3092
 4259SOL    HW124410   3.955   0.493   2.362 -0.3613 -0.6466 -0.4128
 4259SOL    HW224411   3.997   0.492   2.490  2.9232  0.4087 -0.7005
 4260SOL     OW24412   1.740   2.098   2.402  0.1274  0.1110 -0.0999
 4260SOL    HW124413   1.748   2.066   2.492  2.4639  0.7485 -0.0751
 4260SOL    HW224414   1.765   2.190   2.417  1.2605  0.2488 -2.8852
 4261SOL     OW24415   2.271   1.115   6.201  0.7447 -0.1254 -0.0347
 4261SOL    HW124416   2.255   1.042   6.262 -0.8617  0.5603  0.3657
 4261SOL    HW224417   2.216   1.178   6.246  0.6839 -1.5863  1.9492
 4262SOL     OW24418   0.433   0.803  15.520 -0.2890  0.4349  0.1065
 4262SOL    HW124419   0.412   0.871  15.456 -0.8698 -0.6617 -0.8757
 4262SOL    HW224420   0.345   0.767  15.528 -0.5954  1.3291  0.8551
 4263SOL     OW24421   2.727   3.887   7.318 -0.2672 -0.4339 -0.3887
 4263SOL    HW124422   2.703   3.980   7.315 -0.5628 -0.5368 -1.0831
 4263SOL    HW224423   2.643   3.846   7.298 -0.9408 -0.3958  2.2557
 4264SOL     OW24424   3.637   0.719   2.758 -0.0494 -0.2785  0.5889
 4264SOL    HW124425   3.641   0.711   2.853 -0.8792 -1.2206  0.5516
 4264SOL    HW224426   3.692   0.796   2.744 -1.6205  0.5714 -0.8890
 4265SOL     OW24427   4.084   4.116  15.543  0.5796 -0.3046 -0.2440
 4265SOL    HW124428   4.099   4.022  15.546  0.4886 -0.3206 -0.2935
 4265SOL    HW224429   4.149   4.146  15.606  0.2140  0.5581 -0.2788
 4266SOL     OW24430   1.636   2.586   7.920 -0.6504 -0.3807 -0.5243
 4266SOL    HW124431   1.586   2.593   8.001 -0.9648  1.9533 -0.9414
 4266SOL    HW224432   1.652   2.492   7.912 -3.3884 -0.7290 -2.1114
 4267SOL     OW24433   1.838   3.603  14.485 -0.0270  0.0016 -0.3727
 4267SOL    HW124434   1.843   3.540  14.557 -0.0261  0.2661 -0.1415
 4267SOL    HW224435   1.867   3.549  14.412  1.4650 -1.4126  1.2795
 4268SOL     OW24436   3.723   2.475   7.897  0.4994 -0.1764 -0.3962
 4268SOL    HW124437   3.686   2.546   7.950 -1.1840  1.1235 -3.3340
 4268SOL    HW224438   3.663   2.407   7.927  0.8063  0.4169  1.5890
 4269SOL     OW24439   2.511   2.127   7.648 -0.0383 -0.0654 -0.0452
 4269SOL    HW124440   2.447   2.092   7.587  0.1792  0.7882 -0.7741
 4269SOL    HW224441   2.501   2.065   7.720 -0.7792 -1.8330 -1.6693
 4270SOL     OW24442   3.739   2.240   5.099  0.4081  0.1164 -0.2508
 4270SOL    HW124443   3.748   2.167   5.160 -3.7424  0.2339  0.4563
 4270SOL    HW224444   3.648   2.263   5.118  0.5418 -0.0594  0.6145
 4271SOL     OW24445   3.012   3.507   5.453 -0.5172 -0.6837  0.5349
 4271SOL    HW124446   2.974   3.564   5.520 -2.2041 -1.1018 -0.0691
 4271SOL    HW224447   3.105   3.525   5.461 -0.6923  0.3336  0.2258
 4272SOL     OW24448   2.916   4.397  16.800  0.7135  0.2820  0.7616
 4272SOL    HW124449   3.008   4.391  16.777  0.3126  0.1824 -0.7946
 4272SOL    HW224450   2.928   4.373  16.892  0.0519 -0.5433  0.6309
 4273SOL     OW24451   0.011   0.872   1.498  0.3653  0.1524 -0.4707
 4273SOL    HW124452   4.653   0.889   1.485  0.2331  0.4846  0.9640
 4273SOL    HW224453   0.049   0.919   1.423  0.6642  1.8643  0.7611
 4274SOL     OW24454   2.440   4.014   8.287 -0.6956  0.3610  0.0886
 4274SOL    HW124455   2.464   3.922   8.280 -1.8995  0.2479 -2.6348
 4274SOL    HW224456   2.429   4.010   8.382 -0.6327  0.5331  0.1019
 4275SOL     OW24457   1.064   1.706  10.841 -0.5091 -0.2659  0.0767
 4275SOL    HW124458   1.070   1.795  10.876  0.5660  0.1835 -1.2775
 4275SOL    HW224459   1.156   1.696  10.819 -0.3922 -0.2276  0.5541
 4276SOL     OW24460   2.023   2.301   0.279 -0.0332  0.1122  0.3354
 4276SOL    HW124461   1.949   2.356   0.251 -0.5707 -1.3297 -1.0862
 4276SOL    HW224462   2.097   2.333   0.227  0.4089 -1.7011 -0.1452
 4277SOL     OW24463   2.745   1.354   1.966 -0.3106  0.3784  0.8543
 4277SOL    HW124464   2.828   1.392   1.995  1.2244 -2.4223  0.1251
 4277SOL    HW224465   2.692   1.376   2.042 -0.7584 -0.6253  0.8365
 4278SOL     OW24466   1.414   0.559  16.638 -0.2569  0.6824 -0.6609
 4278SOL    HW124467   1.452   0.514  16.713 -1.1104  1.5738  0.3104
 4278SOL    HW224468   1.493   0.556  16.584  0.6001  0.9449  0.5723
 4279SOL     OW24469   0.325   2.697  11.473  0.5701 -0.1511  0.3984
 4279SOL    HW124470   0.273   2.693  11.553 -0.7834 -1.0326 -0.5121
 4279SOL    HW224471   0.418   2.693  11.496  1.2337  0.8724 -2.0944
 4280SOL     OW24472   2.324   3.760   8.211  0.5819  0.2109 -0.1162
 4280SOL    HW124473   2.369   3.712   8.281  0.5539 -1.5887 -1.3585
 4280SOL    HW224474   2.237   3.749   8.249  0.9923 -2.4282  0.0034
 4281SOL     OW24475   4.676   2.471   6.714  0.1984 -0.6350 -0.7142
 4281SOL    HW124476   4.701   2.387   6.751  0.9622 -0.3384 -0.5609
 4281SOL    HW224477   4.710   2.458   6.626 -1.7937  2.0410 -1.9106
 4282SOL     OW24478   0.991   3.238   6.616  0.2003 -0.6782 -0.2057
 4282SOL    HW124479   0.948   3.199   6.693 -1.2648  0.8656 -0.2584
 4282SOL    HW224480   0.936   3.198   6.549  0.3713 -2.8424  0.9186
 4283SOL     OW24481   4.588   1.356   2.046 -0.5258 -0.7048  0.3438
 4283SOL    HW124482   4.577   1.269   2.084 -1.7280 -0.4007  0.6912
 4283SOL    HW224483   4.681   1.358   2.025 -0.7370 -0.5513 -0.6044
 4284SOL     OW24484   3.523   1.646   8.244 -0.1266  0.1206 -0.1409
 4284SOL    HW124485   3.492   1.556   8.244  0.1017  0.0414 -1.2377
 4284SOL    HW224486   3.556   1.665   8.332  1.6876 -1.2922 -0.5254
 4285SOL     OW24487   2.652   3.543   4.915  0.1078 -0.2836  0.5017
 4285SOL    HW124488   2.613   3.515   4.998 -1.0264 -0.6254 -0.1406
 4285SOL    HW224489   2.635   3.637   4.909 -0.2795 -0.5433 -2.2195
 4286SOL     OW24490   4.368   2.674  14.540 -0.3441 -0.1112  0.1630
 4286SOL    HW124491   4.360   2.578  14.547  3.0792 -0.5291 -1.8486
 4286SOL    HW224492   4.300   2.688  14.473 -0.1329 -0.3827 -0.1080
 4287SOL     OW24493   1.537   1.713   5.061  0.7273  0.1418  0.3107
 4287SOL    HW124494   1.444   1.719   5.038  0.6531  0.7494  0.7708
 4287SOL    HW224495   1.552   1.807   5.069  0.7342  0.2527 -1.1227
 4288SOL     OW24496   1.610   3.614   2.969  0.4858 -0.3662  0.0050
 4288SOL    HW124497   1.524   3.572   2.972  0.2483  0.0608 -0.7874
 4288SOL    HW224498   1.642   3.604   3.059 -0.5423 -0.0223  0.4085
 4289SOL     OW24499   4.179   1.337  16.084  0.2949  0.3631 -0.9621
 4289SOL    HW124500   4.275   1.341  16.078  0.3677  1.7043  1.1178
 4289SOL    HW224501   4.170   1.261  16.026  0.5121  0.3930 -1.0380
 4290SOL     OW24502   2.002   3.502  15.861  0.4915 -0.2454  0.2943
 4290SOL    HW124503   1.984   3.456  15.779 -0.2520 -0.4036  0.5504
 4290SOL    HW224504   1.945   3.579  15.858  1.7933  0.5024 -4.3489
 4291SOL     OW24505   1.626   0.800   3.915  0.1117 -0.2819 -0.1913
 4291SOL    HW124506   1.668   0.798   3.829  0.5641 -0.5080  0.0362
 4291SOL    HW224507   1.667   0.884   3.938  1.0840 -0.6550 -0.5813
 4292SOL     OW24508   1.963   3.666   8.407  0.0547  0.2009  0.6060
 4292SOL    HW124509   1.984   3.751   8.367  0.0940 -0.9501 -1.7902
 4292SOL    HW224510   2.053   3.634   8.419  0.5953  1.2792 -0.5614
 4293SOL     OW24511   0.038   2.364  17.530  0.2095 -0.4102 -0.4196
 4293SOL    HW124512   0.096   2.338  17.459 -0.9883 -1.9587 -0.8398
 4293SOL    HW224513   4.703   2.403  17.479 -0.7019  0.6971  1.6861
 4294SOL     OW24514   2.372   4.156   5.156  0.2054  0.4175  0.3056
 4294SOL    HW124515   2.304   4.217   5.128  0.4055 -0.1081 -1.3349
 4294SOL    HW224516   2.397   4.196   5.239 -0.3182 -0.3525  0.8281
 4295SOL     OW24517   4.090   2.538   4.711 -0.2078  0.1356 -0.0369
 4295SOL    HW124518   4.157   2.555   4.645 -0.7611  2.6977  0.0742
 4295SOL    HW224519   4.077   2.443   4.709 -1.6728  0.3656 -1.4120
 4296SOL     OW24520   2.361   3.550   6.489  0.5912 -0.1940 -0.6475
 4296SOL    HW124521   2.386   3.517   6.576 -1.1089 -0.2791 -0.2007
 4296SOL    HW224522   2.432   3.511   6.438 -0.3234 -2.3819 -0.2372
 4297SOL     OW24523   1.599   1.422  14.961  0.7243 -0.1828  0.4795
 4297SOL    HW124524   1.665   1.463  14.905 -0.0508  0.3682 -0.0289
 4297SOL    HW224525   1.521   1.471  14.935  0.7174 -1.0259 -1.1289
 4298SOL     OW24526   1.045   1.388  15.869  0.1160  0.4787  0.3910
 4298SOL    HW124527   0.961   1.358  15.904  0.1681  0.3944  0.4437
 4298SOL    HW224528   1.025   1.471  15.825  0.9135  2.0337  2.9255
 4299SOL     OW24529   4.081   2.721   6.401 -0.9551 -0.4193  0.0479
 4299SOL    HW124530   4.162   2.708   6.350 -1.5292 -1.8892 -0.5136
 4299SOL    HW224531   4.037   2.643   6.365 -3.2658  0.8002  0.2863
 4300SOL     OW24532   1.267   3.972   3.966  0.0269 -0.3829 -0.5061
 4300SOL    HW124533   1.229   3.966   4.053  1.5870 -0.9397  0.1372
 4300SOL    HW224534   1.196   4.026   3.930 -0.8135 -0.0224  1.6650
 4301SOL     OW24535   4.703   3.473   2.595  0.2415 -0.3376 -0.0580
 4301SOL    HW124536   4.727   3.538   2.528  0.2982 -0.5642 -0.2560
 4301SOL    HW224537   0.043   3.417   2.612  1.5865  1.2579 -0.7155
 4302SOL     OW24538   1.091   2.087   6.768  0.0224 -0.4398  0.2819
 4302SOL    HW124539   1.081   1.992   6.775 -0.0453 -0.5588 -1.2524
 4302SOL    HW224540   1.128   2.102   6.854 -0.7451  1.8435  0.2033
 4303SOL     OW24541   3.450   2.520  15.094  0.4826 -0.1808 -0.5271
 4303SOL    HW124542   3.520   2.560  15.146 -1.1016  0.1429  1.3313
 4303SOL    HW224543   3.472   2.427  15.100  1.4845  0.2255  2.1406
 4304SOL     OW24544   1.304   0.937   7.407 -0.2938  0.0434  0.5907
 4304SOL    HW124545   1.217   0.966   7.434  0.3812 -0.4142  3.2340
 4304SOL    HW224546   1.346   0.913   7.489  1.5978  2.2831  0.2892
 4305SOL     OW24547   3.542   1.598   7.973 -1.1321  0.2317  0.0044
 4305SOL    HW124548   3.547   1.503   7.980  2.1341  0.3464 -1.0823
 4305SOL    HW224549   3.565   1.630   8.060 -2.3161  1.6552 -0.1941
 4306SOL     OW24550   4.621   1.349   5.443  0.1417 -0.2526  0.7518
 4306SOL    HW124551   4.676   1.426   5.461  1.8585 -1.5224  0.9545
 4306SOL    HW224552   4.689   1.287   5.417  0.2001  0.0448  0.1947
 4307SOL     OW24553   2.736   2.357  15.192 -0.0352 -0.0919  0.2504
 4307SOL    HW124554   2.676   2.431  15.180  0.2658 -0.0793 -1.1465
 4307SOL    HW224555   2.747   2.318  15.105  3.9870  0.7235  0.3906
 4308SOL     OW24556   2.359   1.366   8.564  0.3207 -0.0168  0.2058
 4308SOL    HW124557   2.274   1.345   8.524  0.7089  0.0478 -0.6510
 4308SOL    HW224558   2.388   1.428   8.497  0.4905 -2.1431 -1.6949
 4309SOL     OW24559   4.629   4.014   3.904 -0.5123  0.7145 -0.3404
 4309SOL    HW124560   4.551   4.013   3.959  0.1544 -0.4877  0.5915
 4309SOL    HW224561   4.693   4.048   3.966  1.7594 -1.0050 -1.7419
 4310SOL     OW24562   3.422   4.233  13.601 -0.0709  0.1117  0.3553
 4310SOL    HW124563   3.355   4.165  13.609 -0.4708  0.3155 -1.3947
 4310SOL    HW224564   3.495   4.193  13.554 -1.0672 -0.6676 -0.5454
 4311SOL     OW24565   3.325   1.925   9.365 -0.1027  0.2215 -0.4506
 4311SOL    HW124566   3.260   1.986   9.329  0.0436 -0.9274 -2.6934
 4311SOL    HW224567   3.414   1.955   9.347 -0.6815  1.4546 -1.2516
 4312SOL     OW24568   0.599   0.943   6.528  0.4933 -0.1444  0.2289
 4312SOL    HW124569   0.623   0.873   6.588 -1.8273 -2.1096 -1.1336
 4312SOL    HW224570   0.507   0.952   6.556  0.3484  1.0056 -0.6392
 4313SOL     OW24571   4.588   0.957   8.079 -0.1030  0.7393  0.1697
 4313SOL    HW124572   4.591   0.950   8.175 -2.1158  0.4105  0.2182
 4313SOL    HW224573   4.619   1.046   8.063  0.2104  1.1959  3.2105
 4314SOL     OW24574   3.759   0.344  14.903 -0.2518 -0.1776  0.0906
 4314SOL    HW124575   3.811   0.416  14.937  0.4692 -0.6010 -0.1287
 4314SOL    HW224576   3.732   0.305  14.986 -0.2600 -1.3943 -0.4845
 4315SOL     OW24577   3.746   2.484   8.206  0.1204 -0.4500  0.0713
 4315SOL    HW124578   3.794   2.418   8.257 -0.9009 -2.1143 -1.1336
 4315SOL    HW224579   3.681   2.506   8.272 -1.3018 -2.7895 -0.5708
 4316SOL     OW24580   3.668   3.912   5.571 -0.3555 -0.1295  0.3658
 4316SOL    HW124581   3.573   3.902   5.562 -0.2558 -1.3779  0.6187
 4316SOL    HW224582   3.677   3.991   5.519 -2.5616  1.3395  2.1981
 4317SOL     OW24583   3.257   2.881   1.598  0.0117  0.1906  0.4212
 4317SOL    HW124584   3.287   2.850   1.684 -0.6682 -0.3051  0.4773
 4317SOL    HW224585   3.236   2.970   1.628  0.0588  0.5860 -0.7527
 4318SOL     OW24586   1.601   2.128  15.870 -0.0154 -0.2651  0.0800
 4318SOL    HW124587   1.537   2.197  15.885  0.8362  0.2554  1.3513
 4318SOL    HW224588   1.569   2.067  15.804  2.7963 -1.8761  0.2049
 4319SOL     OW24589   2.883   2.294   5.424  0.3294 -0.4415 -0.6497
 4319SOL    HW124590   2.810   2.232   5.413 -1.5545  1.4330  1.3743
 4319SOL    HW224591   2.837   2.375   5.403  0.7791  0.0604  0.2790
 4320SOL     OW24592   3.156   2.235  14.003 -0.4295 -0.3721  0.1855
 4320SOL    HW124593   3.215   2.305  14.033  0.5872 -1.3556  0.4954
 4320SOL    HW224594   3.152   2.193  14.089  1.2734 -0.1144  0.3914
 4321SOL     OW24595   1.322   3.122  14.832 -0.3478 -0.2340  0.2384
 4321SOL    HW124596   1.407   3.081  14.847 -0.5899 -1.0786 -0.6350
 4321SOL    HW224597   1.267   3.046  14.811 -1.1301  0.8573 -1.6518
 4322SOL     OW24598   2.811   4.112   6.004 -0.0821  0.7196  0.0895
 4322SOL    HW124599   2.824   4.058   6.082 -3.1161  1.4858  1.1377
 4322SOL    HW224600   2.791   4.047   5.937 -0.4202 -0.3522  1.2332
 4323SOL     OW24601   1.414   3.088   3.673  0.2597 -0.3605 -0.0971
 4323SOL    HW124602   1.458   3.172   3.661  0.4691 -0.3051  1.0250
 4323SOL    HW224603   1.457   3.033   3.608  1.6496  0.9292 -0.2760
 4324SOL     OW24604   3.473   3.371   8.801 -0.2217  0.2125 -0.2003
 4324SOL    HW124605   3.566   3.394   8.800 -0.6644  2.0467  0.8023
 4324SOL    HW224606   3.453   3.367   8.707  1.2496 -3.6196 -0.3381
 4325SOL     OW24607   3.089   0.813  16.256  0.3128 -0.0460  0.0445
 4325SOL    HW124608   3.126   0.899  16.235  1.6395 -0.5980  0.1100
 4325SOL    HW224609   3.108   0.759  16.179 -0.0634 -2.8687  1.9457
 4326SOL     OW24610   1.628   3.899  16.864 -0.5213 -0.6960  0.3466
 4326SOL    HW124611   1.576   3.974  16.893  1.4152  0.6885  0.2692
 4326SOL    HW224612   1.680   3.953  16.804 -2.1344 -0.0664 -0.4669
 4327SOL     OW24613   4.108   2.871  15.377  0.1150 -0.2603  0.5663
 4327SOL    HW124614   4.107   2.965  15.394  2.2737 -0.0668 -0.3709
 4327SOL    HW224615   4.097   2.858  15.282  0.5251  0.1754  0.4592
 4328SOL     OW24616   3.761   2.387   7.624 -0.1246  0.1152 -0.1402
 4328SOL    HW124617   3.850   2.420   7.615 -0.0791 -0.1701 -0.7411
 4328SOL    HW224618   3.748   2.424   7.712  0.1815 -2.1334  0.8563
 4329SOL     OW24619   0.769   2.419  13.808  0.4892 -0.0605 -0.1558
 4329SOL    HW124620   0.689   2.384  13.770  1.1699 -1.4215 -0.3560
 4329SOL    HW224621   0.743   2.415  13.899 -0.8511  1.1108 -0.4955
 4330SOL     OW24622   3.388   1.355   6.261 -0.0555 -0.0809 -0.2165
 4330SOL    HW124623   3.392   1.294   6.335  0.2816 -1.8449 -1.6782
 4330SOL    HW224624   3.407   1.434   6.311 -0.0697 -0.7603  0.8827
 4331SOL     OW24625   4.439   3.022   2.332 -0.3563  0.5936 -0.6876
 4331SOL    HW124626   4.379   3.087   2.295 -1.3063  0.4549  0.5711
 4331SOL    HW224627   4.499   3.083   2.376 -0.9703  0.2516  0.6362
 4332SOL     OW24628   0.669   1.565   0.688 -0.6060 -0.0879 -0.5483
 4332SOL    HW124629   0.680   1.652   0.728  1.7390  0.1223 -1.6687
 4332SOL    HW224630   0.644   1.505   0.758  0.2054  0.4998  0.2568
 4333SOL     OW24631   0.621   2.589   7.661  0.0770  0.0337  0.0387
 4333SOL    HW124632   0.631   2.602   7.567  1.1062 -0.7508  0.0355
 4333SOL    HW224633   0.566   2.512   7.676  0.1600 -0.1073 -0.4061
 4334SOL     OW24634   0.427   0.133  11.091  0.2591  0.1166  0.1653
 4334SOL    HW124635   0.409   0.219  11.054 -1.7464  0.7887  2.6566
 4334SOL    HW224636   0.339   0.104  11.115  0.8533 -0.2825  1.8702
 4335SOL     OW24637   3.849   2.466   5.717  0.2780 -0.0576  0.2461
 4335SOL    HW124638   3.812   2.429   5.797 -2.9099  3.1379  0.2348
 4335SOL    HW224639   3.780   2.527   5.692  2.5821  1.2329 -2.9652
 4336SOL     OW24640   2.005   2.390  13.171 -0.6516  0.0547 -0.1988
 4336SOL    HW124641   1.957   2.389  13.254  0.2758  0.9696  0.3481
 4336SOL    HW224642   2.059   2.311  13.168  1.2774  1.4347 -1.5130
 4337SOL     OW24643   4.655   3.784  10.242  0.2112  0.2485  0.1628
 4337SOL    HW124644   4.674   3.732  10.320 -1.2051  0.1393  0.4492
 4337SOL    HW224645   4.572   3.822  10.271 -0.7504  1.1849 -3.7773
 4338SOL     OW24646   0.928   3.640  14.972  0.2370  0.4447 -0.6060
 4338SOL    HW124647   0.987   3.625  14.898  2.5514  0.0174  1.3207
 4338SOL    HW224648   0.922   3.557  15.019 -0.8144 -0.1994 -1.8724
 4339SOL     OW24649   4.057   2.225   2.661  0.1333 -0.5708 -0.5075
 4339SOL    HW124650   4.092   2.249   2.746  1.3288 -0.1722 -1.1061
 4339SOL    HW224651   4.121   2.171   2.616  2.2500  1.9233 -0.4925
 4340SOL     OW24652   0.824   3.061   2.260 -0.1007  0.1345  0.0694
 4340SOL    HW124653   0.740   3.097   2.289 -1.0060 -1.8045 -0.0967
 4340SOL    HW224654   0.827   3.078   2.166  2.1336 -0.4597  0.0398
 4341SOL     OW24655   3.003   2.941   5.980 -0.5012  0.2449  0.3420
 4341SOL    HW124656   2.927   2.976   5.934 -1.0248 -0.9095  0.3308
 4341SOL    HW224657   3.075   2.951   5.917  0.6228 -0.3679  1.5212
 4342SOL     OW24658   2.998   3.442   5.110 -0.6264  0.0735 -0.5409
 4342SOL    HW124659   2.995   3.515   5.049 -2.9499  0.1808 -0.2768
 4342SOL    HW224660   2.942   3.482   5.176  1.5533 -0.4924  1.6655
 4343SOL     OW24661   3.292   2.505   6.707 -0.3167  0.0118 -0.4222
 4343SOL    HW124662   3.208   2.542   6.681  1.1367  2.7806 -1.1842
 4343SOL    HW224663   3.301   2.557   6.786 -3.0740 -1.8863  1.1346
 4344SOL     OW24664   2.003   0.759   6.404 -0.2677  0.1835 -0.1934
 4344SOL    HW124665   1.908   0.776   6.403 -0.5758 -1.5210  0.1455
 4344SOL    HW224666   2.032   0.777   6.315  0.6878  2.3985  0.5807
 4345SOL     OW24667   0.774   2.689   4.618 -0.5428 -0.3053 -0.0073
 4345SOL    HW124668   0.820   2.670   4.700  1.2750  0.1965 -0.9105
 4345SOL    HW224669   0.832   2.653   4.551 -0.2666 -0.8585  0.5349
 4346SOL     OW24670   1.471   2.955   8.507 -0.3220 -0.8553 -0.0787
 4346SOL    HW124671   1.527   2.949   8.430 -0.6903  0.0630 -0.4093
 4346SOL    HW224672   1.492   3.043   8.538  0.4567 -0.0823 -2.8447
 4347SOL     OW24673   2.216   4.237  13.816  1.0512  0.0439 -1.0849
 4347SOL    HW124674   2.153   4.165  13.814  1.1523 -0.1208  0.9934
 4347SOL    HW224675   2.199   4.269  13.728  1.6560  0.9270 -0.8797
 4348SOL     OW24676   4.184   3.279  17.417  0.2042  0.0818  0.4544
 4348SOL    HW124677   4.201   3.195  17.460  2.1223 -0.3355 -1.1194
 4348SOL    HW224678   4.105   3.252  17.370  0.9488 -0.4102 -0.4981
 4349SOL     OW24679   1.901   2.630   6.943  0.0752  0.4206  0.1726
 4349SOL    HW124680   1.896   2.535   6.941  0.2302  0.4652 -1.9449
 4349SOL    HW224681   1.933   2.652   7.031 -0.5305  3.4569 -0.3459
 4350SOL     OW24682   0.325   1.435  14.858 -0.0246  0.7638 -0.1611
 4350SOL    HW124683   0.300   1.362  14.801  1.9749  1.0453 -1.4075
 4350SOL    HW224684   0.389   1.392  14.914  0.7327  0.1520 -1.4858
 4351SOL     OW24685   3.643   0.297  17.712  0.0791 -0.1543  0.0655
 4351SOL    HW124686   3.691   0.363   0.022  1.3987 -1.4634  0.5325
 4351SOL    HW224687   3.672   0.214   0.010 -5.2771 -0.9924  2.3104
 4352SOL     OW24688   4.252   3.145   2.713  0.4997 -0.2059  0.5951
 4352SOL    HW124689   4.230   3.207   2.643 -0.2058 -1.3693 -0.2196
 4352SOL    HW224690   4.268   3.064   2.665  2.9529  1.4400 -1.3312
 4353SOL     OW24691   3.805   2.628   1.430 -0.5636 -0.3971 -0.1720
 4353SOL    HW124692   3.861   2.583   1.494  0.9517  3.9218  1.5165
 4353SOL    HW224693   3.720   2.634   1.473 -1.0328 -0.2528 -1.1180
 4354SOL     OW24694   0.175   3.122   8.227 -0.1148 -0.4733 -0.0802
 4354SOL    HW124695   0.098   3.078   8.191 -0.0353 -1.3576  0.8134
 4354SOL    HW224696   0.239   3.061   8.189  1.0877  2.0933 -2.1911
 4355SOL     OW24697   2.884   3.909   6.221 -0.1833  0.2478  0.2128
 4355SOL    HW124698   2.968   3.918   6.266  0.5908  1.1823 -1.4213
 4355SOL    HW224699   2.912   3.876   6.136  0.8529 -2.0602  1.4360
 4356SOL     OW24700   1.555   3.642   9.498  0.6169  0.2513 -0.3135
 4356SOL    HW124701   1.497   3.653   9.422  0.6883 -0.5374 -0.4799
 4356SOL    HW224702   1.617   3.715   9.491 -2.2991  2.7470 -0.3953
 4357SOL     OW24703   3.246   4.181   3.863 -0.0575 -0.2244 -0.2872
 4357SOL    HW124704   3.283   4.112   3.918  0.8093  0.5411  0.0675
 4357SOL    HW224705   3.158   4.191   3.901  0.3813  1.3761  0.2930
 4358SOL     OW24706   3.948   1.734  17.482  0.3539  0.0256 -0.7611
 4358SOL    HW124707   3.897   1.816  17.488 -0.8664 -0.6908 -1.2890
 4358SOL    HW224708   3.937   1.690  17.566  0.0196  0.7942 -0.4003
 4359SOL     OW24709   2.936   4.578  16.580 -0.3624 -0.7093 -0.2364
 4359SOL    HW124710   2.912   4.538  16.664 -0.1343  0.3407  0.3215
 4359SOL    HW224711   2.859   4.632  16.565  1.4899  2.0701  0.3201
 4360SOL     OW24712   4.477   2.891  12.632  0.5774 -0.6151  0.7383
 4360SOL    HW124713   4.510   2.854  12.550 -1.2716  0.8040 -0.6363
 4360SOL    HW224714   4.399   2.941  12.608  1.6180  0.4070 -0.5606
 4361SOL     OW24715   0.537   3.589   6.557  0.3963  0.0316 -0.1663
 4361SOL    HW124716   0.543   3.683   6.536  0.7950  0.1677  0.5233
 4361SOL    HW224717   0.458   3.578   6.610 -0.9371  0.2228 -2.1291
 4362SOL     OW24718   4.043   3.187  16.204  0.2150  0.3026  0.2646
 4362SOL    HW124719   4.136   3.166  16.200  0.4580  2.0390 -3.0932
 4362SOL    HW224720   4.033   3.158  16.295 -1.7870  0.0742 -0.0147
 4363SOL     OW24721   2.100   3.806  14.266  0.1888  0.2875 -0.2877
 4363SOL    HW124722   2.023   3.800  14.322 -0.1900 -2.8800 -1.1523
 4363SOL    HW224723   2.132   3.716  14.258 -0.7888 -0.2168  1.4624
 4364SOL     OW24724   0.963   0.790  12.647  0.4477  0.6821 -0.7630
 4364SOL    HW124725   1.057   0.785  12.630  0.4119 -4.3168  0.4335
 4364SOL    HW224726   0.934   0.699  12.642  2.0198  0.2793 -2.7077
 4365SOL     OW24727   3.625   0.237   1.686 -0.1305  0.2206  0.1030
 4365SOL    HW124728   3.543   0.201   1.652  0.2019 -1.1849  0.8119
 4365SOL    HW224729   3.658   0.286   1.611 -1.2374  1.5163  0.4477
 4366SOL     OW24730   0.718   1.040   7.149 -0.7856  0.7676 -0.2741
 4366SOL    HW124731   0.721   0.966   7.087  3.2644  0.8967 -0.2287
 4366SOL    HW224732   0.624   1.061   7.142 -0.2047  2.9754 -1.3657
 4367SOL     OW24733   0.675   1.744   8.641 -0.3449  0.1006 -0.4989
 4367SOL    HW124734   0.668   1.733   8.547  1.0632 -0.0400 -0.5919
 4367SOL    HW224735   0.660   1.656   8.674  0.6260  0.5518  1.1740
 4368SOL     OW24736   1.790   2.833  13.950  0.7821 -0.1416  0.5825
 4368SOL    HW124737   1.835   2.860  14.030 -0.5314 -0.5177  1.4479
 4368SOL    HW224738   1.720   2.774  13.979  0.9493 -0.0852  1.0975
 4369SOL     OW24739   3.396   2.447  10.481 -0.4035 -0.3859 -0.1760
 4369SOL    HW124740   3.317   2.409  10.443 -0.0208 -1.1175 -0.2401
 4369SOL    HW224741   3.422   2.518  10.421  1.1175  1.5132  2.7430
 4370SOL     OW24742   2.530   0.230   8.982 -0.6559 -0.2837 -0.7140
 4370SOL    HW124743   2.625   0.236   8.991 -0.7232  0.3375 -0.4638
 4370SOL    HW224744   2.498   0.242   9.071  0.6924 -0.6045 -0.1925
 4371SOL     OW24745   4.493   3.947   7.053  0.6683  0.1040  0.0042
 4371SOL    HW124746   4.579   3.963   7.092  0.7988  0.8132 -0.5811
 4371SOL    HW224747   4.507   3.858   7.022 -0.7881  0.0779 -0.5681
 4372SOL     OW24748   1.016   1.540   6.833 -0.3693  0.6231 -0.2950
 4372SOL    HW124749   1.098   1.502   6.864  0.5054  2.5701 -0.2163
 4372SOL    HW224750   0.987   1.460   6.790  0.4692  0.8546 -1.2621
 4373SOL     OW24751   1.942   1.633   8.559 -0.4857 -0.1858 -0.1016
 4373SOL    HW124752   1.941   1.576   8.636 -1.4755  0.2504  0.2078
 4373SOL    HW224753   1.848   1.640   8.544 -0.7846 -0.5089  1.6152
 4374SOL     OW24754   4.389   1.231   9.392 -0.0013  0.1055 -0.9076
 4374SOL    HW124755   4.366   1.175   9.466  1.9351 -0.1692 -0.5348
 4374SOL    HW224756   4.454   1.287   9.435 -0.2601 -0.9683  0.8855
 4375SOL     OW24757   0.888   4.716   3.506 -0.2823 -0.1544  0.2087
 4375SOL    HW124758   0.958   0.003   3.567 -0.7300  3.2959 -0.5203
 4375SOL    HW224759   0.833   0.059   3.513  1.8408  1.4161 -0.6415
 4376SOL     OW24760   1.426   0.603   1.900  0.3061 -0.1088  0.5793
 4376SOL    HW124761   1.509   0.651   1.902 -0.8353  1.8202  2.0292
 4376SOL    HW224762   1.459   0.516   1.923  1.3577  1.1958  4.1529
 4377SOL     OW24763   4.535   0.551   3.239 -0.2454  0.3723  0.3212
 4377SOL    HW124764   4.521   0.646   3.227  3.3029  0.7911 -0.4026
 4377SOL    HW224765   4.498   0.542   3.327  0.6255 -0.6255  0.5836
 4378SOL     OW24766   3.507   2.802   8.249  0.4424 -0.0843 -0.5197
 4378SOL    HW124767   3.519   2.730   8.311  1.6583 -0.4055 -1.1294
 4378SOL    HW224768   3.546   2.872   8.302 -1.0274  0.5415 -0.2601
 4379SOL     OW24769   0.449   1.417   6.464 -0.4874  0.4090 -0.3261
 4379SOL    HW124770   0.537   1.394   6.495 -0.1037  0.6884 -1.2116
 4379SOL    HW224771   0.390   1.371   6.524  0.5624 -0.4600  0.0471
 4380SOL     OW24772   3.558   3.221  14.566  0.3164 -0.1994 -0.0564
 4380SOL    HW124773   3.549   3.306  14.610  0.7703 -0.4247  0.4599
 4380SOL    HW224774   3.651   3.200  14.556  0.6582  0.7519  1.0960
 4381SOL     OW24775   4.607   2.315   3.448 -0.4298  0.2207 -0.1632
 4381SOL    HW124776   4.574   2.241   3.397  0.4159  0.9655 -1.7966
 4381SOL    HW224777   4.695   2.290   3.476 -0.4106  1.0480  0.5154
 4382SOL     OW24778   2.843   1.664   2.207 -0.5821 -0.5490  1.0685
 4382SOL    HW124779   2.881   1.624   2.128 -1.0976  2.5158 -0.7563
 4382SOL    HW224780   2.751   1.649   2.185 -0.0342 -1.4651 -0.6266
 4383SOL     OW24781   3.212   2.043   8.681  0.7418 -0.1824  0.2698
 4383SOL    HW124782   3.273   2.117   8.684  0.5770 -0.1211  2.1920
 4383SOL    HW224783   3.256   1.966   8.716  2.8553  1.2536  0.7989
 4384SOL     OW24784   1.844   0.684   4.362 -0.2767 -0.5080  0.2888
 4384SOL    HW124785   1.748   0.686   4.360 -0.3050 -0.8224  1.4433
 4384SOL    HW224786   1.867   0.667   4.453 -0.5291  0.7140  0.5734
 4385SOL     OW24787   3.256   1.500   5.419 -0.1564  0.5895  0.3584
 4385SOL    HW124788   3.285   1.580   5.462 -0.4990 -0.6696  2.8917
 4385SOL    HW224789   3.167   1.526   5.393  0.2301 -1.1444 -2.6687
 4386SOL     OW24790   3.541   2.307   6.258  0.1512 -0.1828 -0.5534
 4386SOL    HW124791   3.562   2.307   6.351  1.2325  0.3931 -0.8002
 4386SOL    HW224792   3.504   2.395   6.248  0.2384 -0.1880 -0.9277
 4387SOL     OW24793   2.095   4.599   4.380 -0.4186 -0.1945  0.7864
 4387SOL    HW124794   2.144   4.583   4.461 -0.1353 -2.0711  0.2282
 4387SOL    HW224795   2.160   4.563   4.320  0.1038 -0.3455  1.4445
 4388SOL     OW24796   0.246   2.309   5.489  0.1157  0.3632  0.5214
 4388SOL    HW124797   0.154   2.330   5.470  0.3590  0.1898 -0.8235
 4388SOL    HW224798   0.271   2.300   5.397  2.2782 -2.0637  1.3618
 4389SOL     OW24799   0.387   3.581   2.354 -0.3022 -0.8076  0.0936
 4389SOL    HW124800   0.460   3.629   2.393 -0.6159  1.1820 -1.8231
 4389SOL    HW224801   0.408   3.576   2.261 -1.2505  1.7071 -0.2447
 4390SOL     OW24802   2.819   3.320  13.583 -1.4145 -0.5044 -0.1331
 4390SOL    HW124803   2.796   3.393  13.526  0.7084  0.7730  0.6376
 4390SOL    HW224804   2.751   3.261  13.551 -2.5820  0.8531 -0.1278
 4391SOL     OW24805   4.541   4.549   9.528 -0.1949  0.0171 -0.2787
 4391SOL    HW124806   4.510   4.485   9.593 -1.6675  1.5808  0.5502
 4391SOL    HW224807   4.601   4.497   9.475  1.0306 -0.2581  1.3803
 4392SOL     OW24808   1.892   1.696   2.841 -0.4208  0.5317 -0.0949
 4392SOL    HW124809   1.809   1.676   2.799 -0.1860 -1.5455  0.4028
 4392SOL    HW224810   1.909   1.610   2.881  2.5759  0.3679 -1.7311
 4393SOL     OW24811   2.144   1.204  11.032 -0.0959 -0.4052 -0.1175
 4393SOL    HW124812   2.130   1.120  10.989 -1.3132 -2.5213  4.3897
 4393SOL    HW224813   2.227   1.227  10.990 -0.3568  2.4106  0.9681
 4394SOL     OW24814   4.683   4.194   2.626 -0.2297  0.1905  0.5579
 4394SOL    HW124815   4.698   4.272   2.573 -1.3135  0.7188  1.0321
 4394SOL    HW224816   4.587   4.198   2.629 -0.2302  1.5792 -1.4220
 4395SOL     OW24817   4.223   3.635   4.161  0.0987 -0.3535 -0.0464
 4395SOL    HW124818   4.164   3.562   4.176  0.1349 -0.4839 -0.5543
 4395SOL    HW224819   4.163   3.690   4.111 -0.1230 -1.1127 -0.6042
 4396SOL     OW24820   1.309   3.785  16.255  0.1352 -0.0122 -0.6304
 4396SOL    HW124821   1.404   3.781  16.247  0.0622  1.1062 -2.0268
 4396SOL    HW224822   1.282   3.694  16.244 -0.0013  0.2849 -2.6671
 4397SOL     OW24823   0.325   4.429  10.210 -0.4497  0.1221  0.0328
 4397SOL    HW124824   0.377   4.350  10.223 -0.4149 -0.3686 -2.9867
 4397SOL    HW224825   0.310   4.460  10.299  0.6766 -0.1071  0.2985
 4398SOL     OW24826   3.338   2.199   4.641  0.4058 -0.1366  0.7137
 4398SOL    HW124827   3.279   2.242   4.703  1.3702  1.0370  0.8206
 4398SOL    HW224828   3.393   2.149   4.700 -0.2487 -1.9419 -0.2114
 4399SOL     OW24829   4.220   0.215  10.652 -0.0633  0.3236 -0.1776
 4399SOL    HW124830   4.217   0.245  10.561 -1.4058 -0.0548 -0.2606
 4399SOL    HW224831   4.151   0.265  10.695 -0.1453  0.2837 -0.2643
 4400SOL     OW24832   3.084   3.849   2.666  0.1045  0.1864  0.6477
 4400SOL    HW124833   3.158   3.794   2.639  1.9017  1.8556  2.1123
 4400SOL    HW224834   3.033   3.782   2.711  0.6456  1.1108  2.6653
 4401SOL     OW24835   2.526   2.573  14.752  0.2754 -0.2966 -0.2005
 4401SOL    HW124836   2.592   2.504  14.756 -1.2079 -1.6148  1.5209
 4401SOL    HW224837   2.579   2.627  14.692 -2.3423  2.0805 -0.3702
 4402SOL     OW24838   4.131   2.595   8.377 -0.6324  0.0753 -0.2800
 4402SOL    HW124839   4.179   2.594   8.294  0.1618  1.5042  0.1564
 4402SOL    HW224840   4.109   2.505   8.401  0.2826  0.2111  1.0702
 4403SOL     OW24841   0.068   3.857   8.356  0.1043 -0.3029 -0.1733
 4403SOL    HW124842   0.125   3.784   8.381 -0.6375  0.2317  3.0604
 4403SOL    HW224843   0.107   3.933   8.400 -0.9788  0.2094 -0.1199
 4404SOL     OW24844   1.503   1.841  15.451  0.5377  0.6114 -0.0640
 4404SOL    HW124845   1.592   1.875  15.441  0.7140  0.1910  0.0735
 4404SOL    HW224846   1.483   1.860  15.543  1.2594  1.1926 -0.0287
 4405SOL     OW24847   1.048   0.175   3.759 -0.3170  0.0440  0.7302
 4405SOL    HW124848   1.117   0.200   3.698  2.7646 -0.4060  4.0633
 4405SOL    HW224849   0.991   0.252   3.754  1.6891  1.4154 -0.8169
 4406SOL     OW24850   1.301   1.047   6.528  0.0758 -0.3499  0.0694
 4406SOL    HW124851   1.395   1.066   6.523  0.1776  0.0145  3.4671
 4406SOL    HW224852   1.305   0.996   6.610  0.3463  1.2246  1.0353
 4407SOL     OW24853   3.655   2.707   1.187 -0.3360 -0.2584  0.9212
 4407SOL    HW124854   3.572   2.740   1.221 -0.5864  0.3033 -0.2452
 4407SOL    HW224855   3.692   2.681   1.271  0.1003  1.7640  1.3658
 4408SOL     OW24856   3.985   0.696   7.457 -0.1326 -0.1150 -0.4818
 4408SOL    HW124857   3.972   0.786   7.488  1.4622  0.0611 -0.2869
 4408SOL    HW224858   4.071   0.695   7.414  1.1640 -1.0814  2.1621
 4409SOL     OW24859   4.118   4.353  16.212 -0.0092 -0.1866 -0.1538
 4409SOL    HW124860   4.173   4.403  16.272  1.0747 -1.0696 -0.4027
 4409SOL    HW224861   4.043   4.409  16.192  1.0441  0.8927 -1.1132
 4410SOL     OW24862   0.272   3.999   0.103  0.1862 -0.1762  0.6998
 4410SOL    HW124863   0.209   3.968   0.168 -0.4204  2.5234  1.4033
 4410SOL    HW224864   0.349   3.974   0.154  0.3582 -1.3352 -0.1366
 4411SOL     OW24865   0.267   4.112  15.547  0.0490  0.0629  0.1215
 4411SOL    HW124866   0.316   4.145  15.471  1.3209  1.0739  1.3839
 4411SOL    HW224867   0.233   4.028  15.515  3.5233 -2.0932  2.0825
 4412SOL     OW24868   2.417   3.206   7.383  0.0658 -0.1512 -0.0092
 4412SOL    HW124869   2.376   3.241   7.304 -0.6072 -1.4172 -0.2241
 4412SOL    HW224870   2.463   3.288   7.403  1.9850 -1.4572  0.9410
 4413SOL     OW24871   0.523   2.168  11.863 -0.8129  0.6070  0.4705
 4413SOL    HW124872   0.545   2.227  11.790  1.4981 -1.0736 -0.1932
 4413SOL    HW224873   0.504   2.080  11.831 -2.1492  0.1565  2.5348
 4414SOL     OW24874   2.060   0.207  12.774  0.4947 -0.1833  0.0228
 4414SOL    HW124875   2.041   0.256  12.695 -0.2244 -1.9796 -0.9025
 4414SOL    HW224876   2.087   0.277  12.835 -0.6914  0.3760 -0.0882
 4415SOL     OW24877   1.448   4.270   1.350  0.9992  0.5264  0.4317
 4415SOL    HW124878   1.377   4.206   1.351  0.9686  0.5763  3.9981
 4415SOL    HW224879   1.410   4.332   1.288 -0.3577 -0.7028  0.0395
 4416SOL     OW24880   1.979   0.709   4.697 -0.1822  0.4826  0.6159
 4416SOL    HW124881   2.047   0.705   4.630 -0.4427 -0.8970  0.4266
 4416SOL    HW224882   1.979   0.616   4.719 -2.4033 -0.0489 -1.6470
 4417SOL     OW24883   2.008   4.704   3.448  0.2839 -0.0490 -0.4262
 4417SOL    HW124884   2.014   0.018   3.366  0.0364  1.7980  0.6525
 4417SOL    HW224885   2.001   0.041   3.511  0.2824 -0.0137 -0.4675
 4418SOL     OW24886   2.479   2.874   4.361  0.1900  0.2375 -0.3456
 4418SOL    HW124887   2.418   2.858   4.290  0.2260  2.1380 -0.8125
 4418SOL    HW224888   2.523   2.789   4.368  0.6859  0.4269 -1.1966
 4419SOL     OW24889   1.397   2.440   1.442  0.1390 -0.6118 -0.3006
 4419SOL    HW124890   1.491   2.436   1.456  0.0955 -1.5795 -0.2548
 4419SOL    HW224891   1.367   2.368   1.497 -0.1567 -0.7844 -0.6814
 4420SOL     OW24892   2.190   2.833  14.033 -0.2238  0.1848 -0.3348
 4420SOL    HW124893   2.199   2.755  13.978 -0.1376 -0.5384  0.7232
 4420SOL    HW224894   2.188   2.891  13.957 -0.0030  0.4660 -0.1239
 4421SOL     OW24895   2.246   3.520   4.431 -0.4358  0.4038 -0.3523
 4421SOL    HW124896   2.276   3.454   4.369 -0.8659 -1.4318  1.3695
 4421SOL    HW224897   2.313   3.510   4.499 -0.8873 -0.4738 -0.0310
 4422SOL     OW24898   3.977   4.547   6.394 -0.2547  0.2958 -0.2245
 4422SOL    HW124899   3.985   4.454   6.376 -0.0013  0.5973 -1.6728
 4422SOL    HW224900   3.934   4.559   6.479 -0.8107 -0.2283 -0.4352
 4423SOL     OW24901   4.110   3.082  12.418 -0.1771 -0.2537  0.1602
 4423SOL    HW124902   4.051   3.157  12.416  1.2491  0.7962 -1.7981
 4423SOL    HW224903   4.140   3.073  12.509 -1.8693 -0.8567  0.6599
 4424SOL     OW24904   0.594   4.455   1.624 -0.3514 -0.0672  0.3761
 4424SOL    HW124905   0.521   4.443   1.684 -1.8041  1.8186 -1.0020
 4424SOL    HW224906   0.603   4.550   1.622 -0.4360 -0.0865 -1.0940
 4425SOL     OW24907   3.237   4.207   8.216  0.0249  0.0169  0.2098
 4425SOL    HW124908   3.261   4.291   8.176 -0.1414  0.6373  1.3959
 4425SOL    HW224909   3.182   4.232   8.290  0.0761 -0.1905  0.3154
 4426SOL     OW24910   0.780   3.847   0.949 -0.1907 -0.1624  0.2082
 4426SOL    HW124911   0.875   3.831   0.949  0.2166  2.3467  0.6170
 4426SOL    HW224912   0.765   3.903   1.025  0.2190 -1.0134  0.9221
 4427SOL     OW24913   2.137   3.010  16.296  0.0033  0.1975 -0.0763
 4427SOL    HW124914   2.099   2.956  16.227 -1.1119 -1.0746  1.5181
 4427SOL    HW224915   2.108   3.098  16.273  1.4724  0.3859 -1.1567
 4428SOL     OW24916   4.505   1.498   6.254 -0.0279 -0.3884  0.2147
 4428SOL    HW124917   4.434   1.494   6.191 -0.7603 -2.1423  1.1315
 4428SOL    HW224918   4.513   1.407   6.284 -0.7494 -0.1197  1.2111
 4429SOL     OW24919   4.019   2.676   5.137  0.3312  0.5406  0.1588
 4429SOL    HW124920   4.052   2.587   5.145  0.0378  0.2620 -1.9903
 4429SOL    HW224921   4.100   2.722   5.160  1.9827 -1.9488 -0.7395
 4430SOL     OW24922   4.279   1.563   6.102 -0.6290  0.4821  0.2658
 4430SOL    HW124923   4.292   1.546   6.009 -1.1901  0.0424  0.2671
 4430SOL    HW224924   4.185   1.583   6.100 -1.0058 -1.5154 -1.8903
 4431SOL     OW24925   3.558   4.433  16.460  0.4462  0.2846  0.3356
 4431SOL    HW124926   3.537   4.492  16.533  0.2941  1.1849 -0.4302
 4431SOL    HW224927   3.653   4.441  16.468  0.8736 -3.1619 -1.6429
 4432SOL     OW24928   3.392   4.331   2.016  0.5458 -0.3157  0.3484
 4432SOL    HW124929   3.437   4.311   2.098  0.8052 -0.6836  0.1162
 4432SOL    HW224930   3.376   4.244   1.980 -0.0730 -0.0257 -0.0761
 4433SOL     OW24931   1.067   3.050   0.602  0.7252  0.4538  0.3280
 4433SOL    HW124932   1.062   3.145   0.593  1.0015  0.3825 -0.5698
 4433SOL    HW224933   1.112   3.025   0.521  1.9018  1.9415  0.5288
 4434SOL     OW24934   4.070   0.362   4.288 -0.2429 -0.2567 -0.0826
 4434SOL    HW124935   4.076   0.370   4.193 -0.1923  1.3559  0.0580
 4434SOL    HW224936   4.064   0.266   4.286  2.0024 -0.3956  0.2478
 4435SOL     OW24937   2.055   2.384  15.398  0.0269 -0.0392  0.0085
 4435SOL    HW124938   2.073   2.332  15.477  1.1445 -0.0829 -0.2662
 4435SOL    HW224939   2.113   2.333  15.341  1.9471  1.6005  0.5066
 4436SOL     OW24940   2.697   1.271  11.614  0.5114 -0.0092  0.2401
 4436SOL    HW124941   2.770   1.330  11.597 -0.2325  0.4431 -1.4078
 4436SOL    HW224942   2.745   1.189  11.625 -1.0066 -0.7670  1.2392
 4437SOL     OW24943   3.874   0.668   5.567 -0.5000 -0.5643 -0.1345
 4437SOL    HW124944   3.802   0.604   5.563 -0.4316 -0.5431 -1.4704
 4437SOL    HW224945   3.879   0.697   5.476 -2.3423 -0.7327 -0.2856
 4438SOL     OW24946   0.744   3.526   7.203  0.0971 -0.2892  0.3322
 4438SOL    HW124947   0.805   3.536   7.276  0.2319 -1.5017  0.3819
 4438SOL    HW224948   0.692   3.449   7.226 -0.8704 -0.2534 -1.7240
 4439SOL     OW24949   1.370   0.658   6.771 -0.6097 -0.3470  0.0783
 4439SOL    HW124950   1.364   0.619   6.858  0.6282 -0.8701 -0.0697
 4439SOL    HW224951   1.301   0.607   6.730 -1.6314 -0.6157  2.1151
 4440SOL     OW24952   4.672   4.102   5.854  0.2072  0.7313  0.5693
 4440SOL    HW124953   4.704   4.029   5.906 -0.5687 -1.5109 -2.0805
 4440SOL    HW224954   4.732   4.105   5.780 -0.0667  0.4079  0.3349
 4441SOL     OW24955   4.443   2.315   7.579  0.2630 -0.2327 -0.1680
 4441SOL    HW124956   4.482   2.399   7.554 -0.2814  1.3035  4.1641
 4441SOL    HW224957   4.501   2.274   7.643  0.2819 -0.6386 -0.4394
 4442SOL     OW24958   2.338   2.822  10.533  0.2596  0.2667 -0.8893
 4442SOL    HW124959   2.351   2.841  10.626  1.4867 -1.4632 -0.7061
 4442SOL    HW224960   2.285   2.895  10.501 -1.8461 -0.4711  0.8694
 4443SOL     OW24961   1.057   1.552   3.435 -0.1097  0.2895 -0.2044
 4443SOL    HW124962   1.081   1.628   3.488  1.1083 -0.9926  1.1435
 4443SOL    HW224963   1.045   1.599   3.353  0.4418 -0.0861 -0.5049
 4444SOL     OW24964   2.172   0.936   9.402 -0.0085 -0.4504 -0.2130
 4444SOL    HW124965   2.080   0.948   9.425 -0.4479 -1.0698 -1.6726
 4444SOL    HW224966   2.200   1.028   9.396  0.2408 -0.5158 -0.0629
 4445SOL     OW24967   1.157   3.278  16.764  0.5466  0.3724 -0.4871
 4445SOL    HW124968   1.169   3.338  16.691 -0.0110  0.5145 -0.4622
 4445SOL    HW224969   1.065   3.284  16.789  0.6655  0.3973 -0.0555
 4446SOL     OW24970   1.029   0.432   3.526  0.0151  0.3499 -0.4949
 4446SOL    HW124971   1.110   0.454   3.479  1.5752 -1.7087  1.2150
 4446SOL    HW224972   0.965   0.438   3.456  0.9207 -0.6181 -1.3948
 4447SOL     OW24973   3.052   0.550   6.937 -0.6742  0.4314 -0.2625
 4447SOL    HW124974   3.021   0.612   7.003  1.7886  2.0044 -0.5665
 4447SOL    HW224975   2.974   0.497   6.920 -1.3543  1.3377  0.0352
 4448SOL     OW24976   2.202   4.524   1.933  0.6728  0.0279 -0.0894
 4448SOL    HW124977   2.288   4.483   1.923  1.4810  2.0771 -1.5143
 4448SOL    HW224978   2.137   4.462   1.901  1.0281 -0.9686  1.1008
 4449SOL     OW24979   4.278   0.321   6.414 -0.3188  0.8264 -0.0709
 4449SOL    HW124980   4.338   0.254   6.445  0.8428  3.2185  2.8885
 4449SOL    HW224981   4.287   0.313   6.319  0.4767 -1.4444  0.2150
 4450SOL     OW24982   1.859   4.618   4.921  0.0019  0.1386  0.2893
 4450SOL    HW124983   1.878   4.690   4.861  0.3826 -0.7102 -0.6076
 4450SOL    HW224984   1.782   4.576   4.884 -0.3422  1.0707 -0.0631
 4451SOL     OW24985   0.633   0.232   4.657  1.2564 -0.0436  0.8034
 4451SOL    HW124986   0.596   0.315   4.688  2.0447  1.1469 -1.3515
 4451SOL    HW224987   0.666   0.194   4.738  0.7512  0.7897  1.3955
 4452SOL     OW24988   3.285   3.651  16.675  0.5244 -0.3927  0.5350
 4452SOL    HW124989   3.306   3.682  16.586  0.2286 -1.1548  0.2026
 4452SOL    HW224990   3.190   3.645  16.666  0.3199  0.2763  2.3407
 4453SOL     OW24991   4.092   4.372   5.771  0.5402  0.1170 -0.1059
 4453SOL    HW124992   4.105   4.399   5.680 -2.6306 -0.8846 -0.8782
 4453SOL    HW224993   3.999   4.351   5.774  0.6257 -0.4584 -1.5408
 4454SOL     OW24994   1.376   0.313  16.391  0.2639  0.1111 -0.1936
 4454SOL    HW124995   1.428   0.385  16.428  0.6421  0.1672 -0.8335
 4454SOL    HW224996   1.373   0.262  16.471  1.6593  1.4424  0.7214
 4455SOL     OW24997   1.601   1.182   8.786 -0.0746  0.1730 -0.1638
 4455SOL    HW124998   1.556   1.130   8.852  0.6837 -0.5001 -0.1688
 4455SOL    HW224999   1.686   1.137   8.779  0.7720  1.9318 -1.2381
 4456SOL     OW25000   1.418   4.386   2.189  0.3056 -0.0531  0.5810
 4456SOL    HW125001   1.369   4.329   2.130  0.3855  0.2036  0.2651
 4456SOL    HW225002   1.445   4.459   2.133  0.7705 -0.4891  0.2377
 4457SOL     OW25003   2.646   4.114   2.258 -0.5693 -0.4081 -0.0620
 4457SOL    HW125004   2.561   4.070   2.254 -1.0282  0.7055 -2.5460
 4457SOL    HW225005   2.619   4.205   2.260 -1.5577 -0.7049  0.2976
 4458SOL     OW25006   1.389   3.105   3.186 -0.0214  0.1063  0.2171
 4458SOL    HW125007   1.309   3.071   3.145 -0.2983  1.4145 -0.3269
 4458SOL    HW225008   1.358   3.179   3.239 -1.2269  1.0560 -1.7784
 4459SOL     OW25009   4.156   1.113   3.800  0.2703 -0.3123 -0.3335
 4459SOL    HW125010   4.227   1.144   3.743  0.0445 -0.1230 -0.5141
 4459SOL    HW225011   4.110   1.048   3.748 -1.6573  0.3464  0.5616
 4460SOL     OW25012   4.606   1.428  15.049  0.0693 -0.3298  0.6493
 4460SOL    HW125013   4.569   1.514  15.070  1.4220  0.3197  0.4270
 4460SOL    HW225014   4.636   1.399  15.135  0.2622 -1.3296  0.2453
 4461SOL     OW25015   4.384   0.634   9.803 -0.3174 -0.6555  0.8180
 4461SOL    HW125016   4.331   0.679   9.738 -1.5096 -3.4795 -0.1831
 4461SOL    HW225017   4.317   0.570   9.831 -0.8673  0.1973  1.4559
 4462SOL     OW25018   0.724   3.405   8.041  0.1195 -0.0061 -0.2549
 4462SOL    HW125019   0.661   3.452   8.097  0.0362 -0.5531  0.1203
 4462SOL    HW225020   0.720   3.474   7.976 -1.7711  1.5191  1.4639
 4463SOL     OW25021   3.599   3.355   5.531  0.0004 -0.2161 -0.8357
 4463SOL    HW125022   3.679   3.316   5.566  0.3183  0.8448 -0.3862
 4463SOL    HW225023   3.557   3.270   5.520 -1.2303  0.0194  2.0377
 4464SOL     OW25024   1.139   2.201   3.776  0.5520  0.2313 -0.0400
 4464SOL    HW125025   1.076   2.272   3.759  0.6060  0.7351  1.8439
 4464SOL    HW225026   1.139   2.202   3.872 -1.1074 -0.2032 -0.0361
 4465SOL     OW25027   0.085   3.008   6.139  0.2228 -0.2628  0.0786
 4465SOL    HW125028   0.086   2.930   6.196 -1.1137 -1.7874 -1.9841
 4465SOL    HW225029   0.151   3.060   6.184  0.7319 -0.6802 -0.1762
 4466SOL     OW25030   1.086   3.436   2.935  0.0096 -0.2634  0.2214
 4466SOL    HW125031   1.084   3.374   2.862 -0.4699  0.2815 -0.2246
 4466SOL    HW225032   1.045   3.518   2.908  1.4711  0.4729  0.2357
 4467SOL     OW25033   1.951   0.531   2.482  0.0964 -0.0541  0.3772
 4467SOL    HW125034   1.961   0.436   2.491 -1.9406 -0.3759 -0.9123
 4467SOL    HW225035   1.907   0.560   2.562  1.1848  1.5845  0.3746
 4468SOL     OW25036   2.494   4.457   6.811  0.2839  0.7787 -0.9484
 4468SOL    HW125037   2.451   4.374   6.791 -0.7717  0.6560  1.9293
 4468SOL    HW225038   2.441   4.484   6.886 -0.7697  0.8468 -1.7129
 4469SOL     OW25039   1.864   1.316   5.212 -0.7080 -0.0218  0.1036
 4469SOL    HW125040   1.818   1.399   5.225 -1.2308 -0.9170  3.7918
 4469SOL    HW225041   1.947   1.341   5.172 -1.0958  2.2993  0.7749
 4470SOL     OW25042   1.293   2.547   6.472  0.4770 -0.0775  0.6858
 4470SOL    HW125043   1.347   2.552   6.393 -2.0458  1.4560 -0.9740
 4470SOL    HW225044   1.334   2.602   6.537  1.5270  1.3257 -1.1720
 4471SOL     OW25045   3.606   1.389   3.988  0.2990  0.3545  0.2731
 4471SOL    HW125046   3.641   1.300   3.989  1.7257  0.9059 -1.4266
 4471SOL    HW225047   3.523   1.371   3.943  0.9862 -1.5317 -0.2368
 4472SOL     OW25048   2.278   3.153  13.300 -0.0646 -0.4092 -0.0006
 4472SOL    HW125049   2.199   3.143  13.246 -1.5013 -2.7887  2.5434
 4472SOL    HW225050   2.276   3.085  13.366 -2.3120 -0.4750 -0.1278
 4473SOL     OW25051   3.484   0.377   3.642 -0.4744  0.0475  0.3339
 4473SOL    HW125052   3.440   0.409   3.564  1.5099  1.0909 -0.3684
 4473SOL    HW225053   3.540   0.313   3.599  0.6335  0.5978  0.9544
 4474SOL     OW25054   1.408   4.060  16.918  0.2318  0.3665  1.0050
 4474SOL    HW125055   1.338   4.004  16.953  0.1654  1.2654  2.2994
 4474SOL    HW225056   1.350   4.134  16.938 -0.1417  0.8462 -1.9299
 4475SOL     OW25057   3.065   3.345   4.359 -0.8100  0.4092 -0.1201
 4475SOL    HW125058   3.015   3.272   4.393  0.5796 -0.3456  0.3038
 4475SOL    HW225059   3.095   3.309   4.276 -0.8765  0.7493 -0.2928
 4476SOL     OW25060   3.433   0.901  13.349 -0.2275  0.1608  0.7416
 4476SOL    HW125061   3.462   0.951  13.272  1.5309 -0.7604  0.8071
 4476SOL    HW225062   3.340   0.926  13.353 -0.1901  0.4682 -0.2627
 4477SOL     OW25063   0.906   4.056  10.720 -1.5669  0.4760 -0.1479
 4477SOL    HW125064   0.899   4.087  10.810 -3.9832 -0.2683 -0.0849
 4477SOL    HW225065   0.913   4.137  10.669 -1.4323  1.0544  0.7936
 4478SOL     OW25066   1.071   0.819   7.760 -0.2764  0.4978  0.3832
 4478SOL    HW125067   1.041   0.761   7.830 -0.0613 -0.8165 -0.6159
 4478SOL    HW225068   1.156   0.783   7.736 -0.1726  0.6776  0.4818
 4479SOL     OW25069   3.967   1.421  13.118  0.4237 -0.2273 -0.2192
 4479SOL    HW125070   4.043   1.418  13.177  1.9337 -1.9365 -2.2740
 4479SOL    HW225071   3.991   1.503  13.075  0.1721 -0.1855 -0.2785
 4480SOL     OW25072   2.304   3.011  14.237 -0.3728  0.4951 -0.3488
 4480SOL    HW125073   2.369   3.061  14.188  1.9050  0.6634  2.8061
 4480SOL    HW225074   2.271   2.957  14.166 -0.8298  0.7341 -0.3190
 4481SOL     OW25075   1.858   2.650   1.071  0.0974  0.2255 -0.0381
 4481SOL    HW125076   1.784   2.590   1.081  0.5507 -0.4193 -0.6217
 4481SOL    HW225077   1.917   2.576   1.055 -1.2488 -1.3166  2.1468
 4482SOL     OW25078   2.435   1.859   8.231 -0.8679 -0.1868 -0.4460
 4482SOL    HW125079   2.375   1.927   8.261 -1.4848  0.2154 -2.5243
 4482SOL    HW225080   2.437   1.796   8.302 -2.7886  0.3872  0.1120
 4483SOL     OW25081   2.423   3.887   5.222 -0.5515 -0.4455  0.0980
 4483SOL    HW125082   2.380   3.947   5.161  1.8260  0.6822 -0.5001
 4483SOL    HW225083   2.491   3.842   5.171 -1.0829 -0.2225 -0.8015
 4484SOL     OW25084   2.232   0.333  15.421 -0.4334 -0.1485 -0.0815
 4484SOL    HW125085   2.196   0.372  15.501  0.1511  0.6374 -0.1957
 4484SOL    HW225086   2.150   0.301  15.386 -1.3848 -0.3250  2.3462
 4485SOL     OW25087   1.811   3.417   8.474  0.0897 -0.2049 -0.2569
 4485SOL    HW125088   1.875   3.488   8.471  1.3959 -1.3770  0.2009
 4485SOL    HW225089   1.761   3.443   8.551 -0.0199 -2.3598  0.3875
 4486SOL     OW25090   1.106   3.053  14.255 -0.1646  0.3401 -0.2370
 4486SOL    HW125091   1.079   3.011  14.336  1.0694  0.3686  0.1959
 4486SOL    HW225092   1.199   3.059  14.279  0.4841 -1.7153 -2.2541
 4487SOL     OW25093   2.691   4.538   8.693 -0.5985  0.2007  0.3555
 4487SOL    HW125094   2.603   4.506   8.677  0.2421 -0.8304 -2.1731
 4487SOL    HW225095   2.715   4.468   8.754  2.5048  0.5035 -0.4862
 4488SOL     OW25096   0.399   0.430   7.089 -0.6311 -0.0228  0.0585
 4488SOL    HW125097   0.386   0.524   7.074 -1.6462 -0.3209 -0.8740
 4488SOL    HW225098   0.313   0.393   7.069 -0.7502  0.1645  0.2218
 4489SOL     OW25099   2.040   1.617   6.927  0.6056  0.1980 -0.2459
 4489SOL    HW125100   2.025   1.556   6.999 -1.3584 -0.8790 -1.5699
 4489SOL    HW225101   2.034   1.703   6.969  2.4951  1.1553 -1.9699
 4490SOL     OW25102   1.779   4.400   5.603 -0.5038  0.6783  0.4320
 4490SOL    HW125103   1.736   4.433   5.524 -1.4310 -2.6489 -0.4833
 4490SOL    HW225104   1.753   4.308   5.609 -2.1947  1.3408  3.1085
 4491SOL     OW25105   2.924   2.653   9.536 -0.3121 -0.0370 -0.1415
 4491SOL    HW125106   3.005   2.634   9.490 -0.1492 -0.0571  0.1520
 4491SOL    HW225107   2.943   2.615   9.622  1.9461 -1.1904 -1.1867
 4492SOL     OW25108   4.161   2.090   9.689  0.3576  0.0578  0.1632
 4492SOL    HW125109   4.158   2.082   9.594 -1.5745  3.6203 -0.0666
 4492SOL    HW225110   4.192   2.181   9.696 -1.1271  0.5158  0.7441
 4493SOL     OW25111   2.181   2.907  15.557 -0.1395  0.5040 -0.5709
 4493SOL    HW125112   2.139   2.971  15.499 -1.4048 -0.1908 -0.4200
 4493SOL    HW225113   2.191   2.837  15.491  3.9363  1.2078 -0.7122
 4494SOL     OW25114   1.820   1.299   1.791 -0.7740  0.2537  0.1736
 4494SOL    HW125115   1.805   1.388   1.822 -0.0521  0.4219  0.0250
 4494SOL    HW225116   1.916   1.299   1.792 -0.7827  1.0049  1.5412
 4495SOL     OW25117   2.650   1.987   6.179 -0.2183 -0.1110 -0.1409
 4495SOL    HW125118   2.719   1.948   6.233 -1.2706 -3.7773 -1.4772
 4495SOL    HW225119   2.710   2.042   6.128  1.4738 -0.1483  1.7875
 4496SOL     OW25120   0.078   2.382  12.760  0.0151  0.3235  0.1424
 4496SOL    HW125121   0.152   2.338  12.802  0.1294  1.2311  0.8784
 4496SOL    HW225122   0.086   2.471  12.794  0.8721  1.0850 -2.0400
 4497SOL     OW25123   2.162   4.523   3.288  0.4758  0.4955 -0.0252
 4497SOL    HW125124   2.091   4.519   3.352  0.7248 -0.1585  0.2044
 4497SOL    HW225125   2.134   4.588   3.223 -1.5513  1.3121  1.6558
 4498SOL     OW25126   0.164   1.829  15.389  0.2763 -0.2640 -0.2309
 4498SOL    HW125127   0.072   1.805  15.402 -0.6510  2.9154 -1.0970
 4498SOL    HW225128   0.160   1.859  15.298  0.9178  0.4704 -0.0108
 4499SOL     OW25129   0.572   3.299   8.734 -0.1178  0.2536  0.4034
 4499SOL    HW125130   0.599   3.270   8.821 -0.1052  1.6684  0.8656
 4499SOL    HW225131   0.534   3.387   8.738  0.4596  0.4465  1.4728
 4500SOL     OW25132   0.703   3.604   5.060  0.0971  0.5650 -0.1427
 4500SOL    HW125133   0.737   3.567   4.979  0.4718 -2.4194  1.3994
 4500SOL    HW225134   0.664   3.524   5.095 -1.3346  2.0535  1.6848
 4501SOL     OW25135   0.544   1.756   4.830 -0.0634  0.0551 -0.3453
 4501SOL    HW125136   0.521   1.684   4.772 -0.1868  0.4158 -0.7440
 4501SOL    HW225137   0.604   1.725   4.898 -0.5946  2.4215  1.2017
 4502SOL     OW25138   2.494   4.202   8.923 -0.8095 -0.5823  0.3293
 4502SOL    HW125139   2.428   4.269   8.909  1.2426  1.3554 -0.0180
 4502SOL    HW225140   2.473   4.175   9.012 -2.0683  1.3711  0.6156
 4503SOL     OW25141   3.785   2.187   0.405 -0.0058  0.0284  0.1987
 4503SOL    HW125142   3.830   2.213   0.486 -0.3813  0.3199  0.3145
 4503SOL    HW225143   3.700   2.228   0.423 -0.6594 -1.4887  0.5443
 4504SOL     OW25144   1.871   1.907  15.848 -0.3738 -0.3541  0.2363
 4504SOL    HW125145   1.883   1.851  15.771  0.9660  1.3047 -0.7513
 4504SOL    HW225146   1.952   1.956  15.831 -0.5148 -0.0508  0.4503
 4505SOL     OW25147   3.689   4.104   4.605 -0.1303  1.0012 -0.3678
 4505SOL    HW125148   3.681   4.123   4.512 -1.0173 -0.7027 -0.6373
 4505SOL    HW225149   3.598   4.102   4.634  0.7927 -1.2114  2.3832
 4506SOL     OW25150   1.007   0.458   4.181  0.2268 -0.2045 -0.1328
 4506SOL    HW125151   1.086   0.443   4.129  0.9010  1.0031  0.5562
 4506SOL    HW225152   1.038   0.535   4.228  0.9069  0.0736 -1.0307
 4507SOL     OW25153   1.498   0.949   1.522  0.6819  0.3029 -0.4693
 4507SOL    HW125154   1.574   0.892   1.512 -0.0108 -0.7116  0.0125
 4507SOL    HW225155   1.535   1.025   1.567  0.9621 -0.4662  0.6086
 4508SOL     OW25156   2.898   0.109  16.865 -0.4584 -0.2140 -0.2788
 4508SOL    HW125157   2.911   0.183  16.924 -0.4654 -0.9797  0.7025
 4508SOL    HW225158   2.960   0.045  16.901  1.2349  1.1436 -0.7904
 4509SOL     OW25159   4.134   3.069   5.666  0.1176  0.4206 -0.3749
 4509SOL    HW125160   4.195   3.009   5.710  0.5518  0.7998 -0.4699
 4509SOL    HW225161   4.138   3.034   5.577  0.1195 -0.0182 -0.2051
 4510SOL     OW25162   2.031   2.904   4.737 -0.2435  0.7346 -0.2454
 4510SOL    HW125163   2.091   2.896   4.663 -0.1780 -1.1003  0.0128
 4510SOL    HW225164   1.958   2.959   4.708  2.1560  3.3547 -1.4054
 4511SOL     OW25165   3.332   0.869   9.636 -0.2585  0.6720 -0.2770
 4511SOL    HW125166   3.382   0.825   9.705 -2.5365  1.2611  1.7594
 4511SOL    HW225167   3.243   0.844   9.661  1.6542 -4.3715  1.5762
 4512SOL     OW25168   0.149   1.914   6.064 -0.1726  0.0631 -0.3642
 4512SOL    HW125169   0.156   1.936   6.156 -0.0607  3.2099 -1.1392
 4512SOL    HW225170   0.225   1.961   6.031  1.3181 -1.8753  0.2950
 4513SOL     OW25171   1.873   1.466  13.908 -0.0208 -0.0082 -0.0820
 4513SOL    HW125172   1.859   1.454  14.002 -2.3193  0.7311 -0.3233
 4513SOL    HW225173   1.956   1.512  13.919 -0.4280  0.1751  2.1731
 4514SOL     OW25174   3.951   3.452   3.101  0.5703  0.1384 -0.3415
 4514SOL    HW125175   3.916   3.522   3.157 -0.4143  0.6384 -1.6037
 4514SOL    HW225176   3.878   3.391   3.092  0.7133  0.0684 -0.9579
 4515SOL     OW25177   1.304   2.722   5.563  0.7227 -0.6725 -0.0297
 4515SOL    HW125178   1.357   2.801   5.552 -1.1894  0.7005  0.5372
 4515SOL    HW225179   1.243   2.737   5.635  0.1580  0.6229 -0.7620
 4516SOL     OW25180   3.726   0.885   7.236 -0.0143 -0.6659 -0.1007
 4516SOL    HW125181   3.741   0.954   7.301  0.8754  0.1919 -1.2228
 4516SOL    HW225182   3.787   0.916   7.169  0.5585 -0.1712  0.6471
 4517SOL     OW25183   2.537   3.105   1.970 -0.4358 -1.1121  0.2326
 4517SOL    HW125184   2.450   3.069   1.991 -0.4451 -1.2109  0.0225
 4517SOL    HW225185   2.557   3.146   2.054  1.3684 -0.1974 -0.6482
 4518SOL     OW25186   4.249   0.511   2.808  0.3180 -0.0723 -0.0418
 4518SOL    HW125187   4.321   0.524   2.746  0.7642  1.0482  0.7242
 4518SOL    HW225188   4.282   0.570   2.875 -1.8224 -0.3968  1.2808
 4519SOL     OW25189   3.726   2.678  16.824 -1.0381  0.6398 -0.2216
 4519SOL    HW125190   3.739   2.624  16.903  0.2885  0.1030 -0.8080
 4519SOL    HW225191   3.780   2.631  16.761 -2.7360 -1.2734 -0.2654
 4520SOL     OW25192   3.775   0.048  16.793 -0.7863 -0.9967  0.1642
 4520SOL    HW125193   3.775   0.030  16.887  0.3492 -1.8773 -0.0048
 4520SOL    HW225194   3.791   0.141  16.775  3.1928 -1.6825  0.2400
 4521SOL     OW25195   0.407   2.953   3.051 -0.0178  0.6042  0.3754
 4521SOL    HW125196   0.380   2.867   3.018 -0.3524 -0.5860  3.7564
 4521SOL    HW225197   0.326   3.001   3.070 -0.5761 -0.7965  1.5150
 4522SOL     OW25198   2.812   2.301   2.601 -0.1424  0.3291  0.1550
 4522SOL    HW125199   2.842   2.247   2.528  0.3200 -0.4527  0.9250
 4522SOL    HW225200   2.736   2.246   2.617 -0.2663  1.2241  2.6359
 4523SOL     OW25201   0.162   3.374  16.318 -0.2580  0.3412  0.0098
 4523SOL    HW125202   0.158   3.367  16.223 -0.3096  2.8861 -0.1663
 4523SOL    HW225203   0.255   3.355  16.329 -0.0376  1.0911 -0.5851
 4524SOL     OW25204   2.056   0.210  15.611 -0.4237  0.4204 -0.2767
 4524SOL    HW125205   1.987   0.223  15.546 -1.5501 -0.3502  0.7660
 4524SOL    HW225206   2.008   0.240  15.688 -1.6710  0.6502 -1.1366
 4525SOL     OW25207   1.891   3.345   3.721 -0.2366  0.3861  0.1975
 4525SOL    HW125208   1.835   3.296   3.781  1.0345 -1.3901 -0.0781
 4525SOL    HW225209   1.853   3.428   3.751 -1.0864 -0.5606  1.7391
 4526SOL     OW25210   1.316   4.583   3.209  0.7659  0.0280 -0.3518
 4526SOL    HW125211   1.333   4.504   3.259 -0.9879  0.8298  1.5049
 4526SOL    HW225212   1.399   4.598   3.164  0.2786  1.3984 -0.8142
 4527SOL     OW25213   3.452   1.280   2.675 -0.1556 -0.1291  0.4005
 4527SOL    HW125214   3.406   1.201   2.647 -0.8513 -0.0611  1.3588
 4527SOL    HW225215   3.417   1.356   2.628  3.3758  1.2607 -0.0222
 4528SOL     OW25216   2.169   0.600   6.913 -0.4273 -0.3787 -0.2938
 4528SOL    HW125217   2.246   0.557   6.875  0.4967 -0.6981  1.9230
 4528SOL    HW225218   2.098   0.536   6.914  0.4302 -1.3258  0.1040
 4529SOL     OW25219   1.780   1.513  10.247  0.4793  0.1960  0.4977
 4529SOL    HW125220   1.777   1.608  10.235 -2.4361  0.0695  0.1209
 4529SOL    HW225221   1.870   1.490  10.227 -0.0354 -0.7711 -0.6718
 4530SOL     OW25222   0.402   1.203   5.882 -0.2337  0.5193  0.0485
 4530SOL    HW125223   0.461   1.258   5.830  0.8097 -0.6542 -0.0062
 4530SOL    HW225224   0.355   1.277   5.919  1.3624  3.7619 -4.3189
 4531SOL     OW25225   2.713   4.623   4.481  0.1550 -0.2066  0.0681
 4531SOL    HW125226   2.802   4.633   4.448  0.6889  1.3073  1.9561
 4531SOL    HW225227   2.720   4.532   4.512 -1.1733 -0.1563  0.5203
 4532SOL     OW25228   4.082   3.357   7.361 -0.3692 -0.7798 -0.1558
 4532SOL    HW125229   4.100   3.442   7.402  2.2635 -1.7355  0.6610
 4532SOL    HW225230   4.160   3.344   7.307  0.3516 -0.6387  0.8530
 4533SOL     OW25231   2.590   3.189  12.762  1.1352  0.4482 -0.3427
 4533SOL    HW125232   2.673   3.223  12.728  1.7907 -1.4518 -0.6317
 4533SOL    HW225233   2.575   3.129  12.690 -2.0220  0.9895 -0.1235
 4534SOL     OW25234   3.719   4.049  10.988 -0.4170  0.2435 -0.2656
 4534SOL    HW125235   3.672   4.004  10.918 -2.8997  0.5610  1.1803
 4534SOL    HW225236   3.685   3.996  11.060  0.8947 -1.2314 -0.7356
 4535SOL     OW25237   3.157   0.785  10.584  0.5446  0.3596 -0.2281
 4535SOL    HW125238   3.194   0.817  10.666 -2.1645  0.6079  0.9019
 4535SOL    HW225239   3.105   0.713  10.621 -0.2455  0.9878 -0.1244
 4536SOL     OW25240   3.023   3.304   4.851  0.0814  0.1573  0.0083
 4536SOL    HW125241   2.934   3.292   4.818  0.6124 -0.7431 -1.1010
 4536SOL    HW225242   3.017   3.354   4.932  2.9230  0.9833 -0.3031
 4537SOL     OW25243   0.939   3.056   4.711 -0.5799  0.3067 -0.3205
 4537SOL    HW125244   0.909   2.971   4.740 -0.5909  0.0908 -0.9633
 4537SOL    HW225245   1.030   3.048   4.682 -0.9500 -0.1923 -1.3368
 4538SOL     OW25246   0.314   4.605   7.835 -0.4685  0.3193  0.1011
 4538SOL    HW125247   0.291   4.592   7.742 -0.8963 -0.7741  0.3512
 4538SOL    HW225248   0.404   4.573   7.830 -0.6094 -0.1029  0.2033
 4539SOL     OW25249   3.350   1.517   0.627  0.0034 -0.3479 -0.7693
 4539SOL    HW125250   3.374   1.608   0.647 -0.3851 -0.6468  1.0822
 4539SOL    HW225251   3.408   1.481   0.694  0.5459  1.4636 -0.2656
 4540SOL     OW25252   0.134   2.067   1.370  0.0740  0.0422 -0.2582
 4540SOL    HW125253   0.101   2.155   1.380 -1.0910 -0.3471 -0.6943
 4540SOL    HW225254   0.089   2.025   1.443 -0.2539 -0.5403 -0.7848
 4541SOL     OW25255   0.002   0.473   9.341 -0.2364 -0.4349 -0.2119
 4541SOL    HW125256   0.004   0.391   9.292 -0.6745 -0.1998 -0.6232
 4541SOL    HW225257   0.035   0.453   9.429 -0.3132  2.4539  0.4803
 4542SOL     OW25258   0.074   2.887  17.236  0.5615  0.5890  0.0343
 4542SOL    HW125259   0.140   2.876  17.304  0.7443  0.2383 -0.1973
 4542SOL    HW225260   0.011   2.948  17.275 -1.4061 -1.6260  0.3442
 4543SOL     OW25261   1.981   1.639  16.792 -0.1692 -0.1954 -0.4177
 4543SOL    HW125262   2.009   1.717  16.744 -1.8066 -0.7042 -2.1996
 4543SOL    HW225263   2.066   1.596  16.798  0.1606  0.4145 -0.7153
 4544SOL     OW25264   0.512   2.288   4.818 -0.1107 -0.4310  0.3366
 4544SOL    HW125265   0.566   2.304   4.896  2.1734  2.4204 -1.8422
 4544SOL    HW225266   0.556   2.347   4.757  0.6076 -0.2740  1.0098
 4545SOL     OW25267   1.455   3.542  16.637 -0.0681  0.2652  0.2741
 4545SOL    HW125268   1.476   3.596  16.714 -1.2535  0.0929  0.7023
 4545SOL    HW225269   1.519   3.574  16.573  1.2903  0.0348  1.5073
 4546SOL     OW25270   3.001   2.439  12.827  0.1454 -0.0762 -0.0302
 4546SOL    HW125271   2.912   2.459  12.796 -0.2187 -0.7635  0.5609
 4546SOL    HW225272   2.999   2.465  12.919 -0.5633  3.9852 -1.1863
 4547SOL     OW25273   4.146   4.609   8.226 -0.5394  0.0754 -0.0053
 4547SOL    HW125274   4.095   4.529   8.232 -0.4630 -0.2843 -4.5239
 4547SOL    HW225275   4.085   4.663   8.278 -0.0282  0.0679  0.5987
 4548SOL     OW25276   0.936   2.836   3.651  0.7662 -0.2426  0.2862
 4548SOL    HW125277   0.972   2.891   3.720 -0.0591  0.7494 -0.0765
 4548SOL    HW225278   0.962   2.884   3.573 -0.6459  2.5957  1.5527
 4549SOL     OW25279   0.910   3.903   4.876  0.2141 -0.2855 -0.2979
 4549SOL    HW125280   0.852   3.918   4.951  0.8463  1.1542 -0.1038
 4549SOL    HW225281   0.858   3.955   4.814  1.0568 -1.0230 -1.6151
 4550SOL     OW25282   0.041   1.617   4.593 -0.1647  0.1297 -0.2823
 4550SOL    HW125283   0.062   1.524   4.586 -0.1084  0.1321 -0.1421
 4550SOL    HW225284   0.127   1.647   4.564 -0.2498 -1.4457 -2.1935
 4551SOL     OW25285   1.573   3.890  16.250  0.7692 -0.0395  0.4069
 4551SOL    HW125286   1.659   3.902  16.209  0.3670  0.8526 -0.1585
 4551SOL    HW225287   1.593   3.928  16.335  0.3845 -0.4112  0.6648
 4552SOL     OW25288   1.791   4.684   5.517 -0.5772  0.1697 -0.1680
 4552SOL    HW125289   1.818   4.692   5.426  1.7553 -1.7244  0.3442
 4552SOL    HW225290   1.720   0.012   5.514 -2.7253 -2.3566 -3.2040
 4553SOL     OW25291   3.456   1.114   1.906 -0.3955 -0.0272  0.0479
 4553SOL    HW125292   3.399   1.043   1.933 -0.5887 -0.0177 -0.3342
 4553SOL    HW225293   3.488   1.146   1.990 -0.5398  2.3835 -0.8139
 4554SOL     OW25294   0.658   2.661   5.055 -0.1539  0.2766  0.5642
 4554SOL    HW125295   0.737   2.609   5.067  0.8422  1.4828 -0.7653
 4554SOL    HW225296   0.613   2.665   5.140  1.1911  1.5424  1.1973
 4555SOL     OW25297   1.102   0.514   8.870  0.1578  0.4410  0.2151
 4555SOL    HW125298   1.012   0.543   8.858 -0.3844 -0.5157  1.8926
 4555SOL    HW225299   1.116   0.509   8.965  0.7466 -0.6155  0.0754
 4556SOL     OW25300   1.287   0.718  12.862  0.6491  0.2888  0.0149
 4556SOL    HW125301   1.291   0.790  12.799 -0.6237 -0.3229 -0.7608
 4556SOL    HW225302   1.362   0.738  12.919 -0.7347  3.7628  0.6309
 4557SOL     OW25303   1.528   0.219   5.252  0.2597  0.0109  0.4600
 4557SOL    HW125304   1.438   0.222   5.222  0.5132 -0.9071 -0.3898
 4557SOL    HW225305   1.563   0.137   5.217 -1.3409 -0.5166  0.1085
 4558SOL     OW25306   2.137   3.263  15.464  0.1943  0.0998  0.6255
 4558SOL    HW125307   2.164   3.353  15.445 -0.1623  0.0413 -0.1464
 4558SOL    HW225308   2.224   3.225  15.475  1.5419  3.1642  0.7690
 4559SOL     OW25309   3.226   3.773   3.837 -0.1603 -0.5122  0.1930
 4559SOL    HW125310   3.267   3.687   3.826 -0.4404 -0.6821  0.4585
 4559SOL    HW225311   3.256   3.824   3.762 -0.7772 -1.3245 -0.6103
 4560SOL     OW25312   0.067   3.045  15.198  0.9886 -0.2136 -0.4506
 4560SOL    HW125313   0.140   3.105  15.180  0.5728  1.4348  3.1833
 4560SOL    HW225314   0.046   3.091  15.280  2.3203 -0.8524  0.2519
 4561SOL     OW25315   4.040   1.040   9.140 -0.1295 -0.0521 -0.3006
 4561SOL    HW125316   4.110   1.103   9.128  1.8369 -2.1619  0.0978
 4561SOL    HW225317   3.969   1.078   9.088 -0.8520 -0.5410  0.3192
 4562SOL     OW25318   1.444   4.643   1.182 -0.0556  0.0537  0.3666
 4562SOL    HW125319   1.502   4.652   1.106  0.3658  0.4539  0.7321
 4562SOL    HW225320   1.393   4.566   1.159 -1.3743  0.7726  0.9092
 4563SOL     OW25321   4.572   0.146   4.159  0.0979  0.1011  0.3859
 4563SOL    HW125322   4.546   0.205   4.088  1.4964  0.6471  0.3163
 4563SOL    HW225323   4.631   0.206   4.205 -0.4430 -1.2122  2.7555
 4564SOL     OW25324   4.696   0.329  11.925 -0.4652 -0.2031 -0.7521
 4564SOL    HW125325   4.604   0.328  11.952 -0.7424 -1.0364 -1.7267
 4564SOL    HW225326   4.715   0.418  11.954  2.1114 -0.4042 -1.8496
 4565SOL     OW25327   0.202   4.479   6.639 -0.0533  0.5458 -1.2292
 4565SOL    HW125328   0.281   4.520   6.606  0.2333  1.2548  0.3512
 4565SOL    HW225329   0.208   4.389   6.608  0.3660  0.7985 -1.8665
 4566SOL     OW25330   1.732   2.192   6.864 -0.0126 -0.3650  0.4839
 4566SOL    HW125331   1.796   2.151   6.806 -0.1701 -0.3081  0.2722
 4566SOL    HW225332   1.782   2.272   6.879  1.8351 -1.4795  0.2971
 4567SOL     OW25333   3.022   4.239  13.752  0.0997 -0.3798  0.4686
 4567SOL    HW125334   2.934   4.250  13.789 -0.4323  1.1223 -1.2012
 4567SOL    HW225335   3.035   4.318  13.699 -2.0558 -1.7585 -2.1326
 4568SOL     OW25336   4.454   4.289   4.917 -0.5634 -0.2102  0.2206
 4568SOL    HW125337   4.531   4.233   4.913 -0.7989 -0.5321  0.1379
 4568SOL    HW225338   4.422   4.281   5.007  0.0836  0.0856  0.4710
 4569SOL     OW25339   4.588   3.203   6.953  0.0147 -0.7170  0.2065
 4569SOL    HW125340   4.530   3.168   7.020  0.1340 -2.1795 -0.4388
 4569SOL    HW225341   4.530   3.192   6.878  0.3876  0.9884 -0.3303
 4570SOL     OW25342   2.037   1.781   3.072 -0.2109  0.4551  0.0426
 4570SOL    HW125343   1.971   1.729   3.118  0.4224 -0.8932 -0.5778
 4570SOL    HW225344   2.005   1.760   2.984  0.5855  1.9520 -0.6087
 4571SOL     OW25345   3.294   0.566   9.395 -0.2615  0.2574  0.0443
 4571SOL    HW125346   3.384   0.564   9.428 -0.3144  2.4451  0.3410
 4571SOL    HW225347   3.287   0.652   9.353  0.4103 -0.1658 -0.9338
 4572SOL     OW25348   4.552   1.852   3.040  0.6581 -0.0811  0.5715
 4572SOL    HW125349   4.489   1.876   2.972  0.6458 -1.1848  0.2010
 4572SOL    HW225350   4.526   1.760   3.042  0.7128 -0.1013  0.3748
 4573SOL     OW25351   0.735   1.035   6.047 -0.8005 -0.2372 -0.5142
 4573SOL    HW125352   0.692   0.967   6.099 -1.3454 -0.7809 -1.6832
 4573SOL    HW225353   0.735   1.106   6.112 -3.2718 -1.2270  0.5944
 4574SOL     OW25354   0.020   1.279   8.539  0.0313 -0.1917  0.1000
 4574SOL    HW125355   4.710   1.194   8.544 -1.1815  0.5273  1.3243
 4574SOL    HW225356   0.096   1.263   8.594 -0.7646  0.1259  1.2953
 4575SOL     OW25357   0.859   0.468   9.358  0.1707 -0.0377 -0.1409
 4575SOL    HW125358   0.771   0.452   9.392  1.1202 -1.1973  1.7918
 4575SOL    HW225359   0.912   0.438   9.432  1.8098  1.8178 -0.5704
 4576SOL     OW25360   1.476   0.841   6.281  0.1625  0.1171 -0.1452
 4576SOL    HW125361   1.439   0.929   6.283  2.0855  0.9599 -1.0182
 4576SOL    HW225362   1.560   0.856   6.325  0.5768 -0.8104 -0.6100
 4577SOL     OW25363   2.347   0.903  17.509  0.1212  0.0048 -0.0261
 4577SOL    HW125364   2.422   0.937  17.558 -1.1755  2.0376  0.5211
 4577SOL    HW225365   2.391   0.848  17.444  1.1724 -1.7385  2.1647
 4578SOL     OW25366   4.034   1.324   2.203 -0.4793  0.1960  0.7451
 4578SOL    HW125367   3.991   1.344   2.287 -1.1252 -1.3371  0.7650
 4578SOL    HW225368   3.975   1.370   2.143 -0.2911 -2.4634 -1.4399
 4579SOL     OW25369   0.277   0.906   3.082 -0.1463  0.6569 -0.0842
 4579SOL    HW125370   0.365   0.876   3.057  0.5552  0.9421  2.0186
 4579SOL    HW225371   0.289   0.999   3.098 -0.9610  0.8606 -0.6560
 4580SOL     OW25372   2.050   3.117  14.049  0.0926  0.5560 -0.4996
 4580SOL    HW125373   2.055   3.213  14.042 -0.2003  0.5847 -0.3001
 4580SOL    HW225374   2.104   3.091  13.975  3.4298  0.7779  1.8104
 4581SOL     OW25375   0.059   0.770   5.635 -0.3284 -0.1754 -0.0974
 4581SOL    HW125376   0.027   0.787   5.546 -0.3529  1.2945  0.1934
 4581SOL    HW225377   0.148   0.734   5.630  0.7845  2.7121 -1.0541
 4582SOL     OW25378   1.235   2.625  16.880  0.4914  0.3149  0.2792
 4582SOL    HW125379   1.262   2.715  16.897  1.1738  0.3223 -0.8681
 4582SOL    HW225380   1.159   2.628  16.822  1.1995  0.9893 -0.6024
 4583SOL     OW25381   4.414   2.899   5.435  0.1454  0.2985 -0.4489
 4583SOL    HW125382   4.338   2.887   5.492  1.0757 -4.2553 -0.1936
 4583SOL    HW225383   4.408   2.989   5.402  1.0486  0.5977  0.2152
 4584SOL     OW25384   0.367   1.849   8.994  0.2542 -0.6431 -0.1156
 4584SOL    HW125385   0.455   1.886   8.986 -0.0698  0.3733  1.0518
 4584SOL    HW225386   0.364   1.785   8.922 -1.1257 -1.5777  0.7709
 4585SOL     OW25387   2.452   1.451   6.330  0.0056  0.0602  0.2356
 4585SOL    HW125388   2.392   1.380   6.310 -1.9733  2.2537 -1.6254
 4585SOL    HW225389   2.516   1.412   6.270 -1.7196  0.7496 -2.0166
 4586SOL     OW25390   2.886   2.177  12.771 -0.4858 -0.4026  0.0050
 4586SOL    HW125391   2.942   2.160  12.847 -0.0904  1.7884  0.1988
 4586SOL    HW225392   2.937   2.250  12.735 -1.5700 -0.8131 -2.4165
 4587SOL     OW25393   4.712   2.805   7.023 -0.6937 -0.3325  0.0701
 4587SOL    HW125394   4.634   2.752   7.039 -0.7367 -0.8210 -1.7412
 4587SOL    HW225395   4.707   2.851   6.939 -1.7974 -1.0903 -0.2800
 4588SOL     OW25396   4.410   1.291  16.337 -0.0470 -0.1495  0.8615
 4588SOL    HW125397   4.395   1.197  16.353 -1.2466  0.0039  0.6388
 4588SOL    HW225398   4.487   1.293  16.280 -0.7168  1.8320  0.0503
 4589SOL     OW25399   4.171   2.087  17.631 -0.0775  0.4647  0.6188
 4589SOL    HW125400   4.086   2.131  17.624 -0.5137 -0.2042  1.6160
 4589SOL    HW225401   4.141   2.007  17.674 -0.8986 -0.6541 -1.9980
 4590SOL     OW25402   2.635   1.736  15.800 -0.1986 -0.5367  0.0452
 4590SOL    HW125403   2.585   1.657  15.783  2.2794 -2.4448  1.5547
 4590SOL    HW225404   2.602   1.753  15.888 -0.6277  2.0538 -0.6108
 4591SOL     OW25405   2.115   0.229  16.563  0.0527  0.1544  0.0345
 4591SOL    HW125406   2.159   0.149  16.591  0.1857 -0.8436 -3.0007
 4591SOL    HW225407   2.139   0.236  16.470  0.8548  0.2372  0.2499
 4592SOL     OW25408   0.557   4.498   5.909  0.5711  0.2262 -0.1026
 4592SOL    HW125409   0.511   4.560   5.967 -2.0145  0.6049 -2.5687
 4592SOL    HW225410   0.529   4.422   5.960  0.9604  1.1729  1.5233
 4593SOL     OW25411   0.562   4.686   8.607  0.3889 -0.1690  0.5943
 4593SOL    HW125412   0.494   4.696   8.674 -0.6138 -1.1376 -0.2827
 4593SOL    HW225413   0.617   0.029   8.611 -1.1858  1.0610 -1.5968
 4594SOL     OW25414   2.298   3.878   3.396 -0.2663 -0.3022 -0.5793
 4594SOL    HW125415   2.211   3.895   3.430  0.2693 -0.5325  0.9289
 4594SOL    HW225416   2.346   3.936   3.455  0.7578 -1.8084  0.0942
 4595SOL     OW25417   1.443   2.708   0.174  0.2660 -0.2648 -0.3679
 4595SOL    HW125418   1.364   2.654   0.180 -0.4861  0.8898  0.1738
 4595SOL    HW225419   1.512   2.668   0.228 -0.6822  0.1522  1.1554
 4596SOL     OW25420   2.013   1.632  14.866  0.0430  0.1694  0.5758
 4596SOL    HW125421   2.094   1.681  14.850  0.6539 -0.8327  0.5901
 4596SOL    HW225422   2.045   1.543  14.849  3.3105  1.5150 -0.2764
 4597SOL     OW25423   4.214   2.686   3.816 -0.2355 -0.0552  0.2456
 4597SOL    HW125424   4.175   2.663   3.900 -0.8630 -0.1803 -0.0837
 4597SOL    HW225425   4.300   2.688   3.857  0.8387  0.9259 -2.0671
 4598SOL     OW25426   2.739   0.809  14.355  0.0910  0.2365 -0.6339
 4598SOL    HW125427   2.684   0.755  14.299  0.8373 -1.0401 -0.1219
 4598SOL    HW225428   2.671   0.873  14.377 -0.0117 -0.3904  0.8660
 4599SOL     OW25429   3.369   2.436  15.790  0.8258 -0.0189  0.2724
 4599SOL    HW125430   3.380   2.344  15.767  0.1481  0.0537 -0.3594
 4599SOL    HW225431   3.425   2.446  15.867 -1.2955 -0.1498  1.8504
 4600SOL     OW25432   0.201   1.855   6.337 -0.1353  0.0499  0.0516
 4600SOL    HW125433   0.111   1.821   6.343  1.0652 -3.1949 -0.4710
 4600SOL    HW225434   0.250   1.774   6.327  0.7561  1.1002 -3.9858
 4601SOL     OW25435   2.149   2.893  14.455  0.0360 -0.0491 -0.0062
 4601SOL    HW125436   2.205   2.918  14.383 -0.1063 -0.9512 -0.4298
 4601SOL    HW225437   2.206   2.864  14.527  0.1917  0.5643  0.1114
 4602SOL     OW25438   1.796   2.467  13.922 -0.2549  0.2025 -0.1365
 4602SOL    HW125439   1.759   2.399  13.979 -2.9345 -0.0596 -2.1910
 4602SOL    HW225440   1.845   2.508  13.994  2.1217 -0.0850 -1.6090
 4603SOL     OW25441   3.185   1.200   6.875 -0.0872 -0.2017  0.0696
 4603SOL    HW125442   3.157   1.274   6.930  0.8260  1.1663 -1.3220
 4603SOL    HW225443   3.140   1.217   6.792  0.2773 -0.8823 -0.2615
 4604SOL     OW25444   0.502   3.157   5.522  0.1945  0.2487  0.0433
 4604SOL    HW125445   0.566   3.089   5.502 -1.0835 -1.3844  1.5412
 4604SOL    HW225446   0.546   3.233   5.484  0.7068 -0.1474 -0.1556
 4605SOL     OW25447   0.630   2.301   8.052 -0.6341 -0.7942  0.3374
 4605SOL    HW125448   0.555   2.247   8.026  0.2914 -2.4938  1.1958
 4605SOL    HW225449   0.614   2.382   8.004 -0.7004 -2.2763 -2.1719
 4606SOL     OW25450   2.288   3.479  15.376 -0.2209  0.3364 -0.6105
 4606SOL    HW125451   2.333   3.558  15.406  0.5432 -0.0792 -0.6557
 4606SOL    HW225452   2.341   3.452  15.300 -0.2463  0.4105 -0.6549
 4607SOL     OW25453   1.226   3.410   1.080 -0.2231  0.4113 -0.4610
 4607SOL    HW125454   1.131   3.394   1.085 -0.3774  1.5574  0.2295
 4607SOL    HW225455   1.237   3.458   1.162 -0.9726 -2.6408  1.4313
 4608SOL     OW25456   3.176   2.843   1.318  0.8220  0.2591  0.1707
 4608SOL    HW125457   3.193   2.802   1.403 -1.0889 -2.0058 -0.5117
 4608SOL    HW225458   3.251   2.901   1.315  0.9382  0.1345  0.5959
 4609SOL     OW25459   3.346   0.155   4.473  0.7369  0.2713 -0.1593
 4609SOL    HW125460   3.355   0.251   4.475  0.4036  0.3079 -0.4118
 4609SOL    HW225461   3.256   0.129   4.494  1.1344 -1.1173 -0.1691
 4610SOL     OW25462   1.217   4.246   6.167  0.0443  0.0770  0.6136
 4610SOL    HW125463   1.158   4.259   6.241 -1.8496 -1.9729 -0.5300
 4610SOL    HW225464   1.293   4.296   6.196  0.8024 -0.0287 -1.1556
 4611SOL     OW25465   4.142   4.475  14.480  0.0550 -0.0800  0.2787
 4611SOL    HW125466   4.237   4.467  14.473 -0.0891 -3.5694  1.9478
 4611SOL    HW225467   4.120   4.381  14.481 -1.2225  0.2358  1.3930
 4612SOL     OW25468   4.142   4.732  14.186  0.2429  0.8736 -0.0374
 4612SOL    HW125469   4.238   4.734  14.193  0.2375  0.5727  0.1514
 4612SOL    HW225470   4.116   4.683  14.108  2.8875  1.7110 -1.4600
 4613SOL     OW25471   2.669   0.026  11.568 -0.2290  0.2897 -0.6975
 4613SOL    HW125472   2.722   0.102  11.591  0.4661 -0.0707 -1.1216
 4613SOL    HW225473   2.579   0.059  11.577  0.0044  0.9434 -0.7197
 4614SOL     OW25474   2.628   1.767   5.607  0.4806 -0.0124  0.2716
 4614SOL    HW125475   2.643   1.789   5.699 -0.7630 -0.8452  0.6795
 4614SOL    HW225476   2.532   1.772   5.601  0.6461  1.0703 -1.7723
 4615SOL     OW25477   3.278   4.220   5.550 -0.3487 -0.1877  0.6264
 4615SOL    HW125478   3.289   4.310   5.518  0.6102 -1.1458 -1.7437
 4615SOL    HW225479   3.230   4.231   5.632 -1.5265 -3.2281  0.3145
 4616SOL     OW25480   4.199   2.229   0.971 -0.2824 -0.3621  0.2291
 4616SOL    HW125481   4.112   2.215   0.935  0.1065 -0.3072 -0.7298
 4616SOL    HW225482   4.187   2.252   1.063 -1.8604 -1.5251  0.3056
 4617SOL     OW25483   2.359   3.829  12.831  0.2180  0.0293 -0.3945
 4617SOL    HW125484   2.433   3.787  12.874 -0.3072 -0.0241  0.4430
 4617SOL    HW225485   2.296   3.823  12.902 -2.2148  1.5980 -2.3917
 4618SOL     OW25486   4.654   2.418  13.812 -0.3106 -0.5371  0.4280
 4618SOL    HW125487   4.727   2.359  13.790  0.5399  1.0285 -0.9818
 4618SOL    HW225488   4.698   2.500  13.788  1.1743 -0.9113  1.8560
 4619SOL     OW25489   2.720   1.457   8.105 -0.5517 -0.4353 -0.3729
 4619SOL    HW125490   2.787   1.403   8.064  0.2582  0.0890  0.2468
 4619SOL    HW225491   2.678   1.385   8.153 -0.9045 -0.1730 -0.2887
 4620SOL     OW25492   4.058   0.343  10.083  0.4984 -0.5110  0.0785
 4620SOL    HW125493   4.052   0.435  10.106 -1.0959 -0.8773  1.1122
 4620SOL    HW225494   3.972   0.314  10.112 -0.4259  3.4363  1.1957
 4621SOL     OW25495   4.356   1.576  15.126 -0.2866 -0.1842 -0.5878
 4621SOL    HW125496   4.366   1.653  15.183  4.3936 -1.2305 -0.0619
 4621SOL    HW225497   4.401   1.607  15.047  0.6493 -2.2237 -0.8358
 4622SOL     OW25498   0.064   4.465  16.035 -0.1932 -0.0350 -0.3306
 4622SOL    HW125499   0.156   4.444  16.050 -0.5472 -1.7296 -0.5943
 4622SOL    HW225500   0.010   4.401  16.080 -0.5747 -0.2154 -1.0502
 4623SOL     OW25501   1.531   2.568   4.131 -0.1032 -0.3543 -0.1601
 4623SOL    HW125502   1.469   2.586   4.202 -0.3418 -1.1518 -0.1645
 4623SOL    HW225503   1.599   2.629   4.159 -1.7612  0.4686  2.1438
 4624SOL     OW25504   4.247   2.170   6.882  0.4504  0.7495  0.2406
 4624SOL    HW125505   4.309   2.238   6.856 -0.1019  1.0982 -0.1532
 4624SOL    HW225506   4.280   2.096   6.831  1.0427  2.2975 -1.6466
 4625SOL     OW25507   4.499   4.686   3.721  0.5601 -0.6582  0.7345
 4625SOL    HW125508   4.546   0.025   3.760  0.9926 -0.4382 -0.2144
 4625SOL    HW225509   4.434   4.672   3.790 -0.0693 -2.0061 -0.1403
 4626SOL     OW25510   3.947   0.659   4.987 -0.1308 -0.3576 -0.2293
 4626SOL    HW125511   3.867   0.711   4.997  0.0517 -0.2504  0.6962
 4626SOL    HW225512   3.941   0.642   4.893  1.7510 -0.2050 -0.3784
 4627SOL     OW25513   0.519   0.125   2.426 -0.1625  0.3797  0.3648
 4627SOL    HW125514   0.447   0.109   2.365 -0.8300  3.6838  0.3101
 4627SOL    HW225515   0.526   0.220   2.428 -1.1173  0.4201  1.2913
 4628SOL     OW25516   4.300   1.749   7.197  0.3719 -0.2443  0.2886
 4628SOL    HW125517   4.295   1.832   7.150 -1.8775 -0.5925 -0.1207
 4628SOL    HW225518   4.296   1.681   7.130  2.3041 -0.1907  0.1382
 4629SOL     OW25519   0.595   3.231  15.996 -0.3110  0.5589 -0.2304
 4629SOL    HW125520   0.600   3.208  15.903  0.9587 -0.9280  0.2029
 4629SOL    HW225521   0.683   3.261  16.021  0.8504  0.3520 -4.0943
 4630SOL     OW25522   2.141   1.600  15.419 -0.0768  0.5971  0.0288
 4630SOL    HW125523   2.132   1.573  15.328 -1.5528 -0.8431  0.5918
 4630SOL    HW225524   2.062   1.560  15.457  1.0795 -1.9445 -0.2541
 4631SOL     OW25525   1.692   1.985   2.683  0.4408 -1.0494 -0.7241
 4631SOL    HW125526   1.623   2.050   2.697  0.9969 -0.2705 -1.5718
 4631SOL    HW225527   1.644   1.910   2.717  2.9528 -1.5385  1.7200
 4632SOL     OW25528   0.652   1.713   8.385  0.3005 -0.6259  0.2383
 4632SOL    HW125529   0.676   1.798   8.349 -1.0368 -1.8472 -3.5394
 4632SOL    HW225530   0.598   1.677   8.314 -0.7080  2.5212 -0.5902
 4633SOL     OW25531   2.539   4.172  17.599 -0.4925 -0.4346 -0.0365
 4633SOL    HW125532   2.456   4.175  17.551  1.6063 -0.1332 -3.6243
 4633SOL    HW225533   2.557   4.080  17.580  2.7119 -0.3142  2.5565
 4634SOL     OW25534   1.397   2.299   0.977  0.1277  0.3399  0.1285
 4634SOL    HW125535   1.413   2.353   0.900  2.1994  1.4538  1.3365
 4634SOL    HW225536   1.307   2.316   1.005  1.2507  0.7156  3.5636
 4635SOL     OW25537   3.249   1.104   4.387 -0.6607  0.6802  0.1178
 4635SOL    HW125538   3.237   1.129   4.479  0.0908  2.0174 -0.1475
 4635SOL    HW225539   3.306   1.178   4.367  0.3868 -0.2414 -0.3346
 4636SOL     OW25540   2.477   3.236   6.842  0.5560  0.5221 -0.0180
 4636SOL    HW125541   2.434   3.262   6.761 -1.0152  0.1414  0.6740
 4636SOL    HW225542   2.414   3.175   6.882 -0.6136  0.8348 -1.4140
 4637SOL     OW25543   2.047   4.202  15.580  0.0574  0.0713  0.4674
 4637SOL    HW125544   2.029   4.196  15.486  1.6594  0.8940  0.1021
 4637SOL    HW225545   1.992   4.278  15.601  0.3619  0.5189 -0.3598
 4638SOL     OW25546   1.027   0.762   0.272 -0.6655 -0.1762  0.4203
 4638SOL    HW125547   1.048   0.786   0.182  1.1300  1.7592  1.3806
 4638SOL    HW225548   1.071   0.832   0.319  0.6209 -0.4279 -0.4212
 4639SOL     OW25549   4.505   3.842   9.978  0.4349  0.2921 -0.0314
 4639SOL    HW125550   4.438   3.818  10.042 -0.7275 -0.0667 -1.3856
 4639SOL    HW225551   4.447   3.830   9.903 -1.6162 -0.1138  1.6243
 4640SOL     OW25552   0.410   2.642   8.321 -0.3440  0.7199 -0.9981
 4640SOL    HW125553   0.496   2.628   8.282 -1.3448 -0.7777 -2.6716
 4640SOL    HW225554   0.415   2.642   8.416  0.6265 -0.6787 -1.0488
 4641SOL     OW25555   2.610   1.786   5.896 -0.6911  0.2427 -0.1183
 4641SOL    HW125556   2.596   1.878   5.874 -2.2800 -0.7056 -3.0864
 4641SOL    HW225557   2.530   1.762   5.943 -0.4260  0.0962  0.2603
 4642SOL     OW25558   0.851   3.573   3.404 -0.8827  0.1294  0.0581
 4642SOL    HW125559   0.852   3.495   3.349 -1.7411 -0.0398  0.2881
 4642SOL    HW225560   0.942   3.580   3.432 -1.1081  0.5202  0.6948
 4643SOL     OW25561   4.660   4.001   8.672 -1.1953  0.3323  0.2539
 4643SOL    HW125562   0.011   4.006   8.632 -1.8044  0.5180 -1.0262
 4643SOL    HW225563   4.603   4.047   8.611  3.2238  4.0933 -0.9776
 4644SOL     OW25564   4.668   2.448   1.644  0.4760 -0.0935 -0.3000
 4644SOL    HW125565   4.668   2.382   1.713 -0.8304  0.3488  0.1255
 4644SOL    HW225566   4.717   2.519   1.685  1.0636 -0.6340 -0.0644
 4645SOL     OW25567   3.055   0.225   3.550  0.4038  0.2539  0.2045
 4645SOL    HW125568   3.078   0.317   3.550 -2.0925  0.8688  0.1685
 4645SOL    HW225569   3.128   0.190   3.499 -0.0912  0.2816 -0.5189
 4646SOL     OW25570   2.286   2.988   2.009 -0.2965 -0.1434  0.2232
 4646SOL    HW125571   2.220   2.936   1.963 -0.3309 -1.1479  1.4246
 4646SOL    HW225572   2.233   3.010   2.085 -1.6739 -0.0091 -0.7881
 4647SOL     OW25573   3.600   2.764   3.363  0.0371  0.2534  0.5038
 4647SOL    HW125574   3.568   2.717   3.285 -1.3094 -0.4981  1.5124
 4647SOL    HW225575   3.682   2.795   3.324 -0.0428 -3.1039 -2.4221
 4648SOL     OW25576   0.908   1.743   6.445  0.5749 -0.0668  0.0566
 4648SOL    HW125577   0.821   1.716   6.419  0.7472  0.2527 -0.8640
 4648SOL    HW225578   0.906   1.828   6.402  1.0821 -0.3645 -0.5551
 4649SOL     OW25579   1.488   3.610   7.452  0.2151 -0.0590  0.5291
 4649SOL    HW125580   1.512   3.539   7.393  1.2075 -0.7728  1.7907
 4649SOL    HW225581   1.527   3.677   7.396 -1.9586  0.3612 -0.4582
 4650SOL     OW25582   4.578   1.104   2.148  0.1746 -0.1853 -0.3117
 4650SOL    HW125583   4.515   1.105   2.220  0.6679  0.6996  0.0914
 4650SOL    HW225584   4.583   1.010   2.131  0.8923 -0.0733 -0.6968
 4651SOL     OW25585   4.581   0.783  17.320  0.3597 -0.3836 -0.1708
 4651SOL    HW125586   4.500   0.797  17.369  0.7689 -1.0140  0.6735
 4651SOL    HW225587   4.564   0.833  17.240 -1.6697  2.6504  2.1441
 4652SOL     OW25588   4.306   0.272  10.165 -0.1923  0.4127 -0.2878
 4652SOL    HW125589   4.219   0.297  10.132 -0.5684 -0.4843  0.0500
 4652SOL    HW225590   4.304   0.328  10.243  1.1603 -1.9890  1.4561
 4653SOL     OW25591   4.017   4.154  10.550 -0.2599  0.0316  0.4871
 4653SOL    HW125592   4.029   4.192  10.638 -2.0849  1.2593  0.2070
 4653SOL    HW225593   3.924   4.161  10.528 -0.9117  0.1774  3.2377
 4654SOL     OW25594   0.409   1.649   2.954  0.0772 -0.4531  0.4076
 4654SOL    HW125595   0.441   1.566   2.988  0.4129 -0.7690 -0.7017
 4654SOL    HW225596   0.343   1.680   3.017 -1.3712  0.0810 -1.3833
 4655SOL     OW25597   3.819   3.235   4.232 -0.7086 -0.2686  0.1613
 4655SOL    HW125598   3.805   3.152   4.278  2.6908 -1.0180 -0.2057
 4655SOL    HW225599   3.884   3.281   4.284  0.5960 -1.3307 -0.5473
 4656SOL     OW25600   1.191   2.923  14.713 -0.5703 -0.0512  0.5554
 4656SOL    HW125601   1.224   2.836  14.693 -0.6703 -0.2217  1.1323
 4656SOL    HW225602   1.123   2.936  14.646 -1.9210 -1.6841  1.5954
 4657SOL     OW25603   2.083   0.454   5.832  0.4505 -0.2708 -0.0175
 4657SOL    HW125604   2.062   0.361   5.840 -0.4013 -0.1191 -0.4302
 4657SOL    HW225605   2.043   0.476   5.748 -0.1864 -0.6401  0.1897
 4658SOL     OW25606   0.347   1.713   3.590 -0.0798 -0.7032  0.1399
 4658SOL    HW125607   0.405   1.637   3.601  2.0015  1.0542  1.3213
 4658SOL    HW225608   0.417   1.775   3.569 -1.0085  0.8803  1.7095
 4659SOL     OW25609   4.444   3.768   2.606  0.5925 -0.2796  0.4778
 4659SOL    HW125610   4.427   3.798   2.695  1.4070  0.4880  0.3768
 4659SOL    HW225611   4.521   3.822   2.588  0.4073 -0.6504 -1.4180
 4660SOL     OW25612   0.262   2.269   8.609  0.6616  0.1903 -0.5469
 4660SOL    HW125613   0.256   2.360   8.637 -0.3460 -0.6096  1.8323
 4660SOL    HW225614   0.356   2.267   8.590  1.0547 -0.2935  1.4010
 4661SOL     OW25615   3.705   4.720   2.958  0.0593 -0.6911  0.3110
 4661SOL    HW125616   3.782   4.698   2.907  0.1147 -0.2746  0.2123
 4661SOL    HW225617   3.672   0.060   2.909  3.1701 -1.2383 -2.6402
 4662SOL     OW25618   1.112   2.354   5.797  0.3236  0.7319 -0.0925
 4662SOL    HW125619   1.187   2.349   5.857 -0.5814 -0.0217  0.9886
 4662SOL    HW225620   1.078   2.428   5.846 -1.1702  0.2789 -0.4641
 4663SOL     OW25621   2.510   3.746   7.318  0.6469  0.1389 -0.2308
 4663SOL    HW125622   2.529   3.668   7.371  0.0866 -0.8261 -1.4349
 4663SOL    HW225623   2.415   3.744   7.314  0.5739  1.4180  1.0825
 4664SOL     OW25624   2.536   0.662   3.226  0.3476 -0.6861 -0.0626
 4664SOL    HW125625   2.601   0.712   3.275 -1.5966  1.3181  0.4815
 4664SOL    HW225626   2.590   0.614   3.164 -0.3110 -1.9306  0.3192
 4665SOL     OW25627   1.165   4.681  13.524  0.1404  0.4282  0.0884
 4665SOL    HW125628   1.177   4.602  13.576  2.0239 -0.2271 -1.3235
 4665SOL    HW225629   1.193   4.645  13.440 -2.2894 -0.7466 -0.2301
 4666SOL     OW25630   2.224   3.631   7.510 -0.2113 -0.1712 -0.1082
 4666SOL    HW125631   2.243   3.711   7.560  0.1174 -1.1055  1.2674
 4666SOL    HW225632   2.148   3.595   7.555 -0.2449 -1.7256 -1.4176
 4667SOL     OW25633   1.220   3.372   0.399  0.8531 -0.0659  0.6221
 4667SOL    HW125634   1.193   3.353   0.489  0.6301 -1.3052  0.2917
 4667SOL    HW225635   1.296   3.313   0.394 -1.5564 -3.1156 -0.5187
 4668SOL     OW25636   0.985   3.385   8.008 -0.3489 -0.1558  0.0452
 4668SOL    HW125637   1.005   3.467   8.054 -0.9046 -0.4305  0.7836
 4668SOL    HW225638   0.889   3.377   8.014 -0.5624  1.3225 -1.3077
 4669SOL     OW25639   1.638   0.242   3.535  0.2388 -0.2447  0.1584
 4669SOL    HW125640   1.649   0.154   3.572  1.1879 -0.9266 -1.7553
 4669SOL    HW225641   1.680   0.289   3.606  1.4523 -1.0232 -0.0351
 4670SOL     OW25642   1.741   3.366  15.486  0.0691 -0.5828  0.1237
 4670SOL    HW125643   1.667   3.372  15.546 -2.5600 -0.1035 -3.1550
 4670SOL    HW225644   1.713   3.294  15.429 -0.7635 -0.6603  0.6342
 4671SOL     OW25645   2.967   2.117   8.562  0.0157  0.2226 -0.3090
 4671SOL    HW125646   2.908   2.109   8.637  0.1704 -1.6165 -0.3704
 4671SOL    HW225647   3.052   2.084   8.593  0.8453  2.8994  0.2604
 4672SOL     OW25648   0.808   0.816   4.890 -0.5193  0.3709  0.4147
 4672SOL    HW125649   0.876   0.752   4.867 -0.9427 -0.3436  1.1343
 4672SOL    HW225650   0.815   0.815   4.985 -0.6067  1.1284  0.4280
 4673SOL     OW25651   2.675   3.845   3.666 -0.5554  0.2233 -0.5566
 4673SOL    HW125652   2.621   3.803   3.733  0.9378  0.7253  0.9529
 4673SOL    HW225653   2.689   3.936   3.693  1.2930 -0.4135  0.6475
 4674SOL     OW25654   4.545   1.779   7.932 -0.0299 -0.4896 -0.1640
 4674SOL    HW125655   4.600   1.804   8.007  0.6677  1.0412 -1.1830
 4674SOL    HW225656   4.606   1.725   7.882 -0.9909  0.6562 -2.5817
 4675SOL     OW25657   4.650   3.272   5.015 -0.3104 -0.3696 -0.4412
 4675SOL    HW125658   4.670   3.328   4.940  1.2681  0.7563  0.8162
 4675SOL    HW225659   4.702   3.193   4.997  0.8045 -0.0796  1.4141
 4676SOL     OW25660   2.497   2.202   3.016 -0.6521  0.4979  0.2966
 4676SOL    HW125661   2.425   2.202   2.953 -1.0087  2.8746  0.7160
 4676SOL    HW225662   2.459   2.249   3.090  0.0340  0.0619  0.9240
 4677SOL     OW25663   0.979   0.473   6.726  0.2592 -0.3003  0.0138
 4677SOL    HW125664   0.983   0.381   6.750 -0.9638 -0.0923  1.0050
 4677SOL    HW225665   1.069   0.497   6.749  0.2314 -2.2623  2.1826
 4678SOL     OW25666   4.494   3.746   9.038  0.4724  0.4591 -0.4168
 4678SOL    HW125667   4.539   3.775   9.117  0.7351 -0.5305 -0.2029
 4678SOL    HW225668   4.510   3.828   8.993 -2.5820  1.4557  0.2878
 4679SOL     OW25669   2.273   3.717  17.523  0.2623 -0.0416 -0.0368
 4679SOL    HW125670   2.213   3.777  17.478  0.8802  0.6976  0.1206
 4679SOL    HW225671   2.210   3.658  17.565  0.7993  0.3183  1.2732
 4680SOL     OW25672   0.267   3.668   3.047  0.4156  0.3517  0.5411
 4680SOL    HW125673   0.272   3.579   3.011  1.2332  1.0960 -1.1685
 4680SOL    HW225674   0.188   3.667   3.101  0.9797  2.5535  1.4263
 4681SOL     OW25675   3.368   0.998   5.566  0.1219  0.3646  0.2955
 4681SOL    HW125676   3.368   1.092   5.548 -1.7392  0.4901  0.9145
 4681SOL    HW225677   3.348   0.973   5.476  0.7028 -1.0156  0.5580
 4682SOL     OW25678   3.514   2.869  11.162 -0.9534 -0.4495 -0.3777
 4682SOL    HW125679   3.454   2.941  11.144  0.1412  0.6844  0.4838
 4682SOL    HW225680   3.579   2.904  11.102  0.9951 -1.2220  1.2996
 4683SOL     OW25681   2.108   4.433   5.795  0.6104  0.7020  0.3607
 4683SOL    HW125682   2.108   4.400   5.705  3.9300  1.5338  0.0854
 4683SOL    HW225683   2.058   4.513   5.785 -1.3698 -0.6387 -0.5192
 4684SOL     OW25684   0.260   1.429   5.713  0.0102  0.1375 -0.4701
 4684SOL    HW125685   0.342   1.467   5.746 -1.3919  2.0916  0.7681
 4684SOL    HW225686   0.204   1.483   5.768  0.7015  0.0276  0.3479
 4685SOL     OW25687   2.055   2.904  17.599 -0.6053  0.1985 -0.0206
 4685SOL    HW125688   1.995   2.889  17.525  1.4326  1.8073 -1.9846
 4685SOL    HW225689   2.118   2.841  17.564  0.7801  0.9489  1.1321
 4686SOL     OW25690   1.110   2.127   8.164 -0.1763 -0.2893  0.1396
 4686SOL    HW125691   1.148   2.215   8.168 -0.1858 -0.2051 -1.6798
 4686SOL    HW225692   1.015   2.139   8.171 -0.3460 -2.4208  1.2340
 4687SOL     OW25693   3.260   1.798   9.606  0.4550 -0.1114  0.6495
 4687SOL    HW125694   3.300   1.885   9.610  0.9818 -0.3617  0.7675
 4687SOL    HW225695   3.257   1.802   9.510  3.9139  3.1677  0.6705
 4688SOL     OW25696   3.159   1.988   7.556 -0.1896 -0.4475 -0.1633
 4688SOL    HW125697   3.244   2.019   7.587  0.9372  0.7291 -4.4357
 4688SOL    HW225698   3.178   1.934   7.479 -4.5252 -1.5624 -0.4528
 4689SOL     OW25699   1.749   1.862   9.421 -0.4848  0.0918  0.7085
 4689SOL    HW125700   1.693   1.807   9.476  0.0214 -1.7579 -0.6112
 4689SOL    HW225701   1.745   1.946   9.465 -0.5772  0.7665 -0.5713
 4690SOL     OW25702   1.140   1.535   4.726 -0.1967 -0.1240  0.1883
 4690SOL    HW125703   1.197   1.523   4.650  0.9868 -2.1196  1.3829
 4690SOL    HW225704   1.099   1.449   4.734 -1.7492  0.8944  3.0072
 4691SOL     OW25705   0.338   3.954   9.009 -0.5225  0.0467  0.1635
 4691SOL    HW125706   0.282   3.900   8.953 -0.6042 -0.1219  0.4040
 4691SOL    HW225707   0.305   3.939   9.098 -0.5349  1.3770  0.3839
 4692SOL     OW25708   2.350   2.025  16.671  0.3478  0.3299 -0.1349
 4692SOL    HW125709   2.434   2.065  16.691 -0.1856  1.2695  0.2487
 4692SOL    HW225710   2.345   1.961  16.742  1.9812 -1.1562 -1.3613
 4693SOL     OW25711   0.825   1.904   3.600  0.3437  0.2972 -0.6569
 4693SOL    HW125712   0.844   1.833   3.538  2.4787  0.5823 -0.3274
 4693SOL    HW225713   0.909   1.915   3.643  1.5837 -0.7820 -2.7504
 4694SOL     OW25714   4.381   0.950   3.540 -0.6877  0.8270  0.8827
 4694SOL    HW125715   4.420   0.868   3.571 -2.0358 -0.6010 -1.2571
 4694SOL    HW225716   4.301   0.910   3.506 -0.2261  0.3547  0.3572
 4695SOL     OW25717   0.125   3.780   6.899 -0.0153 -0.5398 -0.2706
 4695SOL    HW125718   0.037   3.777   6.861 -0.1973 -0.6099  0.1604
 4695SOL    HW225719   0.159   3.864   6.868  0.6679 -0.3640  0.9479
 4696SOL     OW25720   2.881   1.484   6.633  0.2327 -0.0138 -0.0073
 4696SOL    HW125721   2.817   1.432   6.583  0.2942  0.8201 -0.9497
 4696SOL    HW225722   2.839   1.569   6.625 -1.6418 -1.2321 -3.1403
 4697SOL     OW25723   3.776   2.407   4.021 -0.0696  0.1066  0.4986
 4697SOL    HW125724   3.835   2.420   4.096 -0.8344 -1.0211  1.3041
 4697SOL    HW225725   3.692   2.403   4.067  0.1502 -0.8356  0.8140
 4698SOL     OW25726   3.523   2.247   4.425 -0.4661  0.4493 -0.4532
 4698SOL    HW125727   3.573   2.300   4.486  1.3135 -0.5399 -1.0428
 4698SOL    HW225728   3.448   2.226   4.480 -0.6839  1.1024 -0.5085
 4699SOL     OW25729   1.101   2.630   1.704 -0.2031 -0.2346  0.2365
 4699SOL    HW125730   1.164   2.699   1.685  0.3356 -0.5706  0.7987
 4699SOL    HW225731   1.116   2.565   1.635  2.4290  0.3685  0.2309
 4700SOL     OW25732   0.126   3.121   5.013 -0.8974 -0.8204 -0.6248
 4700SOL    HW125733   0.144   3.035   4.974 -0.5354 -0.2174 -1.7622
 4700SOL    HW225734   0.151   3.101   5.104  0.4454  0.6103 -0.6656
 4701SOL     OW25735   1.284   2.413   3.355 -0.0937  0.0149 -0.8417
 4701SOL    HW125736   1.270   2.483   3.419 -2.7879 -2.0593  0.8494
 4701SOL    HW225737   1.255   2.457   3.276 -1.7852 -0.4885 -0.5128
 4702SOL     OW25738   4.675   2.582  16.273 -0.3116 -0.0381 -0.6732
 4702SOL    HW125739   4.735   2.633  16.218 -0.4394 -0.7578 -1.4750
 4702SOL    HW225740   4.607   2.574  16.206 -2.0914 -2.1103  1.4082
 4703SOL     OW25741   3.367   0.080   8.743  0.0745  0.0453 -0.1952
 4703SOL    HW125742   3.297   0.135   8.709  0.4515 -0.3506 -1.6180
 4703SOL    HW225743   3.376   0.030   8.662  3.0164 -1.6860  1.2044
 4704SOL     OW25744   4.258   3.279   1.849 -0.0991  0.0362 -0.4053
 4704SOL    HW125745   4.271   3.350   1.786  1.9508 -1.0489 -1.1967
 4704SOL    HW225746   4.212   3.208   1.803  0.2433 -1.4628  1.5589
 4705SOL     OW25747   3.563   3.096   1.123  0.3812 -0.5553  0.3278
 4705SOL    HW125748   3.640   3.124   1.173  0.1303  1.1968 -0.2752
 4705SOL    HW225749   3.582   3.127   1.035  1.3911 -0.4578  0.5816
 4706SOL     OW25750   3.724   0.266   3.530 -0.2542  0.2892  0.2236
 4706SOL    HW125751   3.800   0.266   3.587 -0.1206 -0.0454  0.0456
 4706SOL    HW225752   3.757   0.303   3.448  2.6916  0.6660  1.6037
 4707SOL     OW25753   0.288   3.144   6.299 -0.0078  0.9001  0.1751
 4707SOL    HW125754   0.337   3.108   6.372 -0.9254 -0.0186  0.3382
 4707SOL    HW225755   0.363   3.178   6.250 -0.5453  1.1488 -0.4739
 4708SOL     OW25756   3.608   1.891   3.171  0.1553 -0.5076  0.0379
 4708SOL    HW125757   3.573   1.960   3.114 -0.0944 -1.9799 -1.5978
 4708SOL    HW225758   3.599   1.937   3.254 -2.5024 -2.5476  0.8608
 4709SOL     OW25759   2.906   4.152   9.358  0.3473  0.0965  0.1328
 4709SOL    HW125760   2.871   4.111   9.278  1.6371  1.2776 -1.0495
 4709SOL    HW225761   2.832   4.201   9.392  1.0970  1.6433 -0.4462
 4710SOL     OW25762   1.002   2.139   3.253  0.6485 -0.3060 -0.4268
 4710SOL    HW125763   1.071   2.078   3.224  0.9965 -1.2685  2.3898
 4710SOL    HW225764   1.020   2.165   3.343 -2.9056 -0.8726  0.4119
 4711SOL     OW25765   2.959   0.291   7.300 -0.0914  0.0948 -0.3996
 4711SOL    HW125766   2.895   0.362   7.304 -0.1671 -0.0449  0.7783
 4711SOL    HW225767   2.938   0.242   7.221  3.4253 -4.1164  1.2752
 4712SOL     OW25768   3.239   1.754   8.830 -0.0026  0.1015  0.2350
 4712SOL    HW125769   3.177   1.764   8.902  0.2113 -0.3376  0.4786
 4712SOL    HW225770   3.267   1.663   8.838 -1.8359 -0.7707 -3.1042
 4713SOL     OW25771   1.690   0.436   5.167  0.1708  0.3996 -0.2460
 4713SOL    HW125772   1.664   0.345   5.178  0.8451  0.0918 -1.2067
 4713SOL    HW225773   1.672   0.455   5.075  0.4295 -1.9320 -0.7922
 4714SOL     OW25774   2.170   4.693   3.073  0.0997 -0.1099  0.1627
 4714SOL    HW125775   2.253   0.004   3.088 -1.1144  2.0409  0.3436
 4714SOL    HW225776   2.214   4.644   3.003  0.9292  0.9349 -0.0593
 4715SOL     OW25777   1.575   1.232   1.915  0.0027 -0.0393  0.0150
 4715SOL    HW125778   1.647   1.213   1.855  1.5485  0.2427  1.8143
 4715SOL    HW225779   1.604   1.181   1.990  0.7293  0.0264 -0.2291
 4716SOL     OW25780   0.271   4.300  11.392  0.0783 -0.2592  0.1637
 4716SOL    HW125781   0.350   4.293  11.338 -0.4571 -0.1828 -0.6292
 4716SOL    HW225782   0.255   4.206  11.398  2.1085 -0.4234  2.9608
 4717SOL     OW25783   0.358   3.970   6.881  0.4109 -0.0293  0.9195
 4717SOL    HW125784   0.425   3.954   6.814 -1.6850  3.8268 -2.0844
 4717SOL    HW225785   0.395   3.927   6.958  0.4377  1.4764  1.7347
 4718SOL     OW25786   0.572   3.104   9.752 -0.2573  0.3677  0.2560
 4718SOL    HW125787   0.479   3.084   9.742 -0.3573  1.0663 -0.2453
 4718SOL    HW225788   0.586   3.063   9.837 -0.6896  0.7501  0.5159
 4719SOL     OW25789   4.215   0.996  15.328 -0.3812 -0.1791 -0.2138
 4719SOL    HW125790   4.230   0.990  15.234 -1.8529  1.1791 -0.5364
 4719SOL    HW225791   4.121   0.982  15.322 -0.4132 -0.7347  1.5419
 4720SOL     OW25792   1.685   3.236   2.722  0.0453  0.1292 -0.7515
 4720SOL    HW125793   1.600   3.259   2.686 -0.0142 -1.2836 -1.5074
 4720SOL    HW225794   1.733   3.318   2.734  0.3190 -0.0209 -0.8014
 4721SOL     OW25795   3.580   3.641   5.216  0.0012 -0.0970  0.9652
 4721SOL    HW125796   3.636   3.567   5.237 -0.9706 -0.4843  2.2380
 4721SOL    HW225797   3.591   3.686   5.300 -0.0294 -0.6916  1.2888
 4722SOL     OW25798   2.756   0.439   9.304  0.1818 -0.7101  0.2140
 4722SOL    HW125799   2.843   0.474   9.322 -0.9780  1.4602  1.6758
 4722SOL    HW225800   2.764   0.397   9.219 -1.3632 -0.0891 -0.2359
 4723SOL     OW25801   3.678   4.154   4.341 -0.3557  0.0943 -0.4537
 4723SOL    HW125802   3.629   4.085   4.298 -0.3277 -0.4865  0.4614
 4723SOL    HW225803   3.629   4.230   4.309 -2.9474 -0.2910  2.6628
 4724SOL     OW25804   4.137   2.099  10.536  0.0985  0.5118 -0.1158
 4724SOL    HW125805   4.187   2.048  10.600 -0.0294  0.6525  0.0933
 4724SOL    HW225806   4.061   2.042  10.530  0.0761  0.5764 -0.4789
 4725SOL     OW25807   3.762   1.367   3.575  0.2068 -0.2121 -0.2270
 4725SOL    HW125808   3.821   1.376   3.500  0.9539 -2.6630  0.0569
 4725SOL    HW225809   3.816   1.345   3.651 -0.1570 -0.3693 -0.0134
 4726SOL     OW25810   2.147   4.037  13.202  0.1524  0.2574 -0.5860
 4726SOL    HW125811   2.115   3.990  13.124 -0.7134 -0.3544  0.1368
 4726SOL    HW225812   2.092   4.115  13.193 -0.3608 -0.0737 -0.3381
 4727SOL     OW25813   3.825   3.701   5.392  0.4457  0.3466  0.1677
 4727SOL    HW125814   3.868   3.736   5.470  0.7738  0.1153  0.0912
 4727SOL    HW225815   3.856   3.611   5.402 -0.6297 -0.0397 -0.0138
 4728SOL     OW25816   4.626   3.050   5.152  0.1242  0.3860 -0.2435
 4728SOL    HW125817   4.624   3.138   5.117 -0.8365  0.6278  0.4308
 4728SOL    HW225818   4.661   3.060   5.241  3.4337  1.2619 -1.6317
 4729SOL     OW25819   3.820   4.348   5.783 -0.1100  0.1747  0.3725
 4729SOL    HW125820   3.760   4.326   5.711  1.0208  2.1541 -1.1729
 4729SOL    HW225821   3.754   4.332   5.850  0.1251  0.8559  0.7662
 4730SOL     OW25822   3.855   0.758   9.071  0.6608  0.1764 -0.1832
 4730SOL    HW125823   3.760   0.760   9.067  0.5971 -1.7280  0.1506
 4730SOL    HW225824   3.872   0.699   9.144 -0.3720  0.2782  0.1269
 4731SOL     OW25825   1.948   0.025   5.176 -0.4863  0.0151 -0.5265
 4731SOL    HW125826   1.907   0.110   5.159 -0.3224 -0.1461 -1.6878
 4731SOL    HW225827   2.015   0.014   5.108  1.1394  1.6790  0.8025
 4732SOL     OW25828   2.813   1.099   4.842 -0.2001  0.1977 -0.8846
 4732SOL    HW125829   2.737   1.131   4.889 -0.0778  0.0529 -0.5909
 4732SOL    HW225830   2.883   1.160   4.867 -1.0482  0.3458  1.0970
 4733SOL     OW25831   1.185   0.946   8.948  0.7387 -0.4072 -0.5810
 4733SOL    HW125832   1.202   0.885   9.019 -4.0792 -2.5878 -1.2413
 4733SOL    HW225833   1.248   1.016   8.964  0.3117 -0.4386  1.2431
 4734SOL     OW25834   3.218   3.425   3.131 -0.2388 -0.3797  0.1502
 4734SOL    HW125835   3.268   3.351   3.164 -0.5223  0.9634  3.5778
 4734SOL    HW225836   3.227   3.404   3.038  1.7879  2.7791 -0.3726
 4735SOL     OW25837   1.824   4.471  12.303  0.0980 -0.5845 -0.4394
 4735SOL    HW125838   1.746   4.426  12.336 -0.1011  0.2316  0.2236
 4735SOL    HW225839   1.895   4.406  12.304 -0.8452 -1.5747  4.1280
 4736SOL     OW25840   2.104   0.167   3.281  0.1720  0.2199 -0.5471
 4736SOL    HW125841   2.101   0.236   3.348 -2.1328 -0.4128 -0.0133
 4736SOL    HW225842   2.137   0.211   3.203 -1.7326  0.9829 -0.9234
 4737SOL     OW25843   0.242   2.368  10.924 -0.3036 -0.5313  0.2961
 4737SOL    HW125844   0.282   2.444  10.882 -1.9314  0.9392  1.4063
 4737SOL    HW225845   0.158   2.349  10.883 -0.0847  0.0569 -0.4159
 4738SOL     OW25846   2.002   3.503  12.125  0.1736 -0.2384  0.0995
 4738SOL    HW125847   2.049   3.422  12.104  0.8800 -0.2877  1.8948
 4738SOL    HW225848   2.011   3.508  12.220  1.4365 -0.6899  0.0146
 4739SOL     OW25849   1.460   2.972   0.928  0.2205 -0.0150  0.3039
 4739SOL    HW125850   1.542   2.938   0.966  0.8387 -1.1248 -2.0165
 4739SOL    HW225851   1.480   3.056   0.887 -0.2427 -0.3886 -0.6912
 4740SOL     OW25852   1.561   4.250   5.055  0.3085  0.6194  0.6113
 4740SOL    HW125853   1.644   4.221   5.093 -0.0777 -0.2733  0.7783
 4740SOL    HW225854   1.523   4.168   5.022 -1.4344  0.2454  3.5204
 4741SOL     OW25855   1.772   4.442   2.584 -0.1275  0.2558 -0.1671
 4741SOL    HW125856   1.733   4.462   2.499  0.5689  1.2410 -0.2573
 4741SOL    HW225857   1.716   4.374   2.622 -0.2747 -0.9607 -2.5241
 4742SOL     OW25858   2.856   2.571   5.720 -0.3232  0.2359 -0.2446
 4742SOL    HW125859   2.790   2.632   5.753  0.2012  1.4317 -1.3760
 4742SOL    HW225860   2.931   2.625   5.693 -1.0352  2.4142  2.1093
 4743SOL     OW25861   0.028   0.842  10.157  0.1880  0.1698 -0.3488
 4743SOL    HW125862   0.001   0.888  10.078 -0.3453 -2.1594 -1.5076
 4743SOL    HW225863   0.048   0.751  10.135  1.7593  0.0533  1.5428
 4744SOL     OW25864   4.625   3.037   6.363 -0.3636  0.2714 -0.0893
 4744SOL    HW125865   4.681   2.986   6.304 -0.7569  1.0708 -1.1436
 4744SOL    HW225866   4.674   3.111   6.396  0.3448 -0.6855  0.9890
 4745SOL     OW25867   1.733   3.820  10.568 -0.1083 -0.8803 -0.0958
 4745SOL    HW125868   1.684   3.769  10.504 -2.5877  1.2611  0.0783
 4745SOL    HW225869   1.807   3.855  10.519 -0.9941  0.8652 -0.2134
 4746SOL     OW25870   3.379   4.225   3.386  0.2396  0.1597  0.2014
 4746SOL    HW125871   3.379   4.222   3.481  0.5411 -0.2920  0.1887
 4746SOL    HW225872   3.451   4.284   3.363 -0.6154  0.4146 -1.8140
 4747SOL     OW25873   1.934   4.733  17.704  0.1230 -0.1634  0.0443
 4747SOL    HW125874   1.945   0.066   0.031  0.5323  0.3516 -0.5500
 4747SOL    HW225875   1.944   0.048  17.623 -0.2024 -0.6924 -0.3210
 4748SOL     OW25876   3.861   0.115   5.932 -0.5037  0.1328 -0.1134
 4748SOL    HW125877   3.949   0.085   5.954 -1.5501 -1.9852  1.1628
 4748SOL    HW225878   3.845   0.067   5.851  1.2266 -0.0564 -0.3329
 4749SOL     OW25879   0.421   2.718   2.446  0.9376  0.1015 -0.0073
 4749SOL    HW125880   0.437   2.799   2.494  1.2269 -0.9587  1.7121
 4749SOL    HW225881   0.339   2.746   2.404 -0.7262 -3.7426  0.6474
 4750SOL     OW25882   0.118   4.008  16.303  0.4487 -0.1507 -0.5150
 4750SOL    HW125883   0.180   3.948  16.345 -1.1510 -1.9847 -0.7553
 4750SOL    HW225884   0.030   3.988  16.333 -0.7302  0.9823 -3.1779
 4751SOL     OW25885   2.696   4.039   6.442  0.3291 -0.3920  0.2260
 4751SOL    HW125886   2.759   4.015   6.375 -0.7175  1.5626 -1.4844
 4751SOL    HW225887   2.683   4.134   6.434  0.0458 -0.7698 -3.3900
 4752SOL     OW25888   3.500   2.354   4.146 -0.0011  0.4031  0.7737
 4752SOL    HW125889   3.414   2.389   4.168  0.0341  1.2038 -0.3079
 4752SOL    HW225890   3.538   2.339   4.233  0.6908 -1.7430  0.1111
 4753SOL     OW25891   4.249   0.408   1.512 -0.2663 -0.2054 -0.0542
 4753SOL    HW125892   4.157   0.393   1.533 -0.1748 -1.7870 -0.8126
 4753SOL    HW225893   4.265   0.500   1.532 -0.0864 -0.1557 -0.4311
 4754SOL     OW25894   1.836   0.426   6.163  0.3212 -0.1615  0.0431
 4754SOL    HW125895   1.876   0.510   6.137  1.8035 -1.0500 -0.5800
 4754SOL    HW225896   1.843   0.428   6.258 -1.3398  1.4838  0.1244
 4755SOL     OW25897   0.970   2.704   4.009  0.1556  0.2540 -0.0261
 4755SOL    HW125898   0.924   2.750   4.080 -0.5744 -0.8992  0.2332
 4755SOL    HW225899   1.056   2.748   4.007  0.4536 -0.2512  2.1672
 4756SOL     OW25900   0.367   1.797   6.849 -0.8290  0.0323 -0.8500
 4756SOL    HW125901   0.287   1.823   6.894 -0.4000 -0.2486  0.0667
 4756SOL    HW225902   0.333   1.794   6.759  0.0928 -0.2453 -1.1859
 4757SOL     OW25903   4.245   3.355   5.668  0.2844 -0.0273  0.0051
 4757SOL    HW125904   4.313   3.398   5.720  0.8605  0.5064 -1.1903
 4757SOL    HW225905   4.258   3.261   5.686  0.6530  0.0618  0.2222
 4758SOL     OW25906   3.337   3.791  13.016 -0.2902 -0.3635  0.0498
 4758SOL    HW125907   3.291   3.786  13.099 -1.2650 -2.0738 -0.5720
 4758SOL    HW225908   3.309   3.712  12.970 -0.9125  0.1161 -0.3886
 4759SOL     OW25909   0.377   2.085  16.992  0.4042 -0.6202  0.1428
 4759SOL    HW125910   0.440   2.087  17.064  2.9594 -1.3690 -2.0895
 4759SOL    HW225911   0.329   2.002  16.995 -2.1763  0.8927  1.4537
 4760SOL     OW25912   3.162   4.131   7.409  0.1611 -0.0943  0.0246
 4760SOL    HW125913   3.222   4.203   7.427 -0.0252  0.1417 -0.2986
 4760SOL    HW225914   3.187   4.098   7.323 -1.0779  0.4474 -0.5484
 4761SOL     OW25915   3.151   1.188  11.708 -0.7052 -0.0530  0.0036
 4761SOL    HW125916   3.164   1.175  11.802  0.1478 -2.2177 -0.4062
 4761SOL    HW225917   3.057   1.169  11.701 -0.9025  0.1174  2.3179
 4762SOL     OW25918   0.325   0.242   3.866 -0.1849 -0.1823 -0.1401
 4762SOL    HW125919   0.406   0.277   3.902  0.1241  0.4178 -1.4198
 4762SOL    HW225920   0.362   0.158   3.838 -0.0553 -0.0750 -0.2913
 4763SOL     OW25921   0.854   2.049   7.315 -0.0094  0.2154 -0.3200
 4763SOL    HW125922   0.823   2.060   7.225 -1.0085 -2.0536 -0.2471
 4763SOL    HW225923   0.782   2.090   7.363  0.6657 -0.2381  1.0838
 4764SOL     OW25924   4.097   0.914   8.918 -0.4098 -0.1605 -0.3507
 4764SOL    HW125925   4.059   0.925   9.005 -1.2364 -0.7844 -0.6445
 4764SOL    HW225926   4.025   0.936   8.859 -1.3071 -0.9828  0.4640
 4765SOL     OW25927   1.642   4.577  14.150 -0.5765  0.2253 -0.0750
 4765SOL    HW125928   1.564   4.523  14.136 -1.3104  1.0516  0.8645
 4765SOL    HW225929   1.656   4.630  14.071 -1.8371  0.4496 -0.1494
 4766SOL     OW25930   3.227   4.460  16.961  0.0834 -0.0211 -0.1706
 4766SOL    HW125931   3.251   4.434  16.872  1.9881  2.2854 -0.3062
 4766SOL    HW225932   3.217   4.374  17.003  2.4952  0.3202  1.0966
 4767SOL     OW25933   4.651   4.214   4.239 -0.0130  0.1131  0.5603
 4767SOL    HW125934   4.611   4.132   4.267 -1.3857  0.5568 -0.0691
 4767SOL    HW225935   4.634   4.273   4.313 -1.0569  1.2304 -0.5626
 4768SOL     OW25936   0.905   2.312  10.997  0.5376 -0.2796  0.8518
 4768SOL    HW125937   0.879   2.298  10.906  1.4127  0.8011  0.4373
 4768SOL    HW225938   0.835   2.367  11.030  0.5163 -0.3497  0.9236
 4769SOL     OW25939   0.692   0.070   3.864  0.4672  0.3839 -0.2939
 4769SOL    HW125940   0.713   0.023   3.783 -1.3795  1.7894 -1.5764
 4769SOL    HW225941   0.649   0.000   3.914  1.4096  0.2201  0.2901
 4770SOL     OW25942   1.996   1.842   7.090  0.5546 -0.8986 -0.4665
 4770SOL    HW125943   2.054   1.817   7.162 -1.3624 -1.5446  0.8578
 4770SOL    HW225944   1.911   1.829   7.134 -0.5952  2.4986 -1.6579
 4771SOL     OW25945   0.688   3.294   9.494 -0.1267 -0.0161  0.1899
 4771SOL    HW125946   0.776   3.271   9.464  0.0322 -0.4122  0.9522
 4771SOL    HW225947   0.652   3.206   9.511 -1.3808  0.2954 -0.8117
 4772SOL     OW25948   3.394   1.924   7.903  0.1053  0.1196  0.1123
 4772SOL    HW125949   3.347   1.906   7.985 -0.1937  2.0443  0.3549
 4772SOL    HW225950   3.482   1.920   7.941  0.4912  0.5863 -0.7312
 4773SOL     OW25951   2.545   3.486   8.496 -0.1330  0.6314 -0.2996
 4773SOL    HW125952   2.544   3.487   8.400 -0.5407  1.2173 -0.2881
 4773SOL    HW225953   2.620   3.543   8.512 -1.4062  3.0024 -2.6018
 4774SOL     OW25954   4.283   1.015  15.602  0.2776  0.6221 -0.1542
 4774SOL    HW125955   4.265   1.010  15.508 -1.2442  0.1115  0.1511
 4774SOL    HW225956   4.270   0.926  15.637 -0.9981  0.2642 -1.5051
 4775SOL     OW25957   4.503   0.601   6.295 -0.2813  0.4704  0.0501
 4775SOL    HW125958   4.552   0.529   6.255 -1.6107  0.5878 -1.7580
 4775SOL    HW225959   4.433   0.613   6.231 -1.3434 -0.0665  1.0906
 4776SOL     OW25960   2.910   2.511   8.421  0.5227 -0.1325 -0.4649
 4776SOL    HW125961   2.868   2.544   8.341 -1.5679  0.8998  1.0446
 4776SOL    HW225962   2.977   2.457   8.380 -0.6450 -2.1427  0.2783
 4777SOL     OW25963   1.589   0.596   2.489 -0.1052  0.6822  0.5828
 4777SOL    HW125964   1.644   0.675   2.492  0.5511  0.2611 -0.6519
 4777SOL    HW225965   1.562   0.593   2.397 -0.1071  0.4771  0.5901
 4778SOL     OW25966   0.341   2.893   8.171  0.0893 -0.5584 -0.0167
 4778SOL    HW125967   0.373   2.808   8.201  0.0115 -1.1592 -1.6444
 4778SOL    HW225968   0.295   2.868   8.091 -2.4539  0.4122  1.1096
 4779SOL     OW25969   3.437   1.163  12.653 -0.6685  0.2040 -0.1743
 4779SOL    HW125970   3.429   1.092  12.716 -0.0412 -1.0344 -1.4648
 4779SOL    HW225971   3.345   1.189  12.648 -0.8916 -0.4129  0.7868
 4780SOL     OW25972   0.904   0.127   7.766 -0.6738  0.4622  0.0025
 4780SOL    HW125973   0.831   0.065   7.775  1.6350 -2.1015  0.9332
 4780SOL    HW225974   0.970   0.075   7.721  0.0884  3.7386 -2.6108
 4781SOL     OW25975   0.333   1.455  10.865 -0.3320 -0.1290 -0.0326
 4781SOL    HW125976   0.403   1.457  10.799  0.8580  2.3535  1.2975
 4781SOL    HW225977   0.287   1.534  10.838 -0.4743 -0.9417 -2.1783
 4782SOL     OW25978   0.639   3.998   1.397 -0.1689  0.6630  0.5908
 4782SOL    HW125979   0.672   3.933   1.460 -0.3147 -1.3530 -1.4161
 4782SOL    HW225980   0.574   4.044   1.450 -2.5580 -1.9001 -0.0879
 4783SOL     OW25981   1.340   1.466  13.019 -0.2587 -0.1346 -0.3056
 4783SOL    HW125982   1.370   1.541  13.072 -0.2999  0.0962 -0.6091
 4783SOL    HW225983   1.258   1.454  13.067 -0.7497  1.1457 -0.8280
 4784SOL     OW25984   0.633   3.674  11.351  0.3433  0.0214  0.3095
 4784SOL    HW125985   0.570   3.656  11.281  0.9738 -1.0981  0.0109
 4784SOL    HW225986   0.715   3.692  11.305  1.5610 -1.0880  2.0389
 4785SOL     OW25987   4.383   0.485   7.610  0.0719 -0.1679  0.0760
 4785SOL    HW125988   4.444   0.509   7.680  0.5580 -1.4399  0.0935
 4785SOL    HW225989   4.302   0.511   7.652 -0.8342 -0.8442 -1.2323
 4786SOL     OW25990   2.165   3.622  16.550 -0.0516  0.4319  0.1731
 4786SOL    HW125991   2.195   3.642  16.639 -1.2593  0.6519  0.5374
 4786SOL    HW225992   2.074   3.652  16.558 -0.9966 -2.3633 -0.1313
 4787SOL     OW25993   0.855   2.049  11.089  0.3311 -0.2100 -0.2172
 4787SOL    HW125994   0.827   2.055  11.180 -5.1738 -0.3267 -1.9014
 4787SOL    HW225995   0.874   2.142  11.076 -0.9931  0.2656  1.2877
 4788SOL     OW25996   3.838   0.377  14.052  0.2079  0.1264  0.3868
 4788SOL    HW125997   3.827   0.376  14.147  0.1710 -0.6104  0.3704
 4788SOL    HW225998   3.929   0.403  14.040  0.1922 -1.3206 -2.9487
 4789SOL     OW25999   0.755   2.090   5.699 -0.3934 -0.7931  0.4119
 4789SOL    HW126000   0.726   2.178   5.723  0.4304 -0.4685  0.2267
 4789SOL    HW226001   0.796   2.116   5.617 -1.1146 -1.0996 -0.0396
 4790SOL     OW26002   3.164   4.006   9.161 -0.5638  0.0095 -0.1327
 4790SOL    HW126003   3.229   3.938   9.178  0.8537  1.5975  0.7543
 4790SOL    HW226004   3.152   4.042   9.249  0.4292 -1.2071  0.5015
 4791SOL     OW26005   0.493   2.280   6.550  0.4503  0.2765 -0.3123
 4791SOL    HW126006   0.530   2.198   6.518  0.5407  0.2853 -0.2288
 4791SOL    HW226007   0.571   2.318   6.590  0.6856 -0.5785  0.0298
 4792SOL     OW26008   0.615   2.220   3.912 -0.0669 -0.3922 -0.4283
 4792SOL    HW126009   0.656   2.198   3.829  0.8297 -0.8009  0.1321
 4792SOL    HW226010   0.543   2.282   3.894 -0.9490 -1.4433 -0.5059
 4793SOL     OW26011   4.350   1.517   6.513 -0.3770  0.2003 -0.4373
 4793SOL    HW126012   4.363   1.582   6.444 -0.1839  0.3180 -0.2900
 4793SOL    HW226013   4.436   1.517   6.554 -1.0615 -0.1804  1.0283
 4794SOL     OW26014   4.617   4.293  16.226 -0.2849 -0.0769 -0.2523
 4794SOL    HW126015   4.651   4.268  16.313  0.3061  2.7739  0.3299
 4794SOL    HW226016   4.533   4.252  16.205  1.1633 -2.3627 -1.6361
 4795SOL     OW26017   3.408   0.398   9.883  0.2334 -1.0171  0.5940
 4795SOL    HW126018   3.399   0.378   9.790  2.2476  1.0767 -0.0363
 4795SOL    HW226019   3.434   0.311   9.913 -0.6889 -0.9906  1.4893
 4796SOL     OW26020   4.624   0.409   6.502 -0.1014  0.2077  0.2010
 4796SOL    HW126021   4.700   0.380   6.451 -1.0712  0.4215 -1.3636
 4796SOL    HW226022   4.575   0.328   6.518  1.3305 -0.6118  0.4002
 4797SOL     OW26023   1.186   3.316   4.388  0.0483 -0.4463  0.0888
 4797SOL    HW126024   1.149   3.389   4.437 -0.8019 -0.3596 -0.6958
 4797SOL    HW226025   1.116   3.253   4.404  0.4760 -1.7916 -3.3876
 4798SOL     OW26026   4.645   3.413   2.180 -0.6379  0.1116  0.4544
 4798SOL    HW126027   4.608   3.501   2.179  1.0973  0.8613  2.7916
 4798SOL    HW226028   4.637   3.384   2.089  0.2775 -1.0677  0.7460
 4799SOL     OW26029   1.436   3.660  16.885  0.4161 -0.3126 -0.4667
 4799SOL    HW126030   1.343   3.659  16.865  0.4780  0.1208 -0.7781
 4799SOL    HW226031   1.451   3.745  16.928 -0.9784 -0.7130  0.8166
 4800SOL     OW26032   1.326   2.486  12.310 -0.0661  0.3157  0.3967
 4800SOL    HW126033   1.403   2.542  12.320  0.4060 -0.5841  1.7930
 4800SOL    HW226034   1.268   2.525  12.375 -0.8475  1.7724 -1.1778
 4801SOL     OW26035   1.682   3.506   2.238 -0.3469  0.5765  0.0512
 4801SOL    HW126036   1.677   3.473   2.328 -0.1815  1.0770  0.2410
 4801SOL    HW226037   1.700   3.427   2.186  0.8353  0.4673  0.6336
 4802SOL     OW26038   0.278   0.905   5.437  0.2884 -0.1529 -0.3714
 4802SOL    HW126039   0.359   0.878   5.480  0.3682  0.9106  0.1609
 4802SOL    HW226040   0.252   0.965   5.507  0.7260 -2.1680  1.5171
 4803SOL     OW26041   4.218   1.490   8.394  0.2942 -0.3765  0.5563
 4803SOL    HW126042   4.151   1.438   8.438 -1.3957  0.9393 -0.4616
 4803SOL    HW226043   4.170   1.508   8.314  1.2300 -0.5514 -0.0459
 4804SOL     OW26044   1.405   1.237   1.425  0.8789  0.3590  0.7244
 4804SOL    HW126045   1.457   1.301   1.474  2.6909 -0.3180 -0.3201
 4804SOL    HW226046   1.439   1.158   1.466 -2.2652 -0.3461  1.9811
 4805SOL     OW26047   1.058   3.228   2.743 -0.2800  0.0439 -0.4292
 4805SOL    HW126048   0.990   3.221   2.676 -2.0594 -0.9804  1.4978
 4805SOL    HW226049   1.121   3.170   2.699  0.0240  1.8278 -2.3365
 4806SOL     OW26050   2.882   1.295   7.095  0.3984 -0.2557 -0.3143
 4806SOL    HW126051   2.962   1.332   7.132  0.2741  3.7448 -4.0499
 4806SOL    HW226052   2.873   1.358   7.023  0.3472 -0.2834 -0.3327
 4807SOL     OW26053   1.357   0.503  15.976  0.2325 -0.5084 -0.0736
 4807SOL    HW126054   1.340   0.423  16.026 -0.5428 -0.5842 -0.4630
 4807SOL    HW226055   1.431   0.540  16.026 -2.0773  4.7595 -0.4921
 4808SOL     OW26056   3.819   0.804   4.710  0.1736  0.5733 -0.0480
 4808SOL    HW126057   3.795   0.796   4.618 -0.5038  1.2280  0.0729
 4808SOL    HW226058   3.901   0.852   4.709  0.6361 -0.2087  0.3824
 4809SOL     OW26059   3.123   1.040   8.585 -0.1131 -0.4927  0.1963
 4809SOL    HW126060   3.168   0.963   8.618  0.6540  0.7052  1.9191
 4809SOL    HW226061   3.190   1.077   8.526 -0.8275  0.9631  0.2908
 4810SOL     OW26062   2.874   3.858  11.589 -0.2683  0.4080  0.1761
 4810SOL    HW126063   2.823   3.802  11.530 -0.8496 -1.1906  2.2053
 4810SOL    HW226064   2.911   3.791  11.646  0.8524 -0.3170 -1.4029
 4811SOL     OW26065   4.529   1.398   5.092  0.4588  0.1336 -0.2795
 4811SOL    HW126066   4.530   1.333   5.162 -0.4271 -0.5758 -0.9205
 4811SOL    HW226067   4.514   1.339   5.018  1.1206 -0.6390  0.1986
 4812SOL     OW26068   0.380   1.425   5.229 -0.0316 -0.3134 -0.1002
 4812SOL    HW126069   0.291   1.397   5.204  0.0849  1.5032 -2.5784
 4812SOL    HW226070   0.393   1.354   5.292  0.4569 -0.5205 -0.4355
 4813SOL     OW26071   2.747   0.144   7.559 -0.0802 -0.1775  0.4936
 4813SOL    HW126072   2.686   0.088   7.607  1.3191 -2.4943 -0.4481
 4813SOL    HW226073   2.720   0.138   7.468  1.9460  2.7310 -0.3026
 4814SOL     OW26074   3.375   0.633   4.214 -0.0535  0.2077 -0.0791
 4814SOL    HW126075   3.396   0.541   4.230  0.6717 -0.1236 -2.8681
 4814SOL    HW226076   3.300   0.616   4.157 -0.3063 -1.4601  0.7363
 4815SOL     OW26077   4.332   0.087   9.779  0.5558  0.3516  0.1681
 4815SOL    HW126078   4.264   0.153   9.762  0.9915  1.4907  2.8855
 4815SOL    HW226079   4.287   0.012   9.739  2.2002  0.4373 -1.8799
 4816SOL     OW26080   2.277   2.934   6.330  0.6134 -0.3236 -0.3003
 4816SOL    HW126081   2.351   2.922   6.389  0.4931  0.9386  0.1023
 4816SOL    HW226082   2.209   2.957   6.392 -0.4261 -0.5550 -1.3460
 4817SOL     OW26083   0.258   1.523   9.318  0.0827 -0.8853 -0.5892
 4817SOL    HW126084   0.194   1.555   9.381  0.8835  2.1121 -1.3239
 4817SOL    HW226085   0.334   1.580   9.333  0.4809 -1.1539 -1.5732
 4818SOL     OW26086   1.860   2.900  13.170  0.0258 -0.6746 -0.5044
 4818SOL    HW126087   1.772   2.883  13.203  0.7135  0.5822  2.0032
 4818SOL    HW226088   1.843   2.897  13.076  0.9044  1.0283 -0.7215
 4819SOL     OW26089   2.791   3.439   6.579  0.2494  0.0531 -0.1421
 4819SOL    HW126090   2.825   3.350   6.583 -0.2255 -0.1349 -0.2871
 4819SOL    HW226091   2.875   3.485   6.574  0.3477 -0.3990 -2.8220
 4820SOL     OW26092   3.216   3.724  12.572  0.1471  0.2841 -0.1290
 4820SOL    HW126093   3.233   3.817  12.560  0.2565  0.0192 -2.0289
 4820SOL    HW226094   3.138   3.716  12.517  1.5446  0.6648 -2.1389
 4821SOL     OW26095   1.942   2.530   6.360 -0.0945  0.2115  0.2576
 4821SOL    HW126096   1.994   2.535   6.280  1.5284 -1.1778  1.1984
 4821SOL    HW226097   2.010   2.548   6.425  1.0287 -0.9994 -0.5892
 4822SOL     OW26098   1.948   1.276   7.002  0.0082  0.0465  0.0026
 4822SOL    HW126099   1.917   1.188   6.983  1.4511 -0.4581  0.0179
 4822SOL    HW226100   1.892   1.308   7.073 -0.0707  2.5307 -1.1497
 4823SOL     OW26101   4.163   1.008  16.143 -0.3119  0.1446  0.8020
 4823SOL    HW126102   4.075   1.013  16.179  0.0481  0.2899  1.6446
 4823SOL    HW226103   4.209   1.015  16.226  1.5139 -0.4572 -0.1384
 4824SOL     OW26104   2.505   2.807   0.996 -0.0385 -0.0636 -0.1905
 4824SOL    HW126105   2.476   2.844   1.079 -0.9843 -1.7659  0.2276
 4824SOL    HW226106   2.570   2.743   1.024  1.3675  1.3722 -0.1621
 4825SOL     OW26107   1.996   3.232   4.652 -0.1069 -0.5130  0.1667
 4825SOL    HW126108   1.913   3.183   4.651  0.7221 -1.8925 -1.7735
 4825SOL    HW226109   2.019   3.221   4.744  0.9792  1.0726  0.0680
 4826SOL     OW26110   0.865   0.702   8.354  0.1940  0.4383 -0.2456
 4826SOL    HW126111   0.939   0.708   8.415  1.1044 -3.6943 -0.9420
 4826SOL    HW226112   0.793   0.710   8.417  1.3070  0.2137  1.0571
 4827SOL     OW26113   2.023   4.347   5.394  0.0936 -0.4888 -0.1104
 4827SOL    HW126114   1.961   4.295   5.445  0.3781 -0.6669  0.0496
 4827SOL    HW226115   1.967   4.365   5.318 -0.6134 -2.5408 -0.0716
 4828SOL     OW26116   4.178   1.294   6.741  0.2516 -0.6629 -0.2918
 4828SOL    HW126117   4.171   1.386   6.716 -0.9157 -0.3652  1.1428
 4828SOL    HW226118   4.089   1.272   6.770  0.2563  1.6473  1.4388
 4829SOL     OW26119   2.228   3.711  13.830  0.1332  0.1372 -0.5379
 4829SOL    HW126120   2.307   3.708  13.884 -0.2302  0.2653  0.0015
 4829SOL    HW226121   2.271   3.727  13.745 -0.1161 -4.4678 -1.5133
 4830SOL     OW26122   4.534   1.238   3.338 -0.1880 -0.4453  0.5329
 4830SOL    HW126123   4.556   1.259   3.428  2.7285 -1.5024  0.0562
 4830SOL    HW226124   4.454   1.291   3.334  2.4385  3.7138  3.6417
 4831SOL     OW26125   2.781   3.334   8.135  0.4459 -0.2509 -0.4043
 4831SOL    HW126126   2.831   3.255   8.116  0.3060 -0.5535  0.5056
 4831SOL    HW226127   2.841   3.398   8.095 -1.5750  1.3699 -0.8349
 4832SOL     OW26128   3.160   0.921  15.740 -0.5112 -0.6523 -0.0927
 4832SOL    HW126129   3.097   0.911  15.811 -0.4086  0.3975  0.1391
 4832SOL    HW226130   3.158   0.830  15.710  2.0467 -1.5639  2.4222
 4833SOL     OW26131   2.444   2.435   1.612  0.2028 -0.1516  0.2298
 4833SOL    HW126132   2.524   2.485   1.630  1.1526 -0.8041 -2.1807
 4833SOL    HW226133   2.418   2.402   1.698  2.8652 -2.1970  0.2597
 4834SOL     OW26134   3.040   0.304   5.459  0.0975 -0.0127  0.0191
 4834SOL    HW126135   3.026   0.255   5.540 -0.1362 -1.4531 -0.8792
 4834SOL    HW226136   3.129   0.336   5.477  0.2626 -1.8833  2.4671
 4835SOL     OW26137   3.353   0.785   8.191 -0.3885  0.2171 -0.1350
 4835SOL    HW126138   3.299   0.811   8.265 -0.7565 -1.3408  0.1404
 4835SOL    HW226139   3.301   0.714   8.153  0.2840 -0.4869  0.2527
 4836SOL     OW26140   0.352   1.781   7.307 -0.3272  0.3334  0.5741
 4836SOL    HW126141   0.290   1.854   7.300 -1.9495 -1.2422 -1.4212
 4836SOL    HW226142   0.384   1.787   7.397  0.8356 -1.2675  0.2611
 4837SOL     OW26143   2.245   3.601   2.959  0.2857  0.2518 -0.3908
 4837SOL    HW126144   2.233   3.687   2.998  0.1844  0.9531 -1.9485
 4837SOL    HW226145   2.301   3.566   3.028 -0.4773  2.0710  1.1297
 4838SOL     OW26146   1.005   0.209  16.091  0.0421 -0.0835  0.4755
 4838SOL    HW126147   1.003   0.155  16.170  1.3332 -0.9492 -0.0861
 4838SOL    HW226148   0.940   0.279  16.094  1.4298  1.2521 -0.3648
 4839SOL     OW26149   2.573   2.928   3.128 -0.1460  0.2957  0.2182
 4839SOL    HW126150   2.653   2.956   3.085 -0.4837  1.8307  0.6062
 4839SOL    HW226151   2.512   2.927   3.054 -0.0450  1.4749  0.1140
 4840SOL     OW26152   3.816   1.775   2.060 -1.0746  0.5547  0.1812
 4840SOL    HW126153   3.757   1.700   2.053 -0.0317 -0.4485  2.1489
 4840SOL    HW226154   3.863   1.762   2.142  0.9818  1.2024 -0.9117
 4841SOL     OW26155   1.490   4.415  16.460 -0.3549 -0.2416 -0.1357
 4841SOL    HW126156   1.439   4.389  16.537 -0.0429 -0.0425  0.1366
 4841SOL    HW226157   1.428   4.482  16.431 -0.5663  0.1015  1.0949
 4842SOL     OW26158   2.550   1.525   2.143  0.3139 -0.3444 -0.4163
 4842SOL    HW126159   2.512   1.441   2.167  2.3458 -0.8252  1.0883
 4842SOL    HW226160   2.471   1.561   2.103  0.3062  1.3922  1.1600
 4843SOL     OW26161   2.314   0.249   4.932  0.6948 -0.0890  0.0560
 4843SOL    HW126162   2.303   0.339   4.904  0.6525  0.0440  0.4966
 4843SOL    HW226163   2.339   0.214   4.847  1.7420  0.7873  0.0069
 4844SOL     OW26164   1.788   3.057   4.981  0.3540  0.0341  0.2548
 4844SOL    HW126165   1.778   3.033   4.888  0.1442 -1.4198  0.6484
 4844SOL    HW226166   1.873   3.100   4.970 -0.1250  1.3279  1.6610
 4845SOL     OW26167   2.816   2.198  13.694  0.1874  0.7153  0.1667
 4845SOL    HW126168   2.764   2.187  13.615  0.8183  1.8547 -0.4000
 4845SOL    HW226169   2.856   2.111  13.694  1.0578  1.1378 -2.7294
 4846SOL     OW26170   0.358   2.992   9.187 -0.1231 -0.1389 -0.0804
 4846SOL    HW126171   0.403   3.044   9.254  0.2167  1.0633 -1.2533
 4846SOL    HW226172   0.406   2.910   9.187  0.2891  0.1036 -1.4863
 4847SOL     OW26173   1.058   2.350   4.799 -0.1017  0.4744  0.4156
 4847SOL    HW126174   0.967   2.360   4.771 -0.7247  0.6507  2.4849
 4847SOL    HW226175   1.050   2.289   4.873 -0.0627  0.5019  0.4425
 4848SOL     OW26176   4.677   0.096  11.762  0.0237 -0.3876 -0.0602
 4848SOL    HW126177   0.003   0.137  11.823  0.3597 -0.5182 -0.3052
 4848SOL    HW226178   4.690   0.145  11.680 -0.3883 -0.4581 -0.1689
 4849SOL     OW26179   2.185   2.480  11.416 -0.2826  0.1684  0.0299
 4849SOL    HW126180   2.219   2.407  11.468  1.0861  0.6171 -0.2374
 4849SOL    HW226181   2.239   2.491  11.338  0.5530 -2.0026  0.3181
 4850SOL     OW26182   1.818   3.173   8.627  0.5430  0.0211  0.0266
 4850SOL    HW126183   1.817   3.250   8.569 -0.3540  0.2309  0.3298
 4850SOL    HW226184   1.724   3.167   8.642  0.5646 -0.9549 -0.2311
 4851SOL     OW26185   0.730   4.266   7.627  0.5153  0.1168  0.1194
 4851SOL    HW126186   0.769   4.248   7.713  1.4146 -1.9377 -0.7322
 4851SOL    HW226187   0.805   4.258   7.568 -0.9078 -2.5180 -1.2856
 4852SOL     OW26188   4.246   1.685   1.861  0.0616 -0.2274  0.0320
 4852SOL    HW126189   4.265   1.646   1.947 -0.2777  2.0913  1.1646
 4852SOL    HW226190   4.179   1.626   1.828  1.7877 -1.7551 -0.7440
 4853SOL     OW26191   3.578   0.685   3.644 -0.0262  0.5466 -0.2166
 4853SOL    HW126192   3.617   0.627   3.709  0.7394  0.4492 -0.7569
 4853SOL    HW226193   3.647   0.681   3.578  0.0830  0.0379 -0.0729
 4854SOL     OW26194   3.995   4.127   8.826  0.0597 -0.3449  0.0216
 4854SOL    HW126195   4.090   4.142   8.826 -0.4481  2.7687  0.2968
 4854SOL    HW226196   3.979   4.175   8.907 -2.9618  0.7747 -1.2598
 4855SOL     OW26197   2.415   2.075   6.050 -0.1294  0.1430 -0.3723
 4855SOL    HW126198   2.453   2.119   5.974  1.3138 -0.6528 -0.1084
 4855SOL    HW226199   2.490   2.046   6.102  1.0067  1.1779 -1.4310
 4856SOL     OW26200   0.417   0.798   7.414  0.2390 -0.0667  0.2538
 4856SOL    HW126201   0.473   0.759   7.482  0.5707 -0.4729 -0.2484
 4856SOL    HW226202   0.456   0.779   7.329 -2.0476 -1.0126 -0.5789
 4857SOL     OW26203   2.558   3.183   2.224 -0.6626  0.2528  0.7825
 4857SOL    HW126204   2.541   3.223   2.309 -0.6337 -1.8163  1.7444
 4857SOL    HW226205   2.579   3.097   2.258  0.9259  0.5929  0.6836
 4858SOL     OW26206   0.017   3.021   2.317 -0.2796 -0.2361  0.0506
 4858SOL    HW126207   4.685   2.985   2.375 -0.3148  1.0241  0.7961
 4858SOL    HW226208   4.715   3.108   2.298  1.1960  0.7534  1.6862
 4859SOL     OW26209   1.468   2.494   8.948  0.3899 -0.5074 -0.6097
 4859SOL    HW126210   1.511   2.441   9.015 -0.8320  1.1176  1.4560
 4859SOL    HW226211   1.447   2.568   9.004  1.0381  0.7599 -2.0594
 4860SOL     OW26212   4.148   2.048   2.060  0.7143 -0.4596  0.2136
 4860SOL    HW126213   4.162   2.128   2.009 -1.5061  0.1059  0.4829
 4860SOL    HW226214   4.113   1.994   1.989 -0.0130  0.5974 -0.2326
 4861SOL     OW26215   4.569   2.018   0.497  0.0920  0.3916  0.3762
 4861SOL    HW126216   4.549   2.079   0.427 -0.0182 -2.0870 -1.7576
 4861SOL    HW226217   4.636   2.075   0.536  2.0720 -0.4427 -1.7948
 4862SOL     OW26218   1.231   3.679   6.662  0.1719  0.5792 -0.8294
 4862SOL    HW126219   1.208   3.603   6.715  0.6632  2.4255  2.0304
 4862SOL    HW226220   1.143   3.716   6.657 -0.1499  0.0411  0.8179
 4863SOL     OW26221   0.617   3.443   2.197  0.2406  0.4105 -0.0190
 4863SOL    HW126222   0.631   3.400   2.282 -0.4574  0.6010  0.1875
 4863SOL    HW226223   0.708   3.456   2.168 -0.9025  1.4995 -3.1094
 4864SOL     OW26224   4.236   1.526   1.292 -0.2290  0.0075  0.4063
 4864SOL    HW126225   4.193   1.444   1.316 -1.5358  0.7004  0.4380
 4864SOL    HW226226   4.309   1.483   1.247  0.0863  1.4161 -0.4610
 4865SOL     OW26227   1.975   1.351   7.517  0.1623  0.2996 -0.0317
 4865SOL    HW126228   1.942   1.429   7.472 -0.5590 -0.6628 -1.2009
 4865SOL    HW226229   2.063   1.384   7.535  0.5946 -0.9073  0.0750
 4866SOL     OW26230   3.478   0.473   1.949  0.0054  0.9945 -0.4010
 4866SOL    HW126231   3.508   0.383   1.964 -1.2276  0.9098  1.5881
 4866SOL    HW226232   3.540   0.501   1.882 -0.5660  1.5219 -0.7106
 4867SOL     OW26233   0.984   0.666   0.710  0.6517  0.4279 -0.0635
 4867SOL    HW126234   0.922   0.662   0.783  0.4038 -2.2325 -0.4154
 4867SOL    HW226235   1.041   0.737   0.739  1.2035  0.3262 -0.9066
 4868SOL     OW26236   0.931   4.308   5.801 -0.3129  0.4537 -0.1396
 4868SOL    HW126237   0.893   4.312   5.889  1.8875  1.6439  0.7515
 4868SOL    HW226238   0.972   4.222   5.807 -1.6690 -0.1690  0.3171
 4869SOL     OW26239   3.195   1.407   7.834 -0.2848 -0.4076  0.2893
 4869SOL    HW126240   3.109   1.389   7.872 -1.3392  2.2867 -0.8492
 4869SOL    HW226241   3.206   1.493   7.874 -0.0847 -0.6578  0.7729
 4870SOL     OW26242   4.298   3.385   2.217 -0.0207 -0.1026  0.0533
 4870SOL    HW126243   4.225   3.443   2.195  0.0137  0.6268  1.8490
 4870SOL    HW226244   4.364   3.441   2.259 -0.7393 -1.1719  2.5979
 4871SOL     OW26245   0.029   4.208   6.877 -0.8139 -0.4789  0.0917
 4871SOL    HW126246   4.681   4.253   6.893 -1.1431 -1.0411 -0.0122
 4871SOL    HW226247   0.009   4.156   6.799 -1.3423 -0.9508  0.5345
 4872SOL     OW26248   1.990   0.253   6.509  0.2794 -0.2980 -0.1245
 4872SOL    HW126249   2.012   0.346   6.518 -0.1885 -0.4074  2.0726
 4872SOL    HW226250   2.048   0.228   6.438 -0.1058 -1.3187 -0.0733
 4873SOL     OW26251   4.020   2.604   7.022 -0.1638 -0.7843 -0.1702
 4873SOL    HW126252   4.028   2.604   7.117  2.3327  3.7293 -0.4089
 4873SOL    HW226253   3.956   2.676   7.017 -0.7196 -1.4380 -2.5375
 4874SOL     OW26254   4.192   2.606   8.772 -0.4236 -0.5582  0.3789
 4874SOL    HW126255   4.121   2.548   8.743 -0.0875 -0.2578 -1.0473
 4874SOL    HW226256   4.180   2.592   8.866  0.7827 -0.9402  0.4823
 4875SOL     OW26257   4.699   4.146   5.333 -0.6865  0.0196  0.1961
 4875SOL    HW126258   4.663   4.200   5.404 -0.6414  2.6330 -1.7698
 4875SOL    HW226259   0.058   4.153   5.347 -0.3846 -1.5341 -1.1026
 4876SOL     OW26260   0.835   3.208   7.780  0.5562 -0.1333 -0.0849
 4876SOL    HW126261   0.816   3.173   7.867 -1.1970 -0.7987 -0.7437
 4876SOL    HW226262   0.891   3.137   7.746  0.0884 -0.6728  0.2762
 4877SOL     OW26263   4.269   1.176   6.045  0.1552 -0.1736 -0.2548
 4877SOL    HW126264   4.248   1.083   6.060 -1.1168  0.2624  0.6839
 4877SOL    HW226265   4.361   1.167   6.021 -0.0044  0.5744 -1.1256
 4878SOL     OW26266   2.870   2.073   1.614 -0.4916 -0.5592 -0.3378
 4878SOL    HW126267   2.867   2.100   1.706  1.4814  3.2965 -1.3998
 4878SOL    HW226268   2.883   2.164   1.587  0.0666 -0.8509 -1.0687
 4879SOL     OW26269   1.797   1.606  13.501 -0.0222 -0.3959 -0.0618
 4879SOL    HW126270   1.702   1.594  13.494  0.1625 -1.6609 -0.3750
 4879SOL    HW226271   1.818   1.577  13.412 -1.4903  0.4501 -0.6863
 4880SOL     OW26272   0.621   1.241   1.466 -0.0329 -0.2889  0.1361
 4880SOL    HW126273   0.707   1.237   1.509  0.8584  0.8993 -1.5535
 4880SOL    HW226274   0.581   1.157   1.490  0.5199 -0.8220 -0.7853
 4881SOL     OW26275   1.449   1.947  15.691 -1.0708 -0.3535 -0.3637
 4881SOL    HW126276   1.410   1.901  15.765 -0.9954  0.9911  0.4963
 4881SOL    HW226277   1.371   1.982  15.647  0.1134  1.1333 -1.2858
 4882SOL     OW26278   4.033   0.191  15.161  0.0122  0.3619  0.2036
 4882SOL    HW126279   3.960   0.142  15.122  1.9040 -0.5552 -2.1945
 4882SOL    HW226280   4.007   0.281  15.140 -2.1519 -0.6625 -1.5901
 4883SOL     OW26281   2.083   0.182   5.836 -0.3758  0.2248 -0.0758
 4883SOL    HW126282   2.151   0.203   5.899 -1.3516 -0.3682  1.1757
 4883SOL    HW226283   2.006   0.168   5.892 -1.1642  0.3467 -1.1274
 4884SOL     OW26284   2.165   1.183   9.692  0.6957 -0.1731  0.0211
 4884SOL    HW126285   2.121   1.233   9.761 -0.2372  1.5085 -1.7757
 4884SOL    HW226286   2.146   1.092   9.714  0.1372 -0.2689 -0.8647
 4885SOL     OW26287   4.666   3.408   5.534 -0.4139  0.0526  0.0776
 4885SOL    HW126288   4.594   3.345   5.536 -0.7245  0.4038  0.0212
 4885SOL    HW226289   4.662   3.468   5.459 -0.4113  2.2201  1.7977
 4886SOL     OW26290   2.996   2.587   7.129 -0.2819 -0.2907 -0.0524
 4886SOL    HW126291   2.930   2.567   7.062  1.2777  0.5134 -1.8223
 4886SOL    HW226292   3.056   2.512   7.129  0.0838  0.0023 -0.8303
 4887SOL     OW26293   2.297   1.129  14.487  0.8558  0.3403 -0.0834
 4887SOL    HW126294   2.248   1.063  14.438  0.8695 -0.5657  1.1412
 4887SOL    HW226295   2.294   1.092  14.575  0.7220  0.1581 -0.1635
 4888SOL     OW26296   3.324   2.611   3.812 -0.4858  0.4263  0.0705
 4888SOL    HW126297   3.375   2.531   3.794  1.5855  1.7414  0.1258
 4888SOL    HW226298   3.335   2.656   3.728 -0.1034 -1.6029 -0.9779
 4889SOL     OW26299   2.786   0.362   7.954  0.3657 -1.0539 -0.0733
 4889SOL    HW126300   2.803   0.270   7.936  0.2807 -1.6995  3.2083
 4889SOL    HW226301   2.843   0.365   8.031 -0.7424 -2.1884  0.8033
 4890SOL     OW26302   4.002   2.464   7.544 -0.1178  0.4386  0.0596
 4890SOL    HW126303   4.045   2.510   7.617 -0.7718  1.1181  0.0255
 4890SOL    HW226304   4.030   2.374   7.559 -0.1124  0.5098  0.4900
 4891SOL     OW26305   0.310   3.058   2.674 -0.6665  0.3339  0.3244
 4891SOL    HW126306   0.353   2.973   2.686 -0.9303 -0.0224 -1.2086
 4891SOL    HW226307   0.317   3.055   2.578  2.0231  0.5117  0.5023
 4892SOL     OW26308   1.551   2.771   3.069  0.0956  0.6871  0.1995
 4892SOL    HW126309   1.476   2.795   3.014 -0.4625 -1.2043  0.1290
 4892SOL    HW226310   1.507   2.768   3.154  1.1421  1.3746  0.7733
 4893SOL     OW26311   1.511   0.404   5.633  0.0606 -0.4810 -0.0186
 4893SOL    HW126312   1.490   0.426   5.543 -0.5419 -0.2716  0.1741
 4893SOL    HW226313   1.449   0.333   5.653 -1.1544  0.8471  0.8948
 4894SOL     OW26314   3.127   1.774   5.403  0.1661  0.2282  0.3858
 4894SOL    HW126315   3.035   1.797   5.420 -0.2022 -2.6628  2.4349
 4894SOL    HW226316   3.169   1.775   5.489  0.1707  0.6495  0.3774
 4895SOL     OW26317   3.335   3.598   7.433  0.2575  0.3674 -0.3253
 4895SOL    HW126318   3.423   3.561   7.441 -1.7228 -4.0067  1.4712
 4895SOL    HW226319   3.335   3.666   7.366  0.8644  0.2782 -0.4150
 4896SOL     OW26320   0.238   3.976   3.131  0.5453 -0.3509 -0.4380
 4896SOL    HW126321   0.159   3.928   3.106 -0.0023  0.2808  0.0796
 4896SOL    HW226322   0.181   4.025   3.191  0.1305  0.0065 -1.1209
 4897SOL     OW26323   3.885   3.167   4.954  0.0697 -0.2261  0.2383
 4897SOL    HW126324   3.849   3.094   4.903 -0.7788 -0.9240  1.8277
 4897SOL    HW226325   3.852   3.245   4.910  2.1524  1.3317  1.4934
 4898SOL     OW26326   0.098   1.252  16.779  0.3350  0.1308 -0.5775
 4898SOL    HW126327   0.057   1.236  16.864  0.9738 -1.2663 -0.5467
 4898SOL    HW226328   0.074   1.173  16.731 -1.4121 -0.4854  1.2822
 4899SOL     OW26329   3.658   0.583   1.765  0.2488 -0.3193 -0.3631
 4899SOL    HW126330   3.634   0.610   1.676  1.0449 -0.8618 -0.7512
 4899SOL    HW226331   3.746   0.553   1.741  0.0848  0.8866 -2.4298
 4900SOL     OW26332   2.928   4.726   3.985 -0.2107  0.2630  0.3445
 4900SOL    HW126333   2.905   4.641   3.949 -0.1599  0.7930 -0.9106
 4900SOL    HW226334   2.975   0.026   3.910  1.0007  0.1106  1.0239
 4901SOL     OW26335   3.309   4.230   9.954 -0.0866  0.5226 -0.7320
 4901SOL    HW126336   3.259   4.297   9.907 -0.5623 -0.0443 -1.0308
 4901SOL    HW226337   3.321   4.161   9.888  0.9846 -0.1656  0.1701
 4902SOL     OW26338   0.090   3.853  12.862  0.2198  0.6010  0.2639
 4902SOL    HW126339   0.046   3.844  12.946  1.9679 -2.9108  0.8136
 4902SOL    HW226340   0.155   3.918  12.888  0.8630 -0.7736  2.1646
 4903SOL     OW26341   3.764   2.868   6.301  0.7611  0.0966 -0.4760
 4903SOL    HW126342   3.725   2.781   6.310 -3.5075  2.1532  1.0873
 4903SOL    HW226343   3.821   2.872   6.377 -0.7091  1.4184  0.5521
 4904SOL     OW26344   2.982   3.652  12.431 -0.3812 -0.3269  0.3000
 4904SOL    HW126345   2.969   3.735  12.386 -0.0289 -0.6082 -0.3140
 4904SOL    HW226346   2.906   3.643  12.490 -0.7301 -0.7049 -0.2024
 4905SOL     OW26347   0.115   3.858   0.290  0.0139 -0.3620  0.6104
 4905SOL    HW126348   0.144   3.886   0.377  0.7500  1.1694 -0.1179
 4905SOL    HW226349   0.086   3.768   0.301  0.2883 -0.4614  0.5272
 4906SOL     OW26350   0.037   1.347  17.660 -0.8179 -0.1137  0.3996
 4906SOL    HW126351   0.035   1.441  17.644 -2.3653 -0.2373 -0.0757
 4906SOL    HW226352   0.043   1.342   0.016 -2.7610  0.7386  0.5586
 4907SOL     OW26353   1.141   0.495  17.282  0.1782 -0.3547 -0.2045
 4907SOL    HW126354   1.102   0.561  17.338 -3.3980 -1.6438 -1.1555
 4907SOL    HW226355   1.085   0.418  17.290 -2.0678  1.3548  0.3915
 4908SOL     OW26356   0.745   2.348   5.307 -0.2452  0.3638  0.4858
 4908SOL    HW126357   0.683   2.407   5.351 -0.1406  0.0066  1.1072
 4908SOL    HW226358   0.784   2.293   5.374  0.4951 -0.8082 -0.9180
 4909SOL     OW26359   4.505   0.359   9.970 -0.4883 -0.0166 -0.1099
 4909SOL    HW126360   4.446   0.407   9.912 -0.0069 -0.2317 -0.7806
 4909SOL    HW226361   4.445   0.296  10.010 -2.2098  1.0793 -0.9887
 4910SOL     OW26362   2.883   0.022   2.303  0.2480 -0.2465 -0.1447
 4910SOL    HW126363   2.978   0.026   2.308  0.5563 -2.7620 -3.5388
 4910SOL    HW226364   2.877   4.689   2.235 -0.9636 -1.6652  1.3871
 4911SOL     OW26365   1.412   3.398   0.665 -0.1458 -0.3359 -0.5786
 4911SOL    HW126366   1.369   3.480   0.687 -0.5484 -0.9677  0.9554
 4911SOL    HW226367   1.452   3.414   0.579  1.6222  0.3395  0.3813
 4912SOL     OW26368   1.069   1.589   2.803 -0.0398  0.3079 -0.0692
 4912SOL    HW126369   0.999   1.539   2.761  2.8172 -1.7001 -2.5044
 4912SOL    HW226370   1.134   1.519   2.804  0.2707  0.6176  1.2577
 4913SOL     OW26371   3.576   0.031   3.192 -0.3626  0.3161  0.1187
 4913SOL    HW126372   3.626   4.725   3.263  1.0716  0.2851 -0.9205
 4913SOL    HW226373   3.639   0.034   3.121  1.7339  0.8263  1.9917
 4914SOL     OW26374   4.586   2.198   9.957 -0.4484  0.3512 -0.5675
 4914SOL    HW126375   4.610   2.290   9.967  1.3234 -0.0350 -1.1700
 4914SOL    HW226376   4.578   2.174  10.049 -0.4698 -1.2519 -0.9721
 4915SOL     OW26377   0.619   1.036   5.786 -0.3883  0.0279 -0.2582
 4915SOL    HW126378   0.540   1.081   5.815 -1.4269 -0.8525 -1.7737
 4915SOL    HW226379   0.644   0.996   5.870  2.0672  1.5534 -0.2516
 4916SOL     OW26380   1.485   3.438  12.442  0.4615  0.3392 -0.3366
 4916SOL    HW126381   1.477   3.367  12.379  0.1175 -0.9442  1.1700
 4916SOL    HW226382   1.450   3.508  12.386 -3.4413 -2.8591 -1.9146
 4917SOL     OW26383   1.969   4.001   4.759  0.1373  0.1555  0.1153
 4917SOL    HW126384   1.996   4.082   4.803  0.3971 -0.4324  1.0411
 4917SOL    HW226385   1.888   3.976   4.803 -0.4174  2.1383  0.2130
 4918SOL     OW26386   1.000   0.278  17.287  0.5443  0.4355  0.3957
 4918SOL    HW126387   0.950   0.269  17.368  1.1290 -0.7111  0.6262
 4918SOL    HW226388   0.926   0.279  17.226  0.2493  3.6643  0.7917
 4919SOL     OW26389   1.376   0.214   4.948 -0.1612  0.1207  0.3318
 4919SOL    HW126390   1.319   0.234   5.022 -1.2184 -1.5017 -0.0532
 4919SOL    HW226391   1.370   0.118   4.953  1.6892 -0.1856 -3.2250
 4920SOL     OW26392   1.060   3.870   9.095  0.2324  0.9724  0.3986
 4920SOL    HW126393   0.974   3.869   9.136 -0.4476 -0.1977 -1.0348
 4920SOL    HW226394   1.076   3.784   9.056 -1.1841  0.1885  1.5464
 4921SOL     OW26395   0.513   3.937  15.497 -0.0063 -0.3221  0.4197
 4921SOL    HW126396   0.423   3.938  15.528  0.4449  0.3892  1.7306
 4921SOL    HW226397   0.567   3.976  15.567 -1.3536  0.8969  0.7784
 4922SOL     OW26398   2.177   1.943   4.690 -0.1114 -0.4009  0.0728
 4922SOL    HW126399   2.145   1.856   4.715  0.1068 -0.2646  0.8427
 4922SOL    HW226400   2.227   1.973   4.766 -0.9181  0.1949  0.3742
 4923SOL     OW26401   4.517   0.810   3.148 -0.0444 -0.4426  0.2104
 4923SOL    HW126402   4.606   0.842   3.162 -0.0863 -0.7225  1.1173
 4923SOL    HW226403   4.473   0.892   3.171  2.0135  0.3862  1.2014
 4924SOL     OW26404   3.019   2.947  12.262 -0.2891  0.3771  0.7730
 4924SOL    HW126405   3.005   2.983  12.350  1.5164  1.9167  0.4426
 4924SOL    HW226406   3.087   3.003  12.225 -0.6795  0.1642 -0.2437
 4925SOL     OW26407   0.864   2.498   4.396  0.0160  0.1814  0.5922
 4925SOL    HW126408   0.838   2.410   4.422 -2.6472  0.4484 -1.2103
 4925SOL    HW226409   0.782   2.529   4.357  0.0813 -0.5115 -0.0901
 4926SOL     OW26410   2.605   2.518   5.992  0.1964  0.2428 -0.5025
 4926SOL    HW126411   2.513   2.498   6.010  0.3855  0.7386  1.0082
 4926SOL    HW226412   2.605   2.612   5.973 -1.6595 -0.0600 -2.0705
 4927SOL     OW26413   2.349   0.805   5.881 -0.1769  0.4391  0.0122
 4927SOL    HW126414   2.396   0.780   5.801  1.4650  0.3686  1.0098
 4927SOL    HW226415   2.312   0.890   5.857 -2.1613 -0.7099 -1.0088
 4928SOL     OW26416   1.605   0.905   8.892  0.6152  0.6345 -0.2265
 4928SOL    HW126417   1.647   0.848   8.827  0.7081  0.9708 -0.4638
 4928SOL    HW226418   1.551   0.849   8.947 -2.5859  2.5778 -1.3160
 4929SOL     OW26419   4.172   1.176   7.506 -0.3385 -0.4472  0.2388
 4929SOL    HW126420   4.109   1.118   7.548 -2.1807 -0.0491 -1.9880
 4929SOL    HW226421   4.248   1.152   7.560  1.3573  2.4086 -0.8391
 4930SOL     OW26422   3.649   0.749  15.023  0.4114 -0.2050 -0.5644
 4930SOL    HW126423   3.630   0.792  14.940  0.7462 -1.2141 -1.1603
 4930SOL    HW226424   3.594   0.671  15.027 -0.2545  0.0694 -4.6940
 4931SOL     OW26425   3.734   0.501   4.113  0.5996  0.4586 -0.5963
 4931SOL    HW126426   3.729   0.500   4.017  1.4582  0.5444 -0.6353
 4931SOL    HW226427   3.769   0.413   4.128 -0.6968 -0.2376 -1.7075
 4932SOL     OW26428   2.192   1.520   0.889  0.0875  0.1362  0.5369
 4932SOL    HW126429   2.144   1.585   0.837 -2.2645 -1.1427  1.1018
 4932SOL    HW226430   2.135   1.443   0.891 -1.9469  1.6459  1.2794
 4933SOL     OW26431   2.972   0.434   2.195  0.8047 -0.0837  0.0225
 4933SOL    HW126432   2.987   0.411   2.103  3.6261  1.5160  0.1051
 4933SOL    HW226433   2.895   0.490   2.182  1.2781  0.5404 -0.0809
 4934SOL     OW26434   4.652   3.840   9.278 -0.1555 -0.5468  0.0714
 4934SOL    HW126435   0.001   3.796   9.286 -0.1599 -0.1635  2.2141
 4934SOL    HW226436   4.670   3.925   9.319  3.1442 -0.2818 -1.8911
 4935SOL     OW26437   0.673   0.674  11.812  0.3998  0.1096 -0.1576
 4935SOL    HW126438   0.755   0.630  11.835  0.8201  0.7641 -0.3853
 4935SOL    HW226439   0.685   0.682  11.717  0.0158  0.7760 -0.1575
 4936SOL     OW26440   0.647   2.229   7.490 -0.2192  0.4842  0.1198
 4936SOL    HW126441   0.736   2.237   7.526 -1.1229  0.0040  2.4513
 4936SOL    HW226442   0.653   2.307   7.435  0.8996  0.9863  0.9524
 4937SOL     OW26443   1.734   4.345   7.130  0.0888 -0.1480  0.1541
 4937SOL    HW126444   1.659   4.388   7.170 -2.9446 -4.5698 -0.7740
 4937SOL    HW226445   1.810   4.361   7.186 -0.9860  0.0278  1.5467
 4938SOL     OW26446   3.293   2.596  17.233  0.1815  0.2819  0.4050
 4938SOL    HW126447   3.388   2.583  17.228 -0.1282 -0.7312 -3.2584
 4938SOL    HW226448   3.284   2.691  17.242 -0.0367  0.2120  0.8965
 4939SOL     OW26449   0.558   1.930  11.619 -0.0371 -0.3331  0.1884
 4939SOL    HW126450   0.534   1.883  11.699 -1.8427 -0.6653 -0.5451
 4939SOL    HW226451   0.470   1.942  11.583 -0.2000 -0.8455  0.4198
 4940SOL     OW26452   1.389   0.272  16.115  0.1020  0.2720 -0.0059
 4940SOL    HW126453   1.393   0.281  16.211  2.7382  0.4759 -0.1271
 4940SOL    HW226454   1.369   0.178  16.107 -2.5943  0.9499 -1.1562
 4941SOL     OW26455   1.510   1.452   5.408 -0.0270  0.0698 -0.3831
 4941SOL    HW126456   1.460   1.408   5.476 -0.5206  0.0624 -0.7552
 4941SOL    HW226457   1.471   1.411   5.331 -0.1554 -0.9429  0.2328
 4942SOL     OW26458   3.810   1.860   8.734  0.3527  0.2415  0.0053
 4942SOL    HW126459   3.754   1.933   8.760 -1.8794 -1.1975 -0.7236
 4942SOL    HW226460   3.839   1.900   8.652 -2.3258  0.5625 -0.7860
 4943SOL     OW26461   3.197   1.032  13.261  0.0472  0.0613 -0.7871
 4943SOL    HW126462   3.191   1.002  13.171  1.7195  0.9769 -1.1891
 4943SOL    HW226463   3.113   1.009  13.301  1.0741 -1.8207  0.2901
 4944SOL     OW26464   3.970   1.391   0.892  0.5313 -0.5020 -0.3428
 4944SOL    HW126465   3.991   1.320   0.831  0.6810  0.3565 -1.2932
 4944SOL    HW226466   4.030   1.385   0.967 -2.5518 -0.0042  2.1650
 4945SOL     OW26467   0.169   3.442   5.980 -0.0787  0.7440  0.0712
 4945SOL    HW126468   0.118   3.456   6.060 -0.2433  0.8264 -0.0488
 4945SOL    HW226469   0.115   3.391   5.920  0.1349  1.7640 -0.9718
 4946SOL     OW26470   0.484   2.164   2.522 -0.1445  0.3476  0.1386
 4946SOL    HW126471   0.480   2.259   2.531 -1.8951  0.1457  1.2451
 4946SOL    HW226472   0.403   2.154   2.472 -0.7650 -0.6248  1.3325
 4947SOL     OW26473   1.291   2.394   7.426 -0.2851 -0.0200 -0.0406
 4947SOL    HW126474   1.278   2.353   7.511  0.6087 -0.6301 -0.1942
 4947SOL    HW226475   1.229   2.356   7.365 -0.0940  0.5727 -0.6126
 4948SOL     OW26476   2.388   1.021   3.637  0.0824  0.0947  0.2943
 4948SOL    HW126477   2.470   1.066   3.658 -0.0743  0.7661 -0.5158
 4948SOL    HW226478   2.316   1.083   3.649  0.5644  0.6675  0.2413
 4949SOL     OW26479   1.220   4.432   2.377 -0.4435 -0.2134 -0.4699
 4949SOL    HW126480   1.144   4.444   2.319  0.0782  1.4776 -0.8000
 4949SOL    HW226481   1.288   4.433   2.310 -0.3358 -5.2852 -0.4318
 4950SOL     OW26482   0.137   0.593   2.693 -0.1507 -0.7789  0.3440
 4950SOL    HW126483   0.222   0.588   2.737  0.7074 -0.8827 -1.3279
 4950SOL    HW226484   0.097   0.668   2.737 -0.2500 -0.5961 -0.0579
 4951SOL     OW26485   4.700   0.510   3.039  0.1584  0.1291 -0.3657
 4951SOL    HW126486   0.013   0.589   3.012 -0.7559  0.5589 -0.7479
 4951SOL    HW226487   4.652   0.539   3.117  1.7082 -0.0115  0.6276
 4952SOL     OW26488   2.652   4.330   9.416  0.8878  0.7941 -0.4989
 4952SOL    HW126489   2.672   4.422   9.399 -1.4342  1.4959  0.5512
 4952SOL    HW226490   2.613   4.333   9.504  2.4139  1.0236  0.1574
 4953SOL     OW26491   4.443   2.569   8.374 -0.4366  0.8632 -0.3902
 4953SOL    HW126492   4.407   2.490   8.414 -0.8552  0.5998 -1.2784
 4953SOL    HW226493   4.534   2.578   8.402 -0.1122 -0.3193 -1.0840
 4954SOL     OW26494   2.351   0.726  16.385 -0.5683  0.1942  0.2594
 4954SOL    HW126495   2.329   0.714  16.293 -0.8922  1.0843  0.2201
 4954SOL    HW226496   2.261   0.717  16.416 -0.1296  0.8384  1.7495
 4955SOL     OW26497   2.568   3.324   2.466 -0.0242  0.0236 -0.4071
 4955SOL    HW126498   2.608   3.403   2.430  0.6684 -0.2992 -0.3451
 4955SOL    HW226499   2.475   3.344   2.459 -0.4495 -1.7565  0.1477
 4956SOL     OW26500   1.992   0.524  14.456 -0.1066  0.0379  0.0053
 4956SOL    HW126501   1.974   0.473  14.535 -1.8731  2.1164  0.9407
 4956SOL    HW226502   2.071   0.490  14.413 -0.1629  2.0115 -1.6690
 4957SOL     OW26503   0.766   1.400   5.615  0.4029  0.4224  0.4819
 4957SOL    HW126504   0.794   1.370   5.701  2.2430  0.0022 -0.2661
 4957SOL    HW226505   0.838   1.460   5.598  0.0064  0.4199 -1.1997
 4958SOL     OW26506   4.648   4.713   8.442  0.2451 -0.9030  0.0333
 4958SOL    HW126507   4.572   4.696   8.386 -0.0725  1.7124 -0.3398
 4958SOL    HW226508   4.594   4.720   8.520 -0.8754 -0.2461 -0.7993
 4959SOL     OW26509   0.793   0.416  16.071  0.5677 -0.0854  0.0567
 4959SOL    HW126510   0.847   0.438  15.995  2.3609 -0.2192  1.2829
 4959SOL    HW226511   0.753   0.499  16.097 -0.7209 -0.9495  0.8082
 4960SOL     OW26512   1.229   0.409   7.830  0.1797 -0.3683  0.1839
 4960SOL    HW126513   1.224   0.334   7.889 -0.5740 -0.8364 -0.4873
 4960SOL    HW226514   1.202   0.381   7.743  0.5219 -0.2871  0.0496
 4961SOL     OW26515   4.227   0.592   4.305  0.4280  0.0700  0.2339
 4961SOL    HW126516   4.279   0.531   4.254 -0.8158 -1.5902  0.9612
 4961SOL    HW226517   4.155   0.531   4.322 -0.3399  0.7557 -0.5369
 4962SOL     OW26518   2.723   2.294  15.474  0.4214 -0.3772 -0.0797
 4962SOL    HW126519   2.804   2.245  15.462 -0.0938 -1.6490  1.6272
 4962SOL    HW226520   2.688   2.308  15.386 -3.4619 -7.2618  0.3591
 4963SOL     OW26521   0.495   3.925   0.297 -0.0823  0.8538  0.1672
 4963SOL    HW126522   0.526   3.914   0.387  1.6565  0.6066 -0.4615
 4963SOL    HW226523   0.568   3.886   0.248  1.0049  1.4505  1.3262
 4964SOL     OW26524   1.018   3.977  12.094  0.3300  0.2119 -0.9134
 4964SOL    HW126525   1.012   3.993  12.000 -0.3200  1.5808 -0.6377
 4964SOL    HW226526   0.935   4.011  12.126 -0.9758 -3.4532 -0.3767
 4965SOL     OW26527   0.196   2.653   4.179 -0.4789  0.6037 -0.3312
 4965SOL    HW126528   0.175   2.591   4.249  0.8323  3.8017  2.9126
 4965SOL    HW226529   0.279   2.620   4.143 -2.3921 -1.6484 -2.6631
 4966SOL     OW26530   2.099   3.836   2.422 -0.0590 -0.5710  0.2639
 4966SOL    HW126531   2.120   3.823   2.330 -0.3205 -0.7356  0.2277
 4966SOL    HW226532   2.151   3.913   2.446 -0.2863  0.0078 -1.0994
 4967SOL     OW26533   4.546   0.110  17.161  0.2735  0.3458 -0.5584
 4967SOL    HW126534   4.591   0.050  17.220  1.8789  0.4671 -1.6366
 4967SOL    HW226535   4.620   0.106  17.100  0.1347  0.3305 -0.7274
 4968SOL     OW26536   2.407   1.847   4.433 -0.1625  0.0765  0.0864
 4968SOL    HW126537   2.443   1.856   4.345 -0.7959  3.1588  0.1502
 4968SOL    HW226538   2.315   1.870   4.419 -1.6582 -4.4993  2.4858
 4969SOL     OW26539   1.675   0.768  13.657  0.2382  0.2002 -0.5138
 4969SOL    HW126540   1.635   0.852  13.635  0.2910 -0.3650 -2.7572
 4969SOL    HW226541   1.598   0.711  13.652  0.0657  0.5297 -1.6367
 4970SOL     OW26542   3.531   4.021  10.484  0.2647 -0.1135 -0.3996
 4970SOL    HW126543   3.543   4.047  10.575  0.8358  1.6790 -0.9718
 4970SOL    HW226544   3.514   3.927  10.491  1.5097 -0.4499 -1.9085
 4971SOL     OW26545   0.537   2.028   3.084  0.4397  0.1906  0.1668
 4971SOL    HW126546   0.480   2.048   3.010  1.2172 -0.0060 -0.4913
 4971SOL    HW226547   0.595   1.961   3.049 -2.5721 -2.7735  0.8616
 4972SOL     OW26548   0.278   0.072   2.292 -0.3130  0.5111 -0.0040
 4972SOL    HW126549   0.213   0.013   2.253  0.5391 -0.5236  0.1330
 4972SOL    HW226550   0.258   0.051   2.383 -0.3249 -0.3904 -0.2149
 4973SOL     OW26551   0.760   2.555   2.256 -0.3175 -0.5063 -0.0738
 4973SOL    HW126552   0.683   2.604   2.227 -0.4288 -1.1328 -0.8283
 4973SOL    HW226553   0.795   2.630   2.305 -0.6613 -1.3873  1.5331
 4974SOL     OW26554   3.345   0.051   7.811  0.5040 -0.6114 -0.0409
 4974SOL    HW126555   3.347   0.119   7.744 -0.1687 -0.6731 -0.1265
 4974SOL    HW226556   3.398   0.086   7.882  1.2974 -0.3682 -0.7564
 4975SOL     OW26557   3.803   2.997   4.396  0.1252  0.0699 -0.2751
 4975SOL    HW126558   3.708   2.993   4.380 -0.0753  0.7822  0.6933
 4975SOL    HW226559   3.800   2.972   4.489 -1.1164 -0.3879 -0.4397
 4976SOL     OW26560   0.039   1.504   6.489  0.0518 -0.0884  0.3291
 4976SOL    HW126561   0.121   1.487   6.536  1.2806  0.7550 -1.5033
 4976SOL    HW226562   0.043   1.443   6.416  1.1163  2.9025 -2.1341
 4977SOL     OW26563   3.027   1.285   5.667  0.1473 -0.6535 -0.1923
 4977SOL    HW126564   2.994   1.218   5.727  0.5362 -0.6921 -0.0238
 4977SOL    HW226565   3.094   1.232   5.623  0.6105  0.2766 -0.5988
 4978SOL     OW26566   4.016   2.866  10.876  0.0664 -0.5644  0.1206
 4978SOL    HW126567   4.098   2.818  10.889  0.1601 -0.4220  0.0459
 4978SOL    HW226568   3.950   2.796  10.873  0.3852 -0.7426 -2.2652
 4979SOL     OW26569   3.832   2.405   4.919 -0.0021  0.1552  0.4893
 4979SOL    HW126570   3.811   2.362   5.001 -1.4246  0.9294  0.5384
 4979SOL    HW226571   3.924   2.383   4.908 -0.0426 -0.3313  1.1392
 4980SOL     OW26572   1.416   2.022  11.295  0.1279 -0.3247 -0.0557
 4980SOL    HW126573   1.389   1.936  11.327 -3.1077  0.2538 -1.1617
 4980SOL    HW226574   1.426   2.001  11.202 -2.0076  2.1860 -0.8760
 4981SOL     OW26575   3.710   1.218   5.541 -0.2990 -0.0116  0.5785
 4981SOL    HW126576   3.727   1.236   5.634  0.6185  2.7868 -0.1489
 4981SOL    HW226577   3.676   1.303   5.513 -1.0513 -1.2885 -2.3398
 4982SOL     OW26578   2.884   1.511   9.417 -0.2730  0.0820 -0.2758
 4982SOL    HW126579   2.827   1.458   9.473 -0.6551  0.5592 -0.2161
 4982SOL    HW226580   2.898   1.580   9.482  0.3923 -0.2552 -0.0632
 4983SOL     OW26581   2.846   2.966   3.846 -0.2330  0.3170  0.6457
 4983SOL    HW126582   2.862   2.900   3.778  3.1310  1.3041  0.4942
 4983SOL    HW226583   2.761   2.933   3.874 -1.2399  1.9436 -0.4828
 4984SOL     OW26584   1.275   3.265  13.966  0.0668  0.1822 -0.2523
 4984SOL    HW126585   1.216   3.197  13.933 -0.3927  0.8169 -0.7426
 4984SOL    HW226586   1.234   3.282  14.051  0.1934  0.1465 -0.1847
 4985SOL     OW26587   1.169   3.763   2.208 -0.4184  0.2526 -0.6890
 4985SOL    HW126588   1.176   3.763   2.303 -2.2115  2.5177 -0.5405
 4985SOL    HW226589   1.217   3.683   2.189 -0.5453  0.1938 -0.7678
 4986SOL     OW26590   4.627   4.144   8.430  0.3153  0.4725 -0.4090
 4986SOL    HW126591   4.681   4.150   8.352  0.0443  0.1524 -0.6247
 4986SOL    HW226592   4.625   4.235   8.458 -0.1691  0.1682  0.5612
 4987SOL     OW26593   3.014   1.616   1.778  0.5171 -0.1661  0.2572
 4987SOL    HW126594   3.072   1.684   1.812 -3.2375  3.1760 -0.0098
 4987SOL    HW226595   2.927   1.654   1.796  0.4378  0.3960 -1.3510
 4988SOL     OW26596   0.994   0.350   4.443  0.4102 -0.3559 -0.2796
 4988SOL    HW126597   1.082   0.327   4.474  0.8828  1.8334 -0.0158
 4988SOL    HW226598   1.008   0.394   4.360  0.3453  0.5681  0.2057
 4989SOL     OW26599   0.377   2.195   1.848 -0.1944 -0.3103 -0.2576
 4989SOL    HW126600   0.318   2.166   1.778 -1.4903 -1.2326  1.1937
 4989SOL    HW226601   0.345   2.283   1.868  0.5169 -0.1550  0.2095
 4990SOL     OW26602   4.708   2.921   4.468  0.5783  0.6280 -0.0301
 4990SOL    HW126603   4.667   2.956   4.389 -0.2921 -1.0823 -0.3352
 4990SOL    HW226604   0.055   2.969   4.479  2.5411 -2.3736 -1.6206
 4991SOL     OW26605   4.215   0.552   2.093 -0.0224 -0.6570 -0.3147
 4991SOL    HW126606   4.268   0.610   2.148  1.0087 -0.2674 -1.7291
 4991SOL    HW226607   4.262   0.472   2.115 -0.0469 -0.7355 -0.5461
 4992SOL     OW26608   2.986   4.657  12.662  0.0050  0.4556  0.0734
 4992SOL    HW126609   2.946   4.631  12.579 -0.0826 -1.7636  0.8018
 4992SOL    HW226610   3.078   4.642  12.639 -0.4544 -0.0079 -1.4295
 4993SOL     OW26611   0.477   1.743   9.531 -0.0386 -0.1233  0.4009
 4993SOL    HW126612   0.388   1.777   9.535 -1.0035 -2.2639 -2.5451
 4993SOL    HW226613   0.516   1.785   9.607  1.5781 -0.1553 -0.4001
 4994SOL     OW26614   1.668   2.356   7.658 -0.4978 -0.1179 -0.4027
 4994SOL    HW126615   1.630   2.444   7.667 -1.6744 -0.6223 -0.3495
 4994SOL    HW226616   1.686   2.333   7.748 -0.3673 -2.6155 -1.0734
 4995SOL     OW26617   1.985   3.768  14.632  0.4432  0.7862  0.3269
 4995SOL    HW126618   1.941   3.712  14.568  1.5550 -0.4779  0.6743
 4995SOL    HW226619   2.046   3.704  14.668  0.2953  0.4266 -0.0485
 4996SOL     OW26620   0.229   3.967   1.697  0.3830 -0.6100 -0.1561
 4996SOL    HW126621   0.211   3.907   1.625 -1.2728  0.3541 -0.5483
 4996SOL    HW226622   0.141   3.997   1.719  0.6520  1.6541 -2.0883
 4997SOL     OW26623   1.205   2.775   6.206  0.1273 -0.0955 -0.3273
 4997SOL    HW126624   1.241   2.697   6.164  1.2387  0.6147 -0.6822
 4997SOL    HW226625   1.285   2.821   6.229  0.7662 -1.4085  0.0580
 4998SOL     OW26626   2.747   0.974   6.381 -0.1911  0.3133 -0.6728
 4998SOL    HW126627   2.802   0.951   6.306 -1.0972 -2.6174 -0.4202
 4998SOL    HW226628   2.666   0.929   6.357 -0.5760 -0.8088  2.7084
 4999SOL     OW26629   1.757   0.129   9.066  0.3911  0.1631  0.0402
 4999SOL    HW126630   1.734   0.077   9.143 -0.1489 -0.8172 -0.7824
 4999SOL    HW226631   1.683   0.115   9.006  0.8329  1.7964 -0.8864
 5000SOL     OW26632   2.342   0.978   5.207  0.1998  0.4276 -0.7324
 5000SOL    HW126633   2.329   0.986   5.301 -2.6726 -1.1625 -1.0055
 5000SOL    HW226634   2.250   0.967   5.182 -0.1425 -3.5607  2.1631
 5001SOL     OW26635   4.728   4.585   5.874 -0.4484 -0.5709  0.3355
 5001SOL    HW126636   0.033   4.672   5.876 -2.1558  0.2207  0.0765
 5001SOL    HW226637   4.676   4.582   5.954 -2.9050 -3.6731 -1.3964
 5002SOL     OW26638   3.319   1.133   8.814  0.2976  0.2384  0.2504
 5002SOL    HW126639   3.260   1.159   8.885  0.4102  2.5743 -0.5099
 5002SOL    HW226640   3.264   1.150   8.737 -0.6598 -0.9178  0.6686
 5003SOL     OW26641   0.074   2.302   7.155  0.0711  0.0568 -0.1723
 5003SOL    HW126642   0.043   2.290   7.065 -2.2407 -3.1263  1.0666
 5003SOL    HW226643   0.111   2.215   7.171 -1.6239 -0.8122 -1.0340
 5004SOL     OW26644   3.809   1.823   6.341  0.0673 -0.1386  0.4283
 5004SOL    HW126645   3.903   1.823   6.322  0.2201  0.8932  1.1996
 5004SOL    HW226646   3.808   1.915   6.367  0.1368 -0.0928  0.2717
 5005SOL     OW26647   2.525   2.564   9.134 -0.4445  0.2477 -0.1456
 5005SOL    HW126648   2.608   2.592   9.174 -0.5988 -1.5805  1.4111
 5005SOL    HW226649   2.509   2.644   9.083  1.8095  1.6352  1.3194
 5006SOL     OW26650   3.340   4.218   6.560 -0.0412 -0.9313 -0.0564
 5006SOL    HW126651   3.296   4.228   6.645 -1.1728  0.2043 -0.7940
 5006SOL    HW226652   3.426   4.187   6.590  0.2517 -2.0583 -2.0414
 5007SOL     OW26653   1.965   1.027   9.924  0.0390  0.1822  0.1856
 5007SOL    HW126654   2.037   0.982   9.879  0.7356  1.5922 -0.1222
 5007SOL    HW226655   1.906   0.953   9.935 -0.6674  0.6356 -0.5587
 5008SOL     OW26656   2.175   2.512  16.737 -0.2620 -0.8240  0.1140
 5008SOL    HW126657   2.232   2.503  16.813 -0.3271 -0.4155  0.2081
 5008SOL    HW226658   2.189   2.426  16.697  0.1737 -0.3811 -0.6921
 5009SOL     OW26659   1.730   1.280   7.851  0.2046  0.0169  0.0787
 5009SOL    HW126660   1.806   1.233   7.815  0.5889 -0.0108  0.9353
 5009SOL    HW226661   1.688   1.215   7.907 -1.1470  0.8680  0.0413
 5010SOL     OW26662   3.360   1.531   8.512 -0.3146  0.0437 -0.1107
 5010SOL    HW126663   3.360   1.625   8.493 -1.0075  0.2065  0.7046
 5010SOL    HW226664   3.301   1.497   8.445  0.5659  1.8887 -1.8367
 5011SOL     OW26665   2.148   0.683  14.120 -0.0460  0.1143  0.0992
 5011SOL    HW126666   2.233   0.639  14.121  0.8429  1.8266  0.7399
 5011SOL    HW226667   2.179   0.774  14.126 -1.3426  0.4790  1.1800
 5012SOL     OW26668   2.934   0.675   2.916  0.3097 -0.9001  0.7332
 5012SOL    HW126669   2.945   0.601   2.976 -1.3974 -3.2009 -1.8052
 5012SOL    HW226670   2.917   0.627   2.835  0.3490  2.4560 -1.2555
 5013SOL     OW26671   2.151   3.124   4.442 -0.4596  0.4121 -0.1294
 5013SOL    HW126672   2.229   3.074   4.465 -1.0523 -1.1035 -1.4033
 5013SOL    HW226673   2.113   3.147   4.526 -0.0835  0.4977  0.0187
 5014SOL     OW26674   4.061   4.353   9.453  0.5518 -0.1518 -0.2335
 5014SOL    HW126675   4.115   4.343   9.374  1.1092 -2.3254  0.4087
 5014SOL    HW226676   4.065   4.265   9.491  0.4701  0.1539  0.4660
 5015SOL     OW26677   0.148   3.412   6.592  0.4416  0.1674  0.0357
 5015SOL    HW126678   0.122   3.370   6.674 -1.1074 -0.9238 -0.9962
 5015SOL    HW226679   0.222   3.467   6.616 -0.5924  2.1223 -1.2734
 5016SOL     OW26680   3.229   0.183   5.216 -0.4155  0.3721 -0.1420
 5016SOL    HW126681   3.266   0.200   5.130  1.4910 -0.1501  0.5780
 5016SOL    HW226682   3.138   0.213   5.210 -1.5772 -3.0318  0.7014
 5017SOL     OW26683   4.665   0.495  10.186 -0.2650 -0.4376  0.1269
 5017SOL    HW126684   4.600   0.523  10.251 -2.0393  0.8410 -2.1950
 5017SOL    HW226685   4.608   0.430  10.145 -0.9372  0.2019  0.0384
 5018SOL     OW26686   3.066   3.168  12.009  0.2121  0.6328 -0.0899
 5018SOL    HW126687   3.010   3.099  11.973  0.3993  0.1521  0.5459
 5018SOL    HW226688   3.004   3.239  12.023  0.4588  0.3450  2.3319
 5019SOL     OW26689   1.267   0.168   2.732  0.4040  0.1833  0.1817
 5019SOL    HW126690   1.214   0.098   2.771  1.3994 -2.2967 -2.9085
 5019SOL    HW226691   1.318   0.114   2.672  0.4169 -1.3694  1.5863
 5020SOL     OW26692   4.409   2.385   1.587 -0.1276  0.1755  0.1827
 5020SOL    HW126693   4.490   2.436   1.581 -0.1076  0.1399  0.1547
 5020SOL    HW226694   4.443   2.296   1.594  0.3386  0.2344 -1.4464
 5021SOL     OW26695   1.413   2.522   2.319  0.0736 -0.4618  0.4417
 5021SOL    HW126696   1.469   2.497   2.393  0.2569  2.2264  1.2165
 5021SOL    HW226697   1.336   2.469   2.338  0.5224 -0.6391  1.7753
 5022SOL     OW26698   1.296   4.292   0.925 -0.0416 -0.1699 -0.0839
 5022SOL    HW126699   1.336   4.307   0.840 -1.2972 -3.9385 -1.3637
 5022SOL    HW226700   1.377   4.285   0.975 -1.0347  2.3168  1.8953
 5023SOL     OW26701   3.850   0.456   4.665  0.4523 -0.2621  0.6155
 5023SOL    HW126702   3.878   0.373   4.626 -0.0106 -0.8444  1.5142
 5023SOL    HW226703   3.915   0.521   4.638  0.6068 -0.2456  1.0289
 5024SOL     OW26704   4.091   2.644   4.063  0.7141  0.0782 -0.0717
 5024SOL    HW126705   4.051   2.589   4.129  1.9346 -0.2724  0.3796
 5024SOL    HW226706   4.111   2.723   4.114  1.0254  0.3732 -0.6472
 5025SOL     OW26707   4.099   3.508   1.138 -0.1113  0.5833 -0.2046
 5025SOL    HW126708   4.049   3.546   1.066 -0.6963  0.5614  0.1878
 5025SOL    HW226709   4.187   3.515   1.100  0.1779 -1.4613  0.1175
 5026SOL     OW26710   2.085   3.226   3.044 -0.3058  0.2485  0.2546
 5026SOL    HW126711   2.132   3.149   3.011 -1.1147  0.3351 -1.0592
 5026SOL    HW226712   2.079   3.200   3.136  0.1418 -2.3588 -0.4725
 5027SOL     OW26713   4.099   1.928  12.959  0.1143  0.2087  0.2987
 5027SOL    HW126714   4.010   1.914  12.991 -0.6984  0.1012 -2.0006
 5027SOL    HW226715   4.095   1.976  12.876  0.4942  0.9676  0.7163
 5028SOL     OW26716   0.544   2.350  13.677  0.2077  0.4889  0.0845
 5028SOL    HW126717   0.486   2.277  13.701  1.7847 -1.4628 -2.0182
 5028SOL    HW226718   0.569   2.319  13.589 -2.5794  0.8346 -0.8510
 5029SOL     OW26719   0.270   4.537   3.888  0.6568 -0.2053 -0.0483
 5029SOL    HW126720   0.264   4.442   3.877  1.2502 -0.2283 -0.1835
 5029SOL    HW226721   0.181   4.565   3.870  0.0889 -1.5774  0.5917
 5030SOL     OW26722   0.663   3.687   6.994 -0.0851  0.5275 -0.7271
 5030SOL    HW126723   0.571   3.663   7.003 -0.6806  2.4375 -1.7073
 5030SOL    HW226724   0.710   3.632   7.057  2.6003  1.7513 -1.6794
 5031SOL     OW26725   0.041   1.315   0.209  0.0715 -0.6364 -0.3575
 5031SOL    HW126726   0.033   1.410   0.216 -2.0233 -1.0218  2.6652
 5031SOL    HW226727   0.054   1.288   0.300  0.2437  1.3529  0.2014
 5032SOL     OW26728   4.463   3.348  12.358 -0.2142  0.3720  0.0934
 5032SOL    HW126729   4.544   3.316  12.397  0.9994  1.8938 -1.2269
 5032SOL    HW226730   4.435   3.282  12.294  0.2784 -1.6729  1.9888
 5033SOL     OW26731   1.833   2.962   7.227 -0.4992 -0.1841  1.0796
 5033SOL    HW126732   1.795   2.963   7.140 -1.3035  1.9475  1.4458
 5033SOL    HW226733   1.791   2.879   7.252  0.1754 -0.6619  0.5941
 5034SOL     OW26734   0.673   0.165   4.277 -0.1335 -0.6063 -0.3940
 5034SOL    HW126735   0.688   0.217   4.198  1.3187 -0.3556  0.0473
 5034SOL    HW226736   0.756   0.186   4.321 -1.7456 -0.4960  2.5689
 5035SOL     OW26737   3.044   0.690   6.391  0.2682 -0.0682 -0.4382
 5035SOL    HW126738   3.056   0.661   6.481 -1.2485 -1.3151 -0.6401
 5035SOL    HW226739   3.121   0.648   6.352  2.3301  2.4367  0.8979
 5036SOL     OW26740   1.274   0.743  16.811  0.0639  0.4322 -0.2474
 5036SOL    HW126741   1.323   0.670  16.775  1.3569  2.7281 -3.1412
 5036SOL    HW226742   1.221   0.698  16.877  0.0327 -0.1213 -0.6523
 5037SOL     OW26743   0.896   3.903   7.170  0.3084 -0.7703 -0.0687
 5037SOL    HW126744   0.892   3.848   7.092 -1.4491  0.0762 -0.5838
 5037SOL    HW226745   0.991   3.909   7.181 -0.1654  1.7119  2.5396
 5038SOL     OW26746   4.236   2.344   2.843 -0.1427 -0.0947  0.5159
 5038SOL    HW126747   4.299   2.372   2.909  0.0644  4.7020 -1.6724
 5038SOL    HW226748   4.272   2.390   2.767 -0.5401 -0.9180 -0.1660
 5039SOL     OW26749   4.434   0.153   0.767  0.2661  0.4968  1.0067
 5039SOL    HW126750   4.411   0.222   0.704  2.0815 -0.0220 -0.2333
 5039SOL    HW226751   4.370   0.174   0.834  0.5437  0.3832  1.3051
 5040SOL     OW26752   3.031   3.301   7.695 -0.0966 -0.2654  0.4958
 5040SOL    HW126753   3.035   3.315   7.600  1.0842 -2.0901  0.2718
 5040SOL    HW226754   2.963   3.233   7.701 -0.7075  0.1134 -2.2734
 5041SOL     OW26755   3.770   3.817   9.614 -0.2285  0.1529  0.3564
 5041SOL    HW126756   3.787   3.861   9.531 -1.0045 -0.0198  0.1076
 5041SOL    HW226757   3.688   3.770   9.601 -0.6659  0.0296  3.6667
 5042SOL     OW26758   0.647   0.189   6.086 -0.0476  0.1284 -0.0170
 5042SOL    HW126759   0.738   0.171   6.066  0.0737  1.5505 -0.7643
 5042SOL    HW226760   0.647   0.281   6.060  2.5780 -0.3957 -1.8723
 5043SOL     OW26761   2.641   4.074  14.948  0.4263  1.0068 -0.3374
 5043SOL    HW126762   2.737   4.074  14.948  0.4290 -1.4879 -0.0390
 5043SOL    HW226763   2.627   4.160  14.909 -0.6258  1.0802  0.2111
 5044SOL     OW26764   2.574   4.629   3.554  0.0167 -0.6769  0.0562
 5044SOL    HW126765   2.502   4.679   3.518 -0.8251 -1.3703  0.7591
 5044SOL    HW226766   2.644   4.691   3.577 -0.0090 -0.7791  0.4262
 5045SOL     OW26767   4.397   1.206   5.314 -0.1474  0.3638  0.2080
 5045SOL    HW126768   4.333   1.164   5.372 -2.4577  1.7161 -1.4283
 5045SOL    HW226769   4.480   1.185   5.358 -0.3101 -0.2641  0.2227
 5046SOL     OW26770   3.525   0.386   8.100  0.2045 -0.3266 -0.1474
 5046SOL    HW126771   3.566   0.430   8.026  0.8794 -1.8030 -0.6553
 5046SOL    HW226772   3.525   0.456   8.165  1.1775 -0.5763  0.1244
 5047SOL     OW26773   4.505   3.482  11.131  0.1113 -0.6119 -0.0548
 5047SOL    HW126774   4.541   3.398  11.158 -0.7216 -0.9202  0.1132
 5047SOL    HW226775   4.471   3.438  11.053 -0.6960  1.7248 -1.0418
 5048SOL     OW26776   4.547   4.265   4.490 -0.1793  0.1390  0.2583
 5048SOL    HW126777   4.534   4.358   4.470 -2.2456 -0.2643 -0.3219
 5048SOL    HW226778   4.466   4.243   4.535  0.1323 -0.1557  0.6707
 5049SOL     OW26779   0.477   1.454   0.565  0.3070 -0.3178  0.4342
 5049SOL    HW126780   0.555   1.506   0.583 -0.4814  0.7419  0.7291
 5049SOL    HW226781   0.456   1.410   0.647 -0.0073  0.7198  0.8984
 5050SOL     OW26782   1.990   4.064  10.454 -0.1409  0.1039 -0.2565
 5050SOL    HW126783   1.976   3.972  10.476 -0.7118  0.2895  0.1689
 5050SOL    HW226784   1.993   4.105  10.541 -0.3823 -0.7760  0.1631
 5051SOL     OW26785   3.619   3.961  12.761 -0.6310  0.0159 -0.2032
 5051SOL    HW126786   3.635   3.945  12.854 -4.2060  1.6970  0.6751
 5051SOL    HW226787   3.710   3.962  12.731 -0.6699 -0.4498 -0.3339
 5052SOL     OW26788   0.983   4.336   7.196  0.2159  0.2752  0.2611
 5052SOL    HW126789   0.908   4.293   7.156  1.3812 -3.1777  1.8175
 5052SOL    HW226790   0.937   4.416   7.222  0.3946  0.4180  0.1406
 5053SOL     OW26791   2.440   1.660  16.715 -0.3121  0.6289 -0.2032
 5053SOL    HW126792   2.440   1.699  16.627  0.5664 -0.1792 -0.5588
 5053SOL    HW226793   2.375   1.590  16.709  0.4247 -0.0377 -0.3406
 5054SOL     OW26794   0.285   0.375   2.056 -0.0341  0.6101 -0.4050
 5054SOL    HW126795   0.360   0.344   2.106  2.1829  2.0215 -2.8627
 5054SOL    HW226796   0.311   0.460   2.019  1.3060  0.2422 -0.3041
 5055SOL     OW26797   0.990   1.847   1.705 -0.2717  0.0912  0.3673
 5055SOL    HW126798   1.066   1.901   1.681 -0.3522  0.3326  0.6629
 5055SOL    HW226799   1.021   1.775   1.760  0.2926  1.2918  1.6147
 5056SOL     OW26800   2.092   1.419   5.085  0.5323 -0.1824  0.4781
 5056SOL    HW126801   2.174   1.398   5.130  1.2759  1.3414 -0.1672
 5056SOL    HW226802   2.130   1.457   5.006  1.1290  0.7737  1.2229
 5057SOL     OW26803   2.700   1.639   1.508 -0.5117  0.1623 -0.4362
 5057SOL    HW126804   2.634   1.694   1.466  0.5740  1.1671 -0.8653
 5057SOL    HW226805   2.759   1.611   1.438 -1.0300  3.0383 -2.0324
 5058SOL     OW26806   0.756   1.438   1.736 -0.2307 -0.1839 -0.1137
 5058SOL    HW126807   0.669   1.454   1.773 -0.0494  1.5593 -0.4662
 5058SOL    HW226808   0.752   1.503   1.666 -3.2500  0.1250  0.3409
 5059SOL     OW26809   0.418   1.672   7.568 -0.2000  0.2388 -0.7284
 5059SOL    HW126810   0.500   1.627   7.549 -0.3301 -1.1045  1.9124
 5059SOL    HW226811   0.371   1.599   7.608 -0.2185 -0.3369 -1.7923
 5060SOL     OW26812   2.887   3.102   8.052  0.2278  0.2295 -0.5188
 5060SOL    HW126813   2.982   3.106   8.046  0.2411  1.6104  0.7354
 5060SOL    HW226814   2.879   3.034   7.986 -1.5385  1.2893 -1.3902
 5061SOL     OW26815   2.959   1.833   1.524 -0.1893 -0.0750 -0.0234
 5061SOL    HW126816   2.913   1.804   1.603 -0.8370 -1.7384 -1.0270
 5061SOL    HW226817   2.941   1.927   1.532  0.1478  0.1919 -2.4817
 5062SOL     OW26818   3.132   1.181  17.311  0.3816 -0.2737  0.4878
 5062SOL    HW126819   3.119   1.271  17.280  0.6323 -0.2915  0.3359
 5062SOL    HW226820   3.049   1.148  17.346  0.6557 -1.3470  0.0995
 5063SOL     OW26821   2.524   0.159  15.026  0.3599 -0.3874  0.3348
 5063SOL    HW126822   2.565   0.237  15.061 -0.0666 -0.4519  0.9772
 5063SOL    HW226823   2.584   0.144  14.952  0.8656  3.1762  0.0152
 5064SOL     OW26824   0.399   3.522   6.782 -0.3516 -0.2829  0.1931
 5064SOL    HW126825   0.373   3.566   6.863  1.6332 -0.7468  1.0925
 5064SOL    HW226826   0.433   3.439   6.814  0.1556  0.2395  1.0006
 5065SOL     OW26827   4.554   1.838   5.103 -0.2165  0.2700  0.7135
 5065SOL    HW126828   4.632   1.838   5.159 -1.4493  1.8972  2.4310
 5065SOL    HW226829   4.531   1.931   5.107 -0.9056  0.0628  1.3498
 5066SOL     OW26830   3.510   4.245   0.737  0.6003  0.5650 -0.2701
 5066SOL    HW126831   3.421   4.274   0.753  1.2185  2.0939  0.4206
 5066SOL    HW226832   3.496   4.201   0.653  0.6566 -1.7422  0.9382
 5067SOL     OW26833   0.848   3.156   1.118  0.2141  0.1017 -0.2160
 5067SOL    HW126834   0.817   3.066   1.105  0.1510  0.1595 -0.4503
 5067SOL    HW226835   0.833   3.194   1.032  0.9840  0.4755 -0.1831
 5068SOL     OW26836   2.308   1.442   1.627  0.4509 -0.0660  0.1484
 5068SOL    HW126837   2.371   1.453   1.698  0.3115  1.9298 -0.0507
 5068SOL    HW226838   2.303   1.528   1.587 -0.8303  0.8290  2.2179
 5069SOL     OW26839   2.578   2.858  14.452 -0.2855 -0.1342  0.2974
 5069SOL    HW126840   2.644   2.845  14.384 -0.4487 -0.1135  0.1347
 5069SOL    HW226841   2.527   2.939  14.444 -0.7879 -0.6882 -2.1769
 5070SOL     OW26842   0.699   1.124   5.050  0.5526  0.1085 -0.2976
 5070SOL    HW126843   0.622   1.069   5.061  0.8662  0.3159  2.8573
 5070SOL    HW226844   0.657   1.210   5.046 -0.6329 -0.5026 -0.8756
 5071SOL     OW26845   2.798   2.094  13.418 -0.1838 -0.1120 -0.0089
 5071SOL    HW126846   2.717   2.054  13.388 -0.4266  0.0014  0.4869
 5071SOL    HW226847   2.854   2.022  13.446  1.4589  0.8477 -0.8337
 5072SOL     OW26848   1.353   2.999   9.018  0.3188  0.3193 -0.3342
 5072SOL    HW126849   1.371   2.963   8.931  1.7064 -0.5841  0.3373
 5072SOL    HW226850   1.394   2.930   9.070 -0.9064 -0.4657 -0.4163
 5073SOL     OW26851   1.955   3.843   1.170  0.0482  0.3839  0.6025
 5073SOL    HW126852   1.929   3.848   1.263  0.6457  0.9631  0.7320
 5073SOL    HW226853   2.030   3.900   1.160 -1.0775  2.1405  2.1130
 5074SOL     OW26854   2.593   0.930   8.366 -0.1586  0.5589  0.3204
 5074SOL    HW126855   2.644   1.000   8.324 -0.5354  1.8646  2.0522
 5074SOL    HW226856   2.656   0.887   8.424 -0.6669  1.4375  1.5117
 5075SOL     OW26857   4.005   3.971   7.985 -0.3004 -0.1450 -0.0984
 5075SOL    HW126858   3.977   4.006   7.901 -0.7320 -1.6915 -0.6029
 5075SOL    HW226859   3.920   3.940   8.017 -1.2341  1.0990 -1.4173
 5076SOL     OW26860   4.152   3.722   3.567 -0.3136  0.2415 -0.3705
 5076SOL    HW126861   4.211   3.770   3.510 -0.7355  2.0725  0.7617
 5076SOL    HW226862   4.132   3.792   3.629  0.7517  0.9678 -0.8458
 5077SOL     OW26863   3.337   2.808   7.980 -0.1949 -0.3194  0.7751
 5077SOL    HW126864   3.357   2.877   8.044  0.0486 -0.5789  0.9762
 5077SOL    HW226865   3.374   2.729   8.019  2.4268 -0.7668 -2.6724
 5078SOL     OW26866   0.816   2.251   4.688  0.1409  0.4502 -0.3952
 5078SOL    HW126867   0.746   2.312   4.663 -0.5105 -0.5692 -1.0991
 5078SOL    HW226868   0.772   2.174   4.726  1.2864  0.4116  0.8547
 5079SOL     OW26869   1.155   4.203   5.402  0.2399 -0.2388  0.7800
 5079SOL    HW126870   1.064   4.186   5.426 -0.5682  1.1139 -1.3159
 5079SOL    HW226871   1.133   4.224   5.311 -0.2037 -0.1287  0.9093
 5080SOL     OW26872   4.194   1.451   1.728  0.4092  0.1078  0.1675
 5080SOL    HW126873   4.245   1.445   1.648 -0.6799  0.3281 -0.5358
 5080SOL    HW226874   4.235   1.383   1.783 -1.9201 -2.4941 -1.3267
 5081SOL     OW26875   4.139   1.952   4.756 -0.6589  0.1585  0.5054
 5081SOL    HW126876   4.222   1.905   4.745 -0.2995  0.8403  0.2446
 5081SOL    HW226877   4.097   1.936   4.672 -0.6050  0.9205  0.3284
 5082SOL     OW26878   1.103   4.062   9.501 -0.4226  0.3792 -0.1028
 5082SOL    HW126879   1.125   4.137   9.446  0.1471  0.1784 -0.1498
 5082SOL    HW226880   1.166   4.069   9.573  0.6751 -0.2945 -0.9975
 5083SOL     OW26881   0.108   3.915   9.588  0.1912  0.0452  0.2581
 5083SOL    HW126882   0.099   3.944   9.678  0.9341 -0.7424  0.5900
 5083SOL    HW226883   0.038   3.851   9.585  1.4616 -1.3282 -0.4267
 5084SOL     OW26884   0.788   3.077   7.356 -0.2501 -0.3597 -0.2758
 5084SOL    HW126885   0.764   3.022   7.430 -1.8973  0.5082 -0.1847
 5084SOL    HW226886   0.775   3.011   7.288  0.2014  0.5211 -1.2300
 5085SOL     OW26887   2.497   4.075   6.613 -0.3873 -0.0911  0.1409
 5085SOL    HW126888   2.586   4.063   6.581 -0.1711 -0.3935  0.8507
 5085SOL    HW226889   2.442   4.031   6.547  0.5075 -1.0152  0.0126
 5086SOL     OW26890   1.783   3.909   5.949  0.4267  0.1487  0.1606
 5086SOL    HW126891   1.741   3.836   5.903 -2.4099  0.7794  1.7482
 5086SOL    HW226892   1.871   3.905   5.911  1.2662  1.0067  2.0391
 5087SOL     OW26893   1.120   2.279  13.268  0.3229  0.1986  0.0156
 5087SOL    HW126894   1.173   2.219  13.217 -0.2981 -1.6089  1.4867
 5087SOL    HW226895   1.062   2.223  13.320 -0.6992  1.6666  0.4564
 5088SOL     OW26896   2.485   3.822   7.985  0.3102 -0.6029 -0.3838
 5088SOL    HW126897   2.427   3.815   8.060 -0.3012 -1.5150 -0.9407
 5088SOL    HW226898   2.533   3.739   7.991  0.5449 -0.5067 -0.8935
 5089SOL     OW26899   1.489   2.281   9.159 -0.4996  0.1480 -0.1804
 5089SOL    HW126900   1.581   2.261   9.140  0.4578  3.2044  1.2711
 5089SOL    HW226901   1.442   2.201   9.134 -2.5868  1.2732  0.2264
 5090SOL     OW26902   0.351   3.483   4.650 -0.2281  0.5065  0.0727
 5090SOL    HW126903   0.313   3.524   4.727 -0.2726 -2.0459  1.4187
 5090SOL    HW226904   0.378   3.399   4.686  0.5630  0.9107  0.4206
 5091SOL     OW26905   3.882   2.413   2.545  0.1415 -0.0741 -0.4972
 5091SOL    HW126906   3.816   2.408   2.615  0.8791  0.2354  0.2204
 5091SOL    HW226907   3.938   2.343   2.578 -1.1337  0.3440  2.5811
 5092SOL     OW26908   3.049   1.096   7.479  1.1525  0.2732  0.1081
 5092SOL    HW126909   3.029   1.148   7.401  0.4087  0.7389  0.6152
 5092SOL    HW226910   3.144   1.104   7.479  1.1367  0.4012  1.7242
 5093SOL     OW26911   3.542   0.689   6.618  0.5222 -0.0521  0.1028
 5093SOL    HW126912   3.540   0.680   6.713  0.2951 -1.0625  0.0061
 5093SOL    HW226913   3.585   0.607   6.593 -0.2673 -0.3937 -0.1436
 5094SOL     OW26914   0.250   0.389   4.171  0.3709 -0.3505  0.1867
 5094SOL    HW126915   0.260   0.295   4.159  1.9604 -0.1138 -0.3911
 5094SOL    HW226916   0.161   0.396   4.138  0.5930 -1.3637 -0.6224
 5095SOL     OW26917   1.271   2.186   0.038  0.3288 -0.4539  0.5329
 5095SOL    HW126918   1.182   2.180   0.070  0.8731 -4.1110  1.3859
 5095SOL    HW226919   1.266   2.111  17.719 -0.0462  0.7999 -1.0257
 5096SOL     OW26920   1.581   2.763   0.553  0.4364 -0.2484 -0.2682
 5096SOL    HW126921   1.517   2.773   0.624  0.7365  2.8567 -0.4262
 5096SOL    HW226922   1.598   2.855   0.531  1.1309 -0.0911  0.9809
 5097SOL     OW26923   1.996   3.495  15.012 -0.1097 -0.3815 -0.0057
 5097SOL    HW126924   2.031   3.409  14.988  3.3002  1.0822 -0.3270
 5097SOL    HW226925   1.969   3.484  15.103 -0.5787 -0.7817 -0.1950
 5098SOL     OW26926   0.279   0.106  12.842 -0.2951  0.5341  0.2710
 5098SOL    HW126927   0.289   0.085  12.749 -1.5192  3.8659 -0.5877
 5098SOL    HW226928   0.230   0.187  12.827 -3.1159 -1.4178 -1.1848
 5099SOL     OW26929   3.771   0.243  13.826  0.8925  0.3016  0.3139
 5099SOL    HW126930   3.789   0.283  13.911  0.3519 -1.2079  1.1444
 5099SOL    HW226931   3.847   0.185  13.827  1.5227  1.1040 -2.3441
 5100SOL     OW26932   2.307   2.860   8.057 -0.5330  0.4573  0.1836
 5100SOL    HW126933   2.282   2.829   7.970  0.2425  1.3903 -0.3861
 5100SOL    HW226934   2.260   2.944   8.060 -0.3577  0.4355  3.9480
 5101SOL     OW26935   3.722   1.604   0.899  0.1143  0.2255 -0.2906
 5101SOL    HW126936   3.784   1.544   0.859  0.9246  0.8153  0.0707
 5101SOL    HW226937   3.777   1.653   0.960 -1.6799  1.3063  0.4795
 5102SOL     OW26938   2.302   4.437  13.198  0.6459 -0.1344  0.0322
 5102SOL    HW126939   2.371   4.370  13.199 -0.5315 -1.2772  2.6528
 5102SOL    HW226940   2.250   4.404  13.271 -2.0951  0.0178 -1.8481
 5103SOL     OW26941   4.187   4.202   7.238  0.2013  0.0655  0.4589
 5103SOL    HW126942   4.174   4.112   7.207  1.6869 -0.3378  0.9896
 5103SOL    HW226943   4.185   4.186   7.332  2.6377 -0.3260  0.4407
 5104SOL     OW26944   1.242   0.131   8.449 -0.5953  0.2443 -0.3122
 5104SOL    HW126945   1.317   0.113   8.393 -0.0042  2.1114 -0.1337
 5104SOL    HW226946   1.206   0.208   8.406  1.0416  0.0998 -1.9289
 5105SOL     OW26947   3.907   3.141  10.930 -0.6580  0.4671 -0.2050
 5105SOL    HW126948   3.901   3.045  10.926  1.2962  0.2774  0.9986
 5105SOL    HW226949   3.815   3.165  10.936 -0.5066  0.5475  1.7950
 5106SOL     OW26950   0.229   4.326   2.351 -0.4153 -0.6797  0.1287
 5106SOL    HW126951   0.165   4.374   2.404 -0.8981  0.2613 -1.2964
 5106SOL    HW226952   0.165   4.272   2.304 -0.7013 -0.3139  0.0961
 5107SOL     OW26953   1.706   0.802   6.405  0.0429 -0.9793 -0.1596
 5107SOL    HW126954   1.685   0.709   6.413  0.0967 -1.0509 -0.8096
 5107SOL    HW226955   1.710   0.820   6.499 -0.7605  1.9078 -0.6950
 5108SOL     OW26956   1.249   3.246   5.959  0.7119  0.3998  0.1881
 5108SOL    HW126957   1.248   3.225   6.053 -1.2854 -3.8797 -0.8083
 5108SOL    HW226958   1.239   3.341   5.954  1.6626  0.4859 -0.0536
 5109SOL     OW26959   2.403   0.555   6.751 -0.3928  0.4289  0.2080
 5109SOL    HW126960   2.392   0.490   6.682 -1.6282  1.0053 -0.1333
 5109SOL    HW226961   2.456   0.617   6.701 -0.4818 -0.1602 -0.6159
 5110SOL     OW26962   0.389   4.264  15.354  0.5912 -0.1853  0.0409
 5110SOL    HW126963   0.390   4.256  15.258 -1.7227 -0.8249  0.0761
 5110SOL    HW226964   0.316   4.325  15.358  2.2567  1.8596 -0.7038
 5111SOL     OW26965   1.924   3.648   5.410  0.0352  0.0257 -0.4980
 5111SOL    HW126966   1.850   3.704   5.388 -1.3816 -0.8755  1.9116
 5111SOL    HW226967   1.978   3.700   5.470 -0.5913 -0.2440  0.3071
 5112SOL     OW26968   4.022   2.107   5.346 -0.5241  0.1672  0.2242
 5112SOL    HW126969   4.097   2.134   5.292  0.1541 -3.2689 -0.5475
 5112SOL    HW226970   4.012   2.179   5.408  0.3963  1.2397 -0.8731
 5113SOL     OW26971   1.072   1.545   9.346 -0.1086  0.1285 -0.0483
 5113SOL    HW126972   1.043   1.544   9.437 -1.9664 -0.0980 -0.6294
 5113SOL    HW226973   0.990   1.527   9.299 -0.0720  1.7046 -0.6898
 5114SOL     OW26974   2.794   2.644   1.430 -0.3530 -0.1557  0.4421
 5114SOL    HW126975   2.809   2.657   1.336  1.7095  0.5175  0.8722
 5114SOL    HW226976   2.863   2.688   1.479 -2.2254  1.6470  1.4500
 5115SOL     OW26977   4.268   3.530  13.546 -0.3631  0.1106  0.0895
 5115SOL    HW126978   4.221   3.613  13.542 -2.6713 -1.3813 -2.7524
 5115SOL    HW226979   4.310   3.540  13.632  2.3047 -0.3786 -1.1346
 5116SOL     OW26980   2.701   2.507   5.380 -0.3189  0.0995  0.4484
 5116SOL    HW126981   2.628   2.532   5.436 -0.4017  1.1834 -0.1550
 5116SOL    HW226982   2.657   2.502   5.296  1.3530 -1.4559 -0.3153
 5117SOL     OW26983   3.431   2.012   6.933  0.2893  1.1168  0.2425
 5117SOL    HW126984   3.502   2.065   6.969  2.0005 -0.6231 -0.5800
 5117SOL    HW226985   3.436   1.945   7.001 -1.2014  0.4007 -0.3493
 5118SOL     OW26986   3.542   4.230   2.278  0.3723  0.2304 -0.3601
 5118SOL    HW126987   3.533   4.145   2.321  0.7394 -0.5226 -1.7666
 5118SOL    HW226988   3.636   4.224   2.259  0.8506 -0.6828  2.3628
 5119SOL     OW26989   1.423   0.068   0.087  0.0776  0.2690  0.0071
 5119SOL    HW126990   1.509   0.076   0.129 -0.1875 -0.1937  0.6419
 5119SOL    HW226991   1.439   0.000   0.022 -0.1887  1.1141 -0.9242
 5120SOL     OW26992   3.397   3.569   9.180 -0.0389  0.4823  0.1345
 5120SOL    HW126993   3.326   3.526   9.133  0.5000  0.8171 -0.9894
 5120SOL    HW226994   3.441   3.630   9.120 -0.7229  0.2012 -0.6448
 5121SOL     OW26995   2.889   0.477   5.032  0.1278 -0.1349  0.2449
 5121SOL    HW126996   2.917   0.542   5.096 -2.7530  1.0699  0.2760
 5121SOL    HW226997   2.945   0.502   4.959  1.0582 -2.1495  0.2844
 5122SOL     OW26998   0.672   0.645   3.147 -0.0405 -0.1605 -0.1499
 5122SOL    HW126999   0.593   0.594   3.167 -1.3006  1.2105 -1.6313
 5122SOL    HW227000   0.633   0.702   3.081 -0.1930  0.3994  0.4220
 5123SOL     OW27001   0.532   0.271   2.152 -0.5308  0.0334  0.5049
 5123SOL    HW127002   0.507   0.203   2.090 -0.8558  0.4670  0.1593
 5123SOL    HW227003   0.625   0.283   2.139 -0.9615  2.0067 -0.7223
 5124SOL     OW27004   2.563   0.522   4.710 -0.2401 -0.5691 -0.0450
 5124SOL    HW127005   2.621   0.587   4.749  1.4249 -1.1493 -1.5817
 5124SOL    HW227006   2.477   0.566   4.708  0.7677  1.3217 -2.0691
 5125SOL     OW27007   3.154   4.003  13.404 -0.7512 -0.1723  0.4466
 5125SOL    HW127008   3.059   4.006  13.406 -0.8100 -2.8487  2.2117
 5125SOL    HW227009   3.178   4.078  13.349 -1.7385  0.5196  0.9574
 5126SOL     OW27010   0.667   4.210  15.397 -0.3217 -0.4298 -0.2395
 5126SOL    HW127011   0.673   4.165  15.482  2.2065  0.6875  0.1520
 5126SOL    HW227012   0.571   4.220  15.395 -0.1669  1.2457  0.5880
 5127SOL     OW27013   1.451   1.612   8.133  0.7079 -0.0442 -0.1140
 5127SOL    HW127014   1.400   1.608   8.052 -0.9006  2.1334  0.7995
 5127SOL    HW227015   1.538   1.596   8.098  0.0387 -2.1192 -0.8549
 5128SOL     OW27016   3.648   2.946   4.883  0.6208 -0.0146 -0.1056
 5128SOL    HW127017   3.631   2.853   4.895  0.7030  0.0613  0.6464
 5128SOL    HW227018   3.572   2.976   4.833  1.1783 -0.7876 -1.3947
 5129SOL     OW27019   4.209   2.664   6.643  0.0912 -0.0363 -0.0270
 5129SOL    HW127020   4.165   2.703   6.568 -1.1340  1.3361  1.4243
 5129SOL    HW227021   4.269   2.611   6.590  1.7240  1.8965 -0.1000
 5130SOL     OW27022   0.192   4.550  11.511 -0.1721  0.2705  0.1361
 5130SOL    HW127023   0.217   4.467  11.470  2.1658  1.5695 -1.0743
 5130SOL    HW227024   0.102   4.564  11.483 -0.1158 -0.5859 -0.5028
 5131SOL     OW27025   1.061   4.238   4.836  0.3656  0.2494 -0.4197
 5131SOL    HW127026   1.124   4.248   4.908 -0.1177 -3.5321  0.5114
 5131SOL    HW227027   1.102   4.270   4.755  1.0081  0.8720  0.1491
 5132SOL     OW27028   1.973   0.144   6.764  0.3144 -0.6189 -0.5844
 5132SOL    HW127029   1.880   0.119   6.764 -0.0472  0.7643  0.3673
 5132SOL    HW227030   1.986   0.172   6.673  0.3002 -1.5963 -0.8824
 5133SOL     OW27031   0.114   4.571  16.812  0.6954  0.1460  0.2795
 5133SOL    HW127032   0.182   4.595  16.874  1.2233 -1.8524  0.4554
 5133SOL    HW227033   0.032   4.604  16.848  0.6525  1.3231 -0.8886
 5134SOL     OW27034   3.434   0.071  17.496 -0.9141 -0.0867  0.4365
 5134SOL    HW127035   3.413   0.151  17.545  0.2494  0.5362 -0.0728
 5134SOL    HW227036   3.494   0.029  17.558  0.9190  0.1409 -1.1992
 5135SOL     OW27037   2.417   1.602  11.895  0.3892 -0.1902 -0.3823
 5135SOL    HW127038   2.441   1.510  11.902  0.6190 -0.1390 -0.4891
 5135SOL    HW227039   2.367   1.625  11.973 -1.5381  0.3189 -1.7460
 5136SOL     OW27040   0.933   1.733   8.097  0.3455  0.1784  0.5305
 5136SOL    HW127041   0.905   1.660   8.152  3.8704 -2.1837 -0.7936
 5136SOL    HW227042   0.845   1.772   8.096  0.7603  1.0911  0.4543
 5137SOL     OW27043   1.054   0.727  15.243 -0.2680  0.4962 -0.4105
 5137SOL    HW127044   1.030   0.648  15.194  0.2286 -0.5196  0.9976
 5137SOL    HW227045   1.120   0.688  15.300  0.9804  1.1093 -1.4572
 5138SOL     OW27046   1.640   4.416   4.523  0.2927 -0.2886  0.5670
 5138SOL    HW127047   1.642   4.480   4.594  1.6015  0.1315  0.1661
 5138SOL    HW227048   1.733   4.394   4.512  0.6123  0.7227  1.2337
 5139SOL     OW27049   3.532   1.482   2.267  0.0716  0.4371  0.0334
 5139SOL    HW127050   3.507   1.397   2.233  0.6596  0.5676 -0.7171
 5139SOL    HW227051   3.592   1.467   2.340  1.7674 -1.7453 -1.8116
 5140SOL     OW27052   0.327   1.435   2.562 -0.2766 -0.1454  0.4045
 5140SOL    HW127053   0.373   1.354   2.582 -1.2040 -0.9604 -0.7714
 5140SOL    HW227054   0.309   1.429   2.468 -0.3407  1.0013  0.3439
 5141SOL     OW27055   4.134   2.731   1.919 -0.0681 -0.2111 -0.4159
 5141SOL    HW127056   4.190   2.685   1.857  3.5718  1.8620  1.3090
 5141SOL    HW227057   4.194   2.757   1.989 -1.7526  0.3216  0.8329
 5142SOL     OW27058   1.905   4.695   3.169  0.0255  0.3118 -0.1706
 5142SOL    HW127059   1.907   4.604   3.141  1.0212  0.4160 -0.4256
 5142SOL    HW227060   1.990   4.730   3.143  0.1368  1.6345  1.9847
 5143SOL     OW27061   4.449   1.841   3.925 -0.2172 -0.0861 -0.0563
 5143SOL    HW127062   4.496   1.924   3.911 -0.3311 -0.3041 -1.6528
 5143SOL    HW227063   4.524   1.783   3.939 -1.2329 -1.4746 -0.4099
 5144SOL     OW27064   4.374   1.358   1.516  0.7700 -0.2575 -0.4500
 5144SOL    HW127065   4.386   1.422   1.446  1.7601  1.0987  0.9814
 5144SOL    HW227066   4.466   1.356   1.541  0.9109 -2.5947 -1.1192
 5145SOL     OW27067   2.974   1.542   2.402 -0.4537 -0.1777  0.6341
 5145SOL    HW127068   2.966   1.452   2.370 -2.0933  0.3920 -0.5868
 5145SOL    HW227069   2.912   1.582   2.341  1.1676  0.3561 -0.6850
 5146SOL     OW27070   3.847   0.074   9.439  0.3627  0.1883 -0.1764
 5146SOL    HW127071   3.857   0.152   9.385 -0.9345  0.3505 -0.1771
 5146SOL    HW227072   3.935   0.035   9.435 -0.2164 -1.1194 -0.1822
 5147SOL     OW27073   1.393   3.573   4.134  0.1137 -0.0618  0.0536
 5147SOL    HW127074   1.301   3.592   4.152  0.6607  1.0203  1.7811
 5147SOL    HW227075   1.416   3.633   4.064 -0.5520  1.1064  0.8352
 5148SOL     OW27076   0.318   2.824   5.762 -0.3317 -0.2484  0.8106
 5148SOL    HW127077   0.273   2.774   5.694  0.0724 -1.4743  1.4524
 5148SOL    HW227078   0.362   2.750   5.806  1.0231 -0.5794 -1.1045
 5149SOL     OW27079   3.512   1.889  16.276 -0.1139 -1.0141 -0.0360
 5149SOL    HW127080   3.482   1.915  16.188 -1.4400 -0.4687  0.5800
 5149SOL    HW227081   3.595   1.935  16.287  1.1292 -3.2179 -0.2445
 5150SOL     OW27082   1.488   1.284  13.204 -0.6186  0.6038 -0.2744
 5150SOL    HW127083   1.432   1.361  13.194 -0.1550  0.7959 -1.4578
 5150SOL    HW227084   1.536   1.290  13.121  0.4593 -2.3774  0.1203
 5151SOL     OW27085   2.264   1.981  13.187 -0.1191 -0.0970 -0.4218
 5151SOL    HW127086   2.221   1.904  13.150  0.8503 -1.7287  1.7608
 5151SOL    HW227087   2.334   1.990  13.123  0.9946 -1.6533  0.5633
 5152SOL     OW27088   4.265   0.197   7.697  0.3906 -0.1141 -0.2146
 5152SOL    HW127089   4.262   0.245   7.614  0.1690 -1.1656 -0.8117
 5152SOL    HW227090   4.351   0.226   7.728  1.4394 -2.5646 -0.7812
 5153SOL     OW27091   1.899   1.476   4.215  0.3944 -0.7428 -0.4037
 5153SOL    HW127092   1.927   1.451   4.302 -2.4147 -2.2106  0.0872
 5153SOL    HW227093   1.984   1.496   4.176  0.3313  0.3172  0.0190
 5154SOL     OW27094   2.123   0.506   7.710  0.5441  0.3427 -0.0983
 5154SOL    HW127095   2.120   0.478   7.801 -0.4582  1.5449  0.2228
 5154SOL    HW227096   2.198   0.452   7.686  0.5584 -0.1774  1.1420
 5155SOL     OW27097   4.510   3.692   3.771  0.1936 -0.0105  0.1668
 5155SOL    HW127098   4.576   3.633   3.808 -0.2748 -0.4362  0.3318
 5155SOL    HW227099   4.559   3.772   3.751 -0.8214  0.6529  0.3363
 5156SOL     OW27100   1.891   1.042  10.212  0.1700 -0.0553  0.8105
 5156SOL    HW127101   1.799   1.059  10.230  0.1312  0.5891  0.0167
 5156SOL    HW227102   1.892   1.048  10.116 -1.0271 -1.0557  0.7347
 5157SOL     OW27103   1.841   1.474   0.776 -0.0255  0.0641 -0.0632
 5157SOL    HW127104   1.907   1.413   0.809 -1.4913 -0.2752  2.2238
 5157SOL    HW227105   1.893   1.554   0.770  0.1955  0.0176  1.3169
 5158SOL     OW27106   2.976   3.612   4.487  0.1378 -0.2045  0.3878
 5158SOL    HW127107   2.885   3.596   4.510 -0.2823  1.6358  0.0427
 5158SOL    HW227108   3.013   3.531   4.453  0.6484  0.0729  0.2738
 5159SOL     OW27109   1.132   4.500   3.914  0.2298  0.0193  0.1956
 5159SOL    HW127110   1.206   4.454   3.954  1.9188  1.2755 -1.4661
 5159SOL    HW227111   1.160   4.588   3.939 -0.2325  0.6362 -1.4554
 5160SOL     OW27112   0.173   2.777  12.029  0.0419 -0.4643  0.1386
 5160SOL    HW127113   0.252   2.725  12.012 -0.5644 -1.2793 -0.1985
 5160SOL    HW227114   0.134   2.783  11.942 -0.7620 -1.9221  0.3924
 5161SOL     OW27115   2.069   4.459   3.696 -0.0170  0.2973 -0.3538
 5161SOL    HW127116   2.013   4.395   3.741  0.9811 -0.3162  0.0171
 5161SOL    HW227117   2.023   4.542   3.707 -0.8040 -0.5064  2.5172
 5162SOL     OW27118   3.263   1.623   7.972 -0.7861 -0.4982 -0.0709
 5162SOL    HW127119   3.234   1.663   8.054 -0.4663  0.1216 -0.2621
 5162SOL    HW227120   3.358   1.632   7.965 -0.8752  0.9451  0.6593
 5163SOL     OW27121   4.512   2.925   3.499  0.1083 -0.6689  0.3353
 5163SOL    HW127122   4.444   2.934   3.566 -0.8356  0.7765 -0.7965
 5163SOL    HW227123   4.523   3.013   3.462 -1.5670 -1.5690 -2.2588
 5164SOL     OW27124   4.384   1.287   4.492  0.3683  0.0493  0.1274
 5164SOL    HW127125   4.403   1.273   4.400 -0.3060  0.5483 -0.0920
 5164SOL    HW227126   4.468   1.283   4.538  0.7114 -0.4088 -0.5496
 5165SOL     OW27127   0.928   2.706   0.933  0.1503  0.2789 -0.2989
 5165SOL    HW127128   0.908   2.647   0.861  0.6709  0.0388 -0.2427
 5165SOL    HW227129   0.937   2.786   0.881  4.5433  0.3421  0.5758
 5166SOL     OW27130   1.621   3.149  13.621 -0.1184 -0.0768  0.3167
 5166SOL    HW127131   1.660   3.093  13.687  1.1602  0.9701  0.4413
 5166SOL    HW227132   1.550   3.191  13.669 -0.9944  0.0027 -1.0526
 5167SOL     OW27133   3.889   1.728   4.213 -0.0704 -0.2392  0.4725
 5167SOL    HW127134   3.885   1.823   4.204 -1.0078 -0.2217  1.0550
 5167SOL    HW227135   3.878   1.725   4.308  1.5266 -1.2849  0.6208
 5168SOL     OW27136   2.388   1.717   1.070 -0.5209  0.2865 -0.7763
 5168SOL    HW127137   2.345   1.799   1.042 -1.5327 -0.0047 -0.0817
 5168SOL    HW227138   2.349   1.654   1.009 -3.0659  0.3685  0.7657
 5169SOL     OW27139   1.380   0.764   3.288  0.2694 -1.0608  0.0922
 5169SOL    HW127140   1.291   0.731   3.290  1.1395 -3.6115 -2.9404
 5169SOL    HW227141   1.431   0.689   3.317 -0.8434 -2.6978 -2.1436
 5170SOL     OW27142   4.558   1.440   9.541 -0.1250 -0.2473 -0.0063
 5170SOL    HW127143   4.635   1.444   9.599 -0.5791  0.7909  0.5439
 5170SOL    HW227144   4.580   1.484   9.459 -0.3706 -0.7292 -0.3249
 5171SOL     OW27145   4.731   2.289   1.440 -0.0698  0.1479  0.5479
 5171SOL    HW127146   4.703   2.360   1.498  0.2643  1.2042 -0.5765
 5171SOL    HW227147   4.662   2.295   1.373  1.0761  0.7530 -0.5908
 5172SOL     OW27148   0.498   1.627   4.431 -0.0883 -0.2466 -0.0704
 5172SOL    HW127149   0.495   1.565   4.504  0.5166  1.3073  1.2844
 5172SOL    HW227150   0.551   1.576   4.369 -1.0852 -0.5962 -0.6390
 5173SOL     OW27151   0.849   1.504   8.333 -0.4030  0.2604 -0.3555
 5173SOL    HW127152   0.871   1.477   8.422  0.3818  0.9659 -0.3306
 5173SOL    HW227153   0.756   1.490   8.313 -0.1692  0.9032 -1.9180
 5174SOL     OW27154   3.482   2.674  11.471 -0.2960 -0.4021 -0.8091
 5174SOL    HW127155   3.426   2.747  11.445  0.0120 -0.4774 -1.6991
 5174SOL    HW227156   3.497   2.697  11.563 -0.8938  0.6782 -0.9901
 5175SOL     OW27157   1.264   1.442  11.441  0.0957  0.0188 -0.4792
 5175SOL    HW127158   1.255   1.477  11.352 -2.2212  1.0614  0.1425
 5175SOL    HW227159   1.178   1.465  11.478  0.5559 -1.2487  1.3625
 5176SOL     OW27160   2.103   0.563   2.780 -0.0332 -0.3959  0.5019
 5176SOL    HW127161   2.012   0.539   2.761 -0.0360  0.3661 -0.4155
 5176SOL    HW227162   2.092   0.657   2.769  1.8744  0.1335  3.1837
 5177SOL     OW27163   2.458   3.915   8.871  0.2490 -0.4977 -0.0784
 5177SOL    HW127164   2.536   3.887   8.822  0.5494  1.1331 -0.5344
 5177SOL    HW227165   2.478   4.008   8.863 -1.0169 -0.0883  1.5007
 5178SOL     OW27166   4.286   2.531  11.684 -0.3445  0.6245 -0.5668
 5178SOL    HW127167   4.256   2.453  11.731  0.5494  0.7872  0.2811
 5178SOL    HW227168   4.283   2.500  11.593 -3.5865 -0.0161 -0.2263
 5179SOL     OW27169   2.319   1.227   3.948 -0.2887  0.4696 -0.7974
 5179SOL    HW127170   2.327   1.158   4.013 -1.2938 -0.3924 -1.5915
 5179SOL    HW227171   2.394   1.279   3.976  1.2135 -0.7966 -2.4772
 5180SOL     OW27172   4.412   2.318   8.198 -0.1951  0.0203 -0.7190
 5180SOL    HW127173   4.498   2.357   8.186  0.3053  0.2256  3.5987
 5180SOL    HW227174   4.441   2.227   8.191  0.5424  0.1365  1.0067
 5181SOL     OW27175   2.173   2.304   8.030  0.3074  0.0569  0.1172
 5181SOL    HW127176   2.126   2.265   8.103 -2.4718  0.8081 -1.2577
 5181SOL    HW227177   2.256   2.256   8.030  0.4842  0.3658  0.7227
 5182SOL     OW27178   2.982   3.795   3.741  0.0160  0.3513 -0.0459
 5182SOL    HW127179   3.061   3.767   3.786 -0.1431 -0.4760 -0.2727
 5182SOL    HW227180   2.921   3.726   3.769  1.8647 -0.5142  1.8602
 5183SOL     OW27181   1.202   1.482   9.754  0.2591  0.1900  0.2947
 5183SOL    HW127182   1.241   1.457   9.837 -0.3760  0.4216  0.6632
 5183SOL    HW227183   1.283   1.504   9.706  0.5318 -2.1605 -0.3017
 5184SOL     OW27184   3.776   4.175   2.683  0.1523  0.3194  0.1043
 5184SOL    HW127185   3.740   4.091   2.710 -1.3252  0.8861 -0.1275
 5184SOL    HW227186   3.792   4.210   2.770 -0.9265 -0.1902  0.5069
 5185SOL     OW27187   4.424   4.427   3.570  0.2839  0.1600 -0.2772
 5185SOL    HW127188   4.489   4.398   3.635  0.1539  2.4276  0.8760
 5185SOL    HW227189   4.420   4.522   3.578  1.9003  0.2347 -0.4340
 5186SOL     OW27190   3.676   3.012   6.824  0.2379 -0.0909  0.6736
 5186SOL    HW127191   3.590   3.015   6.866  0.8236  0.6632  1.8032
 5186SOL    HW227192   3.664   2.957   6.746  0.0950 -1.3772  1.6154
 5187SOL     OW27193   3.875   0.319  16.890  0.1435  0.0586 -0.4777
 5187SOL    HW127194   3.888   0.395  16.948  0.0450  0.3408 -0.8248
 5187SOL    HW227195   3.948   0.261  16.912  1.7648  2.1572 -0.2620
 5188SOL     OW27196   2.797   0.800   8.501 -1.0524  0.1270  0.3785
 5188SOL    HW127197   2.882   0.766   8.473 -1.0636 -0.2742  0.8255
 5188SOL    HW227198   2.834   0.850   8.574 -2.5363 -0.1396  1.3247
 5189SOL     OW27199   0.097   4.295   4.502 -0.1028  0.5069  0.3193
 5189SOL    HW127200   0.132   4.337   4.580 -0.3168  0.0204  0.6794
 5189SOL    HW227201   0.003   4.296   4.522  0.1324  1.0260  1.4238
 5190SOL     OW27202   2.440   3.869   5.871 -0.1412  0.6458  0.3438
 5190SOL    HW127203   2.368   3.878   5.933 -0.0168  1.5161  0.3545
 5190SOL    HW227204   2.465   3.961   5.865  1.9546  0.0205 -0.5094
 5191SOL     OW27205   1.447   0.868   2.576  0.5910  0.3351  0.3213
 5191SOL    HW127206   1.510   0.860   2.504 -0.3022  0.6203 -0.4997
 5191SOL    HW227207   1.492   0.912   2.648 -1.8237  0.0412  2.0203
 5192SOL     OW27208   2.327   4.016   7.482  0.6011  0.4770  0.3636
 5192SOL    HW127209   2.279   4.089   7.521 -1.4599 -0.5984 -0.1734
 5192SOL    HW227210   2.412   4.053   7.458  1.5128 -0.0122  2.8549
 5193SOL     OW27211   1.098   1.584   7.506  0.5030  0.0571  0.5993
 5193SOL    HW127212   1.145   1.666   7.492 -0.1166  0.2761 -0.1737
 5193SOL    HW227213   1.057   1.572   7.421 -0.4276 -0.2367  1.0885
 5194SOL     OW27214   2.144   2.210  16.737  0.4017 -0.6780  0.1587
 5194SOL    HW127215   2.180   2.240  16.820 -0.4382  1.0554 -0.0947
 5194SOL    HW227216   2.213   2.148  16.713  0.7325 -0.3967  0.3967
 5195SOL     OW27217   0.923   1.820   2.075 -0.7444 -0.2144 -0.1110
 5195SOL    HW127218   0.995   1.795   2.018 -2.3444  0.7053 -2.5477
 5195SOL    HW227219   0.954   1.910   2.089 -1.5108 -0.0446  0.4881
 5196SOL     OW27220   1.973   0.760   1.720 -0.0707  0.2040 -0.2292
 5196SOL    HW127221   2.051   0.764   1.665 -1.0798 -0.1302 -1.7087
 5196SOL    HW227222   1.973   0.855   1.737  0.2180  0.2933 -0.7285
 5197SOL     OW27223   0.407   2.407   2.757  0.1320  0.4283  0.1098
 5197SOL    HW127224   0.366   2.371   2.836  0.9425  0.3071  0.4675
 5197SOL    HW227225   0.327   2.434   2.711 -1.2388 -2.5651  0.7488
 5198SOL     OW27226   3.898   3.814   1.268  0.2024  0.7444  0.3285
 5198SOL    HW127227   3.931   3.800   1.179  0.1767 -1.4647  0.6790
 5198SOL    HW227228   3.913   3.908   1.283  0.3913  0.8791 -0.6946
 5199SOL     OW27229   0.390   1.684   2.504 -0.6347  0.8438 -0.0981
 5199SOL    HW127230   0.341   1.616   2.551  0.4761  0.5424  0.6149
 5199SOL    HW227231   0.470   1.636   2.484  0.0085  1.3842  1.2164
 5200SOL     OW27232   0.552   4.250   5.152 -0.5456 -0.6779 -0.1397
 5200SOL    HW127233   0.474   4.305   5.141  0.5505  0.8403 -0.3387
 5200SOL    HW227234   0.538   4.256   5.247  1.5677 -1.1765  0.2057
 5201SOL     OW27235   2.318   0.096   7.064 -0.5870 -0.4585  1.1943
 5201SOL    HW127236   2.411   0.108   7.084  0.4202 -1.8833 -2.6626
 5201SOL    HW227237   2.320   0.133   6.976 -0.6774  0.4830  1.5916
 5202SOL     OW27238   2.814   2.805   7.417  0.6699 -0.4274  0.2625
 5202SOL    HW127239   2.892   2.861   7.417 -0.5139  1.2025 -0.5045
 5202SOL    HW227240   2.750   2.857   7.370  1.0527 -1.4577 -1.3895
 5203SOL     OW27241   0.330   0.487   6.489  0.3503  0.1611  0.2650
 5203SOL    HW127242   0.324   0.397   6.457  1.2195  0.2418 -0.1465
 5203SOL    HW227243   0.398   0.510   6.425 -1.2954  0.3206 -1.4481
 5204SOL     OW27244   2.122   3.998   9.661  0.3844  0.2041 -0.0867
 5204SOL    HW127245   2.176   3.934   9.707  0.4455  0.9662  0.9071
 5204SOL    HW227246   2.121   4.075   9.718  1.6478 -1.1879  1.8524
 5205SOL     OW27247   3.478   4.396   7.675 -0.2079 -0.4668  0.7588
 5205SOL    HW127248   3.401   4.431   7.720 -1.3616 -0.6134 -1.1148
 5205SOL    HW227249   3.466   4.301   7.679 -1.1314 -0.3197  1.6097
 5206SOL     OW27250   4.113   1.377   4.562  0.9674  0.5089 -0.2484
 5206SOL    HW127251   4.198   1.339   4.540  0.8326 -0.0301  0.1474
 5206SOL    HW227252   4.085   1.416   4.479  0.0031 -0.4042 -0.3539
 5207SOL     OW27253   0.161   0.474   6.131  0.2628  0.3276 -0.1414
 5207SOL    HW127254   0.224   0.423   6.080  1.3267  0.6790  0.8151
 5207SOL    HW227255   0.192   0.563   6.113 -1.6934  1.0291 -0.0954
 5208SOL     OW27256   1.218   0.726   2.517  0.6026  0.2073  0.5001
 5208SOL    HW127257   1.293   0.776   2.549 -1.2888  2.5912  1.2056
 5208SOL    HW227258   1.200   0.750   2.426 -2.4214  0.7975  1.2600
 5209SOL     OW27259   4.693   1.039   3.237  0.4843  0.3362  0.2570
 5209SOL    HW127260   0.008   1.111   3.199  1.9076 -1.4664 -1.2664
 5209SOL    HW227261   4.626   1.091   3.281 -1.5206 -2.6207  0.6727
 5210SOL     OW27262   0.549   0.776   4.814  0.4991  0.3204  0.1207
 5210SOL    HW127263   0.643   0.790   4.828  0.4716  0.6734 -0.0431
 5210SOL    HW227264   0.556   0.690   4.772 -0.6521  1.0343 -1.5270
 5211SOL     OW27265   1.974   3.394   9.089  0.3019 -0.7087 -0.0927
 5211SOL    HW127266   1.951   3.360   9.175 -0.9575 -0.9502 -0.5253
 5211SOL    HW227267   1.893   3.383   9.039  0.4823  0.0167 -0.5423
 5212SOL     OW27268   1.525   3.842   4.688  0.9899 -0.3526  0.7196
 5212SOL    HW127269   1.509   3.767   4.746 -0.0647 -1.4006 -0.9280
 5212SOL    HW227270   1.588   3.802   4.629  0.6635 -1.4530  1.0962
 5213SOL     OW27271   3.472   0.621   7.627  0.0580 -0.1992 -0.6764
 5213SOL    HW127272   3.396   0.666   7.588 -1.2027 -1.8992 -0.2032
 5213SOL    HW227273   3.476   0.542   7.574  0.4957 -0.2084 -0.6275
 5214SOL     OW27274   1.165   3.926   1.133 -0.2400  0.0232  0.4134
 5214SOL    HW127275   1.207   3.951   1.051 -0.1669  0.8008  0.6825
 5214SOL    HW227276   1.072   3.941   1.118 -0.1681  0.6748  0.6355
 5215SOL     OW27277   1.211   4.020  14.797 -0.1897 -0.1282 -0.4110
 5215SOL    HW127278   1.188   4.100  14.752  2.0826 -1.2281 -3.5653
 5215SOL    HW227279   1.134   3.976  14.833  0.0196 -0.5359 -0.4532
 5216SOL     OW27280   1.647   0.113  16.585 -0.1257  0.5239  0.1700
 5216SOL    HW127281   1.714   0.067  16.635 -0.5110  0.7504  0.9010
 5216SOL    HW227282   1.710   0.176  16.548  0.8955  1.0117  2.7335
 5217SOL     OW27283   0.311   0.311   5.959 -0.3828 -0.2431  0.1870
 5217SOL    HW127284   0.382   0.247   5.965 -1.5836 -1.7422 -1.2865
 5217SOL    HW227285   0.340   0.363   5.885 -0.9094 -1.0117 -0.5699
 5218SOL     OW27286   3.881   2.871   6.547 -0.1122  0.1544 -0.0641
 5218SOL    HW127287   3.937   2.794   6.533  1.2124  1.4205 -1.6780
 5218SOL    HW227288   3.933   2.943   6.584  1.7821 -1.1539 -0.1342
 5219SOL     OW27289   3.565   4.172   7.066  0.5576  0.6508 -0.2400
 5219SOL    HW127290   3.611   4.144   6.987 -0.2005 -1.4052  0.0481
 5219SOL    HW227291   3.571   4.267   7.070 -2.3015  0.8326 -0.8226
 5220SOL     OW27292   2.291   3.953   3.787 -0.5955 -0.1152 -0.0416
 5220SOL    HW127293   2.306   4.027   3.727 -2.3664  0.5135  0.3110
 5220SOL    HW227294   2.262   3.996   3.867  0.5589 -1.0989  0.8935
 5221SOL     OW27295   4.506   3.253   8.207  0.9701 -0.1741 -0.2384
 5221SOL    HW127296   4.562   3.175   8.203  0.6127 -0.4955  1.1553
 5221SOL    HW227297   4.468   3.222   8.289  0.5978  0.8711 -0.0282
 5222SOL     OW27298   3.607   2.617   7.243  0.0149  0.2677  1.1576
 5222SOL    HW127299   3.659   2.667   7.307 -2.8024  3.3991  0.9415
 5222SOL    HW227300   3.530   2.672   7.233  1.6575  2.5880  1.2530
 5223SOL     OW27301   0.311   1.584   8.751  0.2488 -0.0050 -0.3371
 5223SOL    HW127302   0.296   1.625   8.666  0.1822  2.0505  0.6770
 5223SOL    HW227303   0.393   1.534   8.745 -0.9484 -1.7287 -2.1087
 5224SOL     OW27304   4.490   1.685   5.899  0.1061  0.4777 -0.1865
 5224SOL    HW127305   4.557   1.753   5.894  0.8283 -0.1818  0.6668
 5224SOL    HW227306   4.451   1.698   5.812 -0.6380  0.9314  0.2104
 5225SOL     OW27307   4.501   4.701  11.948  0.1551  0.1696  0.1971
 5225SOL    HW127308   4.546   0.021  11.884  3.0899 -2.6648 -0.2123
 5225SOL    HW227309   4.440   0.026  11.990  0.1789  0.7507 -0.5942
 5226SOL     OW27310   3.872   0.878   5.788 -0.6184 -0.1434  0.1667
 5226SOL    HW127311   3.875   0.811   5.719 -1.0323  0.0862 -0.0730
 5226SOL    HW227312   3.781   0.905   5.778 -0.2326  1.0446 -0.1558
 5227SOL     OW27313   3.970   1.290   3.755  0.3338 -0.0456  1.2344
 5227SOL    HW127314   4.039   1.227   3.777  1.1146  0.4968  0.2732
 5227SOL    HW227315   3.963   1.341   3.836 -2.2249  1.4733  0.0304
 5228SOL     OW27316   3.406   4.500   9.764  0.2295 -0.7457 -0.0113
 5228SOL    HW127317   3.320   4.492   9.806  1.2142 -2.5261  1.6467
 5228SOL    HW227318   3.428   4.407   9.755 -0.5652 -1.1549  2.2592
 5229SOL     OW27319   0.594   2.257  10.808  0.5890 -0.7445 -0.6409
 5229SOL    HW127320   0.557   2.332  10.762 -0.0286 -0.2682  0.6357
 5229SOL    HW227321   0.674   2.236  10.760  2.5356 -0.2359  2.3413
 5230SOL     OW27322   3.547   0.918   2.434 -0.2676 -0.4876  0.0138
 5230SOL    HW127323   3.460   0.956   2.440 -0.7150 -1.1166 -2.7097
 5230SOL    HW227324   3.522   0.833   2.398 -1.9808 -0.1515  0.4537
 5231SOL     OW27325   1.052   0.570   9.209 -0.5079  0.5761  0.1551
 5231SOL    HW127326   0.968   0.568   9.256 -0.2368 -0.4608  0.5955
 5231SOL    HW227327   1.073   0.478   9.223  1.0985  1.2371  1.9073
 5232SOL     OW27328   4.472   2.861   8.568 -0.2152  0.5428  0.2117
 5232SOL    HW127329   4.444   2.771   8.554 -0.7718  0.4702  1.8139
 5232SOL    HW227330   4.397   2.907   8.530  0.3204  0.2779 -1.1458
 5233SOL     OW27331   2.155   3.337   2.751  0.1835 -0.0953 -0.3085
 5233SOL    HW127332   2.154   3.433   2.750 -0.6007 -0.0672  2.2910
 5233SOL    HW227333   2.166   3.309   2.842  2.0948 -2.8323 -1.3787
 5234SOL     OW27334   2.522   2.909  12.576 -0.3956  0.2729 -0.6431
 5234SOL    HW127335   2.465   2.840  12.540  1.9966 -0.1694 -3.6482
 5234SOL    HW227336   2.588   2.858  12.623 -2.2366 -0.7248  0.8508
 5235SOL     OW27337   0.144   0.795   4.087  0.1837  0.0136  0.1533
 5235SOL    HW127338   0.203   0.841   4.028 -0.1285 -0.0236 -0.1830
 5235SOL    HW227339   0.203   0.758   4.153 -0.6902 -1.4315  0.1124
 5236SOL     OW27340   3.341   0.148   6.305  0.6366  0.5883 -0.1538
 5236SOL    HW127341   3.250   0.131   6.281  0.2676  0.9090  1.0490
 5236SOL    HW227342   3.355   0.225   6.250 -0.1310  0.0217 -1.1458
 5237SOL     OW27343   1.965   3.414  15.604  0.3404 -0.0209 -0.8871
 5237SOL    HW127344   1.877   3.399  15.570 -0.0214  1.0222 -0.4164
 5237SOL    HW227345   2.014   3.337  15.575 -0.4672 -0.6790 -0.4928
 5238SOL     OW27346   3.829   1.389   2.046  0.5425 -0.5256  0.7464
 5238SOL    HW127347   3.826   1.373   1.951 -0.6935  4.1955 -0.0124
 5238SOL    HW227348   3.741   1.416   2.071  0.1845  0.1566 -1.2420
 5239SOL     OW27349   3.922   0.167   2.370 -0.0204 -0.0557  0.5470
 5239SOL    HW127350   3.882   0.252   2.390 -0.0492  0.6734 -2.5422
 5239SOL    HW227351   3.930   0.165   2.274  0.4716 -1.2864  0.6153
 5240SOL     OW27352   3.252   4.220   5.040 -0.3809  0.2882  0.4094
 5240SOL    HW127353   3.283   4.283   5.105  0.0698 -1.8361  2.2532
 5240SOL    HW227354   3.163   4.253   5.052 -0.1849  0.7725  0.5583
 5241SOL     OW27355   0.214   3.516   7.213 -0.5729 -0.1689  0.2659
 5241SOL    HW127356   0.275   3.539   7.283 -1.2499 -0.0194  0.8034
 5241SOL    HW227357   0.258   3.556   7.139 -1.6542  1.7209  0.6413
 5242SOL     OW27358   4.520   3.586  12.742  0.1437 -0.1524  0.3912
 5242SOL    HW127359   4.432   3.566  12.712  0.4896 -1.6462  0.4121
 5242SOL    HW227360   4.512   3.580  12.838 -0.5130  0.3419  0.3682
 5243SOL     OW27361   3.716   1.674   0.530  0.5126  0.7877  0.5293
 5243SOL    HW127362   3.807   1.654   0.551 -0.2217 -0.3866  2.6299
 5243SOL    HW227363   3.721   1.770   0.529  1.6014  0.7203 -1.0934
 5244SOL     OW27364   1.295   4.613   5.608  0.0552 -0.2785 -0.1784
 5244SOL    HW127365   1.355   4.543   5.580  0.7887  0.3341 -0.1225
 5244SOL    HW227366   1.249   4.564   5.676 -1.5875  0.8027 -0.5299
 5245SOL     OW27367   0.537   2.952   4.089 -0.1775  0.7435  0.0048
 5245SOL    HW127368   0.511   2.952   3.997 -0.7562  1.5024  0.1692
 5245SOL    HW227369   0.453   2.952   4.136 -0.2199 -0.6902 -0.0824
 5246SOL     OW27370   2.054   0.331   6.938 -0.3506 -0.3239  0.2578
 5246SOL    HW127371   2.030   0.257   6.882 -1.0982 -0.4799  0.7869
 5246SOL    HW227372   2.142   0.311   6.971 -0.7202  1.9538  2.6500
 5247SOL     OW27373   1.047   2.058   4.323 -0.1066  0.2259 -0.8038
 5247SOL    HW127374   1.112   2.091   4.385 -0.0822 -1.4293  0.0747
 5247SOL    HW227375   1.048   1.965   4.346  0.2662  0.7875  1.4803
 5248SOL     OW27376   3.654   1.761   7.716 -0.0401  0.2991  0.5106
 5248SOL    HW127377   3.717   1.794   7.780 -0.3947 -0.7742  1.4156
 5248SOL    HW227378   3.600   1.705   7.771 -0.0547 -0.1411  0.0415
 5249SOL     OW27379   1.905   4.326   4.537 -0.7150 -0.1898  0.4028
 5249SOL    HW127380   1.999   4.319   4.524 -0.4100 -0.4245  2.7711
 5249SOL    HW227381   1.888   4.233   4.545  1.8203 -0.7010 -0.1040
 5250SOL     OW27382   1.093   4.328   2.614  0.3001  0.7692 -0.0796
 5250SOL    HW127383   1.112   4.411   2.658  0.2136  0.3314  0.7828
 5250SOL    HW227384   1.145   4.336   2.534  0.8446 -3.2049 -0.1033
 5251SOL     OW27385   0.367   4.205   1.996  0.3482  0.4322  0.2511
 5251SOL    HW127386   0.445   4.218   2.051 -0.3682  2.6094  0.7136
 5251SOL    HW227387   0.394   4.242   1.912 -1.8226 -1.3355 -1.2063
 5252SOL     OW27388   2.577   0.166   3.738  0.1732 -0.3310 -0.3240
 5252SOL    HW127389   2.573   0.156   3.833 -0.6455 -1.5591 -0.4932
 5252SOL    HW227390   2.489   0.148   3.706 -0.4632 -1.0942  1.8373
 5253SOL     OW27391   1.887   3.913   8.006 -0.1649 -0.0974  0.0280
 5253SOL    HW127392   1.972   3.877   8.033  0.6214  1.5558 -0.2368
 5253SOL    HW227393   1.834   3.834   8.007  1.3456 -1.1595 -2.6836
 5254SOL     OW27394   4.606   4.221   7.412  0.1993  0.1324 -0.1429
 5254SOL    HW127395   4.571   4.162   7.478 -1.5748  2.1451  0.6898
 5254SOL    HW227396   4.568   4.202   7.326  0.2979  0.3714 -0.2382
 5255SOL     OW27397   2.235   2.905  15.222  0.4518  0.2883  0.1749
 5255SOL    HW127398   2.244   2.815  15.253 -1.8745 -0.1711 -0.5064
 5255SOL    HW227399   2.141   2.905  15.207  0.4516 -0.3095  0.1700
 5256SOL     OW27400   4.216   4.402   8.618 -0.3117  0.1028 -0.5313
 5256SOL    HW127401   4.149   4.450   8.668  0.6767  1.5183 -0.5480
 5256SOL    HW227402   4.290   4.402   8.678  1.1944  2.2817 -2.3653
 5257SOL     OW27403   4.264   1.199   9.165 -0.0895 -0.0900 -0.4384
 5257SOL    HW127404   4.314   1.118   9.158  1.0133  0.6404 -1.1699
 5257SOL    HW227405   4.318   1.242   9.231  1.3769  0.1121 -1.7640
 5258SOL     OW27406   0.285   3.194   3.860 -0.5129 -0.2383 -0.0669
 5258SOL    HW127407   0.372   3.234   3.865 -0.7701  0.4482 -1.1385
 5258SOL    HW227408   0.313   3.103   3.872  1.6799  0.6670  1.7643
 5259SOL     OW27409   3.441   2.302   2.559  0.3996 -0.8028 -0.1242
 5259SOL    HW127410   3.454   2.291   2.465 -0.8194 -0.3088 -0.3587
 5259SOL    HW227411   3.378   2.374   2.557  0.0975 -0.9833  2.3413
 5260SOL     OW27412   0.451   0.117   1.687 -0.2950  0.1973  0.2390
 5260SOL    HW127413   0.371   0.075   1.657 -0.5444  2.0651 -1.7397
 5260SOL    HW227414   0.459   0.094   1.780  0.5465  2.4893  0.7257
 5261SOL     OW27415   1.774   0.390   6.964  0.5526  0.5083 -0.2962
 5261SOL    HW127416   1.787   0.400   7.058 -0.6242 -0.4946 -0.0395
 5261SOL    HW227417   1.854   0.342   6.943 -0.2644 -1.3294  0.7992
 5262SOL     OW27418   3.625   2.824   6.636 -0.5312  0.3796 -0.3708
 5262SOL    HW127419   3.715   2.804   6.612 -0.0114  0.2015  1.7820
 5262SOL    HW227420   3.588   2.877   6.565 -1.4793 -0.4031 -0.4686
 5263SOL     OW27421   2.194   2.988  16.598 -0.0625 -0.1842 -0.5372
 5263SOL    HW127422   2.145   3.071  16.600 -1.0196 -0.7895  1.2513
 5263SOL    HW227423   2.189   2.958  16.508  0.2382  1.3308 -1.0593
 5264SOL     OW27424   3.064   3.290  12.552  0.1984  0.3889 -0.2074
 5264SOL    HW127425   3.111   3.309  12.471 -1.1042  1.0355 -0.7991
 5264SOL    HW227426   3.106   3.349  12.614 -2.8860 -1.8140  4.0006
 5265SOL     OW27427   4.450   3.119   8.453  0.0285 -0.5656  0.6409
 5265SOL    HW127428   4.533   3.122   8.499  1.0824 -4.4743 -0.9647
 5265SOL    HW227429   4.385   3.143   8.519 -0.2898 -1.1784  0.5546
 5266SOL     OW27430   4.633   0.005   2.046 -0.0319  0.6374 -0.1994
 5266SOL    HW127431   4.620   0.049   1.962  1.2871  0.9129 -0.2482
 5266SOL    HW227432   4.548   0.009   2.091  0.6392 -0.3268  1.1655
 5267SOL     OW27433   1.394   1.820   8.831  0.6843  0.2177 -0.0278
 5267SOL    HW127434   1.372   1.804   8.740  2.1826  2.1518 -0.7489
 5267SOL    HW227435   1.314   1.867   8.855  1.3369  1.4742 -0.2683
 5268SOL     OW27436   3.803   0.962  13.142 -0.2581 -0.7689  0.1511
 5268SOL    HW127437   3.816   0.874  13.107 -2.6926 -0.9369 -0.2896
 5268SOL    HW227438   3.709   0.966  13.128 -0.1084  3.4469  0.4068
 5269SOL     OW27439   0.926   0.276  13.944 -0.1190  0.4331 -0.3557
 5269SOL    HW127440   0.860   0.217  13.981  2.4850 -0.6053  2.6401
 5269SOL    HW227441   0.976   0.297  14.023  1.0455 -0.4628 -0.8619
 5270SOL     OW27442   1.843   4.549   4.300  0.0235  0.0869  0.6226
 5270SOL    HW127443   1.796   4.560   4.383 -0.1034  1.0123  0.4305
 5270SOL    HW227444   1.932   4.568   4.331  1.0317 -0.0196 -2.2356
 5271SOL     OW27445   2.335   2.111   0.087 -0.0830  0.2347  0.2408
 5271SOL    HW127446   2.273   2.071   0.148  1.6031 -0.5775  1.4139
 5271SOL    HW227447   2.415   2.068   0.117 -1.6596 -1.3885  2.1006
 5272SOL     OW27448   3.053   1.116  16.054  0.3141  0.5472  0.4704
 5272SOL    HW127449   3.115   1.139  15.984  0.7356  1.8552  1.2675
 5272SOL    HW227450   3.031   1.029  16.020  0.5681 -0.4960  2.9819
 5273SOL     OW27451   1.708   2.758  14.279  0.0590  0.3347  0.2311
 5273SOL    HW127452   1.796   2.756  14.242 -0.3230 -2.6343 -0.4602
 5273SOL    HW227453   1.727   2.819  14.351  0.3380  0.1326  0.3264
 5274SOL     OW27454   2.466   1.900   6.460 -0.3365 -0.9340 -0.3195
 5274SOL    HW127455   2.430   1.829   6.513 -1.6736 -1.1968 -1.5701
 5274SOL    HW227456   2.506   1.841   6.396 -0.1570  1.6261 -2.5749
 5275SOL     OW27457   1.422   3.010   9.338 -0.4021  0.8834  0.0863
 5275SOL    HW127458   1.421   2.917   9.362 -0.6010  1.0094  0.5577
 5275SOL    HW227459   1.474   3.005   9.257 -0.3299 -0.1710  0.1988
 5276SOL     OW27460   1.517   0.762   7.526 -0.0334 -0.0069  0.2112
 5276SOL    HW127461   1.458   0.703   7.573  0.3015  0.6195  1.4136
 5276SOL    HW227462   1.544   0.818   7.599 -0.5243 -0.7955  0.9997
 5277SOL     OW27463   1.421   4.143   9.602 -0.0080  0.0572  0.5066
 5277SOL    HW127464   1.426   4.054   9.568 -0.0665 -0.6554  2.3218
 5277SOL    HW227465   1.412   4.128   9.696  2.9287 -1.2967  0.5640
 5278SOL     OW27466   1.117   1.772   8.405  0.4142  0.0350 -0.5119
 5278SOL    HW127467   1.142   1.784   8.313  1.9452  2.1943  0.1715
 5278SOL    HW227468   1.088   1.682   8.416 -2.5189  0.8005 -1.9092
 5279SOL     OW27469   4.497   3.605   7.313 -0.5873  0.0636  0.5380
 5279SOL    HW127470   4.547   3.558   7.246  2.4745 -0.0408  2.8920
 5279SOL    HW227471   4.554   3.681   7.327  0.2190 -0.4793  0.2678
 5280SOL     OW27472   3.541   4.427  11.343  0.2516 -0.3079  0.4813
 5280SOL    HW127473   3.566   4.409  11.434  0.8986  0.5901  0.4814
 5280SOL    HW227474   3.544   4.339  11.306  1.2195 -0.7611  1.6366
 5281SOL     OW27475   4.362   2.126   0.782 -0.2530 -0.2002  0.0614
 5281SOL    HW127476   4.315   2.159   0.858  0.1386 -2.7667  1.4057
 5281SOL    HW227477   4.450   2.145   0.814 -0.7081  0.1087  1.1158
 5282SOL     OW27478   3.379   0.277  14.968  0.3524 -0.4765 -0.1804
 5282SOL    HW127479   3.318   0.270  15.042  0.8570  1.0224  0.3585
 5282SOL    HW227480   3.316   0.261  14.898  2.3295 -2.0017 -1.6000
 5283SOL     OW27481   0.348   0.389  10.175  0.4560  0.8259 -0.1363
 5283SOL    HW127482   0.399   0.311  10.196 -0.4224 -0.1403 -1.5083
 5283SOL    HW227483   0.325   0.408  10.265 -0.2601  3.9410 -0.9839
 5284SOL     OW27484   1.403   0.583  12.588  0.3861 -0.1831  0.2971
 5284SOL    HW127485   1.365   0.641  12.655 -1.7460  0.9905 -1.8992
 5284SOL    HW227486   1.343   0.517  12.554 -0.0738  1.8821 -2.8598
 5285SOL     OW27487   3.549   3.700  10.628  0.1132  0.2553  0.1617
 5285SOL    HW127488   3.574   3.627  10.572 -0.3320  0.2196  0.0175
 5285SOL    HW227489   3.630   3.752  10.621  1.2773 -1.5611  0.0570
 5286SOL     OW27490   3.584   0.315   8.564  0.0253  0.4828 -0.4707
 5286SOL    HW127491   3.654   0.362   8.518  0.9347 -1.6810 -1.3528
 5286SOL    HW227492   3.586   0.232   8.516 -1.1369  2.1624 -3.3732
 5287SOL     OW27493   2.843   0.892   8.094 -0.3978  0.4081  0.1542
 5287SOL    HW127494   2.756   0.853   8.102  0.8418 -2.1102  0.9839
 5287SOL    HW227495   2.857   0.876   8.000 -1.3487 -2.0963  0.4477
 5288SOL     OW27496   0.649   4.327   6.692 -0.0136  0.4277  0.5700
 5288SOL    HW127497   0.718   4.267   6.720 -0.8699  0.4445  2.7292
 5288SOL    HW227498   0.576   4.307   6.751 -0.2471 -0.1436  0.1012
 5289SOL     OW27499   0.572   4.031   0.555 -0.6219  0.1020 -0.4942
 5289SOL    HW127500   0.591   4.113   0.509 -0.3096 -0.7436 -1.8699
 5289SOL    HW227501   0.657   3.994   0.575 -1.0555 -1.1826 -1.0231
 5290SOL     OW27502   0.122   4.573   8.810  0.1797 -0.1897  0.7752
 5290SOL    HW127503   0.168   4.607   8.733 -0.8435 -0.4297  0.0669
 5290SOL    HW227504   0.111   4.653   8.862  0.0805 -0.7909  1.6799
 5291SOL     OW27505   1.312   3.665   9.697 -0.2511  0.2425  0.4585
 5291SOL    HW127506   1.336   3.649   9.788  0.5691 -0.0779  0.1800
 5291SOL    HW227507   1.395   3.658   9.650 -0.1414 -0.8197  0.8198
 5292SOL     OW27508   0.241   1.933   7.551  0.1190 -0.1484 -0.1768
 5292SOL    HW127509   0.304   2.004   7.563 -2.1011  1.8969 -0.7559
 5292SOL    HW227510   0.293   1.866   7.596 -2.7138 -1.9212  0.4476
 5293SOL     OW27511   4.626   1.796  15.427  0.4148 -0.2069  0.2208
 5293SOL    HW127512   4.566   1.805  15.353 -0.2750  1.5027  0.9819
 5293SOL    HW227513   4.571   1.811  15.504 -1.5484 -2.5379 -0.7168
 5294SOL     OW27514   1.802   3.456   2.843  0.0124  0.1924 -0.3583
 5294SOL    HW127515   1.735   3.515   2.877 -0.4086 -0.3980 -0.1603
 5294SOL    HW227516   1.880   3.509   2.857 -1.0779  2.0067 -1.1685
 5295SOL     OW27517   3.460   4.506   0.893 -0.2378  0.0871 -0.1279
 5295SOL    HW127518   3.523   4.496   0.964 -0.1647  2.6481  0.1781
 5295SOL    HW227519   3.505   4.583   0.860  2.6318 -1.5501 -0.0482
 5296SOL     OW27520   3.573   1.494  11.163  0.0860 -0.3017  0.0487
 5296SOL    HW127521   3.532   1.456  11.240 -1.0590  0.6242 -0.1031
 5296SOL    HW227522   3.664   1.466  11.172  0.1118 -0.7444 -1.6158
 5297SOL     OW27523   2.437   0.767   3.595  0.1767  0.2163  0.3251
 5297SOL    HW127524   2.405   0.852   3.627 -1.4141  1.1298 -3.7209
 5297SOL    HW227525   2.511   0.804   3.547 -0.5196  0.3776 -0.6089
 5298SOL     OW27526   0.141   3.711   6.329  0.5849  0.1911  0.0455
 5298SOL    HW127527   0.079   3.746   6.265 -2.2389 -0.6410  2.2968
 5298SOL    HW227528   0.147   3.624   6.290  0.4516  0.4230 -0.4831
 5299SOL     OW27529   1.019   0.739   2.704  0.5206  0.2035  0.1355
 5299SOL    HW127530   1.100   0.748   2.655 -0.2108  0.9088 -0.9361
 5299SOL    HW227531   1.017   0.643   2.695 -1.3089  0.0645  2.0000
 5300SOL     OW27532   4.154   0.685   5.465  0.0890 -0.2028  0.4458
 5300SOL    HW127533   4.067   0.699   5.428 -0.1399  0.5467  1.2860
 5300SOL    HW227534   4.139   0.609   5.522  0.7896  0.9877  2.2175
 5301SOL     OW27535   0.242   0.741   6.067  0.6149  0.1615 -0.0929
 5301SOL    HW127536   0.333   0.768   6.078  1.1320 -0.8764 -1.8643
 5301SOL    HW227537   0.213   0.816   6.016 -0.8073  0.8073  1.6339
 5302SOL     OW27538   2.535   4.469   8.168  0.7687  0.2694 -0.6226
 5302SOL    HW127539   2.605   4.522   8.130 -0.4049  2.1469 -0.2138
 5302SOL    HW227540   2.562   4.383   8.136  0.7774 -0.8223  2.3102
 5303SOL     OW27541   4.135   3.212  11.060  0.3121 -0.3568  0.0531
 5303SOL    HW127542   4.078   3.166  10.998  2.5936  0.5974 -2.7147
 5303SOL    HW227543   4.085   3.294  11.062  0.1151 -0.5291  3.3004
 5304SOL     OW27544   3.764   4.375   2.146  0.0461  0.0542  0.0584
 5304SOL    HW127545   3.689   4.357   2.090 -0.1920 -1.8979  0.9711
 5304SOL    HW227546   3.730   4.441   2.206  0.9821 -0.4194  1.1307
 5305SOL     OW27547   3.977   2.989   4.196  0.0597  0.7086  0.4769
 5305SOL    HW127548   3.924   2.949   4.127  0.5624  3.0800 -1.2936
 5305SOL    HW227549   3.923   2.995   4.275 -1.0456 -1.3122 -0.1367
 5306SOL     OW27550   1.278   1.756   2.722  0.3374 -0.1464  0.4627
 5306SOL    HW127551   1.309   1.679   2.673 -0.1245 -0.4046  0.5674
 5306SOL    HW227552   1.206   1.724   2.776  0.5156 -1.6077 -0.1540
 5307SOL     OW27553   2.055   0.620   3.336 -0.1982  0.0777  0.2374
 5307SOL    HW127554   2.091   0.682   3.272 -3.5296  2.0648  0.2621
 5307SOL    HW227555   2.129   0.610   3.396  1.0403 -2.3144 -1.7049
 5308SOL     OW27556   2.687   0.343  14.074 -0.3401  0.1312 -0.3574
 5308SOL    HW127557   2.710   0.404  14.004  1.3655 -0.3751 -0.2230
 5308SOL    HW227558   2.718   0.385  14.154 -0.1228  0.7240 -0.7512
 5309SOL     OW27559   4.061   3.740   6.210 -0.6972  0.2111  0.6792
 5309SOL    HW127560   4.086   3.666   6.265 -0.3595 -1.2858 -1.5293
 5309SOL    HW227561   3.971   3.724   6.183 -0.6216 -1.6902  1.6010
 5310SOL     OW27562   1.528   4.065   3.903  0.3718  0.1624  0.0035
 5310SOL    HW127563   1.581   4.048   3.980 -0.0298 -0.0167  0.2410
 5310SOL    HW227564   1.445   4.028   3.933 -0.0673  0.0081 -1.3713
 5311SOL     OW27565   3.725   2.177   6.130  0.3517 -0.3176 -0.0680
 5311SOL    HW127566   3.805   2.195   6.178 -0.2802  1.2860  0.4117
 5311SOL    HW227567   3.656   2.225   6.177  0.4685 -0.2994  0.0843
 5312SOL     OW27568   1.500   4.694  16.378  0.0233 -0.5362  0.2467
 5312SOL    HW127569   1.421   0.011  16.365  0.1824 -0.7124 -1.3340
 5312SOL    HW227570   1.548   0.001  16.449  2.7999 -0.1629 -1.8700
 5313SOL     OW27571   3.916   0.382   3.025  0.5056 -0.0113 -0.1365
 5313SOL    HW127572   3.981   0.432   3.074 -0.6580  0.2142  1.1928
 5313SOL    HW227573   3.935   0.392   2.932 -0.2472  1.5219 -0.1287
 5314SOL     OW27574   0.184   4.059   8.521  0.2531 -0.8165 -0.5049
 5314SOL    HW127575   0.271   4.048   8.560 -0.5044 -1.9959  0.8493
 5314SOL    HW227576   0.165   4.145   8.558  1.3514 -1.1553  0.8599
 5315SOL     OW27577   0.580   1.066   2.753 -0.4629  0.4542  0.2946
 5315SOL    HW127578   0.652   1.128   2.769  1.8746 -1.7964 -1.5315
 5315SOL    HW227579   0.620   0.992   2.708  0.7205  1.7696 -0.8574
 5316SOL     OW27580   1.325   1.408  11.063  0.6497 -0.0965 -0.1203
 5316SOL    HW127581   1.377   1.396  11.143 -1.0012 -2.4366  0.6049
 5316SOL    HW227582   1.247   1.448  11.101 -0.0373 -0.1575 -1.4708
 5317SOL     OW27583   4.344   1.020  12.653  0.0789  0.2470 -0.0628
 5317SOL    HW127584   4.270   1.010  12.712  0.6309 -0.4227  0.5097
 5317SOL    HW227585   4.414   1.026  12.718  3.0147 -0.6478 -3.1350
 5318SOL     OW27586   2.607   1.011  17.611 -0.6391  0.1840  0.0541
 5318SOL    HW127587   2.693   0.971  17.630 -0.5625  1.5378  2.4205
 5318SOL    HW227588   2.612   1.033  17.518 -0.2859  1.1776  0.3138
 5319SOL     OW27589   0.223   4.386   6.098  0.8430 -0.2158 -0.0050
 5319SOL    HW127590   0.311   4.348   6.109  0.3453 -1.3604  0.0408
 5319SOL    HW227591   0.246   4.469   6.140  0.9840  0.2763 -1.0686
 5320SOL     OW27592   2.876   2.876   8.301  0.0988 -0.0359  0.1005
 5320SOL    HW127593   2.842   2.788   8.286  2.6323 -1.0278  0.0660
 5320SOL    HW227594   2.847   2.921   8.222 -1.7254 -3.9428 -1.4281
 5321SOL     OW27595   4.312   1.205   4.912  0.3347  0.1568  0.2102
 5321SOL    HW127596   4.262   1.163   4.842 -0.0517  1.3720 -0.2313
 5321SOL    HW227597   4.293   1.145   4.984 -3.4169  0.8504 -0.2462
 5322SOL     OW27598   4.625   2.217   7.773 -0.9418 -0.0846 -1.0704
 5322SOL    HW127599   4.564   2.154   7.810  1.3442 -1.4171  0.4114
 5322SOL    HW227600   4.675   2.161   7.713 -0.0177 -2.9768  2.3617
 5323SOL     OW27601   3.186   0.058  13.321 -0.1663  0.1368 -0.1464
 5323SOL    HW127602   3.275   0.092  13.332 -0.2643  0.6845 -1.0482
 5323SOL    HW227603   3.155   0.102  13.242 -0.7278 -0.6283 -0.3527
 5324SOL     OW27604   3.747   3.846   7.945 -0.3177  0.0172 -0.2376
 5324SOL    HW127605   3.681   3.883   8.005 -1.0841  1.0201 -1.7014
 5324SOL    HW227606   3.737   3.906   7.871  2.4118 -0.7691 -1.2291
 5325SOL     OW27607   2.199   3.056   2.268  0.0144 -0.7567 -0.2738
 5325SOL    HW127608   2.104   3.068   2.270  0.1024  0.1378 -1.1764
 5325SOL    HW227609   2.231   3.142   2.296  3.3426 -0.8844 -3.5800
 5326SOL     OW27610   3.657   2.084   8.731  0.1404  0.3150 -0.2028
 5326SOL    HW127611   3.667   2.149   8.661 -0.8641 -1.3481 -1.8677
 5326SOL    HW227612   3.574   2.045   8.706  0.6767 -1.2862  0.5052
 5327SOL     OW27613   1.532   0.713   4.873  0.3502 -0.5287  0.0342
 5327SOL    HW127614   1.555   0.651   4.804  3.2176 -0.2555  0.7693
 5327SOL    HW227615   1.598   0.781   4.860  1.4416 -1.5295  0.3903
 5328SOL     OW27616   2.955   4.549   5.306 -0.2402  0.2061 -0.2890
 5328SOL    HW127617   2.949   4.630   5.256 -1.3576  0.3442  0.0675
 5328SOL    HW227618   2.862   4.527   5.299  0.0792 -1.3177  0.2445
 5329SOL     OW27619   3.614   2.970   9.231 -0.3734 -0.1080 -0.7848
 5329SOL    HW127620   3.686   3.026   9.204 -0.9787  0.0440 -2.1197
 5329SOL    HW227621   3.667   2.900   9.269 -1.6964 -1.2645 -1.0263
 5330SOL     OW27622   4.013   2.183   8.062  0.0152 -0.0103  0.1103
 5330SOL    HW127623   4.027   2.160   7.971 -1.7521 -1.1684  0.1257
 5330SOL    HW227624   3.985   2.273   8.049 -0.7183 -0.0080  1.7374
 5331SOL     OW27625   0.239   3.033   5.277 -0.0091  0.0801 -0.0010
 5331SOL    HW127626   0.237   2.975   5.353  0.1136 -2.9659 -2.3283
 5331SOL    HW227627   0.225   3.121   5.311  2.8135 -0.2184  1.8638
 5332SOL     OW27628   3.247   2.949   2.161 -0.0463  0.4961  0.2125
 5332SOL    HW127629   3.239   3.042   2.181  0.6315  0.4788  0.5820
 5332SOL    HW227630   3.161   2.923   2.193  0.2036 -1.9282 -1.0737
 5333SOL     OW27631   3.691   4.638   8.925  0.0883  0.6240  0.0906
 5333SOL    HW127632   3.729   4.571   8.983  0.8603  0.9163 -0.0754
 5333SOL    HW227633   3.605   4.654   8.964 -0.0078  0.4673 -0.0564
 5334SOL     OW27634   2.985   3.474   7.106  0.3509  0.1345  0.5534
 5334SOL    HW127635   3.027   3.441   7.186 -1.5988 -0.3895  1.3470
 5334SOL    HW227636   2.970   3.561   7.143 -2.3576 -0.2362  0.2946
 5335SOL     OW27637   3.733   3.190   8.632 -0.5030 -0.4726 -0.0893
 5335SOL    HW127638   3.671   3.142   8.687 -0.1843 -1.6380 -0.7447
 5335SOL    HW227639   3.709   3.279   8.654  0.5295 -0.0147 -0.8256
 5336SOL     OW27640   0.243   3.854   6.568 -0.6050  0.1450 -0.1266
 5336SOL    HW127641   0.336   3.850   6.544 -0.6268  0.3183 -0.2460
 5336SOL    HW227642   0.199   3.804   6.499 -2.6448  3.3332 -1.1429
 5337SOL     OW27643   2.996   1.252   3.103 -0.1481  0.0221  0.0856
 5337SOL    HW127644   2.948   1.175   3.134  1.5557 -0.7808  0.7072
 5337SOL    HW227645   2.977   1.316   3.172  3.8131  1.1530  0.1572
 5338SOL     OW27646   0.336   4.553  17.018 -0.0284 -0.3470  0.3252
 5338SOL    HW127647   0.426   4.587  17.015 -0.5547  0.9886 -0.1569
 5338SOL    HW227648   0.306   4.571  17.107 -0.2521 -1.5256  0.4941
 5339SOL     OW27649   3.216   1.741   2.804  0.3082  0.4837  0.1699
 5339SOL    HW127650   3.217   1.778   2.716  0.1620  3.1318  1.2897
 5339SOL    HW227651   3.126   1.711   2.817  0.6440 -0.6295 -0.1060
 5340SOL     OW27652   4.260   0.499  12.346 -0.1400  0.1731 -0.5971
 5340SOL    HW127653   4.247   0.591  12.323 -1.2763 -0.1333 -1.2173
 5340SOL    HW227654   4.179   0.474  12.391  0.1687 -0.6567 -0.5030
 5341SOL     OW27655   0.895   3.127   6.836 -0.1667 -0.1179  0.1971
 5341SOL    HW127656   0.943   3.148   6.916  0.1717 -0.4769  0.0873
 5341SOL    HW227657   0.908   3.032   6.826  0.7326 -0.3012  3.1280
 5342SOL     OW27658   2.044   4.702   2.699  0.1237  0.0810 -0.2718
 5342SOL    HW127659   2.021   4.685   2.790 -1.6808  3.4986 -0.0676
 5342SOL    HW227660   2.063   0.060   2.683 -0.3718  0.4237  1.1369
 5343SOL     OW27661   0.509   0.812   6.089 -1.2295 -0.3076  0.0584
 5343SOL    HW127662   0.582   0.796   6.148  0.8576  1.9363 -1.9429
 5343SOL    HW227663   0.543   0.777   6.007  1.0132 -0.0761  0.8811
 5344SOL     OW27664   0.985   0.737   1.094 -0.1481  0.4326 -0.1805
 5344SOL    HW127665   1.007   0.829   1.084  1.0058  0.2460  0.7518
 5344SOL    HW227666   1.059   0.692   1.053 -0.1780 -0.6718  0.9689
 5345SOL     OW27667   4.278   0.525  10.545  0.0243 -0.5878  0.0572
 5345SOL    HW127668   4.208   0.538  10.609 -0.6923 -1.7651 -0.4767
 5345SOL    HW227669   4.218   0.486  10.481  0.7442  0.2030 -1.0803
 5346SOL     OW27670   3.134   4.186   9.478  0.0221  0.1679  0.0231
 5346SOL    HW127671   3.199   4.207   9.411 -0.2552  0.4110 -0.1664
 5346SOL    HW227672   3.060   4.174   9.418  0.9568 -0.5248 -0.9970
 5347SOL     OW27673   3.458   2.633   9.441  0.2575 -0.5509  0.1195
 5347SOL    HW127674   3.457   2.677   9.356 -2.3949  0.0365  0.4684
 5347SOL    HW227675   3.523   2.564   9.425 -0.8066 -1.3459 -0.7356
 5348SOL     OW27676   1.215   4.364  12.967 -0.5275  0.1567  0.6324
 5348SOL    HW127677   1.299   4.390  12.927  0.0553 -1.3842  0.8577
 5348SOL    HW227678   1.179   4.301  12.904  0.5754 -0.1060  0.2495
 5349SOL     OW27679   2.418   0.784  11.674 -0.4511 -0.1856 -0.2798
 5349SOL    HW127680   2.361   0.817  11.743  1.2238 -0.7278  1.3811
 5349SOL    HW227681   2.412   0.689  11.682 -2.0561 -0.2770 -2.6253
 5350SOL     OW27682   4.256   1.325   3.319  0.4908  0.0240 -0.5334
 5350SOL    HW127683   4.213   1.372   3.391  0.4735 -1.3110  0.3239
 5350SOL    HW227684   4.193   1.254   3.309 -2.5320  1.9897  4.3180
 5351SOL     OW27685   3.967   1.514   7.069  0.2060  0.1074 -0.9315
 5351SOL    HW127686   3.884   1.533   7.112  0.7806 -0.0012  0.2212
 5351SOL    HW227687   4.006   1.445   7.123 -2.4868 -0.9467 -0.2940
 5352SOL     OW27688   1.837   1.045   6.973  0.6469  0.0857 -0.0059
 5352SOL    HW127689   1.797   0.999   7.047 -1.2258 -0.9556 -1.6577
 5352SOL    HW227690   1.874   0.971   6.924  1.6837  1.0109 -0.6022
 5353SOL     OW27691   1.566   2.488   3.244 -0.0414 -0.2883 -0.0706
 5353SOL    HW127692   1.653   2.526   3.242 -0.2268  0.1026 -1.0587
 5353SOL    HW227693   1.517   2.522   3.319 -0.7123  1.8435 -1.4618
 5354SOL     OW27694   0.226   2.303   7.667 -0.1263  0.5439 -0.3024
 5354SOL    HW127695   0.145   2.322   7.621 -0.9830 -4.1894 -0.7522
 5354SOL    HW227696   0.200   2.247   7.741  1.2426  0.0705 -0.1787
 5355SOL     OW27697   3.274   1.494   6.575 -0.9013 -0.4160 -0.4772
 5355SOL    HW127698   3.338   1.539   6.520 -0.5338 -1.8451 -1.2161
 5355SOL    HW227699   3.296   1.537   6.658 -0.3723 -3.8241  1.1232
 5356SOL     OW27700   4.025   0.032   4.606 -0.1460 -0.2106  0.4183
 5356SOL    HW127701   3.982   0.114   4.581 -2.0380 -1.1485  0.5743
 5356SOL    HW227702   4.025   4.726   4.520 -0.0856 -1.5678  1.0714
 5357SOL     OW27703   3.633   0.974  17.075  0.3039 -0.3727  0.1149
 5357SOL    HW127704   3.643   0.970  16.980 -4.7192  0.9390 -0.4771
 5357SOL    HW227705   3.541   1.000  17.083  0.5813  0.7112 -0.1710
 5358SOL     OW27706   4.468   0.662  10.394  0.1146 -0.5946 -1.1018
 5358SOL    HW127707   4.411   0.650  10.318 -0.9207 -0.7593 -0.3051
 5358SOL    HW227708   4.420   0.611  10.459  0.5311 -0.4659 -0.6925
 5359SOL     OW27709   3.781   3.897   9.860 -0.4439 -0.2544  0.3613
 5359SOL    HW127710   3.799   3.862   9.773  3.3379 -0.0642  1.0725
 5359SOL    HW227711   3.807   3.820   9.911  2.0220  1.4159  1.5863
 5360SOL     OW27712   4.652   3.500  13.708  0.3243  0.1801  0.1892
 5360SOL    HW127713   4.674   3.592  13.723  1.6734  0.0868 -1.2799
 5360SOL    HW227714   4.637   3.472  13.799  1.8943 -1.2379  0.0196
 5361SOL     OW27715   4.126   3.071   6.854 -0.0869 -0.0897 -0.2586
 5361SOL    HW127716   4.178   3.001   6.813 -0.5545  0.2348 -1.4000
 5361SOL    HW227717   4.162   3.148   6.811  1.0108 -1.3155 -1.5032
 5362SOL     OW27718   1.352   3.235   1.351  0.7713  0.0486  0.3668
 5362SOL    HW127719   1.368   3.326   1.326  0.8874 -0.8341 -2.7671
 5362SOL    HW227720   1.310   3.197   1.274 -0.7784  1.6106  0.4510
 5363SOL     OW27721   4.301   2.909   2.564  0.2341  0.1823  0.0544
 5363SOL    HW127722   4.347   2.952   2.492 -3.4864  0.9055 -1.8991
 5363SOL    HW227723   4.264   2.837   2.511 -0.2800 -0.1689  0.8924
 5364SOL     OW27724   1.160   0.480  12.782 -0.1678  0.0334  0.2232
 5364SOL    HW127725   1.090   0.495  12.719  1.8762  0.6872 -1.8832
 5364SOL    HW227726   1.171   0.563  12.828 -0.0222  0.0134  0.2260
 5365SOL     OW27727   4.412   4.324   5.194  0.0463  0.3922 -0.4238
 5365SOL    HW127728   4.331   4.362   5.228 -0.6189 -1.2916 -0.1279
 5365SOL    HW227729   4.465   4.403   5.185  0.0881  0.5572  1.2832
 5366SOL     OW27730   2.463   3.506   7.476  0.1197 -0.6225  0.3850
 5366SOL    HW127731   2.374   3.542   7.479  0.1878 -0.0764 -3.3474
 5366SOL    HW227732   2.489   3.538   7.562 -2.0159 -0.2916  0.9174
 5367SOL     OW27733   1.993   3.780   3.335 -0.5624 -0.2088  0.3508
 5367SOL    HW127734   1.951   3.723   3.399 -0.1409 -0.3867  0.4755
 5367SOL    HW227735   2.032   3.844   3.395  0.8436 -2.0797  1.4255
 5368SOL     OW27736   1.239   0.831   2.212  0.2603  0.1521 -0.5221
 5368SOL    HW127737   1.193   0.753   2.244 -0.0939  0.0385 -1.2953
 5368SOL    HW227738   1.166   0.882   2.175 -0.7170 -0.6636  0.2769
 5369SOL     OW27739   0.170   1.846   3.739  0.0778 -0.3295  0.4930
 5369SOL    HW127740   0.165   1.754   3.764 -2.0126 -0.6134 -1.0196
 5369SOL    HW227741   0.248   1.847   3.683 -1.3804 -1.3659 -1.5566
 5370SOL     OW27742   4.487   2.309   9.368  0.0484  0.1367  0.3792
 5370SOL    HW127743   4.570   2.322   9.414  0.5959 -0.5530 -0.4234
 5370SOL    HW227744   4.446   2.394   9.356 -0.6766 -0.2729 -0.0573
 5371SOL     OW27745   3.810   1.558   9.314 -0.0465  0.1376 -0.1445
 5371SOL    HW127746   3.857   1.481   9.282 -2.9203 -2.0801  0.9782
 5371SOL    HW227747   3.846   1.618   9.249  2.4696  0.4976  1.5998
 5372SOL     OW27748   4.171   3.087   6.238 -0.3186 -0.1556 -0.0216
 5372SOL    HW127749   4.229   3.035   6.295  0.3635  0.3387 -0.2585
 5372SOL    HW227750   4.222   3.141   6.178  1.0562 -0.6463  0.6767
 5373SOL     OW27751   0.034   3.597  13.269  0.1003 -0.3028 -0.2082
 5373SOL    HW127752   0.087   3.613  13.347  1.0214 -1.8425 -0.5178
 5373SOL    HW227753   4.720   3.679  13.268 -0.7340 -0.8143 -1.3951
 5374SOL     OW27754   2.107   1.926   2.432 -0.1251  0.5382  0.4466
 5374SOL    HW127755   2.070   2.012   2.451  0.4029  1.1945 -1.5251
 5374SOL    HW227756   2.031   1.870   2.449  0.5908 -0.2531  1.0685
 5375SOL     OW27757   2.774   1.077  14.599 -0.1612 -0.4265  0.5074
 5375SOL    HW127758   2.766   1.071  14.504  0.3758 -0.6153  0.4740
 5375SOL    HW227759   2.843   1.014  14.622 -1.7522 -2.3348  0.0481
 5376SOL     OW27760   0.298   3.185   9.992  0.3027  0.3449  0.0769
 5376SOL    HW127761   0.263   3.268  10.023 -0.9279 -0.8223  1.8054
 5376SOL    HW227762   0.230   3.163   9.927 -0.4604 -0.0637  1.0022
 5377SOL     OW27763   0.958   3.837   3.560 -0.1077  0.1722  0.1757
 5377SOL    HW127764   0.865   3.819   3.570 -0.1041  1.0731  1.8220
 5377SOL    HW227765   0.987   3.762   3.508 -0.5054  0.9681 -1.1958
 5378SOL     OW27766   0.254   0.363  16.247 -0.3211  0.3671 -0.2574
 5378SOL    HW127767   0.339   0.407  16.250  0.3842 -1.0022 -0.0265
 5378SOL    HW227768   0.255   0.330  16.337 -0.2921 -1.1173 -0.7986
 5379SOL     OW27769   1.229   2.990   8.081  0.7429  0.6555  0.3786
 5379SOL    HW127770   1.160   2.972   8.146 -0.3232  1.5322 -0.5171
 5379SOL    HW227771   1.185   3.049   8.020 -0.0939  1.4461  1.7252
 5380SOL     OW27772   3.317   2.494  16.379 -0.4560 -0.2493  0.0717
 5380SOL    HW127773   3.268   2.483  16.297 -0.1899 -2.4092  0.2072
 5380SOL    HW227774   3.285   2.574  16.421 -2.4591 -1.3338  0.5943
 5381SOL     OW27775   0.131   0.746   4.504  0.7155  0.2120  0.3075
 5381SOL    HW127776   0.181   0.807   4.450  2.0107 -0.8825  0.2670
 5381SOL    HW227777   0.068   0.801   4.551 -0.7434  0.1502 -1.5666
 5382SOL     OW27778   3.765   0.304   2.626 -0.1412  0.7815 -0.3465
 5382SOL    HW127779   3.710   0.377   2.597 -1.3085  0.1363  0.2708
 5382SOL    HW227780   3.854   0.341   2.621  0.0267  0.3423 -0.5702
 5383SOL     OW27781   2.732   4.320   5.835  0.5138  0.5059  0.0204
 5383SOL    HW127782   2.747   4.236   5.879  0.7548  0.6674  0.2499
 5383SOL    HW227783   2.791   4.380   5.880 -0.7066  0.9138  1.0790
 5384SOL     OW27784   3.980   3.109   9.184  0.2674  0.0834  0.3328
 5384SOL    HW127785   3.937   3.082   9.266  1.0818  0.1330  0.7767
 5384SOL    HW227786   4.046   3.040   9.183 -0.9592 -1.1319  1.9934
 5385SOL     OW27787   4.081   4.072  10.990  0.3496 -0.2327 -0.4186
 5385SOL    HW127788   4.142   4.113  10.930 -1.7252  0.3032 -2.1744
 5385SOL    HW227789   4.084   4.133  11.063  0.7303 -1.8364  0.9175
 5386SOL     OW27790   1.295   1.399   6.105 -0.0418  0.1657  0.6346
 5386SOL    HW127791   1.216   1.386   6.158 -1.0881 -1.8648 -1.4059
 5386SOL    HW227792   1.357   1.387   6.177  1.2225 -2.1211 -0.8323
 5387SOL     OW27793   2.724   0.146   9.346  0.1409 -0.4290 -0.6190
 5387SOL    HW127794   2.673   0.182   9.419 -0.3068 -2.0302 -0.1298
 5387SOL    HW227795   2.812   0.167   9.378  0.7984 -0.2419 -2.6130
 5388SOL     OW27796   2.088   2.032   2.834  0.2218  0.2387  0.1339
 5388SOL    HW127797   2.020   2.076   2.885  0.7046  1.8984 -0.6557
 5388SOL    HW227798   2.075   1.942   2.863  0.6822  0.1653  0.1140
 5389SOL     OW27799   4.668   3.884   3.449  0.0438 -0.0548  0.2754
 5389SOL    HW127800   4.625   3.919   3.527 -2.0025  0.5473 -1.1396
 5389SOL    HW227801   4.723   3.816   3.487  1.8306 -0.0582 -2.3104
 5390SOL     OW27802   2.942   0.892   6.713 -0.2291 -0.6880 -0.5604
 5390SOL    HW127803   3.005   0.905   6.784 -0.1250  0.9298 -0.9341
 5390SOL    HW227804   2.890   0.973   6.708  1.4615  0.4089 -0.3146
 5391SOL     OW27805   1.853   1.336   3.540  0.3186 -0.2925  0.2754
 5391SOL    HW127806   1.918   1.267   3.553  0.3566 -0.2384  0.3741
 5391SOL    HW227807   1.912   1.397   3.495 -1.4611  0.4782 -1.0095
 5392SOL     OW27808   3.550   0.913   4.552 -0.6157 -0.4236 -0.2024
 5392SOL    HW127809   3.586   0.995   4.517  0.3453 -0.4089  0.8097
 5392SOL    HW227810   3.628   0.857   4.555 -0.8292 -0.7484 -0.9236
 5393SOL     OW27811   4.347   1.747   1.572  0.1114  0.1250  0.2182
 5393SOL    HW127812   4.267   1.708   1.608 -0.0949  1.2977  1.0401
 5393SOL    HW227813   4.375   1.803   1.645  2.3457  0.7803 -1.1522
 5394SOL     OW27814   3.879   1.718   5.826 -0.4222 -0.4011 -0.3777
 5394SOL    HW127815   3.822   1.660   5.776  0.5843 -0.9201 -0.8960
 5394SOL    HW227816   3.809   1.769   5.869 -1.7650 -1.8962 -0.7793
 5395SOL     OW27817   1.304   4.409   8.664 -0.0893 -0.1819  0.0309
 5395SOL    HW127818   1.308   4.485   8.723 -2.1020  0.0001 -0.0571
 5395SOL    HW227819   1.209   4.396   8.660 -0.0474 -0.1745 -0.9525
 5396SOL     OW27820   1.675   1.913  17.068  0.9399  0.0214  0.0587
 5396SOL    HW127821   1.710   1.850  17.006  1.3239  0.2314  0.0614
 5396SOL    HW227822   1.721   1.996  17.059  2.0615 -0.6018  0.1111
 5397SOL     OW27823   1.839   1.271  13.296 -0.0650  0.0167  0.0039
 5397SOL    HW127824   1.845   1.308  13.208 -1.4042 -0.4092 -0.2638
 5397SOL    HW227825   1.794   1.188  13.281  0.0683  0.1453 -1.1249
 5398SOL     OW27826   1.565   3.121   4.560 -0.5963  0.2579  0.5041
 5398SOL    HW127827   1.515   3.194   4.596 -2.5081  0.2879 -2.2149
 5398SOL    HW227828   1.553   3.147   4.469 -2.1629  1.8029  1.1578
 5399SOL     OW27829   2.643   2.648   1.643  0.1537 -0.2259 -0.5927
 5399SOL    HW127830   2.609   2.737   1.632  0.1074 -0.0211  1.1145
 5399SOL    HW227831   2.690   2.641   1.560  3.2960  2.4283  0.9709
 5400SOL     OW27832   4.483   1.430   4.781 -0.7936  0.1648  0.3838
 5400SOL    HW127833   4.457   1.496   4.717 -0.7509 -1.6188 -1.4638
 5400SOL    HW227834   4.399   1.407   4.820 -1.3847 -1.1464 -1.6505
 5401SOL     OW27835   2.274   4.519   2.874 -0.4680  0.4902 -0.0172
 5401SOL    HW127836   2.366   4.499   2.891 -1.1455 -2.9417 -0.4517
 5401SOL    HW227837   2.269   4.531   2.780  0.2816  0.7810 -0.0207
 5402SOL     OW27838   2.601   1.717   4.025  0.1228 -0.3702 -0.0680
 5402SOL    HW127839   2.674   1.758   3.979 -1.6492 -0.5736 -3.0724
 5402SOL    HW227840   2.648   1.653   4.079  0.5800  0.5271  0.5789
 5403SOL     OW27841   2.787   0.394  12.849  0.0317 -0.1757  0.3089
 5403SOL    HW127842   2.733   0.459  12.804 -0.8159 -0.5297  0.8221
 5403SOL    HW227843   2.814   0.325  12.788 -1.7117 -0.6649  0.0941
 5404SOL     OW27844   4.727   0.171   6.734  0.1328  0.4606  0.0606
 5404SOL    HW127845   4.702   0.113   6.806 -0.1962  2.1472  1.2726
 5404SOL    HW227846   0.034   0.250   6.768 -2.6490  1.7830  0.3909
 5405SOL     OW27847   0.478   0.398   7.360 -0.2602  0.1737  0.0005
 5405SOL    HW127848   0.513   0.312   7.334  2.3680  0.5723  2.1542
 5405SOL    HW227849   0.424   0.424   7.285  0.3560 -1.6354 -1.0686
 5406SOL     OW27850   1.264   1.331  10.234  0.1301 -0.1547 -0.0894
 5406SOL    HW127851   1.286   1.372  10.317  1.0244 -3.6710  1.3727
 5406SOL    HW227852   1.168   1.328  10.233  0.2032 -2.1697  2.8238
 5407SOL     OW27853   3.473   4.554   6.470 -0.0561  0.1348  0.5893
 5407SOL    HW127854   3.414   4.576   6.542 -1.7692 -1.8953 -0.1644
 5407SOL    HW227855   3.399   4.536   6.411  0.6304  1.0013 -0.5245
 5408SOL     OW27856   2.632   3.015   3.626  0.2162 -0.5073  0.2288
 5408SOL    HW127857   2.695   2.954   3.588  0.1277  0.2567 -1.1294
 5408SOL    HW227858   2.578   3.031   3.549 -1.8679  1.3641  2.0762
 5409SOL     OW27859   2.904   1.794   8.500 -0.0934 -0.3211 -0.0738
 5409SOL    HW127860   2.850   1.855   8.449 -0.8693 -1.2132 -0.3278
 5409SOL    HW227861   2.986   1.787   8.451  0.1905  0.0557  0.3500
 5410SOL     OW27862   1.383   2.420   9.357  0.4680  0.0252  0.0672
 5410SOL    HW127863   1.414   2.359   9.290  1.9225  0.7717  0.0798
 5410SOL    HW227864   1.290   2.398   9.348  0.6424  0.3134 -2.3853
 5411SOL     OW27865   1.269   2.990   5.213 -0.1046  0.1400  0.3173
 5411SOL    HW127866   1.295   3.081   5.201 -2.0968  0.8125  1.0500
 5411SOL    HW227867   1.271   2.989   5.309  0.5111 -1.5901  0.2825
 5412SOL     OW27868   0.787   4.423   4.455 -0.1213 -0.5020 -0.0359
 5412SOL    HW127869   0.828   4.458   4.534  0.5610 -1.1169 -0.1126
 5412SOL    HW227870   0.805   4.329   4.457 -0.9808 -0.6600 -0.0156
 5413SOL     OW27871   1.496   0.722   9.073  0.2982  0.1214 -0.3760
 5413SOL    HW127872   1.537   0.754   9.153 -1.2268  0.0974  0.4086
 5413SOL    HW227873   1.405   0.733   9.100 -0.1445  0.9691 -2.2086
 5414SOL     OW27874   1.257   4.093   1.330 -0.1334  0.0140 -0.2337
 5414SOL    HW127875   1.177   4.091   1.383 -1.6080  1.3246 -2.4112
 5414SOL    HW227876   1.250   4.013   1.278 -0.4361  0.3061 -0.6451
 5415SOL     OW27877   4.708   4.406  15.756  0.3488 -0.7841 -0.1665
 5415SOL    HW127878   4.735   4.314  15.758 -0.4319 -0.9768  0.8907
 5415SOL    HW227879   4.723   4.433  15.846 -3.0570  0.5033 -0.0118
 5416SOL     OW27880   1.098   4.421  16.726  0.7020 -0.2757  0.5550
 5416SOL    HW127881   1.128   4.333  16.705 -0.1959 -0.2217 -0.9413
 5416SOL    HW227882   1.042   4.398  16.800  0.9173 -0.3221  0.7022
 5417SOL     OW27883   1.914   3.707  13.085  0.3212 -0.2181 -0.0529
 5417SOL    HW127884   1.896   3.659  13.004  0.4854 -2.0614  1.0049
 5417SOL    HW227885   1.825   3.732  13.109  0.5676  0.8620 -0.2652
 5418SOL     OW27886   1.350   4.026   0.389 -0.3365 -0.4516  0.2162
 5418SOL    HW127887   1.428   3.971   0.399 -1.2882 -1.6835  0.8550
 5418SOL    HW227888   1.371   4.079   0.312 -2.0408  1.3985  1.0514
 5419SOL     OW27889   3.453   1.625  16.269  0.0501 -0.3409 -0.3693
 5419SOL    HW127890   3.464   1.718  16.289 -2.3620 -0.0760 -0.2289
 5419SOL    HW227891   3.434   1.626  16.175 -0.9536  0.7730 -0.1493
 5420SOL     OW27892   1.591   0.023   5.908 -0.1477  0.3194 -0.3180
 5420SOL    HW127893   1.606   0.108   5.951 -2.6867  0.8501 -0.4762
 5420SOL    HW227894   1.676   0.004   5.870 -0.4871 -0.5630 -0.6329
 5421SOL     OW27895   1.831   1.435  16.599 -0.0279  0.0892  0.5782
 5421SOL    HW127896   1.745   1.429  16.557  0.5350 -0.3433 -0.5060
 5421SOL    HW227897   1.807   1.441  16.691 -0.3628 -1.0849  0.5679
 5422SOL     OW27898   0.624   3.227   8.992  0.1294  0.1720 -0.2801
 5422SOL    HW127899   0.715   3.253   9.003  0.1755 -1.2851  2.6183
 5422SOL    HW227900   0.585   3.267   9.070  0.0283 -1.6493  0.5942
 5423SOL     OW27901   3.535   2.195   3.095 -0.3532 -0.4778 -0.3264
 5423SOL    HW127902   3.459   2.250   3.077  0.3983  0.3094 -1.0586
 5423SOL    HW227903   3.582   2.239   3.167 -1.5440  0.2214  0.0283
 5424SOL     OW27904   2.905   2.577   3.428  0.0041 -0.0952 -0.0099
 5424SOL    HW127905   2.826   2.532   3.397  0.7328 -0.9455 -0.6502
 5424SOL    HW227906   2.927   2.517   3.500  1.0151 -1.5764 -1.5492
 5425SOL     OW27907   0.777   0.603   6.593  0.1179  0.3172 -0.4048
 5425SOL    HW127908   0.840   0.560   6.651 -1.4437  0.2132  1.1994
 5425SOL    HW227909   0.760   0.527   6.538  0.9944 -1.1585  1.3936
 5426SOL     OW27910   0.001   0.918   4.673  0.0030 -0.4723  0.0728
 5426SOL    HW127911   0.061   0.890   4.742 -0.8537 -2.2702  0.0865
 5426SOL    HW227912   4.655   0.900   4.720 -0.2878 -0.3526 -0.3752
 5427SOL     OW27913   4.329   4.648   2.407  0.2755 -0.2904  0.0706
 5427SOL    HW127914   4.244   4.608   2.393  0.7216 -1.2216  0.0038
 5427SOL    HW227915   4.318   4.657   2.502  3.4279  0.6329  0.3562
 5428SOL     OW27916   0.095   3.906  11.144 -0.2869  0.4268  0.2472
 5428SOL    HW127917   0.017   3.938  11.098 -0.4961 -0.8227 -0.2659
 5428SOL    HW227918   0.084   3.811  11.148 -0.7773  0.4810  0.2724
 5429SOL     OW27919   0.438   1.203   2.562  0.4794  0.0291 -0.1871
 5429SOL    HW127920   0.503   1.143   2.600 -0.5948 -1.4638 -0.6760
 5429SOL    HW227921   0.435   1.165   2.475  0.8299 -1.6377  0.5220
 5430SOL     OW27922   1.885   0.319   8.438  0.7510 -0.8107 -0.1933
 5430SOL    HW127923   1.957   0.361   8.390 -1.2325  1.9018 -0.8604
 5430SOL    HW227924   1.838   0.299   8.357  1.8992  2.3074 -1.6592
 5431SOL     OW27925   0.339   4.267   3.215 -0.3481  0.0090 -0.3012
 5431SOL    HW127926   0.263   4.268   3.158 -0.8847 -2.5694  0.3593
 5431SOL    HW227927   0.411   4.310   3.169  1.9861 -1.5264  1.8441
 5432SOL     OW27928   0.292   4.324   7.347  0.1486  0.3168  0.5046
 5432SOL    HW127929   0.277   4.374   7.266 -0.5079 -0.1632  0.3295
 5432SOL    HW227930   0.205   4.321   7.386 -0.7847  1.8809 -1.4646
 5433SOL     OW27931   3.152   0.961   7.710  0.3715 -0.3421  0.7166
 5433SOL    HW127932   3.212   1.005   7.770  1.8012 -2.7204  1.0416
 5433SOL    HW227933   3.136   1.030   7.646 -1.1193  0.6001  2.1000
 5434SOL     OW27934   3.263   3.878   7.928  0.5121  0.1930 -0.4142
 5434SOL    HW127935   3.181   3.843   7.963  1.1787  0.3001  1.2772
 5434SOL    HW227936   3.306   3.793   7.921  1.2201  0.1716  3.9808
 5435SOL     OW27937   2.791   4.111   8.534  0.1965  0.4784 -0.0309
 5435SOL    HW127938   2.822   4.185   8.482  1.3081 -0.6179 -0.9334
 5435SOL    HW227939   2.871   4.058   8.536 -0.6348 -0.7613 -0.0936
 5436SOL     OW27940   4.731   0.969   4.295  0.1776 -0.4179 -0.1657
 5436SOL    HW127941   4.716   0.874   4.294 -0.1514 -0.3247 -2.9256
 5436SOL    HW227942   4.672   0.994   4.224 -2.6990 -0.4769  2.1601
 5437SOL     OW27943   2.452   1.422   0.958 -0.2343  0.1808 -0.4928
 5437SOL    HW127944   2.378   1.426   0.897 -0.7213  0.2057  0.0943
 5437SOL    HW227945   2.452   1.328   0.977  0.3156  0.1691 -0.5424
 5438SOL     OW27946   0.307   1.391   8.013  0.1501  0.1287  0.5188
 5438SOL    HW127947   0.389   1.428   8.047 -0.9318  1.6002  1.4934
 5438SOL    HW227948   0.239   1.434   8.065  0.2807  2.4622 -1.2447
 5439SOL     OW27949   2.492   0.787   7.220 -0.0111  0.7003  0.5309
 5439SOL    HW127950   2.503   0.735   7.140 -1.4719  1.0818  0.0700
 5439SOL    HW227951   2.459   0.717   7.275 -0.3834 -0.2142 -0.8457
 5440SOL     OW27952   0.087   2.831   5.903 -0.8234 -0.1162  0.3552
 5440SOL    HW127953   0.181   2.831   5.883 -1.0686  0.0540 -0.8114
 5440SOL    HW227954   0.083   2.866   5.992  0.5934  0.3018  0.2602
 5441SOL     OW27955   1.072   0.034  13.896 -0.0275 -0.3107 -0.2312
 5441SOL    HW127956   1.061   0.124  13.927 -0.0893 -0.8843  1.3748
 5441SOL    HW227957   1.023   0.029  13.814  2.8127  0.7071 -2.0110
 5442SOL     OW27958   1.666   1.837  13.659 -0.0109  0.1046  0.3070
 5442SOL    HW127959   1.723   1.914  13.659  1.8464 -1.2666 -2.3808
 5442SOL    HW227960   1.728   1.769  13.630 -1.3737  0.0122 -2.4477
 5443SOL     OW27961   2.826   1.957   8.092  0.1565 -0.1004 -0.3037
 5443SOL    HW127962   2.878   1.877   8.100 -0.4942 -0.2347  2.4681
 5443SOL    HW227963   2.831   1.977   8.185  1.8978 -0.2826 -0.3503
 5444SOL     OW27964   0.404   4.667   3.305  0.3061 -0.2408 -0.5261
 5444SOL    HW127965   0.494   4.665   3.338 -0.5126  0.8527  1.7422
 5444SOL    HW227966   0.382   4.574   3.319 -1.1365  0.0459 -0.8673
 5445SOL     OW27967   0.808   1.413  16.080 -0.3397  0.3543  0.1954
 5445SOL    HW127968   0.754   1.490  16.063 -2.7982 -1.7374 -1.3392
 5445SOL    HW227969   0.767   1.354  16.017  1.0961  0.9578 -1.3167
 5446SOL     OW27970   2.707   2.431   3.301  0.4412  0.3264 -0.3928
 5446SOL    HW127971   2.625   2.388   3.325  1.8672 -2.5936 -0.7824
 5446SOL    HW227972   2.682   2.504   3.245 -0.5231 -2.0509 -3.0655
 5447SOL     OW27973   0.681   3.804   4.060  0.4150 -0.0067 -0.0986
 5447SOL    HW127974   0.605   3.789   4.005  1.0239 -3.7716  0.1080
 5447SOL    HW227975   0.699   3.711   4.071  1.0698  0.5340  3.5829
 5448SOL     OW27976   0.185   4.278   3.854 -0.6573 -0.2829  0.7661
 5448SOL    HW127977   0.172   4.216   3.925  0.3385 -1.0827  0.2455
 5448SOL    HW227978   0.142   4.232   3.781  0.4136  1.1796 -0.7858
 5449SOL     OW27979   2.513   1.251  10.361 -0.2365 -0.4902 -0.9090
 5449SOL    HW127980   2.426   1.272  10.395  0.7675  0.4715  1.0458
 5449SOL    HW227981   2.499   1.173  10.307 -1.4372 -0.9436  0.0476
 5450SOL     OW27982   1.728   3.805   4.519  0.3869  0.3716  0.1617
 5450SOL    HW127983   1.796   3.826   4.454  1.3056  0.9230  1.3028
 5450SOL    HW227984   1.665   3.764   4.459 -1.1859  1.7828  0.8489
 5451SOL     OW27985   1.152   3.620  13.970 -0.2679  0.1959 -0.6035
 5451SOL    HW127986   1.087   3.651  14.034  1.1825 -0.2839  1.0985
 5451SOL    HW227987   1.110   3.541  13.934 -0.4931 -0.3315  0.8279
 5452SOL     OW27988   1.106   0.700   3.253  0.2895 -0.2075 -0.0971
 5452SOL    HW127989   1.036   0.635   3.259  0.2405 -0.0881  0.5885
 5452SOL    HW227990   1.117   0.725   3.161 -0.6712  0.2258 -0.1016
 5453SOL     OW27991   2.008   2.633  10.024 -0.2194 -0.1470  0.2085
 5453SOL    HW127992   1.944   2.694   9.985  1.1903  0.5919 -0.9708
 5453SOL    HW227993   2.032   2.596   9.939 -0.9657 -1.2391  0.4741
 5454SOL     OW27994   3.034   0.482   2.474  0.5796 -0.1499 -0.1618
 5454SOL    HW127995   3.080   0.566   2.461 -0.6580  0.3934 -1.0026
 5454SOL    HW227996   3.022   0.450   2.385  0.8784 -1.4194  0.2496
 5455SOL     OW27997   0.127   3.390   0.456  0.4147  0.2309  0.1580
 5455SOL    HW127998   0.086   3.307   0.481  0.0148  0.5777  0.6452
 5455SOL    HW227999   0.216   3.364   0.432  0.3346  1.4773 -1.4707
 5456SOL     OW28000   1.345   2.729   7.017 -0.0370 -0.0316  0.0859
 5456SOL    HW128001   1.349   2.677   7.097  1.8247 -0.4995 -0.3153
 5456SOL    HW228002   1.437   2.714   6.996 -0.4448 -1.6208 -0.6238
 5457SOL     OW28003   3.094   1.562   5.867  0.6845  0.6472  0.1806
 5457SOL    HW128004   3.138   1.484   5.832 -0.3061  0.2811 -0.2547
 5457SOL    HW228005   3.136   1.577   5.952  0.6064 -1.0538  0.5217
 5458SOL     OW28006   0.805   3.829   7.501 -0.2119 -0.5734 -0.2563
 5458SOL    HW128007   0.796   3.895   7.432  0.2907  0.1364  0.3645
 5458SOL    HW228008   0.718   3.834   7.542  0.1074 -2.0380  0.5896
 5459SOL     OW28009   3.832   2.284  15.394  0.2047 -0.5829 -0.9406
 5459SOL    HW128010   3.899   2.230  15.352 -0.7084 -0.9565 -1.9095
 5459SOL    HW228011   3.886   2.303  15.471  0.5015 -0.3304 -1.2138
 5460SOL     OW28012   1.387   2.185  11.503  0.0809 -0.0139  0.7101
 5460SOL    HW128013   1.400   2.102  11.458  0.0235  0.5513 -0.3434
 5460SOL    HW228014   1.294   2.187  11.483 -0.0090 -1.4522  0.9594
 5461SOL     OW28015   2.659   2.127   0.684 -0.5046 -0.8759  0.2009
 5461SOL    HW128016   2.666   2.222   0.677 -0.5725 -0.8836  0.0363
 5461SOL    HW228017   2.744   2.109   0.644 -0.0649  0.4370  0.5171
 5462SOL     OW28018   1.418   1.891   3.470  0.0498  0.5316 -0.1361
 5462SOL    HW128019   1.418   1.986   3.459 -2.4208  0.7401  1.5274
 5462SOL    HW228020   1.413   1.862   3.379 -1.3201 -0.9900  0.4197
 5463SOL     OW28021   3.323   4.286  13.829  0.0577 -0.4472 -0.1280
 5463SOL    HW128022   3.238   4.242  13.823  0.1242 -0.8915  2.3724
 5463SOL    HW228023   3.349   4.278  13.737 -0.9674 -2.6777 -0.2091
 5464SOL     OW28024   0.901   3.281   1.677  0.2275 -0.3964 -0.8909
 5464SOL    HW128025   0.829   3.324   1.632  0.4968 -0.4101 -1.3434
 5464SOL    HW228026   0.916   3.204   1.622 -1.2111 -0.7552 -0.7603
 5465SOL     OW28027   1.563   2.514   2.938 -1.0159  0.4396  0.2957
 5465SOL    HW128028   1.566   2.591   2.995  4.3853 -0.9762  1.8577
 5465SOL    HW228029   1.499   2.460   2.985 -0.3450  0.3089  1.0494
 5466SOL     OW28030   0.814   3.828   2.153  0.3246  0.1165  0.2759
 5466SOL    HW128031   0.756   3.888   2.201 -0.4313 -0.2017 -0.2558
 5466SOL    HW228032   0.848   3.887   2.086  1.3252  1.3812  1.8852
 5467SOL     OW28033   4.577   2.721   4.201 -0.1116 -0.0885  0.2945
 5467SOL    HW128034   4.655   2.714   4.256 -0.9285 -0.6191  1.3889
 5467SOL    HW228035   4.562   2.815   4.208  0.7065  0.1152 -0.7348
 5468SOL     OW28036   4.197   1.117   5.483 -0.0440 -0.3144 -0.1911
 5468SOL    HW128037   4.117   1.169   5.488  0.7878  0.8127  1.1210
 5468SOL    HW228038   4.222   1.133   5.574 -2.5488  1.1912  0.2211
 5469SOL     OW28039   0.900   3.962  12.456  0.4435  0.8065  0.1315
 5469SOL    HW128040   0.874   3.919  12.537  0.8004 -1.6700 -1.0820
 5469SOL    HW228041   0.876   3.895  12.393  2.6861  0.3466 -0.2530
 5470SOL     OW28042   1.807   3.819   1.725 -0.1233 -0.0905  0.0482
 5470SOL    HW128043   1.814   3.801   1.819  4.0954 -0.4843 -0.3655
 5470SOL    HW228044   1.785   3.913   1.723  3.0837  0.6598  0.7258
 5471SOL     OW28045   2.540   0.302   5.744  0.0910 -0.1614  0.5157
 5471SOL    HW128046   2.477   0.366   5.779 -0.4821  0.2409 -1.2680
 5471SOL    HW228047   2.501   0.278   5.660  0.0287  0.3576  0.3991
 5472SOL     OW28048   1.719   2.688   2.147  0.6697  0.2842  0.2441
 5472SOL    HW128049   1.642   2.633   2.137  0.2193  1.0922 -0.6602
 5472SOL    HW228050   1.736   2.726   2.061 -0.8815 -0.2495 -0.2983
 5473SOL     OW28051   1.406   3.052  14.263 -0.2727  0.5400  0.4097
 5473SOL    HW128052   1.485   3.026  14.215 -1.9156  1.3174 -2.7640
 5473SOL    HW228053   1.434   3.124  14.319  0.4056  0.2492  0.4427
 5474SOL     OW28054   3.503   0.444   7.425 -0.0237 -0.0428  0.4704
 5474SOL    HW128055   3.541   0.361   7.452  1.1790  0.4373  0.2572
 5474SOL    HW228056   3.424   0.424   7.374 -1.5069  3.5256  1.3618
 5475SOL     OW28057   0.533   4.351   4.899 -0.4117  0.1694  0.0920
 5475SOL    HW128058   0.625   4.349   4.870 -0.6663 -0.4579 -0.6650
 5475SOL    HW228059   0.551   4.299   4.977  2.7555 -0.9642 -1.3812
 5476SOL     OW28060   1.540   2.494  11.267 -0.4050  0.1976  0.1422
 5476SOL    HW128061   1.502   2.411  11.241  1.1457 -1.3458  2.8538
 5476SOL    HW228062   1.542   2.531  11.179 -1.2943  0.2935  0.1602
 5477SOL     OW28063   0.895   3.536   1.556 -0.5055  0.3574 -0.1835
 5477SOL    HW128064   0.899   3.494   1.470 -1.0859  0.4175 -0.2379
 5477SOL    HW228065   0.987   3.539   1.583 -0.4877 -3.1631  0.1503
 5478SOL     OW28066   0.918   4.272   3.602 -0.7223  0.2493 -0.4420
 5478SOL    HW128067   0.918   4.338   3.672 -1.9208 -0.6766  0.4373
 5478SOL    HW228068   0.824   4.264   3.583 -0.4180  1.4583 -2.3967
 5479SOL     OW28069   3.741   4.644   3.375 -0.2864  0.5452 -0.5924
 5479SOL    HW128070   3.774   4.620   3.462  0.3614  2.2179 -0.3856
 5479SOL    HW228071   3.824   4.649   3.327  0.5623  3.5281  1.1810
 5480SOL     OW28072   4.362   2.639   7.241 -0.0375  0.1589 -0.1061
 5480SOL    HW128073   4.387   2.680   7.158 -0.2859  0.1694 -0.1766
 5480SOL    HW228074   4.414   2.561   7.222  1.7633  1.7825 -1.9491
 5481SOL     OW28075   3.453   3.426   3.811 -0.0626 -0.9457 -0.2053
 5481SOL    HW128076   3.513   3.362   3.849 -2.4382 -2.4016  1.0584
 5481SOL    HW228077   3.464   3.503   3.867 -0.6530 -0.0875 -1.2674
 5482SOL     OW28078   2.276   1.571   4.463  0.6515 -0.4997 -0.2819
 5482SOL    HW128079   2.320   1.647   4.426 -2.3146  1.9156  1.1666
 5482SOL    HW228080   2.341   1.500   4.458 -0.0370 -1.2522  1.3906
 5483SOL     OW28081   4.439   2.674   4.834  0.0268  0.0431 -0.0983
 5483SOL    HW128082   4.440   2.763   4.870  0.5550 -0.3541  0.8825
 5483SOL    HW228083   4.533   2.656   4.824  0.4019  2.2941 -0.7257
 5484SOL     OW28084   4.678   4.324   8.150 -0.0485  0.3801 -0.1135
 5484SOL    HW128085   4.677   4.419   8.150 -0.7867  0.3723  1.7929
 5484SOL    HW228086   0.027   4.305   8.191 -0.9587 -3.4188  0.0061
 5485SOL     OW28087   1.815   4.636  17.021 -0.1953  0.2290 -0.1473
 5485SOL    HW128088   1.858   4.557  16.989 -1.7959  0.4069 -2.7736
 5485SOL    HW228089   1.891   4.673  17.065 -0.0006  0.8161 -0.9764
 5486SOL     OW28090   0.866   2.682  10.143 -0.5625  0.1203 -0.5752
 5486SOL    HW128091   0.938   2.739  10.171 -1.1112  0.3919  0.2655
 5486SOL    HW228092   0.914   2.622  10.086  0.0501 -0.0803  0.1470
 5487SOL     OW28093   1.327   1.908  14.794 -0.1817 -0.7299 -0.7194
 5487SOL    HW128094   1.351   1.977  14.731  1.0541 -0.5239 -0.0052
 5487SOL    HW228095   1.404   1.918  14.849 -0.1072  1.1815 -1.1565
 5488SOL     OW28096   0.431   1.528   4.710  0.6628  0.0430 -0.1757
 5488SOL    HW128097   0.476   1.451   4.744 -3.6386 -1.8794  1.0886
 5488SOL    HW228098   0.365   1.538   4.778  2.0495 -2.0625  1.4649
 5489SOL     OW28099   3.965   3.361  11.828  0.4372 -0.4026  0.0905
 5489SOL    HW128100   3.880   3.350  11.871  0.0414 -1.5901 -0.9771
 5489SOL    HW228101   4.027   3.371  11.900 -1.4822 -0.0819  1.6953
 5490SOL     OW28102   4.326   4.548   6.939 -0.2958 -0.2011  0.0733
 5490SOL    HW128103   4.275   4.591   7.007  0.4208 -0.3851  0.7209
 5490SOL    HW228104   4.268   4.474   6.920 -0.1795 -0.5749  1.1714
 5491SOL     OW28105   4.536   4.682   8.996 -0.4541  0.8067  0.1840
 5491SOL    HW128106   4.442   4.687   8.975 -0.5281  1.0008  0.5722
 5491SOL    HW228107   4.533   4.589   9.022 -1.1355  0.3693 -1.4343
 5492SOL     OW28108   0.710   3.206   7.062  0.6358 -0.4927 -0.1365
 5492SOL    HW128109   0.762   3.168   6.991 -1.6817 -1.8956 -1.0806
 5492SOL    HW228110   0.783   3.239   7.115  0.6516 -2.1123  0.8504
 5493SOL     OW28111   0.872   0.870   3.802  0.1297  0.4287 -0.8796
 5493SOL    HW128112   0.889   0.808   3.730  1.7917  0.1405 -0.2451
 5493SOL    HW228113   0.958   0.904   3.825  0.2182  1.3955 -2.6450
 5494SOL     OW28114   4.521   0.405   0.603  0.0299  0.0472  0.7373
 5494SOL    HW128115   4.538   0.476   0.541 -0.8928 -0.1425  0.2698
 5494SOL    HW228116   4.593   0.413   0.666 -0.7164  0.7717  1.5029
 5495SOL     OW28117   2.959   1.015   5.371  0.1306 -0.4985 -0.7369
 5495SOL    HW128118   2.872   1.029   5.409  0.9799  0.0944  0.9697
 5495SOL    HW228119   2.979   1.105   5.349  2.4080 -0.0995  3.0353
 5496SOL     OW28120   2.083   0.377   2.009  0.2304  0.2749  0.7387
 5496SOL    HW128121   2.048   0.403   1.924  1.5519 -1.9759 -0.4844
 5496SOL    HW228122   2.000   0.376   2.058  1.1522 -3.1461  2.2070
 5497SOL     OW28123   3.337   3.935  12.756  0.2073  0.1724 -0.3513
 5497SOL    HW128124   3.307   3.898  12.838 -1.5586 -1.5314 -1.7522
 5497SOL    HW228125   3.431   3.946  12.772 -0.2810  3.4522  0.3912
 5498SOL     OW28126   0.882   3.572   2.078 -0.1703  0.4231  0.0230
 5498SOL    HW128127   0.835   3.653   2.094 -1.2653 -0.7814  2.9092
 5498SOL    HW228128   0.924   3.598   1.996 -0.6307 -0.0361 -0.3594
 5499SOL     OW28129   0.320   1.495   9.782 -0.8470 -0.3554 -0.1497
 5499SOL    HW128130   0.381   1.544   9.726 -0.6434 -0.7724 -0.2928
 5499SOL    HW228131   0.370   1.413   9.790 -0.8384 -0.2956  0.3883
 5500SOL     OW28132   2.067   3.026   3.632  0.4713 -0.2338 -0.0055
 5500SOL    HW128133   2.004   2.956   3.646  1.5169 -0.6481  2.4698
 5500SOL    HW228134   2.070   3.054   3.723 -0.0989  0.8017 -0.3037
 5501SOL     OW28135   3.470   3.548   2.993  0.1155  0.2893 -0.8939
 5501SOL    HW128136   3.409   3.584   2.929  1.7357  1.3968 -1.8041
 5501SOL    HW228137   3.460   3.454   2.978  3.0913 -0.4519  1.6963
 5502SOL     OW28138   1.322   2.815   1.120 -0.6691 -0.4271 -0.6122
 5502SOL    HW128139   1.358   2.728   1.136 -0.7684 -0.4301 -0.4039
 5502SOL    HW228140   1.374   2.839   1.044  0.1377  1.1473  0.4341
 5503SOL     OW28141   0.378   2.834   6.315 -0.6471 -0.5367 -1.1146
 5503SOL    HW128142   0.423   2.873   6.240 -1.2309 -1.5193 -1.9884
 5503SOL    HW228143   0.293   2.806   6.280  0.2157 -2.3941 -1.6861
 5504SOL     OW28144   1.953   1.399  11.041 -0.3034  0.6953  0.2471
 5504SOL    HW128145   1.930   1.406  10.948 -0.7101 -0.2863  0.2777
 5504SOL    HW228146   2.034   1.351  11.024 -1.0138 -0.9546  1.4982
 5505SOL     OW28147   4.533   1.945   6.322 -0.1212 -0.1663 -0.0226
 5505SOL    HW128148   4.447   1.918   6.354 -0.0341 -0.3055  0.0924
 5505SOL    HW228149   4.565   1.865   6.280 -2.3856 -0.5544 -1.0145
 5506SOL     OW28150   0.662   0.958   0.034  0.1031  0.1280 -0.1577
 5506SOL    HW128151   0.745   0.972  17.729  1.2425  2.3759  2.5967
 5506SOL    HW228152   0.695   0.896   0.100  1.8220  1.0592 -0.1561
 5507SOL     OW28153   3.932   0.731   3.259 -1.0459  0.1302 -0.7459
 5507SOL    HW128154   3.899   0.797   3.198 -0.9477  0.5152 -0.3788
 5507SOL    HW228155   3.992   0.689   3.196 -2.3442 -3.6029  0.5253
 5508SOL     OW28156   2.520   2.583  14.152 -0.5695 -0.0835 -0.1715
 5508SOL    HW128157   2.482   2.620  14.072 -0.0740  2.3939  0.7305
 5508SOL    HW228158   2.609   2.564  14.124 -0.6495 -0.8297  0.0849
 5509SOL     OW28159   3.967   1.722   9.158  0.4396  0.1721 -0.0204
 5509SOL    HW128160   3.942   1.708   9.066  2.4978  2.8807 -1.0007
 5509SOL    HW228161   4.028   1.795   9.145  0.7190 -0.0185  0.2315
 5510SOL     OW28162   3.571   3.801  11.634  0.0159 -0.7142  0.2743
 5510SOL    HW128163   3.652   3.754  11.616 -0.6660 -0.9770 -2.0964
 5510SOL    HW228164   3.605   3.841  11.714  0.8328 -0.6585 -0.0958
 5511SOL     OW28165   0.864   0.647  17.013 -0.2779  0.6838  0.3998
 5511SOL    HW128166   0.954   0.624  17.037 -0.7074  0.4378  1.7722
 5511SOL    HW228167   0.871   0.675  16.921 -0.8652  0.6355  0.3428
 5512SOL     OW28168   0.706   0.750  17.525  0.0043 -0.0236  0.0597
 5512SOL    HW128169   0.616   0.773  17.544 -0.1271  0.2978 -0.9532
 5512SOL    HW228170   0.722   0.665  17.568 -1.8019 -1.7385 -2.6573
 5513SOL     OW28171   1.479   2.125   1.353 -0.1374 -0.4297 -0.1973
 5513SOL    HW128172   1.509   2.178   1.279  2.3346 -2.4254 -0.6115
 5513SOL    HW228173   1.414   2.067   1.312 -1.6589  0.8268  0.4279
 5514SOL     OW28174   2.360   3.473   3.171 -0.2199  0.0085 -0.2796
 5514SOL    HW128175   2.339   3.405   3.235  1.1169  1.0357  1.2428
 5514SOL    HW228176   2.395   3.548   3.219 -0.2918  0.2876 -0.6649
 5515SOL     OW28177   3.291   1.241   5.527 -0.0886 -0.4296  0.2375
 5515SOL    HW128178   3.299   1.323   5.479 -3.2613 -2.8221 -4.3320
 5515SOL    HW228179   3.285   1.262   5.621 -1.9716 -0.1299  0.0503
 5516SOL     OW28180   2.109   2.298   5.218 -0.0814  0.7082 -0.0906
 5516SOL    HW128181   2.141   2.330   5.133  2.5242 -0.3582  0.4829
 5516SOL    HW228182   2.093   2.384   5.258  0.0695  0.6513  0.0899
 5517SOL     OW28183   4.254   0.699   8.727  0.7216  0.2465  0.4692
 5517SOL    HW128184   4.236   0.790   8.704  0.0489  0.6151  2.4955
 5517SOL    HW228185   4.207   0.687   8.809 -0.6064 -0.9917 -0.4724
 5518SOL     OW28186   3.348   4.388   5.220  0.6939 -0.7309 -0.1800
 5518SOL    HW128187   3.309   4.465   5.178 -0.7312 -0.9105  0.8295
 5518SOL    HW228188   3.312   4.392   5.308  1.2677 -0.2563  0.0317
 5519SOL     OW28189   1.272   1.424  10.785 -0.1721 -0.3139  0.1354
 5519SOL    HW128190   1.306   1.416  10.874  1.1578  2.7149 -0.0942
 5519SOL    HW228191   1.182   1.445  10.809 -0.4815 -0.1184 -1.1952
 5520SOL     OW28192   2.872   1.360   5.904  0.5003  0.2128 -0.0081
 5520SOL    HW128193   2.822   1.440   5.922 -0.1970 -0.3444  0.4953
 5520SOL    HW228194   2.956   1.393   5.872 -0.0500  1.3159 -0.3249
 5521SOL     OW28195   3.276   2.706   2.574  0.6638  0.2261 -0.1744
 5521SOL    HW128196   3.188   2.679   2.547  0.8687 -3.0385  2.3656
 5521SOL    HW228197   3.280   2.787   2.523 -1.4126  0.1412 -0.4605
 5522SOL     OW28198   3.313   4.711   8.343 -0.4166  0.2970  0.1100
 5522SOL    HW128199   3.373   4.689   8.272 -0.0923  0.2874  0.3835
 5522SOL    HW228200   3.271   0.053   8.306 -1.0837 -0.4522 -0.6833
 5523SOL     OW28201   0.283   1.875   5.191  0.4377  0.2475 -0.4374
 5523SOL    HW128202   0.317   1.879   5.281 -2.0578 -0.9185  0.5408
 5523SOL    HW228203   0.353   1.826   5.147 -1.7156 -0.3419 -3.2284
 5524SOL     OW28204   2.288   2.719  16.562  0.1001  0.4811  0.3872
 5524SOL    HW128205   2.216   2.680  16.611  0.4195  2.5683  2.5070
 5524SOL    HW228206   2.288   2.812  16.586  0.9237  0.2827  1.1567
 5525SOL     OW28207   4.275   1.519  13.178 -0.4636  0.1970 -0.4582
 5525SOL    HW128208   4.226   1.581  13.232 -1.4451 -1.0707  0.1008
 5525SOL    HW228209   4.342   1.579  13.145  0.1123 -0.1099  0.1644
 5526SOL     OW28210   0.183   2.090   8.138  0.5230  0.7036 -0.7204
 5526SOL    HW128211   0.184   2.151   8.211 -2.5308 -1.9475  1.5487
 5526SOL    HW228212   0.268   2.045   8.144 -0.3819 -0.9524 -0.2089
 5527SOL     OW28213   0.557   0.201  12.833  0.6710  0.5464 -0.0493
 5527SOL    HW128214   0.463   0.206  12.853  0.6912  1.5985 -0.2566
 5527SOL    HW228215   0.598   0.253  12.902  2.3718 -0.3793 -0.3624
 5528SOL     OW28216   1.679   3.293  14.260 -0.3734 -0.6850 -0.0451
 5528SOL    HW128217   1.619   3.315  14.332  2.3684 -0.9410  2.2826
 5528SOL    HW228218   1.759   3.339  14.285 -0.9209  0.2439  0.0197
 5529SOL     OW28219   0.291   1.352   3.784  0.6465  0.1702 -0.1605
 5529SOL    HW128220   0.304   1.309   3.699  1.9311  0.3411 -0.0451
 5529SOL    HW228221   0.368   1.323   3.833 -1.3883 -2.7797  1.2843
 5530SOL     OW28222   1.861   1.150   8.688  0.1797 -0.4648  0.1362
 5530SOL    HW128223   1.819   1.152   8.602  1.3008 -2.4658 -0.4469
 5530SOL    HW228224   1.943   1.196   8.666  1.6891 -2.2363  2.1398
 5531SOL     OW28225   2.150   0.082   6.109  0.6211 -0.0496  0.4650
 5531SOL    HW128226   2.193   0.154   6.155  0.5164 -0.1026  0.6456
 5531SOL    HW228227   2.140   0.040   6.194  1.4046 -0.3839  0.3835
 5532SOL     OW28228   1.843   0.381   1.788 -0.4261  0.3515  0.1268
 5532SOL    HW128229   1.784   0.456   1.780  0.7723  1.0423 -2.2396
 5532SOL    HW228230   1.920   0.429   1.759  1.4007 -1.8119  1.3777
 5533SOL     OW28231   3.593   0.095   1.163 -0.1827 -0.2791 -0.4325
 5533SOL    HW128232   3.592   4.735   1.166  2.1067 -0.2141  2.5806
 5533SOL    HW228233   3.673   0.106   1.215  0.4698 -2.3778 -0.9654
 5534SOL     OW28234   3.035   0.642   8.527  0.1220  0.0708  0.1265
 5534SOL    HW128235   2.975   0.618   8.598 -1.2091 -0.2715 -1.1038
 5534SOL    HW228236   3.078   0.556   8.525 -0.6234 -0.3184  0.9797
 5535SOL     OW28237   1.283   4.452   6.713  0.4704 -0.4927  0.5820
 5535SOL    HW128238   1.352   4.483   6.655 -1.0206  1.6661 -0.0512
 5535SOL    HW228239   1.330   4.448   6.796  1.0516  1.8979  0.3714
 5536SOL     OW28240   1.391   2.442  13.603 -0.3110 -0.1431 -0.8200
 5536SOL    HW128241   1.458   2.491  13.651 -1.5586  1.4051 -0.6561
 5536SOL    HW228242   1.330   2.510  13.573  0.0588  0.4049 -0.3398
 5537SOL     OW28243   0.958   0.428   5.914 -0.6847 -0.2671  0.4337
 5537SOL    HW128244   0.943   0.523   5.910 -1.2790 -0.4521 -1.9103
 5537SOL    HW228245   1.041   0.410   5.871 -0.5387  1.5135 -0.0457
 5538SOL     OW28246   0.497   2.357   7.707  0.3047  0.3436  0.5062
 5538SOL    HW128247   0.406   2.339   7.683 -0.2275 -0.0489  2.9050
 5538SOL    HW228248   0.536   2.270   7.704  0.0823  0.2310  0.9704
 5539SOL     OW28249   0.378   4.190   4.646 -0.2933 -0.5177 -0.0625
 5539SOL    HW128250   0.309   4.124   4.656 -0.7536 -0.0866 -0.4281
 5539SOL    HW228251   0.433   4.152   4.715  2.1695  2.0586 -0.6403
 5540SOL     OW28252   3.483   0.262  13.821 -0.6840  0.1785  0.0707
 5540SOL    HW128253   3.567   0.289  13.786 -0.7908  0.4126 -0.0109
 5540SOL    HW228254   3.466   0.192  13.758 -2.4773  2.2756 -1.8185
 5541SOL     OW28255   2.654   0.439  10.650 -0.0893  0.3379  0.3036
 5541SOL    HW128256   2.587   0.376  10.677  1.0596 -0.8547  0.3451
 5541SOL    HW228257   2.674   0.403  10.563 -0.5946 -0.2560  0.4304
 5542SOL     OW28258   1.797   3.951   3.161 -0.0108 -0.0978 -0.2408
 5542SOL    HW128259   1.758   3.936   3.247 -1.3895  2.1442 -0.4926
 5542SOL    HW228260   1.872   3.891   3.162 -1.3493 -1.7956 -1.5741
 5543SOL     OW28261   1.720   0.307  10.058  0.3177  0.1249 -0.0750
 5543SOL    HW128262   1.787   0.240  10.069  2.1561  2.0349  0.3183
 5543SOL    HW228263   1.697   0.322  10.150 -1.9433 -0.2617 -0.5718
 5544SOL     OW28264   3.764   0.457   9.544  0.0526 -0.0491  0.3486
 5544SOL    HW128265   3.786   0.480   9.634  2.4858  0.0901 -0.2594
 5544SOL    HW228266   3.854   0.442   9.513  0.1837  0.4862  0.4629
 5545SOL     OW28267   1.083   2.620   8.867 -0.2302  0.0012 -0.1713
 5545SOL    HW128268   1.001   2.629   8.915  0.5452  2.0046  0.7460
 5545SOL    HW228269   1.116   2.548   8.921  0.7014  0.0513 -0.6746
 5546SOL     OW28270   0.142   3.694   5.842 -0.3797  0.1011 -0.4892
 5546SOL    HW128271   0.138   3.610   5.888 -1.8659 -0.5781 -1.8555
 5546SOL    HW228272   0.089   3.676   5.764  0.7565  0.2867 -1.3142
 5547SOL     OW28273   0.369   3.055  16.828 -0.6735  0.3901 -0.2334
 5547SOL    HW128274   0.457   3.026  16.802 -2.0997 -2.5307 -1.8599
 5547SOL    HW228275   0.346   3.111  16.754 -3.6250 -2.1504 -1.2507
 5548SOL     OW28276   1.461   2.959   5.548 -0.1731 -0.2750  0.3880
 5548SOL    HW128277   1.467   2.958   5.644  0.6613 -1.0441  0.3232
 5548SOL    HW228278   1.390   3.022   5.541 -1.5470 -2.0506 -1.7394
 5549SOL     OW28279   1.236   3.340   4.085 -0.0608 -0.4267 -0.9355
 5549SOL    HW128280   1.294   3.408   4.118 -0.5898 -0.2464 -0.4032
 5549SOL    HW228281   1.198   3.317   4.170 -0.3827  2.0060 -0.4453
 5550SOL     OW28282   0.539   3.820   5.989 -0.3642  0.4869  0.0693
 5550SOL    HW128283   0.460   3.767   5.994  0.0802 -0.1068  0.7439
 5550SOL    HW228284   0.588   3.785   6.064 -1.3582 -0.8098  0.1154
 5551SOL     OW28285   3.048   1.270   2.665  0.5212  0.1292 -0.8590
 5551SOL    HW128286   2.976   1.333   2.670  0.7473  0.1063  2.7416
 5551SOL    HW228287   3.122   1.314   2.708  1.0288 -0.9171 -0.6518
 5552SOL     OW28288   3.034   2.436   6.561 -0.2946  0.4210  0.0330
 5552SOL    HW128289   2.951   2.404   6.526 -0.1607 -1.5144  1.4895
 5552SOL    HW228290   3.024   2.531   6.554  0.0715  0.3915 -0.8311
 5553SOL     OW28291   3.889   2.801  13.300  0.8647 -0.1888 -0.3214
 5553SOL    HW128292   3.966   2.858  13.294  1.2142 -0.7005 -0.6738
 5553SOL    HW228293   3.888   2.773  13.391  1.6241 -3.3395 -1.2767
 5554SOL     OW28294   3.357   1.374  17.125  0.3231  0.3569 -0.0149
 5554SOL    HW128295   3.395   1.288  17.105 -1.2401 -0.8841  2.2279
 5554SOL    HW228296   3.268   1.353  17.154  1.2728 -1.4800  1.6099
 5555SOL     OW28297   2.527   3.140   6.120 -0.0732 -0.3502  0.2222
 5555SOL    HW128298   2.485   3.135   6.034 -1.2542  1.0896  0.7047
 5555SOL    HW228299   2.452   3.176   6.168 -0.4818 -0.3446 -0.4142
 5556SOL     OW28300   2.536   1.041  12.812 -0.5837 -0.3124  0.8547
 5556SOL    HW128301   2.499   1.028  12.899 -0.2752 -2.5305  0.6547
 5556SOL    HW228302   2.470   1.085  12.759  0.8588 -0.1597 -0.8226
 5557SOL     OW28303   2.593   2.227  10.142 -0.4403 -0.5114  0.0820
 5557SOL    HW128304   2.656   2.155  10.151 -3.2721 -2.8402  1.3329
 5557SOL    HW228305   2.534   2.205  10.213 -0.5894 -0.6744 -0.0907
 5558SOL     OW28306   4.703   3.204  12.109 -0.2514 -0.1934 -0.8299
 5558SOL    HW128307   0.048   3.168  12.147 -0.5847  1.1076  1.1313
 5558SOL    HW228308   0.001   3.266  12.044  0.5696  1.3057  1.0090
 5559SOL     OW28309   0.372   0.829  14.463 -0.4789 -0.2916  0.5460
 5559SOL    HW128310   0.370   0.903  14.523 -1.1722  0.5608 -0.5525
 5559SOL    HW228311   0.440   0.850  14.399 -1.7269  0.8708 -0.3920
 5560SOL     OW28312   0.522   0.857   5.580 -0.2174 -0.1174 -0.1179
 5560SOL    HW128313   0.564   0.894   5.657  0.9421  0.3149 -0.9512
 5560SOL    HW228314   0.593   0.800   5.551  0.3524  0.0304  0.9994
 5561SOL     OW28315   1.605   1.322   2.313 -0.2968  0.4236  0.6038
 5561SOL    HW128316   1.614   1.410   2.349  1.5489  0.7522 -0.6749
 5561SOL    HW228317   1.671   1.327   2.244 -2.7120  0.7289 -1.6606
 5562SOL     OW28318   2.393   1.613   6.547  0.0406  0.2496  0.7924
 5562SOL    HW128319   2.377   1.567   6.629 -0.4573  1.4732  1.3700
 5562SOL    HW228320   2.404   1.536   6.490  1.2423  0.7528  0.3348
 5563SOL     OW28321   0.579   0.863   2.970 -0.0409 -0.5276 -0.0916
 5563SOL    HW128322   0.595   0.790   2.911 -0.7009  1.4021 -2.6242
 5563SOL    HW228323   0.594   0.938   2.912 -1.5105 -0.7880 -0.7955
 5564SOL     OW28324   0.825   4.660   8.150  0.1766  0.6045  0.0760
 5564SOL    HW128325   0.907   4.710   8.146 -0.3889  1.5419  0.2022
 5564SOL    HW228326   0.770   4.712   8.209  0.4192  1.7256 -0.6667
 5565SOL     OW28327   4.461   2.136  17.010  0.2639 -0.0070 -0.6570
 5565SOL    HW128328   4.554   2.154  16.999  0.4383 -0.7711 -0.4597
 5565SOL    HW228329   4.451   2.168  17.099  0.0793  0.9353 -1.0191
 5566SOL     OW28330   3.248   3.623   5.569 -0.2625  0.1792 -0.4136
 5566SOL    HW128331   3.264   3.568   5.645 -0.0069 -0.7350 -1.1250
 5566SOL    HW228332   3.334   3.618   5.527  0.2493  1.2036  0.4966
 5567SOL     OW28333   1.045   2.833   1.195 -0.2644 -0.4937 -0.0403
 5567SOL    HW128334   1.002   2.796   1.117 -0.3888  1.4201 -0.8634
 5567SOL    HW228335   1.137   2.834   1.169 -0.1364  0.8547  0.5118
 5568SOL     OW28336   3.674   2.286   0.707 -0.1591 -0.1874 -0.3669
 5568SOL    HW128337   3.642   2.287   0.617 -2.0889 -1.7027  0.2867
 5568SOL    HW228338   3.748   2.346   0.696 -0.3427  0.0387 -0.3648
 5569SOL     OW28339   1.655   3.527   5.045 -0.0603 -0.0635  0.2301
 5569SOL    HW128340   1.709   3.465   5.095  0.4888  0.1453 -0.1074
 5569SOL    HW228341   1.578   3.516   5.102  0.4003 -5.4266 -0.1758
 5570SOL     OW28342   0.623   0.141   9.174 -0.3442  0.2574 -0.4328
 5570SOL    HW128343   0.704   0.189   9.157 -1.1387  1.0639 -1.9568
 5570SOL    HW228344   0.608   0.164   9.266  3.0922 -1.8820  0.6530
 5571SOL     OW28345   4.725   3.671   9.694  0.6935 -0.2203  0.0675
 5571SOL    HW128346   0.058   3.613   9.661  0.5752 -0.7387  0.7425
 5571SOL    HW228347   4.661   3.601   9.706  0.3799  0.2667  1.2817
 5572SOL     OW28348   0.315   1.302   2.034  0.2163  0.3642 -0.0079
 5572SOL    HW128349   0.279   1.218   2.004  0.9821  1.1355 -3.0081
 5572SOL    HW228350   0.250   1.360   1.994  0.6443  0.5081 -0.4801
 5573SOL     OW28351   2.413   4.402   7.147  0.0179 -0.3146  0.6432
 5573SOL    HW128352   2.398   4.460   7.222 -0.6824 -0.8113  0.8816
 5573SOL    HW228353   2.360   4.447   7.081 -0.4867  0.0748  1.3219
 5574SOL     OW28354   1.335   4.155   2.033  0.4850  1.0467  0.3456
 5574SOL    HW128355   1.426   4.130   2.048 -0.1109 -1.7760 -0.8171
 5574SOL    HW228356   1.325   4.142   1.939 -0.0836  0.0002  0.5581
 5575SOL     OW28357   3.148   1.641   3.210 -0.2635  0.2778 -0.8296
 5575SOL    HW128358   3.217   1.700   3.239  0.5948 -0.0898 -2.1072
 5575SOL    HW228359   3.137   1.678   3.122  1.9536  1.2028 -0.7091
 5576SOL     OW28360   2.762   2.800  12.335  0.0023  0.2831  0.5060
 5576SOL    HW128361   2.716   2.849  12.267  0.3212  0.8923  0.7325
 5576SOL    HW228362   2.842   2.850  12.347 -1.8300  3.7634 -1.8290
 5577SOL     OW28363   1.673   0.969  15.021 -0.1292  0.1778  0.3304
 5577SOL    HW128364   1.670   0.964  15.116  3.8486  0.1362  0.4419
 5577SOL    HW228365   1.646   1.060  15.006  2.3644  0.8237 -0.2736
 5578SOL     OW28366   3.806   1.910   4.930 -0.1295  0.0212  0.2328
 5578SOL    HW128367   3.743   1.841   4.951 -0.1207  0.1054  0.5211
 5578SOL    HW228368   3.788   1.919   4.836  2.6874  1.8945 -0.1159
 5579SOL     OW28369   1.459   0.892   7.924 -0.1233 -0.2045 -0.2698
 5579SOL    HW128370   1.422   0.945   7.994 -0.5415 -1.6145  0.5813
 5579SOL    HW228371   1.484   0.819   7.981 -0.6174  0.5411  0.8997
 5580SOL     OW28372   1.235   4.705   7.722 -0.4502 -0.6028 -0.0625
 5580SOL    HW128373   1.162   4.733   7.666 -1.0978 -2.0983  0.0388
 5580SOL    HW228374   1.261   4.625   7.678 -3.1321 -0.6425 -1.6006
 5581SOL     OW28375   0.828   2.454   1.674 -0.2882  0.2249  0.7430
 5581SOL    HW128376   0.800   2.545   1.686  2.1333  1.3196 -1.8070
 5581SOL    HW228377   0.799   2.420   1.758 -0.4657 -2.2798 -0.3464
 5582SOL     OW28378   3.831   4.239  10.200  0.3967 -0.1641  0.0841
 5582SOL    HW128379   3.821   4.197  10.286 -0.1129 -0.5783 -0.1768
 5582SOL    HW228380   3.853   4.161  10.149  0.1898  0.1047 -0.4147
 5583SOL     OW28381   3.779   1.765  14.433 -0.4124  0.6124  0.5527
 5583SOL    HW128382   3.687   1.753  14.457 -0.4199  0.0666  0.2495
 5583SOL    HW228383   3.780   1.822  14.356  0.3323  1.2989  1.0776
 5584SOL     OW28384   1.936   0.163   8.691  0.3302  0.3671 -0.0388
 5584SOL    HW128385   1.890   0.245   8.710 -2.2090 -0.8630 -0.9873
 5584SOL    HW228386   1.885   0.102   8.742 -0.5834  1.9938  0.9942
 5585SOL     OW28387   4.298   3.435  16.263  0.2376 -0.2363 -0.2043
 5585SOL    HW128388   4.207   3.466  16.267  0.0179 -0.9126  0.0794
 5585SOL    HW228389   4.312   3.425  16.169  2.4212 -1.4518  0.2624
 5586SOL     OW28390   3.532   3.164  15.166 -0.0326 -0.2017  0.3783
 5586SOL    HW128391   3.518   3.214  15.246 -1.5829  0.3940 -0.2674
 5586SOL    HW228392   3.449   3.171  15.117  0.3776  0.3869 -0.2318
 5587SOL     OW28393   0.512   2.208   8.942 -0.3679 -0.1632  0.5081
 5587SOL    HW128394   0.421   2.217   8.973  0.0882  0.4441  1.6854
 5587SOL    HW228395   0.529   2.288   8.892 -0.4991 -0.5226 -0.1118
 5588SOL     OW28396   1.054   4.102  17.084  0.2663  0.9018 -0.5816
 5588SOL    HW128397   1.044   4.152  17.166 -0.2393 -2.3682  1.3328
 5588SOL    HW228398   1.031   4.167  17.017  1.4300  2.0374  0.1123
 5589SOL     OW28399   2.594   0.946   1.008  0.2493 -1.0613 -0.1751
 5589SOL    HW128400   2.621   0.971   0.919  1.5286  0.5097  0.6534
 5589SOL    HW228401   2.669   0.918   1.060  0.0096  0.4085  0.9589
 5590SOL     OW28402   1.606   1.005   0.146 -0.4538 -0.2352 -0.2219
 5590SOL    HW128403   1.684   1.054   0.121 -2.0189  2.8009  0.8482
 5590SOL    HW228404   1.636   0.947   0.216  0.2376 -3.2063 -2.9536
 5591SOL     OW28405   0.636   4.680   6.444  0.4050  0.5357  0.0398
 5591SOL    HW128406   0.709   4.653   6.500  1.5212  4.0499  0.2859
 5591SOL    HW228407   0.649   0.039   6.441  1.9923  0.2484 -2.2444
 5592SOL     OW28408   3.281   4.517   7.812 -0.4060 -0.2655  0.0492
 5592SOL    HW128409   3.199   4.528   7.765 -0.5737 -3.4318 -0.4108
 5592SOL    HW228410   3.327   4.599   7.797  0.0904 -0.9667 -2.1393
 5593SOL     OW28411   3.383   0.051   3.940 -0.5716  0.7220  0.5109
 5593SOL    HW128412   3.375   0.144   3.920  1.9298  1.5841  3.4712
 5593SOL    HW228413   3.326   0.041   4.016  1.0013  1.4598  1.7823
 5594SOL     OW28414   3.484   2.672  10.330 -0.4788  0.2772 -0.3501
 5594SOL    HW128415   3.437   2.749  10.359 -0.0460 -0.3660  2.0766
 5594SOL    HW228416   3.567   2.709  10.300 -0.0828  0.3570  0.8324
 5595SOL     OW28417   3.472   2.511   8.831  0.0196 -0.0898 -0.3873
 5595SOL    HW128418   3.448   2.509   8.924 -2.4612  0.1110 -1.0287
 5595SOL    HW228419   3.391   2.478   8.791  0.0436 -0.1177 -0.4122
 5596SOL     OW28420   0.090   1.285   1.738 -0.3454 -0.1558 -0.2081
 5596SOL    HW128421   0.040   1.205   1.753  0.8094 -0.5990  1.2768
 5596SOL    HW228422   0.171   1.242   1.714 -0.9266  0.0713 -2.5393
 5597SOL     OW28423   1.098   0.378   6.280 -0.0317  0.0195  0.1219
 5597SOL    HW128424   1.189   0.385   6.309 -0.2258 -0.9343  0.9625
 5597SOL    HW228425   1.109   0.291   6.241 -0.4246  0.2792 -0.5688
 5598SOL     OW28426   3.407   2.123   7.449  0.3090  0.5349 -0.0251
 5598SOL    HW128427   3.477   2.059   7.462  0.6233  1.0065  0.5937
 5598SOL    HW228428   3.459   2.203   7.441  2.7722 -0.9087  1.2958
 5599SOL     OW28429   0.357   3.737   3.440 -1.0973  0.1125  0.1399
 5599SOL    HW128430   0.309   3.657   3.460 -0.3889 -0.9266 -2.3970
 5599SOL    HW228431   0.418   3.711   3.371 -0.4233  1.6289  0.1410
 5600SOL     OW28432   3.006   4.499   3.433 -0.3045  0.5203  0.2473
 5600SOL    HW128433   3.073   4.566   3.418 -0.1159 -0.1178 -1.6664
 5600SOL    HW228434   3.036   4.478   3.522  2.2073  2.0154 -0.2433
 5601SOL     OW28435   0.085   2.497   9.591  0.0300 -0.1109  0.2144
 5601SOL    HW128436   0.088   2.457   9.505  1.9732  0.6249 -0.0702
 5601SOL    HW228437   0.111   2.421   9.642  1.8013 -0.1391 -0.7371
 5602SOL     OW28438   2.803   0.929   7.409 -0.3162  0.2025  0.0884
 5602SOL    HW128439   2.883   0.956   7.455 -0.8428  1.0608  0.5029
 5602SOL    HW228440   2.830   0.853   7.357 -0.0950 -1.0508  2.0565
 5603SOL     OW28441   2.694   3.791  17.736  0.3084  0.3251 -0.2325
 5603SOL    HW128442   2.710   3.881   0.022  2.3706 -0.5473  1.5298
 5603SOL    HW228443   2.603   3.776   0.021  0.3460 -0.9916 -0.8473
 5604SOL     OW28444   1.790   2.070   6.018  0.0583 -0.1555 -0.1595
 5604SOL    HW128445   1.706   2.056   6.061  0.4282 -2.3353 -0.1327
 5604SOL    HW228446   1.810   1.978   5.999  1.1184 -0.2901  1.6227
 5605SOL     OW28447   3.489   2.248   5.141  0.8549 -0.1228  0.1466
 5605SOL    HW128448   3.443   2.305   5.202  0.3674  1.3910 -1.6295
 5605SOL    HW228449   3.419   2.221   5.082 -0.0619 -0.7306  1.5135
 5606SOL     OW28450   3.059   0.420  13.639 -0.9674 -0.4089 -0.3724
 5606SOL    HW128451   3.064   0.482  13.567  0.7526 -0.6067 -0.4362
 5606SOL    HW228452   3.116   0.451  13.709 -1.4411 -2.1459  0.8030
 5607SOL     OW28453   0.550   1.486   8.130 -0.0339  0.4039 -0.0956
 5607SOL    HW128454   0.626   1.459   8.079 -0.7533 -2.0219  0.1419
 5607SOL    HW228455   0.553   1.581   8.113  2.5317  0.1134 -1.2579
 5608SOL     OW28456   1.036   2.599   8.010 -0.1371  0.3032  0.5726
 5608SOL    HW128457   0.963   2.642   7.966 -1.1575 -0.0997  1.8880
 5608SOL    HW228458   1.038   2.650   8.091  1.3163  0.2983  0.5444
 5609SOL     OW28459   2.184   1.935  16.372 -0.0796 -0.4930 -0.3940
 5609SOL    HW128460   2.271   1.920  16.334  0.1837  0.0623 -0.0179
 5609SOL    HW228461   2.147   2.003  16.316  0.9895  0.5250  0.1284
 5610SOL     OW28462   2.754   2.838   4.849 -0.1922  0.1909 -0.7816
 5610SOL    HW128463   2.771   2.915   4.795 -2.0790  1.3625  0.3196
 5610SOL    HW228464   2.830   2.782   4.827 -0.8468 -0.5564 -1.1577
 5611SOL     OW28465   3.465   1.916  16.549  0.1560 -0.6675  0.1768
 5611SOL    HW128466   3.377   1.878  16.555 -1.1161  2.4078  0.9788
 5611SOL    HW228467   3.508   1.890  16.468 -0.2153  1.1486 -0.5918
 5612SOL     OW28468   1.879   0.352   7.541  0.1590  0.6648  0.0159
 5612SOL    HW128469   1.819   0.290   7.582  1.2538 -1.3883 -1.4662
 5612SOL    HW228470   1.961   0.336   7.588  0.0699 -0.5931 -0.2588
 5613SOL     OW28471   4.190   3.466   9.002 -0.1426  0.1723  0.0563
 5613SOL    HW128472   4.179   3.547   9.053  0.5220  1.1247 -1.3010
 5613SOL    HW228473   4.127   3.405   9.040  2.3183 -2.5527 -0.2645
 5614SOL     OW28474   0.522   0.488   6.264  0.3736  0.1182 -0.8952
 5614SOL    HW128475   0.493   0.459   6.178 -1.4886  1.1951 -0.6192
 5614SOL    HW228476   0.614   0.491   6.238  0.8726 -1.4586  0.6680
 5615SOL     OW28477   1.978   1.989   4.989 -0.1730  0.2420 -0.3366
 5615SOL    HW128478   2.022   1.917   4.944  1.3013  1.6460 -1.1699
 5615SOL    HW228479   2.053   2.029   5.033  0.6781  1.2005 -2.6657
 5616SOL     OW28480   1.988   3.387   9.590 -0.8212 -0.1248  0.4744
 5616SOL    HW128481   2.052   3.433   9.535 -1.5799  0.0324 -0.2744
 5616SOL    HW228482   2.049   3.357   9.657  0.6611  0.0297 -0.8160
 5617SOL     OW28483   0.592   2.038   7.825  0.2405 -0.0288  0.0515
 5617SOL    HW128484   0.688   2.039   7.824  0.2466 -0.5557  1.0129
 5617SOL    HW228485   0.567   1.961   7.876  0.5253 -1.4952 -2.0132
 5618SOL     OW28486   4.387   3.420   5.396  1.0612 -0.5552 -0.2760
 5618SOL    HW128487   4.363   3.490   5.457  0.9416  0.8681 -1.9720
 5618SOL    HW228488   4.417   3.473   5.323 -1.5827  1.9428  0.4669
 5619SOL     OW28489   3.082   0.847   9.734  0.3594  0.0243 -0.2107
 5619SOL    HW128490   3.055   0.862   9.824  0.0537  0.2424 -0.3410
 5619SOL    HW228491   3.046   0.926   9.693  1.4740  0.3417 -0.5847
 5620SOL     OW28492   3.787   2.595   3.011  0.8987 -0.3418  0.1104
 5620SOL    HW128493   3.829   2.524   3.060  0.4365 -1.4410 -1.0934
 5620SOL    HW228494   3.799   2.672   3.068  1.3813  0.4440 -1.0526
 5621SOL     OW28495   0.919   2.854  16.168 -0.4027 -0.0387 -0.5524
 5621SOL    HW128496   0.978   2.859  16.243 -0.8679 -3.7100  0.0779
 5621SOL    HW228497   0.905   2.946  16.146 -2.0622 -0.2562 -0.4355
 5622SOL     OW28498   4.026   3.736   8.214 -0.5724 -0.0275  0.0572
 5622SOL    HW128499   3.987   3.694   8.138 -1.7847  1.9673 -0.4387
 5622SOL    HW228500   4.098   3.787   8.177 -2.1594  1.4055 -1.0903
 5623SOL     OW28501   0.781   0.739   4.319 -0.2965 -0.4963 -0.1185
 5623SOL    HW128502   0.867   0.716   4.283  0.3231 -0.7674  1.5336
 5623SOL    HW228503   0.720   0.712   4.250  1.3559  2.0428 -2.5760
 5624SOL     OW28504   4.063   1.963   2.326 -0.4776  0.2690 -0.1773
 5624SOL    HW128505   4.119   1.975   2.250 -1.5592  1.3476 -0.7991
 5624SOL    HW228506   4.065   2.047   2.371  0.0408 -0.6934  1.6291
 5625SOL     OW28507   2.302   4.573   6.949 -0.5420 -0.0242  0.6672
 5625SOL    HW128508   2.222   4.608   6.909  1.0312  0.9092 -1.6490
 5625SOL    HW228509   2.324   4.649   7.002  2.6319  0.0524 -0.8037
 5626SOL     OW28510   3.253   0.463   7.114  0.5315  0.1462 -0.3387
 5626SOL    HW128511   3.304   0.395   7.071  1.1767 -0.0640  0.7741
 5626SOL    HW228512   3.188   0.486   7.047 -1.0546  0.3981  1.2800
 5627SOL     OW28513   2.574   2.981   9.035  0.3573  0.1962  0.1170
 5627SOL    HW128514   2.543   3.052   8.980  0.6997  0.1674 -0.1160
 5627SOL    HW228515   2.492   2.934   9.049 -0.6243  1.4394 -1.5835
 5628SOL     OW28516   2.579   2.602   6.399  1.0957  0.1508  0.4473
 5628SOL    HW128517   2.583   2.508   6.383  1.0113 -0.0441  1.6031
 5628SOL    HW228518   2.652   2.644   6.354  0.6107 -0.9223 -1.3377
 5629SOL     OW28519   3.859   1.236   1.818  0.0889 -0.4173  0.2796
 5629SOL    HW128520   3.945   1.207   1.848 -0.6162 -0.3616  2.3466
 5629SOL    HW228521   3.827   1.166   1.761 -1.1239  1.6652 -1.6148
 5630SOL     OW28522   3.044   0.405   1.937 -0.1370 -0.4034  0.2146
 5630SOL    HW128523   3.134   0.386   1.914  0.0449  0.9001 -0.1563
 5630SOL    HW228524   3.015   0.464   1.867  1.2967 -0.0843 -0.0932
 5631SOL     OW28525   0.722   1.822   5.669  0.0987  0.3909  0.8545
 5631SOL    HW128526   0.815   1.801   5.657  0.3077  1.8207 -0.0569
 5631SOL    HW228527   0.723   1.913   5.638  1.0179  0.0764 -0.0440
 5632SOL     OW28528   2.508   3.200   3.789 -0.2555  0.3547 -0.1616
 5632SOL    HW128529   2.586   3.173   3.741  0.7547  1.0611  1.0858
 5632SOL    HW228530   2.446   3.169   3.723 -0.7515  1.1972 -0.0885
 5633SOL     OW28531   1.328   2.793   2.288 -0.3828 -0.2524  0.0065
 5633SOL    HW128532   1.374   2.712   2.264 -1.9906 -0.8016 -1.1755
 5633SOL    HW228533   1.236   2.768   2.289 -1.1917  2.8012  0.9023
 5634SOL     OW28534   2.519   3.641   7.697  0.3335  0.6155  0.2779
 5634SOL    HW128535   2.579   3.716   7.703  1.3107 -0.3144  2.1997
 5634SOL    HW228536   2.438   3.688   7.715 -0.5666  0.3587 -3.1652
 5635SOL     OW28537   0.171   4.414   2.001 -0.0241 -0.5081  0.0815
 5635SOL    HW128538   0.077   4.402   2.010  0.3052 -3.6314 -0.6215
 5635SOL    HW228539   0.202   4.325   2.017  2.1129  0.3342  0.7536
 5636SOL     OW28540   1.112   2.922   7.194  0.4882  0.2990  0.1901
 5636SOL    HW128541   1.175   2.866   7.241  1.0764 -0.6656 -1.7502
 5636SOL    HW228542   1.042   2.861   7.175  0.9238 -0.5388  1.2786
 5637SOL     OW28543   4.646   3.818  13.077  0.1171 -0.6183 -0.1231
 5637SOL    HW128544   4.635   3.723  13.068  2.5738 -0.9480  0.3202
 5637SOL    HW228545   4.569   3.855  13.120 -0.2136 -1.5305  0.0637
 5638SOL     OW28546   4.378   3.133   7.166  0.0736 -0.5634  0.2289
 5638SOL    HW128547   4.330   3.059   7.203 -0.7715 -0.7678 -1.2817
 5638SOL    HW228548   4.420   3.167   7.245  3.5335  1.6750 -2.5545
 5639SOL     OW28549   2.152   3.096   8.061  0.0434  0.0059 -0.2138
 5639SOL    HW128550   2.057   3.108   8.053  0.1093  0.2406 -0.6765
 5639SOL    HW228551   2.180   3.165   8.000 -0.2823 -0.1996 -0.5976
 5640SOL     OW28552   0.342   4.469   7.592  0.2634  0.0467 -0.3281
 5640SOL    HW128553   0.385   4.400   7.642  1.2295  0.6216 -0.3519
 5640SOL    HW228554   0.334   4.434   7.504  0.9949  0.1914 -0.4554
 5641SOL     OW28555   2.076   1.825  12.495  0.2267  0.4584 -0.1630
 5641SOL    HW128556   2.169   1.840  12.513  1.0319 -0.5768 -3.4881
 5641SOL    HW228557   2.052   1.918  12.501 -0.2102  0.2220  1.7710
 5642SOL     OW28558   4.268   2.550   6.875  0.2413  0.6016  0.2114
 5642SOL    HW128559   4.233   2.576   6.790 -1.2284 -1.4579  0.2045
 5642SOL    HW228560   4.187   2.544   6.926 -0.4450  1.0527 -0.8455
 5643SOL     OW28561   4.252   0.770  12.290  0.2574 -0.7041  0.1979
 5643SOL    HW128562   4.317   0.820  12.340  0.9403  0.1545 -1.5135
 5643SOL    HW228563   4.271   0.811  12.205 -0.9523  2.8523  1.6706
 5644SOL     OW28564   3.121   0.127   7.942 -0.5285  0.3006  0.1370
 5644SOL    HW128565   3.173   0.148   8.019 -1.6363  1.3696  0.5984
 5644SOL    HW228566   3.183   0.075   7.891  0.3972  0.0437  1.5308
 5645SOL     OW28567   3.002   0.878   4.188 -0.1897 -0.1959 -0.1947
 5645SOL    HW128568   2.943   0.838   4.123  0.6617  0.8322 -1.6051
 5645SOL    HW228569   3.052   0.933   4.128  1.0398 -0.8068  0.2862
 5646SOL     OW28570   0.770   2.708   1.949 -0.2893  0.4050 -0.2845
 5646SOL    HW128571   0.698   2.749   1.997 -0.3167  0.3381 -0.2691
 5646SOL    HW228572   0.837   2.777   1.944 -0.9166  0.9960 -0.4849
 5647SOL     OW28573   0.430   2.259  15.621  0.0746 -0.2090 -0.1408
 5647SOL    HW128574   0.410   2.219  15.536  1.6685  0.9536 -1.0625
 5647SOL    HW228575   0.479   2.196  15.674  1.6108  0.6748 -0.5195
 5648SOL     OW28576   4.716   2.113   4.907  0.5067 -0.2723 -0.6668
 5648SOL    HW128577   4.731   2.033   4.855  3.5861 -1.4133  2.0005
 5648SOL    HW228578   4.719   2.075   4.995  0.9771  0.2963 -0.4355
 5649SOL     OW28579   4.659   1.774   9.010  0.2422 -0.4464 -0.4012
 5649SOL    HW128580   4.716   1.756   8.935 -0.1746 -1.2466 -0.5273
 5649SOL    HW228581   4.696   1.717   9.077  1.5585  2.0797  1.0153
 5650SOL     OW28582   4.344   1.999   4.483  0.0224  0.3356 -0.1968
 5650SOL    HW128583   4.317   1.940   4.553  1.2093 -0.1016 -0.1029
 5650SOL    HW228584   4.438   2.001   4.502 -0.0319  2.3476 -0.1156
 5651SOL     OW28585   1.396   2.053   1.767  0.2841 -0.1000 -0.4323
 5651SOL    HW128586   1.398   1.998   1.845  1.2305 -0.1924 -0.5215
 5651SOL    HW228587   1.345   2.131   1.789  0.2786  0.2090 -1.5497
 5652SOL     OW28588   4.537   1.882   7.508  0.0942  0.6227  0.2859
 5652SOL    HW128589   4.505   1.914   7.592  0.4365  1.4347  0.1127
 5652SOL    HW228590   4.517   1.789   7.512 -0.7889  0.8021  0.1895
 5653SOL     OW28591   1.372   0.138   3.285  0.1197  0.0009 -0.6061
 5653SOL    HW128592   1.371   0.055   3.236  4.0186 -0.7748  0.6739
 5653SOL    HW228593   1.317   0.195   3.231 -2.1342 -0.1078  1.5756
 5654SOL     OW28594   2.190   2.675   8.232 -0.0775 -0.0039 -0.3846
 5654SOL    HW128595   2.280   2.653   8.257 -0.1161  0.5851  0.2710
 5654SOL    HW228596   2.203   2.751   8.175  0.4190  0.8313  0.8279
 5655SOL     OW28597   2.338   1.856   2.308 -0.7670 -0.1715 -0.4815
 5655SOL    HW128598   2.331   1.944   2.272 -0.7299  0.0603  0.0789
 5655SOL    HW228599   2.269   1.869   2.373 -1.6712  2.4301 -1.9741
 5656SOL     OW28600   4.433   1.942  12.501  0.0643  0.5107  0.3318
 5656SOL    HW128601   4.375   2.011  12.467  2.0554  0.6713 -2.7835
 5656SOL    HW228602   4.522   1.977  12.502  0.0322  0.5396  1.5720
 5657SOL     OW28603   2.034   3.596  15.285  0.4611 -0.5009  0.3623
 5657SOL    HW128604   2.113   3.547  15.309  1.1987  0.1636 -0.7212
 5657SOL    HW228605   2.072   3.684  15.284  1.6421 -1.0096  0.2183
 5658SOL     OW28606   4.276   0.721  11.922 -0.3703 -0.4064  0.2384
 5658SOL    HW128607   4.293   0.801  11.973  0.7894  0.7476 -1.9693
 5658SOL    HW228608   4.362   0.683  11.941 -0.2309  0.2705  0.9911
 5659SOL     OW28609   2.114   1.378   4.067 -0.3642 -0.4987 -0.2332
 5659SOL    HW128610   2.061   1.402   3.992  1.0219  0.3201 -0.9561
 5659SOL    HW228611   2.194   1.363   4.016 -0.8811  0.1257 -1.2094
 5660SOL     OW28612   0.354   0.232   0.956 -0.3680  0.4543 -0.2556
 5660SOL    HW128613   0.439   0.213   0.917  0.1803  1.8353  0.2543
 5660SOL    HW228614   0.335   0.150   1.001 -1.5352 -0.0623 -1.6640
 5661SOL     OW28615   3.968   4.247   6.989  0.2776  0.3310  0.2262
 5661SOL    HW128616   3.878   4.267   6.965  0.1974 -2.7804 -2.2098
 5661SOL    HW228617   3.963   4.170   7.046  2.3800 -0.9060 -1.2265
 5662SOL     OW28618   0.171   0.705   6.509 -0.1301  0.4539  0.3958
 5662SOL    HW128619   0.240   0.640   6.494  0.0012  0.5608  0.5265
 5662SOL    HW228620   0.106   0.655   6.559 -1.1097  0.8095 -0.5383
 5663SOL     OW28621   4.157   3.921  10.676  0.5114 -0.3485  0.0196
 5663SOL    HW128622   4.109   3.997  10.642 -0.4230 -0.8098  0.3342
 5663SOL    HW228623   4.247   3.952  10.687  0.2407  1.3180 -2.3584
 5664SOL     OW28624   3.153   1.223   9.002 -0.4249  0.2533  0.3288
 5664SOL    HW128625   3.136   1.286   9.073 -0.9016  0.7051 -0.1796
 5664SOL    HW228626   3.200   1.151   9.044  0.3050  1.2250  1.1606
 5665SOL     OW28627   1.690   2.648   6.359 -0.2227  0.5148 -0.2028
 5665SOL    HW128628   1.634   2.586   6.406  1.2180 -0.1701  0.6351
 5665SOL    HW228629   1.766   2.590   6.363 -0.6165  0.0972  1.0834
 5666SOL     OW28630   3.898   0.473   7.626  0.9315  0.4508  0.0042
 5666SOL    HW128631   3.928   0.541   7.566 -0.2267 -0.6993 -1.8545
 5666SOL    HW228632   3.881   0.534   7.698  1.4209 -0.0388  0.5474
 5667SOL     OW28633   3.783   0.324   3.268  0.8745  0.1432 -0.4755
 5667SOL    HW128634   3.848   0.363   3.209 -0.5247  1.5959 -1.0643
 5667SOL    HW228635   3.714   0.295   3.209 -0.1033 -0.2815  0.8747
 5668SOL     OW28636   2.403   3.445   5.872 -0.5195 -0.4771  0.5472
 5668SOL    HW128637   2.354   3.509   5.820  0.4176 -0.4341 -0.2886
 5668SOL    HW228638   2.399   3.481   5.961 -1.6766  3.2775 -0.9871
 5669SOL     OW28639   1.755   4.371  16.735  0.2928 -0.1930  0.0720
 5669SOL    HW128640   1.757   4.406  16.646 -1.3702 -3.4287 -1.2123
 5669SOL    HW228641   1.771   4.446  16.792 -0.5759  0.2559 -0.2831
 5670SOL     OW28642   0.698   1.938   3.903 -0.4882  0.2995 -0.5944
 5670SOL    HW128643   0.698   1.911   3.811  1.0313 -0.2640 -0.4275
 5670SOL    HW228644   0.780   1.905   3.939 -0.6519  0.5923  0.0451
 5671SOL     OW28645   3.270   1.082   3.259 -0.5287 -0.0377  0.2656
 5671SOL    HW128646   3.233   1.031   3.187 -0.2514  1.9507 -1.2900
 5671SOL    HW228647   3.335   1.133   3.211 -1.6761  1.9097  0.7728
 5672SOL     OW28648   2.420   4.620   3.206 -0.2731 -0.0472  0.4350
 5672SOL    HW128649   2.344   4.574   3.242 -1.0378 -0.5617 -1.8494
 5672SOL    HW228650   2.455   4.552   3.148 -0.0287  0.4161  0.0459
 5673SOL     OW28651   0.904   3.911  16.502  0.4193 -0.3443 -0.3899
 5673SOL    HW128652   0.886   3.932  16.594 -1.3856  0.7132 -1.0008
 5673SOL    HW228653   0.854   3.975  16.452 -1.4672  1.7182  4.1037
 5674SOL     OW28654   2.285   0.076   9.045  0.3230  0.0979 -0.2448
 5674SOL    HW128655   2.270   0.118   9.130  0.7809 -2.8002  1.2792
 5674SOL    HW228656   2.379   0.091   9.034  0.7903  0.4592  4.1630
 5675SOL     OW28657   3.290   3.442   5.303  0.0665 -0.4171 -0.6286
 5675SOL    HW128658   3.327   3.371   5.355  3.0162  1.2528 -0.3735
 5675SOL    HW228659   3.198   3.417   5.300  0.6983 -2.7244 -0.5992
 5676SOL     OW28660   1.236   4.258  15.182 -0.0357  0.2921 -0.1380
 5676SOL    HW128661   1.255   4.288  15.271  0.4904 -0.3667 -0.0300
 5676SOL    HW228662   1.305   4.296  15.127 -1.0832  0.7350 -1.1615
 5677SOL     OW28663   2.528   1.535   9.699 -0.0799  0.6271 -0.5348
 5677SOL    HW128664   2.534   1.518   9.605 -0.9050 -0.7738 -0.3308
 5677SOL    HW228665   2.435   1.514   9.713 -0.3689  2.1476 -0.1526
 5678SOL     OW28666   0.900   1.094   3.055  0.3141  0.5877 -0.0748
 5678SOL    HW128667   0.987   1.079   3.093 -0.0700  2.4206  1.5663
 5678SOL    HW228668   0.903   1.040   2.976  0.4885 -1.5332  1.3759
 5679SOL     OW28669   2.292   0.362   3.427 -0.1972  0.4220  0.4223
 5679SOL    HW128670   2.241   0.373   3.508 -1.1755  1.3560 -0.3121
 5679SOL    HW228671   2.325   0.451   3.418 -1.0433  0.6924 -0.0640
 5680SOL     OW28672   2.051   2.712   4.249 -0.2149  0.5899 -0.0106
 5680SOL    HW128673   2.039   2.632   4.300 -0.1190 -0.2502 -1.3075
 5680SOL    HW228674   2.034   2.673   4.164  2.0226 -2.0368  0.7110
 5681SOL     OW28675   4.636   0.763   6.978  0.2781 -0.3555 -0.3875
 5681SOL    HW128676   4.633   0.782   6.884  2.1552  0.4913 -0.2874
 5681SOL    HW228677   4.565   0.702   6.996 -0.2960  0.0049 -1.4554
 5682SOL     OW28678   3.061   0.997   3.595  0.1342  0.2872  0.0251
 5682SOL    HW128679   3.073   1.070   3.656 -0.6773 -2.9536  4.0334
 5682SOL    HW228680   3.153   0.980   3.574  0.4885 -0.2150  2.0093
 5683SOL     OW28681   4.534   0.392   9.074 -0.2036 -0.1216  0.1270
 5683SOL    HW128682   4.485   0.366   8.996  0.7465 -1.3938 -0.0319
 5683SOL    HW228683   4.494   0.477   9.093 -1.5648 -1.0217  1.3285
 5684SOL     OW28684   3.018   1.295   4.852 -0.4958  0.3857 -0.1522
 5684SOL    HW128685   3.107   1.305   4.884  0.9467 -0.0412 -4.0547
 5684SOL    HW228686   3.036   1.266   4.763 -0.5743 -0.4918  0.1200
 5685SOL     OW28687   3.010   3.566  16.747 -0.1702  0.5724 -0.1394
 5685SOL    HW128688   2.943   3.618  16.791  0.6967  2.6238 -1.2717
 5685SOL    HW228689   3.008   3.483  16.795 -2.1464  0.1219 -1.0299
 5686SOL     OW28690   0.898   2.116   1.812  0.4872  0.5379  0.1283
 5686SOL    HW128691   0.898   2.108   1.716 -0.5703 -0.4252  0.1990
 5686SOL    HW228692   0.807   2.134   1.834  0.6819  1.4831  0.1463
 5687SOL     OW28693   0.601   2.509  17.520 -0.5360 -0.2674  0.4033
 5687SOL    HW128694   0.663   2.471  17.582 -0.1609 -2.1358 -1.1066
 5687SOL    HW228695   0.571   2.429  17.478 -1.6239 -0.1415  0.9580
 5688SOL     OW28696   4.641   2.318   0.301  0.2377  0.0220 -0.0815
 5688SOL    HW128697   4.627   2.316   0.207  0.9619 -1.3529 -0.1635
 5688SOL    HW228698   4.730   2.282   0.294 -0.3938 -1.6800  0.7130
 5689SOL     OW28699   2.108   0.044  11.969 -0.1781  0.1542 -0.9383
 5689SOL    HW128700   2.038   0.002  11.920 -0.5537  2.2141 -2.1612
 5689SOL    HW228701   2.180   4.722  11.942 -1.6402 -2.2580  0.3167
 5690SOL     OW28702   0.625   4.306   7.180  0.3013 -0.1831 -0.2779
 5690SOL    HW128703   0.666   4.381   7.223 -2.6055  0.2532  1.6971
 5690SOL    HW228704   0.562   4.348   7.121 -0.2566 -0.9573 -0.2314
 5691SOL     OW28705   1.109   1.380   6.284  1.0665  0.6356 -0.3458
 5691SOL    HW128706   1.128   1.333   6.365  1.7360  0.3577 -0.6657
 5691SOL    HW228707   1.014   1.375   6.297  0.8661  1.3573 -1.5019
 5692SOL     OW28708   1.361   1.068   2.317 -0.3833  0.2863 -0.5434
 5692SOL    HW128709   1.298   1.127   2.277  0.1788  0.4225 -1.2359
 5692SOL    HW228710   1.325   0.983   2.291  1.4602 -0.9001  0.7677
 5693SOL     OW28711   3.686   3.310   3.104  0.4981 -0.2553 -0.2039
 5693SOL    HW128712   3.659   3.218   3.111  3.8870 -1.4578 -2.7564
 5693SOL    HW228713   3.648   3.338   3.187  2.7102  1.9725  0.0313
 5694SOL     OW28714   1.368   3.680   3.547  0.1701 -0.1323  0.3116
 5694SOL    HW128715   1.448   3.683   3.495  0.5759 -0.4215  0.9312
 5694SOL    HW228716   1.363   3.766   3.586  1.3056  1.0697 -2.1806
 5695SOL     OW28717   3.173   3.005   4.893  0.1225 -0.1065  0.0261
 5695SOL    HW128718   3.194   3.089   4.934 -2.9348 -1.7622  5.0641
 5695SOL    HW228719   3.134   2.956   4.966 -1.4748  0.0948 -0.7066
 5696SOL     OW28720   2.477   1.815   2.061 -0.2388 -0.1358  0.3456
 5696SOL    HW128721   2.493   1.738   2.006  0.7672 -1.1211  2.0119
 5696SOL    HW228722   2.387   1.837   2.037 -1.1563 -2.1037  1.9679
 5697SOL     OW28723   1.430   4.235  16.156 -0.0317 -0.2985  0.4150
 5697SOL    HW128724   1.448   4.191  16.073 -0.4760 -0.2778  0.3075
 5697SOL    HW228725   1.395   4.162  16.207  1.9031  0.7704  3.3116
 5698SOL     OW28726   4.068   3.225   1.251  0.6155 -0.6486  0.0545
 5698SOL    HW128727   4.091   3.310   1.214  0.1956 -0.3565  0.4722
 5698SOL    HW228728   3.979   3.213   1.217  1.0607  1.3732 -1.8027
 5699SOL     OW28729   3.190   1.910   3.523 -0.1735 -0.0815 -0.5377
 5699SOL    HW128730   3.210   1.866   3.441 -0.4571  0.0207 -0.6625
 5699SOL    HW228731   3.102   1.942   3.505 -0.2470  0.3959  0.6249
 5700SOL     OW28732   4.071   3.785  10.332 -0.5050  0.0776  0.1702
 5700SOL    HW128733   3.991   3.829  10.303 -1.8960 -2.6813 -0.1750
 5700SOL    HW228734   4.117   3.865  10.358 -1.4200  0.9751 -0.9438
 5701SOL     OW28735   3.628   0.564   8.287 -0.7746  0.2500  0.1177
 5701SOL    HW128736   3.658   0.520   8.366  2.0333  0.5404 -0.7616
 5701SOL    HW228737   3.710   0.614   8.280  0.8356 -2.4592 -0.3148
 5702SOL     OW28738   0.471   0.477   9.955 -0.3444  0.0867 -0.5077
 5702SOL    HW128739   0.536   0.545   9.975 -0.7925  0.8893 -1.7947
 5702SOL    HW228740   0.451   0.457  10.047 -0.8182 -1.0413 -0.8637
 5703SOL     OW28741   1.697   3.304   3.340  0.0369  0.5992  0.3106
 5703SOL    HW128742   1.681   3.245   3.267 -2.0336  0.4310  0.9039
 5703SOL    HW228743   1.755   3.246   3.390  0.9346 -0.7001 -2.2741
 5704SOL     OW28744   2.688   2.406   6.702 -0.2178  0.4730  0.8985
 5704SOL    HW128745   2.603   2.381   6.667  0.7075  0.2343 -1.1687
 5704SOL    HW228746   2.737   2.375   6.626  1.5349  1.4829  1.5946
 5705SOL     OW28747   0.337   1.073  13.737  0.4426  0.0006  0.3538
 5705SOL    HW128748   0.303   1.085  13.648  0.8306  0.4335  0.2642
 5705SOL    HW228749   0.393   0.997  13.722 -0.5007 -0.6798  0.2384
 5706SOL     OW28750   0.559   3.998  15.212  0.4654 -0.1623  0.0943
 5706SOL    HW128751   0.584   4.076  15.261 -0.3853  1.9388 -2.7945
 5706SOL    HW228752   0.514   3.954  15.284  2.3862  0.0241  1.3905
 5707SOL     OW28753   0.991   4.106  12.958 -0.2982  0.2974  0.0167
 5707SOL    HW128754   0.983   4.196  12.989  0.1516  0.8976 -1.6286
 5707SOL    HW228755   1.066   4.101  12.900  0.0544 -3.4717  0.7747
 5708SOL     OW28756   2.556   1.848  13.767  0.7550 -0.0443 -0.1536
 5708SOL    HW128757   2.585   1.813  13.683  1.1910 -3.4773  1.4224
 5708SOL    HW228758   2.469   1.884  13.752  0.6776 -0.6101 -1.0426
 5709SOL     OW28759   4.354   0.248   8.485  0.2222 -0.3951 -0.0959
 5709SOL    HW128760   4.444   0.231   8.513  0.7429  2.5664  0.0679
 5709SOL    HW228761   4.348   0.228   8.391  0.8110  2.5285 -0.7657
 5710SOL     OW28762   0.606   0.441  17.362 -0.4727  0.2516  0.2640
 5710SOL    HW128763   0.612   0.500  17.287 -2.2172 -1.8057 -1.4572
 5710SOL    HW228764   0.525   0.476  17.400 -2.0602 -0.8033 -2.2259
 5711SOL     OW28765   1.392   2.285   5.856  0.4985  0.6818  0.5843
 5711SOL    HW128766   1.385   2.380   5.844  0.0695  0.1022 -3.6279
 5711SOL    HW228767   1.478   2.289   5.898  0.6774  1.4364  0.1579
 5712SOL     OW28768   3.941   3.301   8.993  0.4100  0.4349 -0.0255
 5712SOL    HW128769   3.938   3.250   9.074 -2.6679 -0.4276 -0.7004
 5712SOL    HW228770   3.972   3.233   8.933 -0.0476 -0.6287  0.9342
 5713SOL     OW28771   3.570   1.734   3.520 -0.4861 -0.6169 -0.1834
 5713SOL    HW128772   3.629   1.702   3.452 -1.4055  0.1042 -1.3304
 5713SOL    HW228773   3.501   1.670   3.500 -0.5416 -0.1666 -1.4592
 5714SOL     OW28774   1.528   2.386   6.197  0.6529 -0.0327  0.9019
 5714SOL    HW128775   1.466   2.318   6.224  0.5917 -0.5366 -0.5030
 5714SOL    HW228776   1.606   2.348   6.240  0.6558  2.3596  2.9627
 5715SOL     OW28777   3.270   4.171  10.957 -0.2079 -0.3673 -0.0731
 5715SOL    HW128778   3.242   4.156  11.047  1.8100  1.8701  0.9382
 5715SOL    HW228779   3.360   4.203  10.969 -1.1478  1.6986  1.5416
 5716SOL     OW28780   1.834   0.570   9.206 -0.1247  0.3979  0.2001
 5716SOL    HW128781   1.801   0.640   9.150  1.8654  1.1138 -0.0830
 5716SOL    HW228782   1.866   0.507   9.142  0.3499  0.8443 -0.0118
 5717SOL     OW28783   2.495   1.371   3.701  0.0387  0.5173  0.6339
 5717SOL    HW128784   2.463   1.440   3.759 -2.2675  0.6891 -0.8228
 5717SOL    HW228785   2.525   1.418   3.623  1.0593 -0.6611  0.3184
 5718SOL     OW28786   1.346   1.308  10.551  0.2081 -0.8224  0.6241
 5718SOL    HW128787   1.262   1.263  10.542  1.3662 -2.8727  0.0577
 5718SOL    HW228788   1.339   1.347  10.637  1.8995  0.8752 -0.0129
 5719SOL     OW28789   1.251   4.169  16.625 -0.6048  0.1030 -0.2148
 5719SOL    HW128790   1.341   4.199  16.642  0.0909 -0.8035 -2.2987
 5719SOL    HW228791   1.265   4.093  16.568  2.6829 -0.6835  1.6480
 5720SOL     OW28792   1.734   2.014   2.162 -0.0215  0.3618 -0.6387
 5720SOL    HW128793   1.735   2.099   2.119 -1.6843  0.0596 -1.2851
 5720SOL    HW228794   1.737   2.052   2.250  2.2825  0.6460 -0.8452
 5721SOL     OW28795   3.430   2.951   7.198 -0.3273  0.4109  0.0760
 5721SOL    HW128796   3.409   3.038   7.165 -2.8456 -0.1234  0.2231
 5721SOL    HW228797   3.526   2.952   7.197 -0.2950 -1.5276 -0.1980
 5722SOL     OW28798   4.268   2.024   7.137 -0.2269  0.2016 -0.0819
 5722SOL    HW128799   4.247   2.099   7.082 -0.3585 -0.2245 -0.6089
 5722SOL    HW228800   4.313   2.068   7.209  0.1176 -0.6706  0.2323
 5723SOL     OW28801   0.277   3.409   4.192 -0.1641  0.4629  0.4209
 5723SOL    HW128802   0.268   3.476   4.124  2.7871  2.3997  1.9600
 5723SOL    HW228803   0.371   3.395   4.178 -1.1404 -3.1959 -2.4003
 5724SOL     OW28804   3.028   3.998   4.162  0.8037  0.1328  0.1423
 5724SOL    HW128805   2.989   3.911   4.159 -1.8759  1.2492  1.5032
 5724SOL    HW228806   2.956   4.053   4.130 -0.1733  0.1158  2.3278
 5725SOL     OW28807   1.419   0.870   3.573 -0.4736  0.0228  0.1858
 5725SOL    HW128808   1.330   0.846   3.547 -0.0442 -1.2563 -0.1246
 5725SOL    HW228809   1.425   0.957   3.533  0.9956  0.2759  0.9491
 5726SOL     OW28810   1.529   3.002   1.368  0.1521 -0.3942  0.1417
 5726SOL    HW128811   1.445   2.959   1.387  0.1224 -0.2763  0.2746
 5726SOL    HW228812   1.507   3.092   1.393 -4.1638 -1.4623  0.2538
 5727SOL     OW28813   2.929   1.894  13.636  0.8809  0.6648 -0.2204
 5727SOL    HW128814   2.990   1.943  13.691  0.7977  0.9178 -0.3538
 5727SOL    HW228815   2.914   1.819  13.694  0.5374 -0.6929 -2.0586
 5728SOL     OW28816   0.880   3.045   8.718 -0.0503  0.6195 -0.0542
 5728SOL    HW128817   0.854   3.087   8.636  0.6722  2.2338  0.5496
 5728SOL    HW228818   0.954   2.991   8.691 -0.3993  0.0431  0.1406
 5729SOL     OW28819   3.782   2.505   1.793 -0.3082  0.1234 -0.4128
 5729SOL    HW128820   3.691   2.491   1.768  0.4495 -2.6587 -1.6052
 5729SOL    HW228821   3.769   2.588   1.839 -0.6174  0.6762 -1.5024
 5730SOL     OW28822   4.126   4.669   9.687  0.0530 -0.2627 -0.0478
 5730SOL    HW128823   4.095   4.651   9.598 -0.2256  5.9718 -1.1771
 5730SOL    HW228824   4.072   4.614   9.744  2.9250 -1.0096  1.9418
 5731SOL     OW28825   2.623   1.355  14.962 -0.0706 -0.0404  0.0714
 5731SOL    HW128826   2.602   1.288  14.897  1.6228 -1.3087  0.8243
 5731SOL    HW228827   2.540   1.402  14.963 -2.6029 -4.5625 -1.8288
 5732SOL     OW28828   3.956   1.019   4.942  0.0964  0.0828 -0.1629
 5732SOL    HW128829   4.042   0.986   4.917  0.5543  0.9754  0.2062
 5732SOL    HW228830   3.948   1.089   4.877 -2.1948 -2.1652 -2.3022
 5733SOL     OW28831   4.256   0.226   2.885 -0.3934  0.1975  0.4237
 5733SOL    HW128832   4.206   0.239   2.805  0.3693  2.5028  0.3400
 5733SOL    HW228833   4.312   0.303   2.895  1.9123 -1.6543  1.7932
 5734SOL     OW28834   2.321   1.470   5.537 -0.0560 -0.0993  0.1897
 5734SOL    HW128835   2.246   1.529   5.532  0.6204  1.0479  3.3133
 5734SOL    HW228836   2.384   1.514   5.480 -0.5832  0.8545  0.3401
 5735SOL     OW28837   0.293   3.186   8.944  0.2659 -0.1676  0.1163
 5735SOL    HW128838   0.371   3.157   8.991  0.3756  0.5562  0.3762
 5735SOL    HW228839   0.270   3.114   8.884  0.2111 -1.6651  1.9487
 5736SOL     OW28840   1.816   2.129   8.059  0.0710 -0.6448  0.1656
 5736SOL    HW128841   1.778   2.122   8.146  0.3151 -1.3511  0.2206
 5736SOL    HW228842   1.890   2.183   8.087 -1.9502  1.7784  0.8084
 5737SOL     OW28843   3.387   0.436   2.848  0.0012 -0.0500  0.2774
 5737SOL    HW128844   3.314   0.443   2.909  0.0069 -1.5808  0.4552
 5737SOL    HW228845   3.342   0.417   2.766 -1.6328  2.6423  0.5789
 5738SOL     OW28846   3.900   2.871   0.302 -0.5766 -0.3778  0.1576
 5738SOL    HW128847   3.958   2.879   0.377 -0.8986 -0.7161  0.4435
 5738SOL    HW228848   3.867   2.782   0.311  2.0439 -1.0601  3.1449
 5739SOL     OW28849   2.387   4.712  14.670 -0.3244 -0.0794  0.5874
 5739SOL    HW128850   2.409   0.069  14.661 -0.3830 -0.0832  0.4044
 5739SOL    HW228851   2.451   4.693  14.739 -0.4198 -0.1751  0.6505
 5740SOL     OW28852   0.953   0.990  16.699  0.6401  0.3685 -1.1781
 5740SOL    HW128853   0.915   1.075  16.722  1.0027 -0.1490  1.4317
 5740SOL    HW228854   1.034   0.993  16.751 -2.1316  1.6994  3.0799
 5741SOL     OW28855   2.621   0.526  13.814  0.4807  0.1071 -0.2792
 5741SOL    HW128856   2.573   0.526  13.732  0.5911 -1.2989 -0.3313
 5741SOL    HW228857   2.680   0.452  13.799 -0.2736 -0.5761  0.1478
 5742SOL     OW28858   0.189   4.326  13.473 -0.5812 -0.1736  0.3448
 5742SOL    HW128859   0.229   4.371  13.399 -0.4210 -0.3702  0.3139
 5742SOL    HW228860   0.272   4.303  13.515 -0.4106  0.3676  0.3082
 5743SOL     OW28861   2.728   3.241  15.508  0.4160  0.1841 -0.2538
 5743SOL    HW128862   2.767   3.323  15.479  0.9840  0.0499  0.1292
 5743SOL    HW228863   2.795   3.173  15.501  2.3927  1.7539  3.7094
 5744SOL     OW28864   1.733   3.572  17.222  0.4104  0.8664  0.3548
 5744SOL    HW128865   1.655   3.547  17.271 -0.1699 -2.7472 -2.4469
 5744SOL    HW228866   1.707   3.547  17.134 -1.8469  0.2647  1.1914
 5745SOL     OW28867   4.610   0.966   6.114 -0.5316 -0.0574  0.0705
 5745SOL    HW128868   4.641   0.916   6.039 -0.0484 -1.1649  1.0009
 5745SOL    HW228869   4.679   0.939   6.175  1.0636 -0.7783 -2.0513
 5746SOL     OW28870   1.028   3.024   8.286 -0.1719  0.4079 -0.0741
 5746SOL    HW128871   0.953   3.037   8.343 -0.3346  2.4141 -0.7175
 5746SOL    HW228872   1.089   3.009   8.358 -2.0741 -1.3656  1.1490
 5747SOL     OW28873   3.712   2.733  10.188 -0.0216 -0.1736  0.0465
 5747SOL    HW128874   3.748   2.803  10.132  0.9557 -1.5352 -1.0168
 5747SOL    HW228875   3.789   2.678  10.203  0.8110  1.1213  0.5210
 5748SOL     OW28876   2.130   2.129   7.762 -0.1927 -0.5130 -0.6228
 5748SOL    HW128877   2.174   2.171   7.835  1.2239 -2.6394 -0.2645
 5748SOL    HW228878   2.133   2.039   7.794  1.9281  0.0988  0.8922
 5749SOL     OW28879   2.374   0.812   2.664 -0.0266  0.1917  0.2177
 5749SOL    HW128880   2.369   0.717   2.664  2.6051  0.0671  2.1039
 5749SOL    HW228881   2.302   0.842   2.720 -0.7463  1.4679 -1.3772
 5750SOL     OW28882   3.054   2.065   9.421  0.4858 -0.4656  0.6630
 5750SOL    HW128883   3.100   2.109   9.492  3.4054 -3.4257  0.6127
 5750SOL    HW228884   3.011   2.140   9.379 -1.3602 -1.3602  0.9485
 5751SOL     OW28885   4.350   1.779   8.256  0.4621 -0.1876  0.6876
 5751SOL    HW128886   4.372   1.733   8.337  0.8339 -0.2166  0.5682
 5751SOL    HW228887   4.316   1.705   8.205  2.6351 -0.6264 -0.0888
 5752SOL     OW28888   3.118   4.704   1.781  0.4727  0.1682 -0.1151
 5752SOL    HW128889   3.093   4.660   1.699  1.2018 -1.4435  0.5276
 5752SOL    HW228890   3.191   4.653   1.815 -0.6598 -1.7215 -0.5418
 5753SOL     OW28891   0.963   0.078  13.620 -0.1756  0.1532  0.4841
 5753SOL    HW128892   0.906   0.004  13.598  1.8281 -0.8850 -1.3024
 5753SOL    HW228893   1.043   0.033  13.592 -0.9244 -0.5487 -0.5418
 5754SOL     OW28894   3.856   2.564   4.252  0.1372 -0.0263  0.4074
 5754SOL    HW128895   3.763   2.583   4.265 -0.3593 -1.3646 -1.0862
 5754SOL    HW228896   3.887   2.612   4.328 -0.9649 -0.5621  1.1922
 5755SOL     OW28897   3.646   3.924   2.647 -0.1917  0.0769 -0.1135
 5755SOL    HW128898   3.630   3.858   2.714  1.2283  0.9855  1.1245
 5755SOL    HW228899   3.708   3.875   2.592 -0.3915 -1.0217  0.6553
 5756SOL     OW28900   3.011   2.815   6.996  0.1918 -0.3732  0.7662
 5756SOL    HW128901   2.998   2.739   7.053  0.2459 -0.3479  0.8126
 5756SOL    HW228902   3.016   2.885   7.061 -0.4274 -3.2042  3.9099
 5757SOL     OW28903   0.917   4.215  10.942  0.2201  0.0224 -0.4928
 5757SOL    HW128904   0.938   4.241  11.032  0.3222 -0.1796 -0.4586
 5757SOL    HW228905   0.895   4.300  10.904 -0.0502 -0.8703 -2.3089
 5758SOL     OW28906   2.142   4.295   7.280 -0.1257  0.0356 -0.2773
 5758SOL    HW128907   2.133   4.335   7.193  0.6093  0.2892 -0.2335
 5758SOL    HW228908   2.153   4.206   7.246  0.8010 -0.0171  0.1853
 5759SOL     OW28909   3.181   1.230   9.407 -0.0863 -0.0413  0.7955
 5759SOL    HW128910   3.104   1.287   9.410 -0.5005 -0.4105 -2.9645
 5759SOL    HW228911   3.200   1.232   9.501 -0.6188  1.4117  0.8745
 5760SOL     OW28912   0.824   4.302   3.095 -0.0788  0.7459 -0.1144
 5760SOL    HW128913   0.902   4.299   3.150  0.0913 -0.1223 -0.4147
 5760SOL    HW228914   0.856   4.253   3.019 -1.7559 -0.5851  0.0334
 5761SOL     OW28915   1.239   2.701   5.180  0.0737 -0.2252 -0.0774
 5761SOL    HW128916   1.328   2.681   5.149 -0.1303 -1.2015 -0.0384
 5761SOL    HW228917   1.248   2.796   5.181 -0.7147 -0.1600  0.9404
 5762SOL     OW28918   1.061   1.070   2.480 -0.0315  0.0975 -0.7006
 5762SOL    HW128919   0.999   1.143   2.487  1.0847  0.6300  3.3337
 5762SOL    HW228920   1.103   1.089   2.395  0.2029 -0.9688 -0.8204
 5763SOL     OW28921   3.521   2.630   4.569 -0.0951  0.0770  0.2148
 5763SOL    HW128922   3.609   2.648   4.601  1.2279 -1.4917 -2.5342
 5763SOL    HW228923   3.460   2.647   4.640  0.7928  2.7879  0.3396
 5764SOL     OW28924   3.636   0.815  13.538  0.7809 -0.5856 -0.4323
 5764SOL    HW128925   3.654   0.874  13.611 -1.5940  2.0357 -1.9679
 5764SOL    HW228926   3.585   0.856  13.468 -1.1925 -1.7504  0.3151
 5765SOL     OW28927   2.422   2.365   6.642  0.2692 -0.5469  0.1974
 5765SOL    HW128928   2.389   2.375   6.553  1.9384  0.7625 -0.2940
 5765SOL    HW228929   2.366   2.423   6.694  1.2866 -1.0617  1.8946
 5766SOL     OW28930   0.977   1.036   6.307  0.3441 -0.0536  0.5931
 5766SOL    HW128931   0.884   1.047   6.289  0.1366 -3.2096 -0.1471
 5766SOL    HW228932   0.991   0.944   6.330  0.2221  0.0909  1.2409
 5767SOL     OW28933   4.593   4.102   4.768 -0.5090 -0.1026  0.0719
 5767SOL    HW128934   4.620   4.140   4.685  2.9835 -1.7936  0.4349
 5767SOL    HW228935   4.503   4.131   4.757 -1.1971 -2.1682  0.2045
 5768SOL     OW28936   2.640   3.684   5.843 -0.0176  0.2311 -0.1252
 5768SOL    HW128937   2.711   3.706   5.903 -0.6332 -0.1293  0.7393
 5768SOL    HW228938   2.577   3.754   5.861 -0.7362 -0.5512  0.4030
 5769SOL     OW28939   3.086   0.870  10.890 -0.7702  0.9371  0.5157
 5769SOL    HW128940   3.013   0.916  10.849 -0.6278  1.9200  1.3457
 5769SOL    HW228941   3.062   0.907  10.974  1.4473 -1.3417  2.1564
 5770SOL     OW28942   2.801   1.622   6.010  0.1747 -0.9141  0.3413
 5770SOL    HW128943   2.725   1.678   5.990 -0.9168 -2.1350  1.0444
 5770SOL    HW228944   2.841   1.677   6.077 -1.5366 -0.3009  0.8578
 5771SOL     OW28945   3.589   0.239   2.853 -0.1858 -0.3335  0.0961
 5771SOL    HW128946   3.517   0.302   2.847 -0.0139 -0.2754 -1.2980
 5771SOL    HW228947   3.667   0.287   2.827 -0.7774  1.3032  1.3296
 5772SOL     OW28948   4.725   1.980   3.572 -0.1691 -0.8558 -0.0699
 5772SOL    HW128949   0.058   1.963   3.636  0.0551  0.1484 -0.0400
 5772SOL    HW228950   4.690   1.892   3.561 -2.1326 -0.0478 -0.4338
 5773SOL     OW28951   2.765   2.608   1.887  0.1916  0.3482  0.0902
 5773SOL    HW128952   2.824   2.535   1.869  0.0039  0.3340 -0.4561
 5773SOL    HW228953   2.723   2.616   1.802 -1.4001  2.0426  1.0434
 5774SOL     OW28954   1.948   1.701   2.097  0.7334 -0.2715 -0.3336
 5774SOL    HW128955   2.005   1.762   2.050  1.4420 -0.0944  0.7622
 5774SOL    HW228956   2.004   1.670   2.169  0.5761  2.4417  0.9439
 5775SOL     OW28957   2.706   0.633   8.722  0.1585  0.1513 -0.0017
 5775SOL    HW128958   2.690   0.660   8.632  2.3564  0.6384 -0.2478
 5775SOL    HW228959   2.614   0.634   8.748 -0.5933 -1.6989 -2.5297
 5776SOL     OW28960   4.678   4.528   6.540  0.1091 -0.1804 -0.0133
 5776SOL    HW128961   0.032   4.520   6.573 -0.0001  0.0046  0.3209
 5776SOL    HW228962   4.693   4.470   6.465 -2.4194 -0.2968 -0.4285
 5777SOL     OW28963   3.187   2.039  15.257  0.6476 -0.3012  0.2122
 5777SOL    HW128964   3.242   2.118  15.254 -1.1174  0.8898 -1.1345
 5777SOL    HW228965   3.166   2.029  15.349 -1.0804 -3.0155 -0.4723
 5778SOL     OW28966   0.029   0.983   8.828 -0.0033 -0.0279  0.6476
 5778SOL    HW128967   0.017   0.890   8.846 -0.4710 -0.4092 -1.6676
 5778SOL    HW228968   0.065   1.021   8.908 -0.7684 -1.6083  1.7375
 5779SOL     OW28969   4.051   1.103   9.643  0.0798 -0.2577  0.7776
 5779SOL    HW128970   4.106   1.148   9.579 -0.4136 -0.4187  0.2395
 5779SOL    HW228971   4.013   1.184   9.678  2.3931  1.3378 -0.4149
 5780SOL     OW28972   2.903   2.966   6.229  0.1220 -0.0235  0.1203
 5780SOL    HW128973   2.979   2.964   6.171 -0.7957 -0.3222 -1.0817
 5780SOL    HW228974   2.876   3.056   6.210 -0.1720 -0.2146 -0.3460
 5781SOL     OW28975   1.733   1.111   6.716 -0.3327 -0.0824 -0.1248
 5781SOL    HW128976   1.750   1.110   6.811 -3.7903  1.9830  0.5314
 5781SOL    HW228977   1.718   1.018   6.704 -0.3510 -0.0862 -0.0723
 5782SOL     OW28978   1.127   3.930  10.604  0.3322 -0.5248  0.2327
 5782SOL    HW128979   1.063   3.993  10.636  2.3415  1.3565  0.5539
 5782SOL    HW228980   1.153   3.892  10.688 -0.4129 -0.8489  0.3165
 5783SOL     OW28981   2.192   2.596  10.635 -0.1879  0.0449 -0.2307
 5783SOL    HW128982   2.231   2.664  10.582  2.5198 -1.1045  0.2899
 5783SOL    HW228983   2.104   2.634  10.631  0.3988  1.4843  0.7918
 5784SOL     OW28984   4.618   1.115   7.622  0.4827 -0.3565 -0.0127
 5784SOL    HW128985   4.701   1.075   7.647  1.1916 -0.3024 -2.2642
 5784SOL    HW228986   4.646   1.162   7.543  1.9075  2.0341  1.9390
 5785SOL     OW28987   3.716   1.224   4.750 -0.1494  0.0205  0.2733
 5785SOL    HW128988   3.807   1.220   4.778 -0.0594 -0.3969 -0.0753
 5785SOL    HW228989   3.727   1.175   4.669  1.5730  0.9585 -0.0527
 5786SOL     OW28990   3.714   1.706   4.421  0.3435  0.2506 -0.5131
 5786SOL    HW128991   3.713   1.615   4.389 -0.5588  0.9155 -2.3670
 5786SOL    HW228992   3.622   1.724   4.439  0.5220 -0.3081  0.9492
 5787SOL     OW28993   1.338   3.601   5.766 -0.0689 -0.0610  0.3200
 5787SOL    HW128994   1.362   3.569   5.854 -0.0443  1.2084  0.7750
 5787SOL    HW228995   1.257   3.555   5.746  1.0868 -1.5550 -0.9584
 5788SOL     OW28996   1.938   1.274  16.405 -0.3037 -0.0945  0.8101
 5788SOL    HW128997   1.916   1.341  16.470 -0.6968  0.7580 -0.2238
 5788SOL    HW228998   2.019   1.306  16.364 -0.1894  0.5394  1.5188
 5789SOL     OW28999   1.092   1.703   3.176  0.2362  0.4161  0.0990
 5789SOL    HW129000   1.048   1.743   3.101 -2.2618  0.3229  1.5285
 5789SOL    HW229001   1.077   1.611   3.155  0.4555  0.8147 -1.7969
 5790SOL     OW29002   3.540   2.904  16.720  0.7533 -0.2378  0.1240
 5790SOL    HW129003   3.586   2.837  16.770 -1.5903 -1.5178  0.5550
 5790SOL    HW229004   3.464   2.913  16.777  0.7853  1.1551 -0.0405
 5791SOL     OW29005   2.722   2.811   6.989  0.1670 -0.2202 -0.0721
 5791SOL    HW129006   2.808   2.841   7.020 -0.4458 -0.0590  1.4810
 5791SOL    HW229007   2.724   2.854   6.904  2.0177  0.7729  0.4619
 5792SOL     OW29008   3.449   3.369   4.862 -0.2222  0.3693 -0.2365
 5792SOL    HW129009   3.432   3.411   4.947 -1.2994 -0.5584 -0.0049
 5792SOL    HW229010   3.371   3.370   4.808 -0.5413 -0.3308  0.2152
 5793SOL     OW29011   0.519   4.131  11.550 -0.5526 -0.0119 -0.5088
 5793SOL    HW129012   0.514   4.206  11.491  0.4778 -1.0469 -1.9091
 5793SOL    HW229013   0.603   4.089  11.533 -1.2581 -2.2119  1.4057
 5794SOL     OW29014   3.318   4.224   2.815 -0.0028 -0.1423 -0.6388
 5794SOL    HW129015   3.366   4.300   2.783  1.9263  0.0058  2.6777
 5794SOL    HW229016   3.247   4.264   2.865  0.1854  0.8852 -1.1874
 5795SOL     OW29017   2.496   3.157  16.540 -0.0549  0.2142  0.1962
 5795SOL    HW129018   2.493   3.213  16.462 -2.2207  0.3534  0.3652
 5795SOL    HW229019   2.419   3.184  16.590  0.2661  2.2883 -0.4097
 5796SOL     OW29020   3.964   3.640   5.818  0.1453  0.1598  0.3386
 5796SOL    HW129021   3.877   3.640   5.779  1.0813  2.0654 -1.7380
 5796SOL    HW229022   4.025   3.674   5.752  1.1832 -0.2307  1.1007
 5797SOL     OW29023   0.908   2.789   4.852  0.2016 -0.0328  0.1482
 5797SOL    HW129024   0.953   2.861   4.896 -1.6257  1.2235  0.0104
 5797SOL    HW229025   0.960   2.715   4.883  1.8384  0.1681 -2.1104
 5798SOL     OW29026   2.296   1.016   5.457 -0.2151 -0.2425  0.1387
 5798SOL    HW129027   2.335   1.080   5.518  0.8155 -0.2748 -0.4761
 5798SOL    HW229028   2.209   1.055   5.458  1.1096  2.6519  2.4793
 5799SOL     OW29029   0.989   2.669   6.651 -0.2147  0.5395 -0.0777
 5799SOL    HW129030   0.995   2.698   6.560 -0.3852 -3.9357 -1.5326
 5799SOL    HW229031   1.005   2.575   6.642 -1.3999  0.4498 -1.1762
 5800SOL     OW29032   0.134   1.031   1.290 -0.2493  0.4225 -0.5569
 5800SOL    HW129033   0.047   1.027   1.251 -0.8495  0.8560  0.7161
 5800SOL    HW229034   0.187   0.988   1.223 -0.6090  0.0671 -0.6166
 5801SOL     OW29035   0.479   3.386  16.403  0.2374  0.4373  0.3421
 5801SOL    HW129036   0.459   3.344  16.319 -1.3001  0.3840  0.7516
 5801SOL    HW229037   0.419   3.335  16.458  0.1566  0.9162  0.6917
 5802SOL     OW29038   0.354   3.185   7.466  0.0992  0.0508  0.1120
 5802SOL    HW129039   0.446   3.161   7.476 -0.4478 -1.9255  0.2591
 5802SOL    HW229040   0.339   3.177   7.372  3.2873 -0.2191 -0.3769
 5803SOL     OW29041   4.169   1.444   4.044  0.1580  0.7690  0.1192
 5803SOL    HW129042   4.242   1.498   4.012 -0.1618  0.9034 -0.3864
 5803SOL    HW229043   4.217   1.362   4.049  0.1196  0.5340 -3.6984
 5804SOL     OW29044   0.404   4.098   2.263 -0.1013  0.6140  0.3747
 5804SOL    HW129045   0.399   4.071   2.172 -2.3762 -1.5572  1.1657
 5804SOL    HW229046   0.350   4.177   2.269 -0.3132  0.5567 -0.8019
 5805SOL     OW29047   1.882   0.032   7.085  0.5369  0.2518  0.2245
 5805SOL    HW129048   1.890   0.120   7.120  1.2169  0.1633  0.2892
 5805SOL    HW229049   1.793   0.014   7.054  1.1588  0.0864 -1.4846
 5806SOL     OW29050   2.501   1.120   4.491 -0.2251  0.6866  0.5105
 5806SOL    HW129051   2.534   1.087   4.575 -0.9233 -0.1633  0.4392
 5806SOL    HW229052   2.577   1.098   4.437 -0.4359  0.7694  0.1781
 5807SOL     OW29053   3.893   1.980   3.539  0.7288 -0.3855 -0.0907
 5807SOL    HW129054   3.974   1.977   3.487  0.6194 -2.0268 -0.1661
 5807SOL    HW229055   3.922   1.961   3.628 -0.4158  1.3551  0.6580
 5808SOL     OW29056   1.100   3.059   0.044  0.6288 -0.2229 -0.3833
 5808SOL    HW129057   1.186   3.016   0.039  1.1063  0.4798  1.9989
 5808SOL    HW229058   1.126   3.145   0.075 -0.2300 -0.5739  1.3301
 5809SOL     OW29059   4.357   4.493   5.631  0.2622  0.3731 -0.3244
 5809SOL    HW129060   4.378   4.496   5.724  3.2126  1.4800 -1.0088
 5809SOL    HW229061   4.281   4.550   5.624 -1.2549 -1.4794  1.3908
 5810SOL     OW29062   0.701   1.207   4.420 -0.4056 -0.2404 -0.5827
 5810SOL    HW129063   0.740   1.123   4.442 -1.2016 -0.3435  0.4468
 5810SOL    HW229064   0.767   1.263   4.462 -0.2300 -0.0051 -1.1800
 5811SOL     OW29065   2.054   3.321   0.782  0.1345  0.3813 -0.3410
 5811SOL    HW129066   1.999   3.284   0.850 -1.1026  0.6021 -1.2191
 5811SOL    HW229067   2.101   3.240   0.765 -0.2865  0.1654 -0.4724
 5812SOL     OW29068   0.057   2.551  15.543 -0.1826 -0.8301 -0.3889
 5812SOL    HW129069   0.106   2.493  15.485  0.9271 -1.3939  1.1133
 5812SOL    HW229070   0.126   2.611  15.572 -0.5271 -0.3097 -0.6607
 5813SOL     OW29071   2.296   1.952   0.953 -0.5433  0.5005 -0.4163
 5813SOL    HW129072   2.277   1.903   0.873 -0.8719 -1.4053  0.8202
 5813SOL    HW229073   2.389   1.975   0.946 -1.2239  4.0594  2.0284
 5814SOL     OW29074   2.365   0.708   4.721  0.0566 -0.2038 -0.1635
 5814SOL    HW129075   2.400   0.769   4.786  0.6883  1.6195 -2.1971
 5814SOL    HW229076   2.333   0.773   4.659 -2.3961 -0.8261  0.4408
 5815SOL     OW29077   1.631   3.659  12.300 -0.2567  0.1778  0.4424
 5815SOL    HW129078   1.566   3.726  12.319 -0.8539 -0.0306 -0.8588
 5815SOL    HW229079   1.680   3.696  12.226 -1.3774 -2.5219 -1.6574
 5816SOL     OW29080   1.889   1.548   5.562  0.0387 -0.1552  0.2899
 5816SOL    HW129081   1.811   1.493   5.556  0.6413 -0.7776 -1.8679
 5816SOL    HW229082   1.926   1.481   5.620 -1.8128 -1.4374 -0.0001
 5817SOL     OW29083   2.508   3.737  17.223 -0.1798 -0.3435 -0.0975
 5817SOL    HW129084   2.586   3.758  17.274  0.3315  1.7210 -1.7209
 5817SOL    HW229085   2.461   3.817  17.246  1.6059  0.0060  2.4274
 5818SOL     OW29086   2.496   0.407  11.569 -0.3710 -0.3015  0.3726
 5818SOL    HW129087   2.523   0.490  11.530  0.7112 -0.4409  0.8263
 5818SOL    HW229088   2.582   0.367  11.582 -0.5538 -0.7210  0.2856
 5819SOL     OW29089   3.076   4.133   7.030  0.0917 -0.2359  0.5467
 5819SOL    HW129090   3.064   4.049   6.986  1.1371  0.1252 -0.4316
 5819SOL    HW229091   2.995   4.184   7.023 -0.8200 -1.6559  0.6989
 5820SOL     OW29092   0.781   0.974  12.755 -0.7873  0.2204  0.2128
 5820SOL    HW129093   0.845   0.903  12.746  0.2073  0.9543  1.4328
 5820SOL    HW229094   0.839   1.046  12.781  0.5982 -1.0024  0.5146
 5821SOL     OW29095   1.521   1.962   0.021 -0.2908 -0.4480  0.4045
 5821SOL    HW129096   1.432   1.943  17.732 -0.0203 -0.3204 -0.5153
 5821SOL    HW229097   1.560   1.918  17.686 -2.4865 -2.5609  0.4989
 5822SOL     OW29098   2.948   0.161   5.688  0.2469  0.0330  0.4475
 5822SOL    HW129099   2.973   0.071   5.706 -2.3971 -0.6108  0.8611
 5822SOL    HW229100   2.860   0.153   5.726  0.2586  0.8028  0.6403
 5823SOL     OW29101   3.876   1.412   9.017  0.4471  0.4109 -0.0826
 5823SOL    HW129102   3.891   1.505   8.998  1.6466  0.2513  0.0813
 5823SOL    HW229103   3.886   1.375   8.929 -1.3987 -0.2265 -0.0093
 5824SOL     OW29104   2.200   0.389   3.912 -0.0900 -0.1317  0.2939
 5824SOL    HW129105   2.242   0.458   3.963 -0.6646  0.9116 -0.6441
 5824SOL    HW229106   2.134   0.356   3.974  0.6981 -0.6749  0.8522
 5825SOL     OW29107   3.314   0.876   3.878 -0.2214  0.1352 -0.9545
 5825SOL    HW129108   3.362   0.885   3.960 -1.6673  1.4028 -0.2318
 5825SOL    HW229109   3.332   0.788   3.846 -1.0463 -0.3660 -0.0299
 5826SOL     OW29110   4.584   4.018   7.783  0.6244 -0.0704 -0.6785
 5826SOL    HW129111   4.496   3.984   7.773  1.1095 -0.5078 -3.3355
 5826SOL    HW229112   4.628   3.933   7.794  0.7562  0.0592 -0.1812
 5827SOL     OW29113   1.164   4.002   6.072 -0.0249  0.1689  0.2219
 5827SOL    HW129114   1.180   4.088   6.110  0.6992  0.7241 -1.3194
 5827SOL    HW229115   1.128   3.951   6.144 -1.0711 -0.5868 -0.8358
 5828SOL     OW29116   3.872   0.690   8.766 -0.0521 -0.4011  0.3146
 5828SOL    HW129117   3.901   0.704   8.857  0.1030  0.1274  0.1843
 5828SOL    HW229118   3.860   0.779   8.734  0.1753 -0.1442  0.9389
 5829SOL     OW29119   3.422   4.731   1.950 -0.3894 -0.0521  0.0763
 5829SOL    HW129120   3.469   4.694   2.025  0.6538  0.4233 -0.3497
 5829SOL    HW229121   3.400   4.655   1.896 -3.2617 -0.8011  2.2886
 5830SOL     OW29122   3.412   0.039  13.689  0.2739  0.1164 -0.0653
 5830SOL    HW129123   3.407   4.682  13.664  0.7120 -0.6010  2.5065
 5830SOL    HW229124   3.358   0.076  13.619 -0.8430 -2.3380 -0.4987
 5831SOL     OW29125   4.266   1.770   3.073 -0.0151  0.5386 -0.3092
 5831SOL    HW129126   4.223   1.696   3.030  0.3487  1.1172 -1.6737
 5831SOL    HW229127   4.276   1.825   2.995 -0.1932  0.9843 -0.0190
 5832SOL     OW29128   0.833   4.672   8.439 -0.0589 -0.0968  0.2272
 5832SOL    HW129129   0.765   0.003   8.445 -0.5080 -0.7491  2.2460
 5832SOL    HW229130   0.908   4.710   8.486 -0.3492  1.0774 -0.2571
 5833SOL     OW29131   4.114   0.815  13.861  0.0909  0.2929  0.0651
 5833SOL    HW129132   4.126   0.746  13.927 -0.8928  0.3375  0.2793
 5833SOL    HW229133   4.029   0.850  13.885 -0.4138 -0.0230 -1.2878
 5834SOL     OW29134   4.464   0.412  11.764 -0.1141 -0.1379 -0.2629
 5834SOL    HW129135   4.554   0.389  11.742  0.8141  3.4410 -0.1818
 5834SOL    HW229136   4.429   0.464  11.691  2.2108 -0.6116 -1.6979
 5835SOL     OW29137   1.639   0.814  14.289 -0.3807  0.6416 -0.3571
 5835SOL    HW129138   1.593   0.771  14.217  5.4692 -0.1873 -3.5983
 5835SOL    HW229139   1.723   0.823  14.243 -0.1851 -2.1688 -0.5595
 5836SOL     OW29140   0.760   3.437   6.376 -0.3858  0.1469 -0.3488
 5836SOL    HW129141   0.814   3.478   6.443 -1.5560 -0.9502  1.2739
 5836SOL    HW229142   0.733   3.364   6.433  4.3088 -1.2904 -0.0144
 5837SOL     OW29143   2.974   1.673   9.626 -0.2168 -0.1472  0.4883
 5837SOL    HW129144   2.942   1.683   9.715 -0.6334  0.1783  0.3047
 5837SOL    HW229145   3.055   1.723   9.633 -0.7016  0.7464 -0.1068
 5838SOL     OW29146   1.720   1.833   0.992 -0.1826 -1.1526  0.3354
 5838SOL    HW129147   1.744   1.757   0.940 -0.3071 -2.0756  1.6254
 5838SOL    HW229148   1.637   1.860   0.952  0.2893 -0.4687 -0.1720
 5839SOL     OW29149   0.674   1.466   7.311  0.2885 -0.0278  1.2592
 5839SOL    HW129150   0.632   1.501   7.390 -1.3004  1.2514 -0.1701
 5839SOL    HW229151   0.702   1.378   7.337 -1.3765 -1.3466 -1.4020
 5840SOL     OW29152   0.105   2.381   2.636 -0.0276 -0.1517  0.3922
 5840SOL    HW129153   0.051   2.444   2.683 -0.1639  0.9646 -1.2744
 5840SOL    HW229154   0.091   2.307   2.695 -2.2783  0.2356  0.3573
 5841SOL     OW29155   0.436   1.068   2.337  0.0180 -0.0891  0.0358
 5841SOL    HW129156   0.505   1.076   2.271  0.1268  1.4856  0.3285
 5841SOL    HW229157   0.393   0.986   2.313 -0.1298  0.1397 -0.4940
 5842SOL     OW29158   1.730   4.234   2.763 -0.0442  0.2807  0.9005
 5842SOL    HW129159   1.726   4.244   2.858 -0.6242  0.2378  0.8771
 5842SOL    HW229160   1.816   4.193   2.750 -0.6990 -0.7666 -0.1893
 5843SOL     OW29161   1.660   1.017   3.408 -0.3478  0.2046 -0.1709
 5843SOL    HW129162   1.686   1.091   3.464  0.5317  0.5147 -0.9732
 5843SOL    HW229163   1.566   1.014   3.424 -0.1738  0.8831  1.0041
 5844SOL     OW29164   3.164   2.201   5.995 -0.2408  0.7966  0.0927
 5844SOL    HW129165   3.086   2.253   5.978 -1.5287 -1.5806 -1.2215
 5844SOL    HW229166   3.185   2.234   6.083 -2.3211 -0.8044  1.1799
 5845SOL     OW29167   0.970   0.086   9.114 -0.5919  0.1648  0.2096
 5845SOL    HW129168   1.004   0.082   9.024  0.3210 -1.3810  0.6297
 5845SOL    HW229169   0.986   4.733   9.146  0.7439  0.2903 -0.0773
 5846SOL     OW29170   4.166   1.946   3.427 -0.6698 -0.3572  0.2082
 5846SOL    HW129171   4.179   1.962   3.333  3.7180  1.3005  1.1147
 5846SOL    HW229172   4.238   1.886   3.444 -0.6369 -0.2164  0.5503
 5847SOL     OW29173   4.059   2.379   9.084 -0.1641  0.0214  0.0254
 5847SOL    HW129174   4.132   2.318   9.098  1.0748  1.2913 -0.8450
 5847SOL    HW229175   4.035   2.346   8.997  1.4632  0.3151 -0.5435
 5848SOL     OW29176   0.414   3.952   8.693 -0.3115 -0.1174 -0.3894
 5848SOL    HW129177   0.335   3.946   8.747  0.5924  3.3469  1.3155
 5848SOL    HW229178   0.486   3.933   8.753 -1.8202  1.1360  1.8436
 5849SOL     OW29179   0.713   2.045   1.382  0.1968 -0.0726  0.4706
 5849SOL    HW129180   0.746   1.988   1.452 -2.2616 -1.2048  0.7302
 5849SOL    HW229181   0.721   2.127   1.431  1.8359 -0.0758  0.1997
 5850SOL     OW29182   0.452   0.724   8.712 -0.1231  0.0723  0.0780
 5850SOL    HW129183   0.416   0.669   8.782 -0.6550  1.2777  0.7591
 5850SOL    HW229184   0.423   0.812   8.737  0.3765 -0.0992  1.2474
 5851SOL     OW29185   0.478   0.033  16.597 -0.0383 -0.2947 -0.1529
 5851SOL    HW129186   0.419   0.088  16.546 -0.8983  0.5076  1.7018
 5851SOL    HW229187   0.425   0.019  16.675 -0.9680  1.5346 -0.4598
 5852SOL     OW29188   4.690   1.113   5.002 -0.5644  0.0493 -0.1571
 5852SOL    HW129189   4.686   1.073   5.089  4.2638 -0.1128  0.0389
 5852SOL    HW229190   4.628   1.060   4.951 -1.9109  2.6971 -1.2463
 5853SOL     OW29191   0.238   2.984  11.566  0.1031 -0.5447  0.6763
 5853SOL    HW129192   0.309   2.983  11.502  0.4085 -1.4854  1.0352
 5853SOL    HW229193   0.253   2.906  11.618  0.5786  0.2549  1.7483
 5854SOL     OW29194   3.293   4.584   6.273  0.2651  0.4338 -0.9171
 5854SOL    HW129195   3.300   4.549   6.185  1.5166  0.1235 -0.6950
 5854SOL    HW229196   3.219   4.644   6.261 -0.3331 -0.0022  0.5380
 5855SOL     OW29197   4.270   3.335  16.004 -0.1672  0.3329 -0.0263
 5855SOL    HW129198   4.261   3.258  16.060  3.2913 -1.2789 -1.7223
 5855SOL    HW229199   4.186   3.335  15.956 -0.1489  3.1804 -0.0853
 5856SOL     OW29200   4.544   4.184   9.454 -0.0596  0.1325  0.3177
 5856SOL    HW129201   4.568   4.254   9.514 -1.3276 -0.4133  1.4788
 5856SOL    HW229202   4.588   4.216   9.376  1.3169 -0.8188  0.6984
 5857SOL     OW29203   3.062   1.769   9.081 -0.0791  0.0300 -0.9859
 5857SOL    HW129204   3.031   1.779   9.171  0.5550 -0.6709 -0.6898
 5857SOL    HW229205   2.983   1.769   9.027  1.7439  2.3190 -3.7024
 5858SOL     OW29206   1.358   3.534   2.990 -0.7665 -0.8345  0.1445
 5858SOL    HW129207   1.298   3.482   2.936 -0.1187 -2.3922  0.9196
 5858SOL    HW229208   1.313   3.519   3.073  1.2547 -0.0253  1.3835
 5859SOL     OW29209   4.392   4.268   2.602 -0.7834  0.3598 -0.0184
 5859SOL    HW129210   4.401   4.264   2.697  0.1473  1.3450 -0.0657
 5859SOL    HW229211   4.319   4.329   2.589 -0.3666  0.7833 -0.4043
 5860SOL     OW29212   2.536   1.738   1.763 -0.2282 -0.3176 -0.3016
 5860SOL    HW129213   2.476   1.741   1.689 -2.2977  0.0489  1.3799
 5860SOL    HW229214   2.540   1.645   1.784  0.2508 -0.4143 -0.8160
 5861SOL     OW29215   2.294   0.136   4.129 -0.0084 -1.1300 -0.2899
 5861SOL    HW129216   2.239   0.195   4.181 -1.3762 -0.8808 -2.0231
 5861SOL    HW229217   2.229   0.067   4.113 -0.0461 -1.0529 -0.4645
 5862SOL     OW29218   2.373   2.299   0.367  0.5981 -0.1998  0.6563
 5862SOL    HW129219   2.378   2.204   0.357 -2.4834 -0.2932  0.2022
 5862SOL    HW229220   2.343   2.304   0.458  2.6376  1.0535  1.2795
 5863SOL     OW29221   3.085   4.228   4.601 -0.7672 -0.2742 -0.6193
 5863SOL    HW129222   3.088   4.172   4.524  1.8726 -0.8632 -0.0889
 5863SOL    HW229223   3.019   4.192   4.659 -0.5239 -0.5205 -0.4972
 5864SOL     OW29224   2.020   0.509   8.320  0.0724  0.0253 -0.0759
 5864SOL    HW129225   2.011   0.492   8.227 -0.3536 -2.0917  0.3582
 5864SOL    HW229226   1.967   0.588   8.333 -1.4518 -0.9016 -0.7856
 5865SOL     OW29227   1.700   2.909  11.893 -0.3902 -0.5159  0.5353
 5865SOL    HW129228   1.781   2.948  11.926 -1.8559  1.5549  1.7168
 5865SOL    HW229229   1.734   2.835  11.845 -0.6845  0.8061 -1.7021
 5866SOL     OW29230   1.963   0.872   7.490 -0.4115  0.6346  0.6058
 5866SOL    HW129231   2.017   0.948   7.470 -0.5118 -0.5392 -4.1153
 5866SOL    HW229232   2.027   0.802   7.477 -1.0399  0.1631  0.0313
 5867SOL     OW29233   0.238   1.870   1.132 -0.2046 -0.0276  0.2696
 5867SOL    HW129234   0.266   1.822   1.210 -1.1372  1.4274  1.4974
 5867SOL    HW229235   0.194   1.942   1.177  1.1163 -0.9621  3.0793
 5868SOL     OW29236   0.397   2.543  15.608 -0.0495 -0.1867  0.6307
 5868SOL    HW129237   0.371   2.454  15.633  0.9467 -0.8874 -0.7956
 5868SOL    HW229238   0.464   2.530  15.540  1.8590  1.4417  2.2110
 5869SOL     OW29239   2.104   4.303   1.828  0.2043 -0.1669 -0.3405
 5869SOL    HW129240   2.150   4.263   1.755  0.3725  1.0948 -0.9352
 5869SOL    HW229241   2.023   4.310   1.778  0.6679 -2.2628 -1.3678
 5870SOL     OW29242   2.910   0.010   6.805  0.4174 -0.0303  0.5489
 5870SOL    HW129243   2.856   4.714   6.732  3.3900 -1.0752 -1.2356
 5870SOL    HW229244   2.985   0.054   6.765 -1.4320  2.6328 -0.0274
 5871SOL     OW29245   1.409   2.582   0.907  0.0685 -0.0402 -0.0556
 5871SOL    HW129246   1.436   2.587   0.998 -0.6266  1.3557  0.0810
 5871SOL    HW229247   1.315   2.569   0.919 -0.4993  1.8437 -2.3640
 5872SOL     OW29248   2.266   2.651  16.284  0.5639  0.1941 -0.1643
 5872SOL    HW129249   2.303   2.692  16.363  0.7678 -0.7848  0.2464
 5872SOL    HW229250   2.261   2.730  16.231 -0.6744 -0.6032 -1.2209
 5873SOL     OW29251   3.452   2.199   6.694  0.8419 -0.3058 -0.3759
 5873SOL    HW129252   3.447   2.131   6.762  0.5863  0.4717  0.3761
 5873SOL    HW229253   3.433   2.281   6.738  0.6074  0.0113 -1.0755
 5874SOL     OW29254   1.777   1.148  13.625 -0.3665 -0.7521  0.4135
 5874SOL    HW129255   1.703   1.088  13.637 -1.5072  0.1553 -2.1303
 5874SOL    HW229256   1.759   1.162  13.532 -0.1197  1.2886  0.6728
 5875SOL     OW29257   1.547   0.395  10.953  0.1390 -0.4778  0.2146
 5875SOL    HW129258   1.634   0.420  10.984 -0.0214  0.5046 -0.1521
 5875SOL    HW229259   1.503   0.408  11.037 -1.0191 -2.3356 -0.0889
 5876SOL     OW29260   3.427   0.360   4.193  0.1188  0.3893 -0.0067
 5876SOL    HW129261   3.424   0.266   4.207  1.8546  0.4656  0.8976
 5876SOL    HW229262   3.519   0.372   4.170 -0.2669  1.3895 -1.0363
 5877SOL     OW29263   4.189   3.589   7.433 -0.2898 -0.3377  0.4038
 5877SOL    HW129264   4.134   3.650   7.483 -2.4357 -0.9713 -1.1909
 5877SOL    HW229265   4.275   3.605   7.471 -0.1027  1.5750 -0.8693
 5878SOL     OW29266   0.333   2.073   2.094  0.0526  0.8934  0.2912
 5878SOL    HW129267   0.241   2.049   2.093 -0.0518  1.2961 -0.2471
 5878SOL    HW229268   0.333   2.107   2.004  1.2410 -0.2323 -0.1482
 5879SOL     OW29269   4.426   2.207   9.759 -0.0635 -0.1958  0.4362
 5879SOL    HW129270   4.400   2.121   9.727  1.4895 -1.2553  2.0153
 5879SOL    HW229271   4.489   2.191   9.829  2.2062 -0.5002 -1.6807
 5880SOL     OW29272   2.241   1.137  11.765 -0.4066 -0.1251 -0.2054
 5880SOL    HW129273   2.223   1.147  11.672  0.9041 -0.2399 -0.4774
 5880SOL    HW229274   2.327   1.179  11.772 -1.5342  2.1557 -0.1791
 5881SOL     OW29275   3.795   1.186   7.601 -0.7439  0.4965 -0.0275
 5881SOL    HW129276   3.752   1.120   7.545 -1.3163  1.7510 -1.0783
 5881SOL    HW229277   3.851   1.238   7.543  2.0178 -3.1893 -0.6984
 5882SOL     OW29278   1.524   0.291   4.731  0.0132  0.0259 -0.3991
 5882SOL    HW129279   1.484   0.249   4.808 -0.4295 -1.4915 -1.4591
 5882SOL    HW229280   1.547   0.216   4.675  0.6537 -1.2053  1.4787
 5883SOL     OW29281   2.371   3.698  10.377  0.1309 -0.4664  0.3182
 5883SOL    HW129282   2.458   3.697  10.418  0.1380  1.7742  0.3467
 5883SOL    HW229283   2.321   3.745  10.444 -0.5719  0.4082 -0.8213
 5884SOL     OW29284   3.723   4.526   4.301  0.9543 -0.3919  0.2586
 5884SOL    HW129285   3.730   4.474   4.380  1.7362 -0.1191  0.3664
 5884SOL    HW229286   3.634   4.554   4.321  1.6563  0.4234  2.2270
 5885SOL     OW29287   4.707   0.811   0.664 -0.3024  0.4353  0.0852
 5885SOL    HW129288   0.021   0.729   0.652 -0.2127  0.7773 -1.8362
 5885SOL    HW229289   4.678   0.834   0.576  0.7734 -1.6024 -0.8176
 5886SOL     OW29290   4.224   0.316   4.575  0.5954  0.4070  0.1794
 5886SOL    HW129291   4.287   0.385   4.596 -1.2878  1.6075  1.9180
 5886SOL    HW229292   4.234   0.311   4.480 -0.3704 -2.0078  0.2055
 5887SOL     OW29293   1.688   3.398   6.012 -0.2146  0.0315  0.3850
 5887SOL    HW129294   1.727   3.329   6.066  0.8882 -0.7811 -1.4856
 5887SOL    HW229295   1.724   3.391   5.924 -1.3337  0.7311 -0.1256
 5888SOL     OW29296   3.559   2.030   5.327 -0.1487 -0.5228 -0.6553
 5888SOL    HW129297   3.654   2.028   5.326 -0.1849 -2.3694  0.2713
 5888SOL    HW229298   3.541   2.111   5.278 -0.6471 -1.1544 -1.5005
 5889SOL     OW29299   3.621   3.655  12.542 -0.1848  0.1604 -0.0898
 5889SOL    HW129300   3.587   3.733  12.498 -2.0832 -0.8154 -0.3698
 5889SOL    HW229301   3.599   3.677  12.632  1.7073 -0.5362  0.5375
 5890SOL     OW29302   4.073   0.749   8.039  0.5812  0.2043  0.1981
 5890SOL    HW129303   4.083   0.733   7.946 -1.3403  0.5873 -0.0689
 5890SOL    HW229304   4.162   0.716   8.054  1.2735  2.2593  0.6168
 5891SOL     OW29305   4.464   1.157  16.738 -0.0661 -0.0631  0.1064
 5891SOL    HW129306   4.521   1.206  16.798  0.5585 -1.6392  0.7921
 5891SOL    HW229307   4.390   1.214  16.718 -0.9850 -1.8631 -1.5818
 5892SOL     OW29308   1.895   3.014   6.550  0.4521  0.4692 -0.3162
 5892SOL    HW129309   1.924   2.935   6.596 -0.9444  0.1164 -0.0315
 5892SOL    HW229310   1.865   2.977   6.468  2.3016  1.8174 -1.5939
 5893SOL     OW29311   4.046   4.040   6.590 -0.1916  0.2684  0.0036
 5893SOL    HW129312   4.000   4.105   6.641  0.4401  0.5668  0.1875
 5893SOL    HW229313   4.122   4.092   6.564  0.1887 -0.9159 -1.3285
 5894SOL     OW29314   4.071   1.823   1.569 -0.4727 -0.1038  0.2486
 5894SOL    HW129315   4.114   1.900   1.606 -1.2340  0.3194  0.2492
 5894SOL    HW229316   4.019   1.800   1.646 -0.5329 -1.2405 -0.1409
 5895SOL     OW29317   2.620   2.321   4.547  0.0579  0.3726 -0.0456
 5895SOL    HW129318   2.599   2.249   4.487 -1.2533  1.9163 -1.4502
 5895SOL    HW229319   2.620   2.388   4.478 -0.4512 -1.4994 -1.8927
 5896SOL     OW29320   2.515   0.455   8.399  0.3787 -0.1536  0.2346
 5896SOL    HW129321   2.510   0.363   8.425 -3.2315 -0.0565 -0.0948
 5896SOL    HW229322   2.427   0.467   8.364  0.3667 -1.9809 -0.3577
 5897SOL     OW29323   1.325   1.950   1.229 -0.7217 -0.5881 -0.2663
 5897SOL    HW129324   1.234   1.940   1.255  0.0269 -1.4926  2.0908
 5897SOL    HW229325   1.332   1.927   1.136  2.4070 -0.2118 -0.1456
 5898SOL     OW29326   1.165   4.023   4.226 -0.1399  0.0290  0.2328
 5898SOL    HW129327   1.096   3.986   4.281  0.5547  0.2308  1.2447
 5898SOL    HW229328   1.174   4.115   4.251 -0.4366 -0.0852  0.7656
 5899SOL     OW29329   3.481   4.024   3.766  0.3212  0.1988 -0.0027
 5899SOL    HW129330   3.520   3.959   3.824  0.6652  1.1510  0.8272
 5899SOL    HW229331   3.420   4.073   3.821 -0.9570 -1.5486  0.1447
 5900SOL     OW29332   1.206   4.254   4.603  0.9193  0.3574 -0.1579
 5900SOL    HW129333   1.157   4.192   4.549  1.5962 -0.0706 -0.2815
 5900SOL    HW229334   1.158   4.335   4.587  0.5420  0.1505 -0.0825
 5901SOL     OW29335   0.152   1.604   3.858 -0.2653  0.0642  0.0930
 5901SOL    HW129336   0.197   1.523   3.836  1.6457  0.7515  1.4460
 5901SOL    HW229337   0.157   1.591   3.953 -0.1672 -1.3674 -0.1115
 5902SOL     OW29338   0.809   0.557   7.281  0.3877 -0.3459  0.0068
 5902SOL    HW129339   0.724   0.592   7.255  0.6099 -1.5852 -2.4295
 5902SOL    HW229340   0.870   0.628   7.266  1.7863 -1.1577  1.8677
 5903SOL     OW29341   0.584   1.092   4.196  0.0384 -0.3177  0.0421
 5903SOL    HW129342   0.618   1.141   4.271 -1.8754 -0.7784  1.2155
 5903SOL    HW229343   0.506   1.050   4.233  0.1912 -1.0909 -0.5305
 5904SOL     OW29344   0.862   3.887   0.425 -0.1206 -0.0989 -0.2827
 5904SOL    HW129345   0.948   3.879   0.384 -0.6964  2.3402 -1.9356
 5904SOL    HW229346   0.825   3.961   0.377  0.2231  1.0168  1.1829
 5905SOL     OW29347   2.932   4.095  14.907  0.0701  0.3036 -0.0480
 5905SOL    HW129348   2.889   4.096  14.821 -0.8956 -0.5164  0.4341
 5905SOL    HW229349   2.970   4.008  14.902  1.1738  0.9487 -2.9682
 5906SOL     OW29350   1.028   3.966   2.633 -0.1116  0.2886 -0.2590
 5906SOL    HW129351   1.007   4.047   2.587  1.0986  0.2537 -0.8829
 5906SOL    HW229352   1.113   3.985   2.673  0.0696 -0.3281 -0.3546
 5907SOL     OW29353   4.121   3.983   3.993 -0.5756 -0.6087  0.1251
 5907SOL    HW129354   4.032   3.954   4.011 -0.4788  0.5605  2.4814
 5907SOL    HW229355   4.151   3.969   4.082 -0.5538 -0.6268  0.1149
 5908SOL     OW29356   3.169   3.665   6.253  0.0873 -0.2707  0.5904
 5908SOL    HW129357   3.142   3.576   6.278  0.5014 -0.4326  0.4674
 5908SOL    HW229358   3.157   3.712   6.335 -0.2635  0.4256  0.1408
 5909SOL     OW29359   0.362   0.209   3.510  0.4448  0.2983 -0.5844
 5909SOL    HW129360   0.381   0.151   3.584 -0.5629  0.1604 -0.4203
 5909SOL    HW229361   0.407   0.164   3.439  1.8102 -0.1807  0.5756
 5910SOL     OW29362   2.784   3.453   1.196  0.7774  0.8356  0.2963
 5910SOL    HW129363   2.832   3.525   1.237  2.1864 -0.3937  0.8294
 5910SOL    HW229364   2.813   3.379   1.249  0.8449  0.2752 -0.5107
 5911SOL     OW29365   1.634   3.482   5.696  0.0272 -0.0475 -0.3515
 5911SOL    HW129366   1.601   3.403   5.652 -0.7483 -0.0191  0.1773
 5911SOL    HW229367   1.560   3.536   5.670 -2.2272 -2.4656  0.9484
 5912SOL     OW29368   3.694   4.231   5.526  0.4096  0.0032  0.1895
 5912SOL    HW129369   3.689   4.211   5.433  0.5310  1.5613 -0.1538
 5912SOL    HW229370   3.613   4.280   5.536  0.2962 -0.2355  0.4275
 5913SOL     OW29371   4.130   3.083   6.532 -0.3129 -0.4466  0.2750
 5913SOL    HW129372   4.192   3.046   6.595 -0.1445 -1.2015 -0.3209
 5913SOL    HW229373   4.189   3.058   6.460 -0.3471 -1.2534  0.5227
 5914SOL     OW29374   1.060   4.338   8.655  0.2654  0.2924 -0.4261
 5914SOL    HW129375   1.019   4.286   8.724 -0.8884  0.4839 -0.9814
 5914SOL    HW229376   0.999   4.323   8.583  0.8941 -0.8368 -0.7266
 5915SOL     OW29377   2.505   1.417   4.530 -0.0097  0.2368  0.0292
 5915SOL    HW129378   2.530   1.406   4.621  2.5161  1.5578 -0.4820
 5915SOL    HW229379   2.478   1.326   4.517 -0.5477  0.3218  0.5895
 5916SOL     OW29380   4.331   2.413   6.495 -0.1362 -0.4479 -0.3819
 5916SOL    HW129381   4.399   2.353   6.523 -0.5491 -0.3206  0.8608
 5916SOL    HW229382   4.255   2.355   6.495  0.5730 -1.3663  2.0239
 5917SOL     OW29383   2.441   0.396   6.547  0.1285 -0.1679 -0.3057
 5917SOL    HW129384   2.505   0.428   6.484  1.4054 -1.4661  0.3251
 5917SOL    HW229385   2.430   0.303   6.526  1.5916 -0.7664  1.5626
 5918SOL     OW29386   3.330   0.499   8.957  0.4890  0.0448  0.3432
 5918SOL    HW129387   3.317   0.581   9.006 -0.0670  0.0188  0.2374
 5918SOL    HW229388   3.369   0.533   8.876  0.6897 -1.9210 -0.3888
 5919SOL     OW29389   0.054   3.338   5.255 -0.5122 -0.1731  0.3734
 5919SOL    HW129390   0.019   3.331   5.166 -2.0077 -0.2405  0.9692
 5919SOL    HW229391   0.054   3.431   5.276  0.0273 -0.6299  2.3873
 5920SOL     OW29392   0.563   2.889   3.420 -0.2258 -1.0730  0.3313
 5920SOL    HW129393   0.507   2.815   3.442 -0.1436 -0.8703  1.1940
 5920SOL    HW229394   0.492   2.931   3.372  0.1620 -0.6959  0.0842
 5921SOL     OW29395   0.670   4.603   9.210 -0.1126 -0.0762 -0.1220
 5921SOL    HW129396   0.687   4.687   9.251  0.8811 -0.2808 -0.1086
 5921SOL    HW229397   0.759   4.567   9.208 -0.2396 -0.1761 -3.8296
 5922SOL     OW29398   4.199   0.685   7.131 -0.7989  0.5412  0.2435
 5922SOL    HW129399   4.276   0.651   7.086 -0.6463 -1.7723  2.2542
 5922SOL    HW229400   4.212   0.659   7.222  2.1368  1.1801 -0.0016
 5923SOL     OW29401   1.610   1.292  16.044  0.6513  0.0254 -0.7109
 5923SOL    HW129402   1.532   1.343  16.065  1.3422 -0.2508  2.5765
 5923SOL    HW229403   1.671   1.316  16.114  0.8940 -2.9892  0.1340
 5924SOL     OW29404   0.673   4.310   9.085 -0.0806 -0.2211 -0.7614
 5924SOL    HW129405   0.647   4.220   9.106  0.8825 -0.2064  0.4714
 5924SOL    HW229406   0.734   4.337   9.153 -1.9577  0.2022  0.7471
 5925SOL     OW29407   3.800   1.396   2.779  0.3304  0.2885 -0.8630
 5925SOL    HW129408   3.833   1.420   2.865 -1.2451  0.6372 -0.3443
 5925SOL    HW229409   3.815   1.475   2.727  2.1059 -0.6184 -1.7236
 5926SOL     OW29410   4.731   1.631   7.801  0.2971 -0.4464 -0.0043
 5926SOL    HW129411   4.692   1.636   7.714 -0.5441 -0.5185  0.3729
 5926SOL    HW229412   0.006   1.536   7.810 -1.0308 -0.5197  0.7778
 5927SOL     OW29413   0.974   2.103   0.167 -0.3275 -0.3232  0.4120
 5927SOL    HW129414   0.985   2.160   0.243  0.9022 -1.4689  1.0927
 5927SOL    HW229415   0.963   2.018   0.210 -1.0105 -1.3731 -1.7813
 5928SOL     OW29416   1.761   1.090   5.102  0.4986  0.7033 -0.4506
 5928SOL    HW129417   1.752   1.139   5.020  1.7476  1.0512 -0.3787
 5928SOL    HW229418   1.797   1.162   5.154  0.3914 -0.5490  1.3622
 5929SOL     OW29419   1.038   0.599   7.081 -0.1371 -0.0089 -0.5815
 5929SOL    HW129420   1.003   0.535   7.020  1.1188  0.0052 -1.3188
 5929SOL    HW229421   1.072   0.665   7.021 -0.2664 -0.3384 -1.0135
 5930SOL     OW29422   4.205   0.777   9.638  0.3504 -0.0554  0.1800
 5930SOL    HW129423   4.144   0.846   9.611  0.8542 -0.6394 -2.3784
 5930SOL    HW229424   4.247   0.771   9.553 -0.0588 -1.8083  0.1114
 5931SOL     OW29425   3.348   1.811   6.627 -0.1424 -0.6736 -0.5691
 5931SOL    HW129426   3.320   1.833   6.537 -0.5685  1.6132  0.1041
 5931SOL    HW229427   3.441   1.831   6.616  0.0772 -0.8352  1.0153
 5932SOL     OW29428   1.291   0.233   3.560 -0.0743 -0.0715 -0.7283
 5932SOL    HW129429   1.299   0.306   3.499 -1.7590  1.5039  0.9248
 5932SOL    HW229430   1.334   0.176   3.496  0.6788  0.1637 -0.4225
 5933SOL     OW29431   3.436   0.728   4.940 -0.7024  0.0681  0.3719
 5933SOL    HW129432   3.521   0.771   4.931 -1.0591  0.3765 -1.3102
 5933SOL    HW229433   3.453   0.636   4.962 -0.1102 -0.0218 -0.4790
 5934SOL     OW29434   1.921   4.040  14.689 -0.0867 -0.3237 -0.8325
 5934SOL    HW129435   1.833   4.029  14.653 -1.0165  0.0603  1.3343
 5934SOL    HW229436   1.956   3.955  14.661  0.7593 -0.6014  1.1031
 5935SOL     OW29437   3.882   3.104   2.355 -0.4018  0.0530  0.0163
 5935SOL    HW129438   3.861   3.014   2.378  0.0501  0.1284  0.7009
 5935SOL    HW229439   3.937   3.104   2.277 -0.4020  0.6362  0.0161
 5936SOL     OW29440   0.228   2.393  13.553 -0.3080  0.2824  0.2220
 5936SOL    HW129441   0.190   2.306  13.567  1.0350 -0.6046 -1.6971
 5936SOL    HW229442   0.249   2.422  13.642  1.1218  1.6106 -0.5546
 5937SOL     OW29443   4.364   2.884   3.713  0.0643  0.4921  0.4355
 5937SOL    HW129444   4.301   2.814   3.730 -0.4906  1.7982  3.7499
 5937SOL    HW229445   4.315   2.957   3.751 -0.8868 -0.5567  1.2019
 5938SOL     OW29446   1.686   0.596   9.907 -0.2852  0.2206 -0.5215
 5938SOL    HW129447   1.688   0.626   9.816  0.9367  0.5485 -0.3761
 5938SOL    HW229448   1.712   0.680   9.944  1.2017 -0.7530  0.6039
 5939SOL     OW29449   3.241   2.279   6.469 -0.3712  0.5476 -0.2561
 5939SOL    HW129450   3.173   2.337   6.503 -0.8419  1.0323 -2.0134
 5939SOL    HW229451   3.302   2.276   6.542 -0.0558  1.1434 -0.5048
 5940SOL     OW29452   4.375   1.581   7.994 -0.2675  0.7758 -0.5364
 5940SOL    HW129453   4.431   1.655   7.971 -1.2202  1.3296 -1.0607
 5940SOL    HW229454   4.429   1.503   7.999 -0.6193  0.6463  1.3059
 5941SOL     OW29455   3.625   1.849  17.463 -0.1154  0.5167  0.1330
 5941SOL    HW129456   3.595   1.776  17.409  4.0995  0.4725 -2.1109
 5941SOL    HW229457   3.632   1.804  17.548  0.2176  1.9052  0.8360
 5942SOL     OW29458   0.087   1.586  15.202  0.0798 -0.1653  0.9734
 5942SOL    HW129459   0.056   1.516  15.259  1.9389 -1.2302  0.6586
 5942SOL    HW229460   0.172   1.603  15.243 -0.2043 -1.5417  2.1364
 5943SOL     OW29461   1.416   1.972   8.069 -0.3658  0.2141  0.1903
 5943SOL    HW129462   1.327   1.950   8.097  0.5283 -1.3080  1.7250
 5943SOL    HW229463   1.443   1.890   8.028 -1.4531 -0.9572  1.8294
 5944SOL     OW29464   2.495   4.125   2.555 -0.2774  0.2508 -0.0427
 5944SOL    HW129465   2.583   4.129   2.592  0.3705 -3.7908 -1.1641
 5944SOL    HW229466   2.512   4.075   2.475  1.2303  0.0853  0.3719
 5945SOL     OW29467   1.716   0.881   4.774 -0.6225  0.1044  0.0537
 5945SOL    HW129468   1.672   0.945   4.718  0.4247 -0.9509 -1.9649
 5945SOL    HW229469   1.786   0.840   4.723  0.6339 -0.4479  2.2084
 5946SOL     OW29470   2.476   2.232   8.359  0.6928 -0.9998 -0.2708
 5946SOL    HW129471   2.408   2.164   8.353  0.2715 -0.5710 -0.3572
 5946SOL    HW229472   2.529   2.200   8.432 -0.3503  0.0100  0.9346
 5947SOL     OW29473   3.557   2.007  14.485 -0.6240  0.4542 -0.7021
 5947SOL    HW129474   3.536   2.065  14.558 -3.3082 -0.6956 -0.5690
 5947SOL    HW229475   3.551   1.921  14.527 -0.2396  0.1730 -1.2254
 5948SOL     OW29476   2.181   4.539   4.627 -0.1938 -0.1705  0.0462
 5948SOL    HW129477   2.175   4.460   4.681 -2.4308 -0.7323 -1.0454
 5948SOL    HW229478   2.258   4.587   4.658  0.7535 -1.9450  0.4651
 5949SOL     OW29479   1.716   1.187   8.453 -0.3766 -0.1061  0.5579
 5949SOL    HW129480   1.773   1.259   8.426 -0.3772 -0.2686  0.1155
 5949SOL    HW229481   1.632   1.232   8.454 -0.7368 -0.7062 -1.5737
 5950SOL     OW29482   2.572   2.982   8.485  0.1812  0.4535 -0.1912
 5950SOL    HW129483   2.609   3.004   8.400  1.9412  1.2236  0.7945
 5950SOL    HW229484   2.480   2.978   8.459  0.6782 -2.5331 -1.5449
 5951SOL     OW29485   1.812   0.516  14.239  0.3384 -0.3065  0.5145
 5951SOL    HW129486   1.881   0.521  14.305  1.2656  0.5191 -0.5257
 5951SOL    HW229487   1.780   0.427  14.252  2.0758 -0.9899  0.1359
 5952SOL     OW29488   4.548   3.705   2.212  0.3902  0.4715 -0.2210
 5952SOL    HW129489   4.538   3.712   2.117  0.9906 -1.8879 -0.4560
 5952SOL    HW229490   4.631   3.750   2.232 -0.2952  1.0745  1.2720
 5953SOL     OW29491   3.184   1.002  16.557  0.9280 -0.1194  0.2512
 5953SOL    HW129492   3.174   0.907  16.548  3.2039 -0.3568  0.1333
 5953SOL    HW229493   3.151   1.041  16.476 -1.1376 -1.5218  0.4081
 5954SOL     OW29494   2.037   2.510   4.431  0.2178 -0.2694  0.9642
 5954SOL    HW129495   2.086   2.446   4.482  1.4356  0.2800  0.4881
 5954SOL    HW229496   1.950   2.471   4.440  0.2080 -0.5834 -0.4210
 5955SOL     OW29497   2.525   1.138   6.481  0.3324  0.2598 -0.3538
 5955SOL    HW129498   2.618   1.118   6.491  0.2055 -0.0358  0.2558
 5955SOL    HW229499   2.493   1.052   6.454  1.1555 -0.1806  0.0704
 5956SOL     OW29500   2.190   2.810  17.390  0.1947 -0.0231  0.0734
 5956SOL    HW129501   2.282   2.817  17.416  0.2664  0.8117 -0.3950
 5956SOL    HW229502   2.192   2.796  17.295  1.0555  1.7512 -0.1717
 5957SOL     OW29503   2.675   3.081   8.262  0.0509 -0.0400 -0.5585
 5957SOL    HW129504   2.754   3.089   8.208  0.7181 -2.3302  0.0969
 5957SOL    HW229505   2.622   3.034   8.198 -0.1129  0.4938 -0.8202
 5958SOL     OW29506   3.685   3.330   0.408 -0.3974  0.3824 -0.1676
 5958SOL    HW129507   3.741   3.263   0.369 -2.4811 -2.5385  1.8042
 5958SOL    HW229508   3.615   3.344   0.344 -0.6461 -0.0547  0.0058
 5959SOL     OW29509   4.595   3.843  12.148 -0.9409  0.2480  0.4048
 5959SOL    HW129510   4.647   3.922  12.134  0.5604 -1.0652 -1.3656
 5959SOL    HW229511   4.625   3.826  12.237  0.1754  1.5718  0.2753
 5960SOL     OW29512   2.626   0.449   6.344  0.2214 -0.1217 -0.1174
 5960SOL    HW129513   2.672   0.372   6.310  3.1127  1.9663 -0.9574
 5960SOL    HW229514   2.685   0.518   6.313  0.0753 -0.3067 -0.8077
 5961SOL     OW29515   1.197   2.360   2.030 -0.3302  0.0560 -0.5023
 5961SOL    HW129516   1.133   2.423   1.995  0.0558 -0.6836 -2.5337
 5961SOL    HW229517   1.177   2.377   2.122 -0.2902  0.0425 -0.4912
 5962SOL     OW29518   3.306   2.856  10.386 -0.2756 -0.1678  0.0578
 5962SOL    HW129519   3.211   2.844  10.376 -0.4431  2.6829 -1.5459
 5962SOL    HW229520   3.317   2.920  10.456  0.5414 -1.8172  1.4356
 5963SOL     OW29521   0.838   0.570   4.544  0.0786 -0.0229 -0.0362
 5963SOL    HW129522   0.802   0.615   4.467  0.7373 -1.7099 -1.3394
 5963SOL    HW229523   0.875   0.500   4.490 -0.8029  0.7475 -1.6529
 5964SOL     OW29524   2.354   2.528  17.399 -0.5747 -0.2737 -0.2915
 5964SOL    HW129525   2.269   2.512  17.357 -1.6504  0.6357  1.5162
 5964SOL    HW229526   2.347   2.615  17.438 -0.6336 -0.2621 -0.3280
 5965SOL     OW29527   2.431   1.033  10.228  0.3393  0.7564 -0.2947
 5965SOL    HW129528   2.458   0.941  10.228  0.4289  0.7736  0.6898
 5965SOL    HW229529   2.351   1.031  10.176  0.8395 -0.3095 -1.0090
 5966SOL     OW29530   0.732   2.865   8.153  0.8599  0.3920  0.1012
 5966SOL    HW129531   0.816   2.897   8.120  1.0715 -2.2074 -1.8892
 5966SOL    HW229532   0.666   2.918   8.109  2.2831  1.7047 -0.4412
 5967SOL     OW29533   3.731   3.278  15.823  0.2056  0.5448  0.1529
 5967SOL    HW129534   3.684   3.198  15.799  1.9505  0.0697 -1.6635
 5967SOL    HW229535   3.767   3.257  15.910  2.0691  0.8746 -0.5428
 5968SOL     OW29536   2.810   3.315  12.668 -0.3939 -0.2428  0.4922
 5968SOL    HW129537   2.879   3.313  12.603  0.3265  1.0499  1.2169
 5968SOL    HW229538   2.788   3.403  12.639  1.3940 -0.3026 -1.0077
 5969SOL     OW29539   3.213   1.880   2.525  0.2451  0.2444  0.4889
 5969SOL    HW129540   3.289   1.832   2.490 -0.2760 -1.8939  2.2771
 5969SOL    HW229541   3.179   1.929   2.450  0.2519  0.1394  0.4172
 5970SOL     OW29542   4.432   1.187  10.696  0.3409 -0.0170 -0.1921
 5970SOL    HW129543   4.503   1.205  10.758 -0.4348  0.7724  0.4615
 5970SOL    HW229544   4.478   1.136  10.630 -0.8685 -0.8199 -0.4227
 5971SOL     OW29545   3.720   1.947   4.634 -0.3933 -0.3887 -0.7097
 5971SOL    HW129546   3.749   1.873   4.580  0.9521  0.2539 -0.8638
 5971SOL    HW229547   3.727   2.020   4.573 -1.6965  2.1201  2.1655
 5972SOL     OW29548   2.777   4.382   2.492 -0.5294 -0.1677  0.3709
 5972SOL    HW129549   2.688   4.384   2.455 -0.3586  1.5294  0.0215
 5972SOL    HW229550   2.812   4.462   2.452 -0.8790  0.9145  2.1912
 5973SOL     OW29551   1.093   4.682  10.480  0.7663 -0.1988  0.2584
 5973SOL    HW129552   1.175   4.723  10.507 -0.0138  1.2860  0.3760
 5973SOL    HW229553   1.022   0.011  10.486 -1.3991 -2.7296  1.7717
 5974SOL     OW29554   4.719   0.608   6.676  0.3259  0.0713 -0.5637
 5974SOL    HW129555   4.666   0.685   6.653  0.6053  0.2818 -0.5078
 5974SOL    HW229556   4.678   0.544   6.619  0.4518 -0.3928 -0.1329
 5975SOL     OW29557   2.957   4.196   2.847  0.0258 -0.6370  0.1510
 5975SOL    HW129558   2.928   4.176   2.936  0.8709  1.7259  0.9525
 5975SOL    HW229559   3.050   4.178   2.863 -0.1269  0.4016  2.2364
 5976SOL     OW29560   4.352   1.809   2.479 -0.0790 -0.4627  0.2804
 5976SOL    HW129561   4.283   1.794   2.543 -1.7531  0.8460 -1.2305
 5976SOL    HW229562   4.378   1.717   2.478 -2.1656 -1.0585  0.4371
 5977SOL     OW29563   2.198   4.421  10.598 -0.0273 -0.6016 -0.0730
 5977SOL    HW129564   2.109   4.454  10.614  0.4728  1.4577 -1.4996
 5977SOL    HW229565   2.242   4.473  10.665  2.1422 -0.7912 -1.3384
 5978SOL     OW29566   3.412   0.102   9.956  0.3290  0.4806  0.0902
 5978SOL    HW129567   3.340   0.099   9.893  1.4754 -0.8903 -1.1549
 5978SOL    HW229568   3.408   0.019  10.003 -2.9280  0.9810  0.6383
 5979SOL     OW29569   0.768   1.310   5.868 -0.6544 -0.5560  0.6531
 5979SOL    HW129570   0.802   1.347   5.949 -0.9606  2.6447 -0.6860
 5979SOL    HW229571   0.739   1.222   5.894 -0.4274 -0.7758  0.1774
 5980SOL     OW29572   3.314   1.748   7.698 -0.1694 -0.2846  0.6162
 5980SOL    HW129573   3.356   1.801   7.765  1.6703 -0.1870 -0.6197
 5980SOL    HW229574   3.263   1.683   7.747  1.5736 -0.7647  1.8018
 5981SOL     OW29575   4.106   1.522   2.666  0.5347  0.0240 -0.3968
 5981SOL    HW129576   4.016   1.548   2.646  0.3127 -0.9376 -0.6733
 5981SOL    HW229577   4.151   1.605   2.652  2.2443 -0.8972 -0.3352
 5982SOL     OW29578   2.235   0.782  13.271 -0.1747 -0.2654  0.7135
 5982SOL    HW129579   2.296   0.717  13.235  1.6180  0.8567  1.7187
 5982SOL    HW229580   2.179   0.803  13.197  0.0291 -2.7026 -0.1483
 5983SOL     OW29581   2.534   1.026   2.336  0.0161  0.0441 -0.2476
 5983SOL    HW129582   2.550   0.942   2.293 -1.9725 -0.0667 -0.7929
 5983SOL    HW229583   2.619   1.039   2.379 -0.3904 -0.0758  0.6038
 5984SOL     OW29584   0.601   1.832   9.762  0.2474  0.0550  0.0629
 5984SOL    HW129585   0.548   1.799   9.835  0.2738 -3.4361 -1.4904
 5984SOL    HW229586   0.671   1.766   9.760 -0.7068 -0.9448 -0.2749
 5985SOL     OW29587   3.078   3.221   5.599  0.3975 -0.6369  0.0324
 5985SOL    HW129588   3.129   3.177   5.668 -1.5925 -0.3317  1.6846
 5985SOL    HW229589   3.062   3.307   5.638 -1.3957  0.3752 -2.9532
 5986SOL     OW29590   2.493   0.493  16.106 -0.2762  0.5499  0.6102
 5986SOL    HW129591   2.577   0.537  16.119  1.1783 -1.8255 -0.8964
 5986SOL    HW229592   2.431   0.562  16.131 -1.6353 -0.0631 -1.0725
 5987SOL     OW29593   1.694   4.588   8.579 -0.2972  0.3467 -0.2774
 5987SOL    HW129594   1.738   4.504   8.567 -1.2311  0.2274 -2.7306
 5987SOL    HW229595   1.608   4.577   8.539 -0.0157  0.7102 -0.9904
 5988SOL     OW29596   2.323   4.025   4.234  0.2169  0.5642 -0.2900
 5988SOL    HW129597   2.317   4.116   4.265 -1.0907 -0.4685  2.5245
 5988SOL    HW229598   2.250   4.010   4.173 -1.4690 -0.4969  2.0082
 5989SOL     OW29599   3.470   2.721   2.215  0.3814 -0.0991 -0.1228
 5989SOL    HW129600   3.385   2.751   2.247  0.4926  0.9466 -0.7796
 5989SOL    HW229601   3.470   2.764   2.129  0.6809 -0.4932 -0.3179
 5990SOL     OW29602   2.288   2.309   6.935 -0.1267  0.2758  0.2330
 5990SOL    HW129603   2.281   2.302   7.030  1.3092  1.0957  0.3971
 5990SOL    HW229604   2.218   2.253   6.902  0.6284 -0.0196 -0.8938
 5991SOL     OW29605   1.385   2.561   5.819 -1.0140  0.2101 -0.5101
 5991SOL    HW129606   1.461   2.598   5.775 -1.4246  2.8615  0.9683
 5991SOL    HW229607   1.314   2.601   5.768  1.8153  3.7122 -1.7272
 5992SOL     OW29608   1.013   1.808   5.640 -0.4495  0.2115 -0.3913
 5992SOL    HW129609   1.036   1.822   5.732  1.2225 -0.7849 -0.6699
 5992SOL    HW229610   1.096   1.798   5.595 -1.3159 -2.2913 -1.4248
 5993SOL     OW29611   2.197   3.432  10.073 -1.0190  0.1993 -0.1246
 5993SOL    HW129612   2.269   3.402  10.017 -1.4694 -0.5861 -0.2794
 5993SOL    HW229613   2.132   3.466  10.011 -0.0881  1.7469 -0.2708
 5994SOL     OW29614   0.125   0.822   3.309 -0.2031  0.4221  0.5874
 5994SOL    HW129615   0.184   0.855   3.241 -0.2341 -1.3280 -0.2843
 5994SOL    HW229616   0.060   0.893   3.305 -0.1950  0.3814 -0.2016
 5995SOL     OW29617   2.842   0.415   7.624  0.1912  0.3938 -0.2866
 5995SOL    HW129618   2.872   0.402   7.714 -0.8887 -1.5658 -0.2132
 5995SOL    HW229619   2.817   0.327   7.597  2.0609 -0.1265 -0.3463
 5996SOL     OW29620   0.641   1.796   2.316  0.2619  0.2571  0.2028
 5996SOL    HW129621   0.591   1.714   2.319 -0.0438  0.3785 -1.6164
 5996SOL    HW229622   0.593   1.847   2.251 -0.8392 -0.2948  0.5939
 5997SOL     OW29623   3.877   1.985   8.479  0.1317  0.0523 -0.2672
 5997SOL    HW129624   3.952   1.977   8.420 -1.1312 -0.3755 -1.8165
 5997SOL    HW229625   3.796   1.993   8.428  0.8162 -1.1422 -1.5822
 5998SOL     OW29626   0.043   2.852   4.742  0.3708  0.7169 -0.1818
 5998SOL    HW129627   4.693   2.887   4.768  0.0078  1.7230 -2.7461
 5998SOL    HW229628   0.039   2.851   4.647  1.2463 -1.1051 -0.2100
 5999SOL     OW29629   3.395   3.707   0.140  0.3755 -0.1554 -0.2482
 5999SOL    HW129630   3.481   3.707   0.097 -0.2443 -0.1964 -1.4683
 5999SOL    HW229631   3.415   3.646   0.211  0.9494 -0.6432 -0.8191
 6000SOL     OW29632   3.164   3.063   7.999  0.0634  0.2392 -0.0310
 6000SOL    HW129633   3.207   3.052   8.083 -0.7923  0.3484  0.4225
 6000SOL    HW229634   3.171   2.976   7.961  0.1148  0.0154  0.4933
 6001SOL     OW29635   1.046   1.141   6.930  0.4324 -0.0258 -0.4205
 6001SOL    HW129636   1.086   1.210   6.982  2.9042 -0.7131 -1.4048
 6001SOL    HW229637   1.069   1.066   6.986 -1.3075  0.2120  0.6246
 6002SOL     OW29638   0.729   1.571   8.932  0.1232 -0.5209  0.0803
 6002SOL    HW129639   0.780   1.520   8.995 -1.3968 -1.1063  0.8479
 6002SOL    HW229640   0.646   1.585   8.978 -0.0530  0.2508 -0.4738
 6003SOL     OW29641   2.688   4.255   3.849 -0.5415 -0.2561  0.4137
 6003SOL    HW129642   2.756   4.187   3.841  1.2713  1.5815  0.2471
 6003SOL    HW229643   2.672   4.266   3.755  0.9286  2.7182  0.5166
 6004SOL     OW29644   0.848   2.396  17.598 -0.3110  0.7244  0.2167
 6004SOL    HW129645   0.910   2.370  17.530  0.3459  0.9179  0.7422
 6004SOL    HW229646   0.850   2.315  17.651 -2.2498 -0.6545 -1.8263
 6005SOL     OW29647   0.585   2.259  13.392  0.1821  0.3122 -0.0140
 6005SOL    HW129648   0.592   2.174  13.350 -0.3547  0.5272 -0.5369
 6005SOL    HW229649   0.655   2.236  13.453  0.0320 -1.6425 -0.5792
 6006SOL     OW29650   2.046   3.938   5.814 -0.6845 -0.1972 -0.1389
 6006SOL    HW129651   2.064   3.844   5.819 -4.0225 -0.7920  0.4290
 6006SOL    HW229652   2.133   3.967   5.787 -0.5888 -1.1384 -0.8965
 6007SOL     OW29653   2.525   2.477   8.444  0.3294 -0.5041 -0.6428
 6007SOL    HW129654   2.602   2.442   8.490  0.7547  1.3127  0.0489
 6007SOL    HW229655   2.482   2.398   8.412  1.3531 -0.2573 -2.6446
 6008SOL     OW29656   1.239   2.932   4.824 -0.3160  0.0469 -0.1458
 6008SOL    HW129657   1.332   2.937   4.846 -0.6486 -0.8084  1.4040
 6008SOL    HW229658   1.223   3.000   4.758 -2.3590  0.6221  0.9523
 6009SOL     OW29659   2.131   4.020   4.005  0.1217 -0.8152 -0.9281
 6009SOL    HW129660   2.095   4.104   4.037  0.5931 -1.4994  1.4110
 6009SOL    HW229661   2.054   3.973   3.974 -0.5653 -0.1330 -0.2776
 6010SOL     OW29662   3.583   2.443   7.028 -0.1605 -0.0294 -0.6387
 6010SOL    HW129663   3.611   2.492   7.105 -3.0030 -0.8154  0.8607
 6010SOL    HW229664   3.622   2.494   6.956 -1.3951  1.0370 -0.5485
 6011SOL     OW29665   4.392   1.742   9.079 -0.3305 -0.1092 -0.5383
 6011SOL    HW129666   4.414   1.687   9.154  1.0841 -1.5396 -1.9967
 6011SOL    HW229667   4.480   1.779   9.066 -0.2185  0.0087  0.5963
 6012SOL     OW29668   4.062   4.216   5.086 -0.7284 -0.8671  0.2244
 6012SOL    HW129669   4.102   4.170   5.012  0.4177 -0.5887  0.6690
 6012SOL    HW229670   4.089   4.304   5.060 -2.3180 -0.3430  0.3622
 6013SOL     OW29671   1.352   0.981   3.152 -0.0952 -0.1190 -0.0673
 6013SOL    HW129672   1.445   0.996   3.131 -0.1405 -0.0074 -0.1910
 6013SOL    HW229673   1.359   0.895   3.192 -0.6513 -1.1329 -2.1439
 6014SOL     OW29674   1.101   1.504   8.489  0.5642  0.5374  0.0154
 6014SOL    HW129675   1.061   1.521   8.574 -1.9927  0.9323 -1.2655
 6014SOL    HW229676   1.176   1.449   8.513  2.0611  2.1422 -0.9497
 6015SOL     OW29677   0.356   2.850   6.681 -0.8835  0.4006 -0.1340
 6015SOL    HW129678   0.397   2.766   6.697 -0.1692  1.0548  1.4419
 6015SOL    HW229679   0.267   2.822   6.660  0.8248 -2.5929 -3.2491
 6016SOL     OW29680   2.461   2.842   7.149 -0.1802  0.1496  0.4108
 6016SOL    HW129681   2.505   2.916   7.190 -0.2545 -0.1823  1.0910
 6016SOL    HW229682   2.537   2.810   7.100 -0.1481  1.2760 -0.2630
 6017SOL     OW29683   0.489   3.994   4.843  0.2551 -0.1176 -0.4562
 6017SOL    HW129684   0.434   3.922   4.812  1.3076 -1.2809  0.3857
 6017SOL    HW229685   0.488   3.968   4.935 -0.3208  1.1698 -0.1018
 6018SOL     OW29686   0.172   1.306   1.081  0.2165 -0.4352  0.1568
 6018SOL    HW129687   0.119   1.304   1.161  0.3727 -0.4230  0.2622
 6018SOL    HW229688   0.111   1.261   1.022  1.3293  0.1910 -1.4720
 6019SOL     OW29689   2.746   1.058   2.485 -0.5271 -0.7178 -0.0464
 6019SOL    HW129690   2.824   1.004   2.501 -1.4267 -1.4036  2.0051
 6019SOL    HW229691   2.703   1.029   2.565 -0.1263  0.1948  0.4891
 6020SOL     OW29692   2.392   3.645   3.627 -0.1607 -0.4652 -0.0873
 6020SOL    HW129693   2.458   3.639   3.558  0.5764  0.7355  0.4963
 6020SOL    HW229694   2.314   3.626   3.576 -0.6426  0.5463  0.2805
 6021SOL     OW29695   2.454   3.982  15.114 -0.9979 -0.2475 -0.3522
 6021SOL    HW129696   2.393   4.056  15.106 -1.5846 -0.8916 -1.8259
 6021SOL    HW229697   2.524   4.013  15.058  0.6142 -0.7285  1.4067
 6022SOL     OW29698   2.852   0.092   7.934 -0.3638  0.1080 -0.2203
 6022SOL    HW129699   2.836   0.028   7.864  2.3304  0.6924 -1.3586
 6022SOL    HW229700   2.947   0.094   7.941 -0.3429 -2.4784  0.1382
 6023SOL     OW29701   0.667   1.266  11.862 -0.1460 -0.4829 -0.0171
 6023SOL    HW129702   0.709   1.290  11.945 -0.6259 -0.6661  0.2795
 6023SOL    HW229703   0.742   1.274  11.803  0.2300 -1.8987  0.2656
 6024SOL     OW29704   0.020   3.769  14.039 -0.0343 -0.0382 -0.4522
 6024SOL    HW129705   0.033   3.788  13.946  1.4384 -2.1303 -0.6686
 6024SOL    HW229706   4.679   3.819  14.067  0.4485  0.4126  0.0576
 6025SOL     OW29707   0.816   1.305   9.092 -0.0115  0.3422 -0.3086
 6025SOL    HW129708   0.724   1.286   9.110  0.7796 -1.6565  1.6864
 6025SOL    HW229709   0.850   1.217   9.079  1.0088  1.1589 -3.0027
 6026SOL     OW29710   0.277   0.327   7.528  0.3700 -0.2940 -0.1769
 6026SOL    HW129711   0.354   0.366   7.488 -0.7340  0.1422 -1.8485
 6026SOL    HW229712   0.263   0.392   7.597  1.2464 -1.4132  1.0470
 6027SOL     OW29713   1.000   2.859   6.831 -0.9386 -0.1320 -0.0529
 6027SOL    HW129714   0.996   2.803   6.909  0.5430  0.1792  0.2588
 6027SOL    HW229715   1.007   2.787   6.768 -0.9449 -0.5607  0.4346
 6028SOL     OW29716   3.174   2.592   5.839 -1.0660  0.3109  0.5269
 6028SOL    HW129717   3.153   2.654   5.770 -1.2651 -1.6473 -1.1872
 6028SOL    HW229718   3.164   2.506   5.798  0.1616  1.4070 -2.0522
 6029SOL     OW29719   1.777   2.613   3.556  0.1684 -0.3858  0.4857
 6029SOL    HW129720   1.792   2.554   3.630  0.1957 -1.6703 -0.5312
 6029SOL    HW229721   1.861   2.613   3.511  0.0366  0.1484  0.2495
 6030SOL     OW29722   2.751   2.745   1.157  0.4282  0.1988  0.2366
 6030SOL    HW129723   2.832   2.727   1.109 -1.1276 -0.8872 -1.9499
 6030SOL    HW229724   2.781   2.817   1.213 -0.8143 -0.7584  2.1115
 6031SOL     OW29725   2.514   0.637   6.993 -0.3498 -0.1858  0.2815
 6031SOL    HW129726   2.566   0.705   6.949  1.1943 -0.0065  2.4046
 6031SOL    HW229727   2.455   0.615   6.921  3.2145  0.5134 -2.8644
 6032SOL     OW29728   1.236   3.023   0.376 -0.2888  0.1612 -0.6002
 6032SOL    HW129729   1.270   3.096   0.428  0.5235 -1.2898  0.8863
 6032SOL    HW229730   1.260   3.048   0.287  1.3516 -0.8168 -0.4187
 6033SOL     OW29731   3.180   4.510   7.542  0.3038  0.3596  1.0400
 6033SOL    HW129732   3.235   4.442   7.503 -0.1937  0.2141  0.5834
 6033SOL    HW229733   3.219   4.593   7.516  0.5215 -0.1161 -0.1771
 6034SOL     OW29734   1.963   2.279   6.006  0.0394 -0.4665  0.2354
 6034SOL    HW129735   1.910   2.208   6.044 -1.1930  0.1947 -0.2675
 6034SOL    HW229736   1.996   2.233   5.929  1.1002  1.1231 -0.2530
 6035SOL     OW29737   4.627   0.182   3.799  0.4579  0.7162 -0.1634
 6035SOL    HW129738   4.672   0.261   3.770  1.2064 -0.8576 -3.3059
 6035SOL    HW229739   4.692   0.135   3.851  0.4204  1.3787  0.4763
 6036SOL     OW29740   0.120   1.616   5.839  0.3793  0.5594 -0.0850
 6036SOL    HW129741   0.106   1.709   5.820 -0.2860  0.4830  0.0587
 6036SOL    HW229742   0.052   1.599   5.903 -0.7593  3.2373 -0.6045
 6037SOL     OW29743   0.543   1.974  15.663 -0.3126  0.3642  0.4414
 6037SOL    HW129744   0.557   1.892  15.711  0.2203 -0.2388 -0.7350
 6037SOL    HW229745   0.508   1.940  15.581 -1.3487 -0.1331  1.0860
 6038SOL     OW29746   4.339   3.809  12.177  0.4274 -0.0595 -0.2547
 6038SOL    HW129747   4.420   3.835  12.133  0.0236 -0.2792 -1.1277
 6038SOL    HW229748   4.346   3.855  12.261  0.7231 -1.2075  0.3395
 6039SOL     OW29749   0.950   3.084   2.030 -0.0415 -0.3089  0.4722
 6039SOL    HW129750   0.946   3.046   1.943  1.9028  0.2640  0.1431
 6039SOL    HW229751   0.969   3.175   2.007 -0.9959 -0.6021 -1.4417
 6040SOL     OW29752   3.065   4.230  17.633  0.0167 -0.4197 -0.6302
 6040SOL    HW129753   2.999   4.208  17.699  1.1019 -2.1842 -0.1487
 6040SOL    HW229754   3.070   4.141  17.599  0.6446 -0.0837 -1.4312
 6041SOL     OW29755   2.192   1.091  10.130  0.3322  0.1911  0.2609
 6041SOL    HW129756   2.102   1.069  10.103  1.7878 -2.3941 -2.5184
 6041SOL    HW229757   2.170   1.123  10.218 -1.1114  0.0335 -0.0400
 6042SOL     OW29758   2.602   1.253   8.690  0.0889 -0.1237  0.4382
 6042SOL    HW129759   2.531   1.302   8.649 -0.5960 -2.7259 -1.4988
 6042SOL    HW229760   2.545   1.196   8.742 -1.1618  0.0648 -0.7443
 6043SOL     OW29761   1.916   1.062  10.855 -0.2649 -0.0920  0.2183
 6043SOL    HW129762   1.853   1.042  10.786  2.6021 -1.7004 -1.9195
 6043SOL    HW229763   1.975   1.127  10.819 -0.3112 -1.3548 -2.1866
 6044SOL     OW29764   1.913   1.331  14.348 -0.4439  0.4171 -0.9717
 6044SOL    HW129765   1.965   1.259  14.313  0.6775  1.6980 -1.9206
 6044SOL    HW229766   1.879   1.369  14.267  0.5346  2.0486 -0.6302
 6045SOL     OW29767   2.690   0.244   0.336  0.2011  0.0046 -0.1962
 6045SOL    HW129768   2.698   0.280   0.247  0.6897  0.3913  0.0037
 6045SOL    HW229769   2.693   0.149   0.330 -0.2441  0.0239 -0.7263
 6046SOL     OW29770   4.047   2.903   3.889  0.0171 -0.1582  0.1562
 6046SOL    HW129771   4.019   2.823   3.933 -0.8036 -0.2572 -0.5377
 6046SOL    HW229772   4.141   2.894   3.903  0.0209 -0.5561 -0.1574
 6047SOL     OW29773   3.775   3.871  13.557 -0.1817  0.4509 -0.4503
 6047SOL    HW129774   3.720   3.859  13.634 -1.8358  0.6812 -1.5799
 6047SOL    HW229775   3.815   3.784  13.553 -0.0410  0.4982 -0.0072
 6048SOL     OW29776   4.454   0.521   3.899 -0.1883  0.1142  0.1008
 6048SOL    HW129777   4.451   0.429   3.928  0.7826  0.3843  1.0798
 6048SOL    HW229778   4.523   0.560   3.954 -0.8853  2.8560 -0.9944
 6049SOL     OW29779   4.006   2.085  15.871  0.2805  0.1618  0.2738
 6049SOL    HW129780   3.996   2.106  15.778 -0.9186  1.0385  0.5994
 6049SOL    HW229781   4.047   1.999  15.882 -1.2906 -1.0124 -3.1383
 6050SOL     OW29782   3.026   0.415   5.729 -0.7518  0.3709  0.5528
 6050SOL    HW129783   3.010   0.321   5.724 -0.0326  0.1670  2.2859
 6050SOL    HW229784   2.938   0.440   5.700 -0.8876 -0.2784  0.4187
 6051SOL     OW29785   0.380   1.886  11.827 -0.0293 -1.1143  0.4454
 6051SOL    HW129786   0.351   1.821  11.891 -3.1941  0.0737  0.2529
 6051SOL    HW229787   0.297   1.883  11.778 -1.0319  0.3733  2.0384
 6052SOL     OW29788   2.886   4.550   9.767  0.2201  0.6655 -0.0132
 6052SOL    HW129789   2.804   4.532   9.722 -1.2069 -2.3611  3.7891
 6052SOL    HW229790   2.836   4.596   9.835 -1.1008  0.7926 -1.0927
 6053SOL     OW29791   3.701   2.969   8.372 -0.0919 -0.5947  0.4852
 6053SOL    HW129792   3.711   3.037   8.439 -1.8990  2.0921 -1.9543
 6053SOL    HW229793   3.782   2.919   8.372 -0.2275 -0.8166 -1.3091
 6054SOL     OW29794   1.071   4.088   7.528 -0.4752 -0.0425  0.1128
 6054SOL    HW129795   1.113   4.108   7.612 -1.5401  0.4387  0.5327
 6054SOL    HW229796   1.038   4.002   7.553  0.6243 -0.1974  1.0417
 6055SOL     OW29797   0.633   1.906   1.849 -0.5581  0.2097  0.3193
 6055SOL    HW129798   0.652   1.999   1.836  0.4603 -0.3194 -2.0111
 6055SOL    HW229799   0.687   1.883   1.773 -0.6319 -0.1657  0.3815
 6056SOL     OW29800   0.651   0.685   2.367 -0.0997  0.3157 -0.1612
 6056SOL    HW129801   0.637   0.757   2.429  0.3890 -0.4828  0.8805
 6056SOL    HW229802   0.578   0.708   2.309 -0.5136 -0.4860  0.0396
 6057SOL     OW29803   1.342   0.033  15.718  0.0023  0.3676 -0.0402
 6057SOL    HW129804   1.382   0.032  15.805 -0.1426  0.3134  0.0242
 6057SOL    HW229805   1.275   0.100  15.724 -0.0083  0.4312 -0.8557
 6058SOL     OW29806   3.514   3.856   5.847  0.1123 -0.0974  0.3307
 6058SOL    HW129807   3.480   3.849   5.758 -0.8500  3.6715  0.3939
 6058SOL    HW229808   3.595   3.902   5.824  1.4487 -1.8691  1.4689
 6059SOL     OW29809   0.281   4.220   9.287  0.0755 -0.5330  0.3199
 6059SOL    HW129810   0.282   4.299   9.233  1.5018 -1.6454 -1.2402
 6059SOL    HW229811   0.362   4.226   9.337 -1.2998  3.6301  2.0896
 6060SOL     OW29812   3.659   3.970  17.671 -0.0044  0.2825  0.0925
 6060SOL    HW129813   3.598   4.028  17.625 -0.5645 -1.6251 -1.5489
 6060SOL    HW229814   3.650   3.887  17.625  1.5017 -0.6083  1.4261
 6061SOL     OW29815   4.335   3.915   8.550 -0.1999 -0.4099  0.1375
 6061SOL    HW129816   4.411   3.897   8.606 -0.0988 -0.5591 -0.0500
 6061SOL    HW229817   4.365   3.887   8.464  0.0648  1.0034 -0.2192
 6062SOL     OW29818   3.002   0.660   5.202 -0.1170  0.0025 -0.1969
 6062SOL    HW129819   3.087   0.675   5.244  0.0328  0.1884 -0.5688
 6062SOL    HW229820   2.994   0.745   5.159 -2.3183 -0.8860 -1.5388
 6063SOL     OW29821   3.668   2.264   5.869 -0.1401 -0.4263 -0.4848
 6063SOL    HW129822   3.572   2.259   5.863 -0.1675 -1.7489  0.8788
 6063SOL    HW229823   3.690   2.228   5.956  2.7250  1.1113 -0.5876
 6064SOL     OW29824   3.628   0.776   1.940 -0.1477  0.4095 -0.4745
 6064SOL    HW129825   3.545   0.759   1.985 -0.4680  2.3300 -0.3342
 6064SOL    HW229826   3.630   0.704   1.877 -2.0047  1.4174 -1.6964
 6065SOL     OW29827   0.124   3.501   8.678 -0.3635 -0.2064 -0.3163
 6065SOL    HW129828   0.080   3.549   8.748 -3.0836  0.5599 -2.5477
 6065SOL    HW229829   0.191   3.454   8.727  0.5787  0.3767 -1.0409
 6066SOL     OW29830   3.252   0.794   8.651  0.3534 -0.2491  0.1954
 6066SOL    HW129831   3.192   0.733   8.609  0.5565  0.3919 -1.0483
 6066SOL    HW229832   3.338   0.754   8.640  0.4201  0.4271 -1.7051
 6067SOL     OW29833   3.611   1.931   6.623  0.2041  0.1465  0.1085
 6067SOL    HW129834   3.644   1.850   6.663  0.7812  0.0579 -0.5624
 6067SOL    HW229835   3.675   1.994   6.656  1.1441 -0.7606  0.0369
 6068SOL     OW29836   1.325   1.453   9.305  0.0627  0.2126  0.2181
 6068SOL    HW129837   1.373   1.523   9.260  2.1595 -0.2795  1.6710
 6068SOL    HW229838   1.243   1.502   9.305 -0.5689 -0.8682 -1.8269
 6069SOL     OW29839   2.880   1.864   5.480  0.0764 -0.3210 -0.1845
 6069SOL    HW129840   2.840   1.846   5.394  0.8182  0.1670 -0.6335
 6069SOL    HW229841   2.801   1.844   5.529 -0.1952 -0.9877 -0.8858
 6070SOL     OW29842   0.238   1.634  10.615  0.3518  0.2834 -0.6774
 6070SOL    HW129843   0.309   1.602  10.560  0.0320 -0.9415 -0.3808
 6070SOL    HW229844   0.287   1.710  10.648 -0.8773  1.5991 -1.8534
 6071SOL     OW29845   1.902   2.526  14.164  0.8686 -0.1671 -0.3623
 6071SOL    HW129846   1.904   2.437  14.200 -1.8208  0.8949  2.4824
 6071SOL    HW229847   1.941   2.571  14.239  2.6012 -0.3017 -1.1921
 6072SOL     OW29848   4.036   2.910   3.315  1.2642  0.1362 -0.4621
 6072SOL    HW129849   4.130   2.908   3.331  1.3125 -2.0713 -1.1604
 6072SOL    HW229850   4.031   3.003   3.293  1.7724 -0.3278 -2.5262
 6073SOL     OW29851   2.597   3.292  14.572 -0.8844 -0.3579 -0.7240
 6073SOL    HW129852   2.537   3.246  14.514 -2.3662 -1.1199  1.4122
 6073SOL    HW229853   2.652   3.221  14.606  0.3502  0.1441 -1.6903
 6074SOL     OW29854   3.201   3.934   2.000  0.3834  0.2730 -0.4161
 6074SOL    HW129855   3.265   3.986   1.952 -0.0924  0.5333 -0.7641
 6074SOL    HW229856   3.181   3.994   2.072 -1.6335 -3.4584  2.1561
 6075SOL     OW29857   0.995   0.645   5.009 -0.0865  0.7356 -0.4359
 6075SOL    HW129858   1.017   0.558   4.974 -0.3243  0.2953  0.5174
 6075SOL    HW229859   1.052   0.650   5.086 -1.4660  1.2493  0.5400
 6076SOL     OW29860   4.370   1.015   3.242 -0.0142 -0.2812  0.0538
 6076SOL    HW129861   4.276   1.036   3.234  0.2654  0.7882 -0.4715
 6076SOL    HW229862   4.375   1.023   3.337 -3.9291 -2.7783  0.4647
 6077SOL     OW29863   4.105   1.733   5.190 -0.0182 -0.2202  0.6156
 6077SOL    HW129864   4.197   1.744   5.169 -0.2157 -0.5549 -0.4737
 6077SOL    HW229865   4.084   1.822   5.218 -0.6413 -0.3499  0.5708
 6078SOL     OW29866   1.958   2.166   3.061  0.3281 -0.6946  0.3039
 6078SOL    HW129867   1.927   2.256   3.056 -0.3416 -0.8780  1.0646
 6078SOL    HW229868   1.876   2.116   3.065 -0.5906  0.7461 -0.7638
 6079SOL     OW29869   0.411   3.029   7.218 -0.5404 -0.1407  0.0261
 6079SOL    HW129870   0.476   2.961   7.237  1.2731  1.8803  1.1760
 6079SOL    HW229871   0.389   3.005   7.128  0.8221  0.7671 -0.5566
 6080SOL     OW29872   0.254   2.329   0.441  1.0306 -0.5835  0.6813
 6080SOL    HW129873   0.249   2.263   0.372 -0.8299 -0.2906  0.5449
 6080SOL    HW229874   0.345   2.357   0.430  0.6794  1.4134  2.9733
 6081SOL     OW29875   1.923   4.338   0.725 -0.4226 -0.5063 -0.2868
 6081SOL    HW129876   1.960   4.365   0.641  0.5174 -0.4522  0.1519
 6081SOL    HW229877   1.911   4.246   0.700 -1.1487 -0.2987 -0.7055
 6082SOL     OW29878   1.376   2.280   6.624 -0.2901  0.2654  0.0449
 6082SOL    HW129879   1.352   2.325   6.705 -0.4260 -1.4716  0.9791
 6082SOL    HW229880   1.412   2.198   6.658 -1.5454 -0.4303 -0.3319
 6083SOL     OW29881   3.302   0.315   1.077 -0.3785  0.0382  0.0505
 6083SOL    HW129882   3.212   0.298   1.053 -1.0732  1.4764  1.5755
 6083SOL    HW229883   3.318   0.409   1.067  0.8007 -0.1937 -0.2778
 6084SOL     OW29884   4.422   1.370   8.525  0.1025  0.1246  0.0226
 6084SOL    HW129885   4.337   1.397   8.491  0.1864 -0.1575 -0.4196
 6084SOL    HW229886   4.392   1.280   8.535 -1.5293  0.8634  1.5699
 6085SOL     OW29887   2.894   1.054  14.328 -0.0724  0.2987  0.3865
 6085SOL    HW129888   2.854   0.971  14.302 -0.7259  1.1334 -1.2768
 6085SOL    HW229889   2.826   1.120  14.315  0.7701  0.3458 -4.0098
 6086SOL     OW29890   2.694   2.767   4.581 -0.1089  0.1071 -0.0341
 6086SOL    HW129891   2.677   2.762   4.675 -2.6774 -0.9262 -0.5504
 6086SOL    HW229892   2.785   2.739   4.570 -0.5095 -1.2613  0.0724
 6087SOL     OW29893   2.323   2.230   4.719 -0.0873 -0.0978  0.1827
 6087SOL    HW129894   2.306   2.301   4.657 -2.7248 -0.5735  0.3681
 6087SOL    HW229895   2.233   2.202   4.733 -0.5235 -0.4332 -3.4156
 6088SOL     OW29896   2.762   3.535  12.535 -0.3008  0.0241  0.4226
 6088SOL    HW129897   2.724   3.621  12.553  2.0941  1.2995 -0.6059
 6088SOL    HW229898   2.700   3.504  12.470 -0.6668  2.5322 -0.4349
 6089SOL     OW29899   3.028   1.220  14.520 -0.6412  0.1726 -0.2060
 6089SOL    HW129900   2.992   1.149  14.467  1.6807 -1.7991  0.8491
 6089SOL    HW229901   3.078   1.258  14.448  3.2367  0.6966  2.7572
 6090SOL     OW29902   4.065   3.082  14.369 -0.3529  0.4532 -0.2921
 6090SOL    HW129903   4.151   3.043  14.354 -0.7785 -0.9458  1.0100
 6090SOL    HW229904   4.100   3.166  14.339 -1.7766  0.0427 -3.0730
 6091SOL     OW29905   0.560   3.353   4.164  0.0426 -0.5818  0.2371
 6091SOL    HW129906   0.575   3.337   4.071  3.4644 -1.4683  0.9491
 6091SOL    HW229907   0.594   3.267   4.188  2.4941  0.3753  0.1743
 6092SOL     OW29908   0.824   3.301  13.577 -0.0773 -0.1280  0.2893
 6092SOL    HW129909   0.813   3.274  13.669 -0.6542  0.2205  0.3221
 6092SOL    HW229910   0.817   3.396  13.585 -0.5094  0.0842 -2.9283
 6093SOL     OW29911   0.313   3.206  16.573 -0.5114  0.1374 -0.2872
 6093SOL    HW129912   0.221   3.233  16.581 -0.3153  0.6157  0.3711
 6093SOL    HW229913   0.304   3.116  16.543 -2.6698  0.3114 -0.2072
 6094SOL     OW29914   0.403   2.820   2.738  0.1852 -0.6864  0.0639
 6094SOL    HW129915   0.387   2.761   2.811 -0.6945 -0.1687  0.2946
 6094SOL    HW229916   0.488   2.787   2.710 -0.6356 -2.2424 -0.5800
 6095SOL     OW29917   2.428   0.533  11.917 -0.3153  0.4056  0.2514
 6095SOL    HW129918   2.390   0.456  11.875  0.8876  0.3354 -0.7139
 6095SOL    HW229919   2.361   0.600  11.903  0.7176  1.4512  0.4035
 6096SOL     OW29920   1.112   3.004  16.651  0.3710 -0.3956  0.7906
 6096SOL    HW129921   1.136   2.937  16.716 -2.6415 -0.5323  1.7895
 6096SOL    HW229922   1.152   3.078  16.697 -1.8497  2.5451 -2.0604
 6097SOL     OW29923   4.002   3.435   5.034 -0.2055  0.0172 -1.2883
 6097SOL    HW129924   3.911   3.408   5.022 -1.1715  2.0987  1.3601
 6097SOL    HW229925   4.017   3.431   5.128 -0.7252  0.4361 -1.1909
 6098SOL     OW29926   0.986   2.784  11.803 -0.0845 -0.3490  0.0031
 6098SOL    HW129927   0.961   2.692  11.794  0.4648  0.0640 -5.5956
 6098SOL    HW229928   1.055   2.799  11.739 -0.1880  1.6174  0.3548
 6099SOL     OW29929   4.098   4.393  14.800 -0.4767  0.2467  0.1239
 6099SOL    HW129930   4.070   4.329  14.865  0.6400  0.4338  0.7816
 6099SOL    HW229931   4.158   4.335  14.753 -0.4333  0.5898 -0.2504
 6100SOL     OW29932   4.537   4.356   6.906  0.6421  0.4680  0.4294
 6100SOL    HW129933   4.457   4.306   6.919  0.1807  1.0951 -0.0232
 6100SOL    HW229934   4.508   4.445   6.922  0.2313  0.6361 -1.3399
 6101SOL     OW29935   2.452   0.495   1.275  0.2514 -0.1856  0.1296
 6101SOL    HW129936   2.369   0.447   1.266 -0.6166  0.8778  2.3778
 6101SOL    HW229937   2.505   0.426   1.315  1.8825  0.6932 -0.5168
 6102SOL     OW29938   0.425   2.469  13.360  0.6291  0.4026 -0.0349
 6102SOL    HW129939   0.506   2.420  13.377 -1.4084 -2.1084  2.4085
 6102SOL    HW229940   0.362   2.423  13.415 -0.2085  0.0781 -1.2823
 6103SOL     OW29941   3.937   1.160   8.305  0.2853  0.2408  0.2421
 6103SOL    HW129942   3.952   1.142   8.212 -1.2405 -1.6544  0.3517
 6103SOL    HW229943   3.949   1.071   8.337  1.1508 -0.3527 -1.7449
 6104SOL     OW29944   3.582   1.968  13.108 -0.0956 -0.2689  0.6869
 6104SOL    HW129945   3.512   1.959  13.043  0.3695  2.6212 -0.1862
 6104SOL    HW229946   3.547   2.028  13.174 -0.2493  1.4234 -0.9197
 6105SOL     OW29947   3.547   1.932   3.696 -0.0387 -0.5225 -0.3172
 6105SOL    HW129948   3.572   1.871   3.626  0.8832  0.3605 -0.7572
 6105SOL    HW229949   3.476   1.984   3.660  3.1369  1.1589 -4.2348
 6106SOL     OW29950   0.524   0.168   2.715 -0.5651 -1.0202 -0.5207
 6106SOL    HW129951   0.515   0.124   2.630 -0.8269 -3.1285  0.6141
 6106SOL    HW229952   0.580   0.103   2.758  0.4577 -0.4971 -1.0720
 6107SOL     OW29953   0.327   0.789   2.499  0.1037 -0.7099  0.2069
 6107SOL    HW129954   0.363   0.729   2.564  0.2520  0.9555  1.6442
 6107SOL    HW229955   0.370   0.764   2.417 -1.5074 -1.1929 -0.4885
 6108SOL     OW29956   2.036   3.271  16.245  0.3331  0.2934  0.0754
 6108SOL    HW129957   2.077   3.357  16.245 -0.0520  0.4632  3.2473
 6108SOL    HW229958   2.050   3.252  16.152 -2.4898 -0.6837 -0.1575
 6109SOL     OW29959   2.096   2.075  15.808  0.0066 -0.0510 -0.2276
 6109SOL    HW129960   2.142   2.122  15.878  0.1842 -2.2114  1.1155
 6109SOL    HW229961   2.089   2.136  15.734  2.2156  0.5030  0.0269
 6110SOL     OW29962   4.393   3.671   4.389 -0.0335  0.2572  0.0591
 6110SOL    HW129963   4.360   3.648   4.302  0.6799 -1.7211  0.3018
 6110SOL    HW229964   4.333   3.629   4.449  1.5611 -2.0109  0.0688
 6111SOL     OW29965   4.163   0.814   6.481  0.7494 -0.6773 -0.4712
 6111SOL    HW129966   4.080   0.771   6.502  0.1972  0.1830 -0.8976
 6111SOL    HW229967   4.219   0.743   6.511 -1.7623 -1.9312  1.3097
 6112SOL     OW29968   4.349   2.959   0.882 -0.0660 -0.2820  0.3082
 6112SOL    HW129969   4.337   2.994   0.971 -0.3433 -0.2509  0.2608
 6112SOL    HW229970   4.439   2.927   0.884  0.3441  0.7349 -1.8095
 6113SOL     OW29971   1.654   0.171  10.623  0.1183  0.4211  0.2708
 6113SOL    HW129972   1.605   0.104  10.671  2.3116 -0.9133  0.6558
 6113SOL    HW229973   1.693   0.114  10.556  0.2234  2.4649 -1.4025
 6114SOL     OW29974   3.183   1.349   2.934  0.0292  0.1367 -0.1086
 6114SOL    HW129975   3.240   1.282   2.897  1.5453  1.4770 -0.1919
 6114SOL    HW229976   3.122   1.301   2.990  0.5352  1.3487  1.4522
 6115SOL     OW29977   1.652   1.910   8.837 -0.3883  0.1693 -0.2075
 6115SOL    HW129978   1.699   1.907   8.920  0.8539 -2.2138 -0.9642
 6115SOL    HW229979   1.564   1.877   8.855 -0.6968  1.0250 -0.1804
 6116SOL     OW29980   0.998   3.627   3.806  0.5297 -0.3498  0.0275
 6116SOL    HW129981   1.027   3.688   3.874 -0.3771  0.6852 -0.5107
 6116SOL    HW229982   0.951   3.688   3.748 -0.3852 -0.8722  0.2205
 6117SOL     OW29983   0.120   0.517   6.887 -0.1649  0.2527 -0.7144
 6117SOL    HW129984   0.064   0.558   6.822  1.6206  2.4760 -0.8687
 6117SOL    HW229985   0.056   0.464   6.934 -0.1347  0.0635 -0.8931
 6118SOL     OW29986   4.716   1.371   4.879 -0.1218 -0.4401 -0.3645
 6118SOL    HW129987   4.681   1.288   4.908 -2.0857  0.3310 -0.5496
 6118SOL    HW229988   4.641   1.406   4.831  0.1589 -2.3581 -2.2118
 6119SOL     OW29989   0.553   1.199  17.667 -0.4760 -0.2625  0.0328
 6119SOL    HW129990   0.582   1.159   0.008 -0.2804  1.3324  0.7510
 6119SOL    HW229991   0.609   1.160  17.600  0.7645  1.2603  0.1954
 6120SOL     OW29992   2.574   2.275  14.163 -0.6480 -0.1910  0.0353
 6120SOL    HW129993   2.625   2.233  14.093  0.4646  0.4893  0.4287
 6120SOL    HW229994   2.602   2.365  14.150 -0.2347 -0.2621  0.4326
 6121SOL     OW29995   1.567   3.070   1.845  0.3811  0.3344 -0.2408
 6121SOL    HW129996   1.661   3.091   1.847  0.6689 -1.1012  1.7399
 6121SOL    HW229997   1.561   2.996   1.905 -0.6238 -0.9285 -1.9376
 6122SOL     OW29998   2.417   2.507  16.901  0.0497  0.7104 -0.1193
 6122SOL    HW129999   2.496   2.454  16.895 -0.2593  0.4129 -1.6031
 6122SOL    HW230000   2.440   2.584  16.848 -1.4885 -0.1991 -2.1035
 6123SOL     OW30001   1.149   2.137   5.068 -0.5014  0.4845  0.0571
 6123SOL    HW130002   1.214   2.181   5.123  1.1321  1.7006 -2.8224
 6123SOL    HW230003   1.072   2.190   5.085 -1.6721 -0.1149 -3.3248
 6124SOL     OW30004   1.723   2.025   2.993  0.2198 -0.1348  0.0273
 6124SOL    HW130005   1.761   2.014   2.907 -1.4432 -1.9424 -0.4766
 6124SOL    HW230006   1.633   1.993   2.993  0.0496  0.3405 -0.1204
 6125SOL     OW30007   3.694   4.273   5.005  0.2622 -0.2268  0.5726
 6125SOL    HW130008   3.616   4.303   4.960  0.7198 -2.3572 -1.6408
 6125SOL    HW230009   3.671   4.295   5.095 -4.0682 -0.6145 -0.4433
 6126SOL     OW30010   4.061   3.710   7.862  0.6801  0.3897 -0.1281
 6126SOL    HW130011   4.149   3.726   7.896 -0.1243 -0.2076  2.1951
 6126SOL    HW230012   4.014   3.783   7.903 -0.6790 -0.3780 -0.3524
 6127SOL     OW30013   2.020   1.512   4.461  0.4964 -0.2308 -0.0227
 6127SOL    HW130014   1.994   1.451   4.530  2.9475  1.8641  2.7627
 6127SOL    HW230015   2.107   1.533   4.495  0.3746  1.6910 -0.8702
 6128SOL     OW30016   0.087   2.237   8.416  0.0969  0.2594  0.0911
 6128SOL    HW130017   0.106   2.317   8.367 -0.1208  0.1044 -0.2440
 6128SOL    HW230018   0.149   2.243   8.489  1.0112  1.3344 -0.7784
 6129SOL     OW30019   4.390   4.554   6.457 -0.2516  0.5134 -0.0748
 6129SOL    HW130020   4.466   4.567   6.514  0.4241  1.6549 -1.2456
 6129SOL    HW230021   4.318   4.553   6.521  0.3831  0.3387  0.6396
 6130SOL     OW30022   0.065   3.692  11.403  0.0497  0.3583 -1.0305
 6130SOL    HW130023   0.008   3.671  11.477 -0.8757  0.6408 -1.6541
 6130SOL    HW230024   0.146   3.680  11.452 -0.6761 -0.8024 -0.1038
 6131SOL     OW30025   2.253   4.194   1.619  0.5058 -0.2050 -0.2228
 6131SOL    HW130026   2.218   4.121   1.568 -1.0483 -0.4839  1.2342
 6131SOL    HW230027   2.339   4.157   1.640 -0.4191 -1.6939  0.8913
 6132SOL     OW30028   3.501   0.581   1.393 -0.0118 -0.2577 -0.4414
 6132SOL    HW130029   3.423   0.557   1.443  0.1852 -1.5556 -0.7661
 6132SOL    HW230030   3.513   0.506   1.335 -1.2043 -0.3032 -0.6247
 6133SOL     OW30031   3.655   3.985   7.268 -0.3214  0.0613 -0.0113
 6133SOL    HW130032   3.607   4.034   7.201  0.3604  1.3255  0.4132
 6133SOL    HW230033   3.624   3.897   7.250 -0.1159  0.0257 -0.1904
 6134SOL     OW30034   1.273   3.845   3.060  0.4430 -0.1440  0.4672
 6134SOL    HW130035   1.190   3.811   3.093  0.2083 -0.0066  0.0244
 6134SOL    HW230036   1.321   3.762   3.057  0.0495 -0.3982  1.3209
 6135SOL     OW30037   1.624   0.843   9.279  0.5774  0.4738 -0.6539
 6135SOL    HW130038   1.579   0.923   9.306 -0.7728 -0.7857  0.8400
 6135SOL    HW230039   1.703   0.851   9.333 -1.2302  0.1580  2.0645
 6136SOL     OW30040   1.547   2.627   7.676 -0.4295 -0.1170  0.1860
 6136SOL    HW130041   1.571   2.624   7.768  0.0056 -0.6589  0.0549
 6136SOL    HW230042   1.629   2.650   7.632 -0.2594 -0.6952  0.1960
 6137SOL     OW30043   1.507   4.395  17.011 -0.3501  0.2444 -0.6039
 6137SOL    HW130044   1.430   4.339  17.023  0.6049 -1.0999 -0.7307
 6137SOL    HW230045   1.499   4.417  16.919  0.2278  2.1081 -0.2118
 6138SOL     OW30046   0.615   1.745   5.429  0.3233  0.4475 -0.1542
 6138SOL    HW130047   0.643   1.767   5.519  0.4478  1.7809 -0.5140
 6138SOL    HW230048   0.563   1.666   5.439 -0.9668  1.1418 -1.5828
 6139SOL     OW30049   4.606   1.900   9.523  0.7207  0.5928 -0.1938
 6139SOL    HW130050   4.584   1.905   9.616 -0.4093 -0.0471 -0.4361
 6139SOL    HW230051   4.649   1.985   9.510  3.8644 -1.0044 -0.1072
 6140SOL     OW30052   1.405   1.594   4.241 -0.3100  0.2901  0.2754
 6140SOL    HW130053   1.456   1.629   4.168 -2.1916  0.4212 -0.9691
 6140SOL    HW230054   1.423   1.661   4.307 -0.7255 -1.1642  1.8593
 6141SOL     OW30055   3.667   4.564  11.129 -0.0592  0.5483 -0.6394
 6141SOL    HW130056   3.597   4.528  11.184  0.5756  1.1375  0.5520
 6141SOL    HW230057   3.710   4.484  11.101 -0.4406  0.7482 -1.7905
 6142SOL     OW30058   0.358   2.364   3.475  0.5142 -0.0044  0.3429
 6142SOL    HW130059   0.372   2.371   3.381  1.1983 -0.2561  0.4207
 6142SOL    HW230060   0.268   2.392   3.491 -0.0675 -0.3448 -2.3278
 6143SOL     OW30061   2.483   3.806  12.042  0.0192 -0.0226  0.2660
 6143SOL    HW130062   2.537   3.829  11.967  0.0445 -2.2267 -0.3793
 6143SOL    HW230063   2.531   3.744  12.097  0.5528  0.1014 -0.0615
 6144SOL     OW30064   0.546   1.728  10.226 -0.0045 -0.2438 -0.5052
 6144SOL    HW130065   0.611   1.673  10.270 -2.8824 -0.7635  3.1123
 6144SOL    HW230066   0.489   1.745  10.301  0.8103 -1.3277  0.3678
 6145SOL     OW30067   4.313   0.947  13.211 -0.1065  0.1340  0.3271
 6145SOL    HW130068   4.222   0.976  13.214 -1.3357 -3.6465  0.4384
 6145SOL    HW230069   4.358   1.001  13.275 -1.5618 -0.0051  1.4581
 6146SOL     OW30070   2.220   3.208   5.569  0.6930  0.2147 -0.3847
 6146SOL    HW130071   2.297   3.179   5.519  0.7241 -1.0539  0.4145
 6146SOL    HW230072   2.166   3.255   5.506  2.3244 -0.4248 -2.2720
 6147SOL     OW30073   1.741   1.006   7.552  0.3749 -0.4256 -0.3449
 6147SOL    HW130074   1.825   0.960   7.546  1.2980  1.2005 -0.1270
 6147SOL    HW230075   1.775   1.068   7.617  1.3651 -1.5377  0.2078
 6148SOL     OW30076   3.742   3.378   4.849 -0.1076  0.1005  0.0807
 6148SOL    HW130077   3.647   3.374   4.857 -0.1658  0.7627 -0.2889
 6148SOL    HW230078   3.750   3.461   4.802  0.9216  1.0827  1.9827
 6149SOL     OW30079   3.482   0.837   6.936  0.4020 -0.0025  0.9647
 6149SOL    HW130080   3.430   0.821   7.014 -1.0214  3.7120  0.7764
 6149SOL    HW230081   3.412   0.827   6.872  1.7131 -4.2700  0.2078
 6150SOL     OW30082   2.785   2.388  11.961 -0.2695 -0.5318  0.5646
 6150SOL    HW130083   2.803   2.440  12.039 -1.8835  1.0534 -0.1387
 6150SOL    HW230084   2.692   2.367  11.961 -0.4801  0.3966  1.4656
 6151SOL     OW30085   2.166   0.685   7.517  0.4527  0.0616 -0.4278
 6151SOL    HW130086   2.154   0.631   7.596 -0.5537  0.2365 -0.4619
 6151SOL    HW230087   2.255   0.661   7.490  0.6702  1.0583 -0.5794
 6152SOL     OW30088   1.766   0.753   8.685  0.2293 -0.0329  0.0309
 6152SOL    HW130089   1.693   0.708   8.643 -1.1667  1.4467  0.8603
 6152SOL    HW230090   1.783   0.690   8.755 -0.2605  1.5704  1.6009
 6153SOL     OW30091   4.173   0.085   8.029  0.0387  0.2164 -0.4062
 6153SOL    HW130092   4.152   0.021   8.098 -2.0094  0.1883 -1.0741
 6153SOL    HW230093   4.268   0.100   8.032  0.5969 -3.0706 -1.8296
 6154SOL     OW30094   0.881   0.789   1.716 -0.1797  0.4051  0.0495
 6154SOL    HW130095   0.868   0.763   1.625  2.0546 -1.6728  0.3263
 6154SOL    HW230096   0.822   0.864   1.724 -1.7549 -0.5674 -2.6566
 6155SOL     OW30097   3.674   0.771   4.239 -0.2125 -0.0778  0.5235
 6155SOL    HW130098   3.664   0.832   4.166 -0.1675  0.3682  0.8917
 6155SOL    HW230099   3.695   0.690   4.192  1.0306 -1.7020  3.8166
 6156SOL     OW30100   3.498   1.045   5.134 -0.0648  0.3578 -0.1578
 6156SOL    HW130101   3.501   0.976   5.068 -2.2868  1.3025 -1.2709
 6156SOL    HW230102   3.484   1.122   5.077 -1.6793  0.6221  0.5887
 6157SOL     OW30103   2.080   3.370   5.834 -0.2097  0.7153 -0.0745
 6157SOL    HW130104   2.007   3.308   5.841  3.9027 -4.0727  0.2779
 6157SOL    HW230105   2.120   3.345   5.750 -3.6103 -0.1324 -1.4385
 6158SOL     OW30106   2.827   1.149   6.600 -0.0073  0.3512 -0.2363
 6158SOL    HW130107   2.816   1.111   6.513 -2.5492 -1.4799  0.8607
 6158SOL    HW230108   2.920   1.171   6.607  0.2232 -1.2092  1.5421
 6159SOL     OW30109   4.632   1.059   1.775  0.7136 -0.1758 -0.1994
 6159SOL    HW130110   4.581   1.044   1.854  1.2889 -1.5994 -0.1159
 6159SOL    HW230111   4.564   1.047   1.709 -0.1544  1.8677  0.3084
 6160SOL     OW30112   1.914   3.001   0.996  0.6221  0.4522 -0.2011
 6160SOL    HW130113   1.856   3.025   1.068  1.1713 -0.6984  0.6266
 6160SOL    HW230114   1.995   2.992   1.046  1.1946 -1.6227 -1.4912
 6161SOL     OW30115   2.753   0.866  16.011  0.3258 -0.3140 -0.9058
 6161SOL    HW130116   2.708   0.924  15.949  0.4041 -0.9904 -1.5911
 6161SOL    HW230117   2.696   0.864  16.088 -0.8131 -0.6655 -1.7624
 6162SOL     OW30118   4.516   2.135   5.113  0.2302  0.4001 -0.1522
 6162SOL    HW130119   4.595   2.139   5.167  1.0059 -0.3576 -1.2447
 6162SOL    HW230120   4.510   2.223   5.076 -2.7355  1.4114  2.6971
 6163SOL     OW30121   1.266   0.326   4.506 -0.1555  1.0967  0.7504
 6163SOL    HW130122   1.289   0.402   4.452  3.1450 -0.7505 -0.4173
 6163SOL    HW230123   1.354   0.298   4.531 -1.0431 -0.7696  1.7839
 6164SOL     OW30124   0.818   0.345   9.096 -0.3918 -0.0081  0.5881
 6164SOL    HW130125   0.849   0.388   9.175  1.7832 -0.1232 -0.2248
 6164SOL    HW230126   0.880   0.273   9.087 -0.6485 -0.3074  1.2343
 6165SOL     OW30127   1.294   1.608  12.054  0.1354 -0.6048 -0.0622
 6165SOL    HW130128   1.367   1.669  12.057  1.5490 -2.3668  1.8498
 6165SOL    HW230129   1.318   1.562  12.135 -1.4558 -0.9019  0.2603
 6166SOL     OW30130   2.223   3.099   7.545  0.4028 -0.0193 -0.1502
 6166SOL    HW130131   2.196   3.041   7.474 -1.0117  0.9187 -0.3632
 6166SOL    HW230132   2.301   3.137   7.504 -1.6537  2.8038 -1.4226
 6167SOL     OW30133   0.721   1.139   2.493 -0.7093  0.2606 -0.5171
 6167SOL    HW130134   0.692   1.165   2.406 -0.0659 -2.9641 -1.6959
 6167SOL    HW230135   0.740   1.045   2.487  0.3432  0.3674  1.1668
 6168SOL     OW30136   2.652   4.248   5.149  0.6960 -0.1552  0.5445
 6168SOL    HW130137   2.691   4.226   5.064  2.3518  0.6033  1.1141
 6168SOL    HW230138   2.573   4.196   5.135  0.3996  0.0701  1.3644
 6169SOL     OW30139   3.905   3.114   7.741 -0.3039 -0.6180  0.0088
 6169SOL    HW130140   3.926   3.021   7.736 -1.1370 -0.7510 -0.8767
 6169SOL    HW230141   3.975   3.140   7.802  0.5620 -2.1395 -0.3533
 6170SOL     OW30142   4.531   0.109   4.587  0.5130  0.3066  0.3079
 6170SOL    HW130143   4.494   0.115   4.675 -1.2468  0.2321 -0.4081
 6170SOL    HW230144   4.610   0.054   4.588  2.1250  2.6463 -0.1678
 6171SOL     OW30145   1.760   1.911  15.476  0.0415  0.2505  0.1155
 6171SOL    HW130146   1.808   1.965  15.413  0.6604  1.1830  1.3851
 6171SOL    HW230147   1.830   1.873  15.528 -0.7358 -1.8403 -0.3272
 6172SOL     OW30148   3.617   0.837   7.727 -0.1458 -0.1976  0.2845
 6172SOL    HW130149   3.565   0.779   7.672 -1.4440  1.1651  0.0754
 6172SOL    HW230150   3.571   0.835   7.811 -0.5831  1.3800  0.0878
 6173SOL     OW30151   2.558   1.633  15.312 -0.0198  0.1142  0.5250
 6173SOL    HW130152   2.581   1.719  15.275  1.1130 -0.7697 -0.8191
 6173SOL    HW230153   2.573   1.658  15.403 -0.6610 -1.0956  0.9537
 6174SOL     OW30154   2.464   1.531   8.365 -0.0819  0.4216 -0.5393
 6174SOL    HW130155   2.399   1.479   8.319 -1.9069  2.2776 -0.0399
 6174SOL    HW230156   2.546   1.520   8.316  1.8716  0.3499  2.7179
 6175SOL     OW30157   2.636   3.119   8.702 -0.8644 -0.4623 -0.1160
 6175SOL    HW130158   2.618   3.067   8.624  1.3184 -1.5337  0.0705
 6175SOL    HW230159   2.558   3.105   8.755 -1.4459  0.3903 -0.7450
 6176SOL     OW30160   0.063   3.188   4.207  0.4080 -0.7455 -0.1934
 6176SOL    HW130161   0.049   3.279   4.181 -2.8597 -0.6574  1.7812
 6176SOL    HW230162   4.710   3.152   4.215  0.3235 -0.4918  0.0028
 6177SOL     OW30163   3.506   0.587   0.268  0.3561 -0.0330  0.9839
 6177SOL    HW130164   3.450   0.530   0.321  2.7304 -2.1554  1.1891
 6177SOL    HW230165   3.449   0.615   0.196  0.3298  2.7495  2.0937
 6178SOL     OW30166   1.023   1.849   2.946 -0.1711 -0.4074  0.0544
 6178SOL    HW130167   1.026   1.779   2.881  0.5975 -1.0751  0.8072
 6178SOL    HW230168   0.944   1.900   2.928 -0.3745 -0.7991 -0.1678
 6179SOL     OW30169   0.688   1.540   2.867 -0.1956 -0.0314  0.1279
 6179SOL    HW130170   0.706   1.622   2.821  3.3525 -1.3687 -0.8292
 6179SOL    HW230171   0.592   1.537   2.859 -0.2178 -0.2601  0.5376
 6180SOL     OW30172   1.909   4.422   7.362 -0.0875 -0.0543 -0.0370
 6180SOL    HW130173   1.990   4.378   7.338 -0.3209 -0.0710 -0.7846
 6180SOL    HW230174   1.901   4.381   7.448  1.5406 -1.9134 -0.7951
 6181SOL     OW30175   3.004   1.824   9.344 -0.3413 -0.0086 -0.6075
 6181SOL    HW130176   3.013   1.913   9.379 -1.8779 -0.4959  1.0297
 6181SOL    HW230177   3.096   1.799   9.346 -0.2120  0.6954  2.2667
 6182SOL     OW30178   4.519   2.244   2.326  0.5896 -0.0144 -0.2339
 6182SOL    HW130179   4.538   2.153   2.351  0.3639  0.3535  1.2959
 6182SOL    HW230180   4.605   2.281   2.343  0.8322 -0.3233 -0.8059
 6183SOL     OW30181   0.855   3.140   3.552 -0.0327  0.1530  0.0678
 6183SOL    HW130182   0.879   3.232   3.565  2.2974 -0.3812 -0.4652
 6183SOL    HW230183   0.800   3.119   3.628  0.6992 -1.6357  0.1085
 6184SOL     OW30184   3.612   0.644   7.134 -0.4029  0.5479  0.2352
 6184SOL    HW130185   3.518   0.661   7.140 -1.0558 -2.1511 -2.4349
 6184SOL    HW230186   3.652   0.725   7.164 -1.1558  0.0563  2.5548
 6185SOL     OW30187   1.638   4.569  17.636 -0.3730 -0.5412  0.4775
 6185SOL    HW130188   1.546   4.575  17.661 -0.6422 -0.1386 -0.6203
 6185SOL    HW230189   1.690   4.615  17.702  0.4512 -1.1425  0.2492
 6186SOL     OW30190   2.094   0.801  13.038 -0.1935 -0.2508  0.2053
 6186SOL    HW130191   1.998   0.797  13.039 -0.2288  0.7084  0.2014
 6186SOL    HW230192   2.109   0.712  13.005  1.2137 -0.0102  0.2087
 6187SOL     OW30193   0.014   3.958  11.538 -0.0349  0.1480 -0.4570
 6187SOL    HW130194   0.093   3.996  11.501  0.2253 -0.0489 -0.1043
 6187SOL    HW230195   0.006   3.882  11.481  2.2815  0.5990 -1.3607
 6188SOL     OW30196   4.635   3.128   6.649  0.0481  0.1105  0.5874
 6188SOL    HW130197   4.553   3.177   6.648 -0.5285 -0.8682  0.0141
 6188SOL    HW230198   4.700   3.196   6.629 -2.3702  2.2588 -0.0604
 6189SOL     OW30199   0.699   1.104   2.213  0.2658  0.5569  0.1026
 6189SOL    HW130200   0.731   1.016   2.233 -0.4189 -0.0704 -1.5776
 6189SOL    HW230201   0.730   1.112   2.123  0.4481 -0.7025  0.0534
 6190SOL     OW30202   3.064   3.036  14.686 -0.3339 -0.2940 -0.1223
 6190SOL    HW130203   3.109   3.009  14.767 -0.1129 -0.1600 -0.2015
 6190SOL    HW230204   3.137   3.083  14.646  0.7998 -0.5985  1.5582
 6191SOL     OW30205   2.689   3.453  16.981  0.3858 -0.0708  0.0394
 6191SOL    HW130206   2.637   3.376  16.957 -0.0153 -0.5415  2.4667
 6191SOL    HW230207   2.704   3.483  16.891 -0.7603 -0.0215 -0.1312
 6192SOL     OW30208   2.479   2.400   7.710 -0.1062  0.4064 -0.1067
 6192SOL    HW130209   2.437   2.437   7.633  0.5687  1.0916 -0.1509
 6192SOL    HW230210   2.492   2.307   7.692 -0.3822  0.8199 -2.3376
 6193SOL     OW30211   3.132   0.568   3.958 -0.1858 -0.2448  0.2719
 6193SOL    HW130212   3.106   0.485   3.918 -1.3365 -0.9818  2.5242
 6193SOL    HW230213   3.200   0.604   3.901 -0.4403 -0.8992 -0.4413
 6194SOL     OW30214   2.733   1.155   3.484 -0.0371 -0.1946  0.8445
 6194SOL    HW130215   2.668   1.208   3.530 -1.1744 -0.1779 -0.7943
 6194SOL    HW230216   2.735   1.195   3.397  1.9660  2.9835  2.3676
 6195SOL     OW30217   0.952   2.050  12.678  0.4805 -0.3436 -0.0943
 6195SOL    HW130218   0.859   2.066  12.661  0.6351  1.2062  0.5488
 6195SOL    HW230219   0.988   2.137  12.690 -0.3308  0.2438 -1.8336
 6196SOL     OW30220   2.215   3.473  16.313  0.0528 -0.0128 -0.0936
 6196SOL    HW130221   2.199   3.542  16.378  1.3856 -0.9749  1.2484
 6196SOL    HW230222   2.271   3.410  16.357  0.3657  0.3622  0.0441
 6197SOL     OW30223   0.221   1.464   3.267  0.1578  0.6712 -0.5844
 6197SOL    HW130224   0.148   1.506   3.220 -0.1089 -0.0157 -0.7813
 6197SOL    HW230225   0.203   1.501   3.354 -0.6357 -1.0434 -0.0198
 6198SOL     OW30226   4.469   0.932  10.157  0.0001  0.0320 -0.0265
 6198SOL    HW130227   4.506   0.871  10.093 -0.6373  0.1643 -0.5250
 6198SOL    HW230228   4.539   0.997  10.156  1.0902 -1.1520 -1.3004
 6199SOL     OW30229   2.072   1.821   7.520  0.5948  0.1396 -0.4828
 6199SOL    HW130230   2.091   1.763   7.446  0.8274 -1.2462  0.6574
 6199SOL    HW230231   2.047   1.750   7.579 -0.4783 -0.5093 -1.7286
 6200SOL     OW30232   4.609   3.724   0.826 -0.0059  0.2217  0.2502
 6200SOL    HW130233   4.657   3.678   0.758  1.1381 -0.5452  1.5776
 6200SOL    HW230234   4.639   3.813   0.806 -1.8325  0.5796 -0.9099
 6201SOL     OW30235   3.796   4.097   2.416  0.8792  0.4220  0.0839
 6201SOL    HW130236   3.775   4.004   2.424 -1.1260  0.7808 -1.0354
 6201SOL    HW230237   3.796   4.134   2.504  0.6422 -0.0760  0.2887
 6202SOL     OW30238   0.892   0.417   3.762  0.5402  0.1727 -0.3279
 6202SOL    HW130239   0.913   0.500   3.805 -2.0733  1.9688 -2.4673
 6202SOL    HW230240   0.917   0.434   3.671  0.1810  0.2392 -0.4138
 6203SOL     OW30241   4.293   0.030   6.681 -0.3319  0.1233 -0.0745
 6203SOL    HW130242   4.232   0.074   6.622 -0.9579 -0.7045 -0.0527
 6203SOL    HW230243   4.255   4.679   6.700 -0.0791 -0.2375 -1.2329
 6204SOL     OW30244   3.549   3.076   6.006 -0.4975 -0.0659 -0.0805
 6204SOL    HW130245   3.645   3.076   6.000 -0.4191  0.3004  0.9839
 6204SOL    HW230246   3.519   3.056   5.918 -1.6138  2.5632 -0.2972
 6205SOL     OW30247   1.106   0.642   0.034  0.0115  0.5001 -0.0179
 6205SOL    HW130248   1.173   0.598  17.721  1.3794  1.1320  1.2029
 6205SOL    HW230249   1.129   0.619   0.124 -0.9134 -0.8740 -0.1322
 6206SOL     OW30250   0.920   4.094   4.454 -0.4772  0.1658 -0.3025
 6206SOL    HW130251   0.870   4.061   4.380 -0.2770  0.7838 -0.7157
 6206SOL    HW230252   0.870   4.067   4.531  0.5890  1.8992  0.9986
 6207SOL     OW30253   4.160   4.715   5.622 -0.1608 -0.3496  0.3032
 6207SOL    HW130254   4.069   4.703   5.650  0.2753 -0.0418  1.8661
 6207SOL    HW230255   4.148   4.733   5.529 -2.1159 -0.3055  0.5663
 6208SOL     OW30256   1.138   2.711   3.057 -0.1082 -0.2355 -0.1482
 6208SOL    HW130257   1.178   2.713   3.144 -2.8335 -0.1806  1.0970
 6208SOL    HW230258   1.212   2.738   3.002  0.7785  2.2338  2.2648
 6209SOL     OW30259   2.409   0.140   6.526 -0.0390 -0.2497 -0.5678
 6209SOL    HW130260   2.387   0.049   6.547  1.7255 -0.8541 -1.3729
 6209SOL    HW230261   2.454   0.131   6.442  0.0284 -1.9912 -0.3640
 6210SOL     OW30262   0.836   2.202   8.192  0.4077 -0.2608 -0.0890
 6210SOL    HW130263   0.753   2.220   8.148  0.1836 -0.2961  0.3217
 6210SOL    HW230264   0.827   2.280   8.246  0.9058 -0.1446 -0.1675
 6211SOL     OW30265   4.468   1.755  16.393 -0.5512 -0.2160  0.7442
 6211SOL    HW130266   4.474   1.736  16.487 -1.5544 -1.1053  0.6214
 6211SOL    HW230267   4.373   1.754  16.382 -0.4353  1.6001 -0.5186
 6212SOL     OW30268   2.638   0.527   5.109  0.4943 -0.2437 -0.0228
 6212SOL    HW130269   2.725   0.488   5.120  0.4639 -1.0808 -2.7173
 6212SOL    HW230270   2.659   0.601   5.052  1.5483 -0.2032  0.4158
 6213SOL     OW30271   3.640   2.956   9.541  0.2871  0.4358 -0.5947
 6213SOL    HW130272   3.595   3.024   9.492 -0.2686  1.5933  1.5211
 6213SOL    HW230273   3.570   2.893   9.561  0.4620  0.5297  0.3009
 6214SOL     OW30274   1.552   3.827   0.001 -0.2838 -0.0254 -0.2624
 6214SOL    HW130275   1.586   3.836  17.652  0.5620 -0.0636  0.0552
 6214SOL    HW230276   1.470   3.779  17.730 -2.1831  2.7848  1.7913
 6215SOL     OW30277   2.447   2.787   2.072  0.5965  0.4176 -0.1561
 6215SOL    HW130278   2.464   2.777   1.978 -0.9960  0.2939 -0.4306
 6215SOL    HW230279   2.375   2.850   2.071  1.7104  1.6870 -0.6959
 6216SOL     OW30280   3.278   0.807   2.345 -0.1490 -0.0926  0.2512
 6216SOL    HW130281   3.222   0.764   2.409  2.0851 -2.8389  0.3711
 6216SOL    HW230282   3.256   0.758   2.266  0.0441  1.7717 -0.9652
 6217SOL     OW30283   2.397   4.264   3.975 -0.5060  0.1799  0.7821
 6217SOL    HW130284   2.464   4.290   3.913  1.1845 -1.4660  1.9336
 6217SOL    HW230285   2.359   4.348   3.999 -0.3099  0.6919 -0.7072
 6218SOL     OW30286   0.939   3.464  13.865 -0.2908 -0.7244 -0.4276
 6218SOL    HW130287   0.864   3.523  13.856  0.0652 -0.4439 -1.6266
 6218SOL    HW230288   0.896   3.379  13.878  2.9057 -2.1445  0.8569
 6219SOL     OW30289   1.966   1.726   5.231  0.3211  0.0615  0.4953
 6219SOL    HW130290   1.974   1.813   5.269 -0.9471 -0.5346  2.1273
 6219SOL    HW230291   2.057   1.703   5.216 -0.2756 -0.8852 -1.8013
 6220SOL     OW30292   1.633   1.084   9.992  0.1182 -0.0107  0.4252
 6220SOL    HW130293   1.607   1.165  10.036  2.7047  1.3004 -0.4135
 6220SOL    HW230294   1.602   1.110   9.905  2.2993 -1.2032 -0.7121
 6221SOL     OW30295   1.586   3.625   9.127 -0.7416  0.0049  0.9463
 6221SOL    HW130296   1.568   3.565   9.055  0.5228  1.9375 -0.9843
 6221SOL    HW230297   1.644   3.568   9.178 -0.4547 -0.5491  0.0002
 6222SOL     OW30298   1.220   2.383   8.069  0.1315  0.6462 -0.0279
 6222SOL    HW130299   1.259   2.423   8.147 -2.1615  1.7955  0.5540
 6222SOL    HW230300   1.146   2.439   8.046 -0.4021  0.1341  0.4388
 6223SOL     OW30301   3.903   3.605   2.858  0.3762  0.2315 -0.3577
 6223SOL    HW130302   3.950   3.596   2.775 -0.7279 -1.1559 -0.8247
 6223SOL    HW230303   3.939   3.535   2.911  0.2668  1.4088  1.2622
 6224SOL     OW30304   3.897   2.008   4.162 -0.5909 -0.2893 -0.3765
 6224SOL    HW130305   3.820   2.042   4.207  0.0960  0.7049  0.0520
 6224SOL    HW230306   3.859   2.004   4.074 -1.9067 -1.4484  0.2648
 6225SOL     OW30307   3.825   4.370  16.498  0.3228 -0.0952  0.4878
 6225SOL    HW130308   3.913   4.349  16.531  0.9109 -0.0821 -1.0881
 6225SOL    HW230309   3.801   4.286  16.459  0.8167 -1.0345  2.2093
 6226SOL     OW30310   2.470   1.859   5.287 -0.7036  0.2146  0.0213
 6226SOL    HW130311   2.412   1.934   5.275  0.1378  0.8504 -0.1250
 6226SOL    HW230312   2.455   1.826   5.375  0.0536 -0.2013 -0.0030
 6227SOL     OW30313   3.551   2.572  17.181  0.5473 -0.0957  0.0027
 6227SOL    HW130314   3.606   2.650  17.172 -3.1196  2.4725 -0.5519
 6227SOL    HW230315   3.612   2.500  17.196 -1.5700 -1.7813  0.5408
 6228SOL     OW30316   1.087   1.661   7.881  0.6049 -0.0016 -0.2376
 6228SOL    HW130317   1.084   1.742   7.830  1.8359 -0.0263 -0.3389
 6228SOL    HW230318   1.033   1.697   7.951  0.2589  0.9210 -0.9708
 6229SOL     OW30319   0.251   2.434  16.044 -0.0034  0.6687  0.7830
 6229SOL    HW130320   0.254   2.372  15.971  1.2976  1.8666 -0.1746
 6229SOL    HW230321   0.224   2.378  16.117 -0.6339 -0.7771 -0.5608
 6230SOL     OW30322   1.764   3.962  12.004  0.2195  0.0915  0.5758
 6230SOL    HW130323   1.805   3.876  12.005 -0.2539 -0.1079  2.7626
 6230SOL    HW230324   1.679   3.948  12.046  1.1425  0.9895  2.7142
 6231SOL     OW30325   2.112   3.647   1.737 -0.0900 -0.3474  0.0482
 6231SOL    HW130326   2.070   3.671   1.820 -0.0912  0.6491 -0.2369
 6231SOL    HW230327   2.058   3.572   1.713 -0.7820  0.1413  0.0695
 6232SOL     OW30328   1.572   2.793  15.933 -0.1354 -0.2234  0.6514
 6232SOL    HW130329   1.588   2.722  15.994 -0.5043  0.4576  1.5321
 6232SOL    HW230330   1.542   2.855  16.000  0.8012  1.1217 -0.1716
 6233SOL     OW30331   2.748   3.288   4.815 -0.7239  0.0179  0.5065
 6233SOL    HW130332   2.699   3.367   4.838 -0.0247  0.1939  1.4277
 6233SOL    HW230333   2.678   3.229   4.842 -1.1167  1.8496  3.3989
 6234SOL     OW30334   1.073   1.418   7.729  0.1868  0.1904 -0.1121
 6234SOL    HW130335   1.107   1.452   7.647 -3.3881  2.3336 -0.6969
 6234SOL    HW230336   1.081   1.483   7.799 -1.6496 -0.2520  0.5309
 6235SOL     OW30337   0.156   3.235   7.198 -0.0018 -0.0834  0.4250
 6235SOL    HW130338   0.190   3.292   7.128 -1.4999 -0.0750 -0.3031
 6235SOL    HW230339   0.137   3.291   7.273  0.9559 -0.4210  0.9076
 6236SOL     OW30340   0.051   2.172   0.572  0.2455 -0.2974 -0.1225
 6236SOL    HW130341   0.066   2.228   0.495 -0.3961 -0.5726 -0.4488
 6236SOL    HW230342   0.130   2.117   0.574  1.2531  0.9983 -3.2264
 6237SOL     OW30343   4.372   1.780  15.302  0.1086  0.3331 -0.4240
 6237SOL    HW130344   4.293   1.777  15.356 -0.0589  1.4621 -0.6181
 6237SOL    HW230345   4.361   1.863  15.257 -0.9011 -0.5400 -1.7765
 6238SOL     OW30346   4.307   0.301   8.903  0.2150  0.1449  0.1162
 6238SOL    HW130347   4.337   0.212   8.883  0.8614  0.5856 -0.8377
 6238SOL    HW230348   4.213   0.304   8.883 -0.1252  2.8730  2.0760
 6239SOL     OW30349   0.720   1.645   5.005  0.0605 -0.4744 -0.7762
 6239SOL    HW130350   0.737   1.712   5.071  1.0185  0.6720 -2.1849
 6239SOL    HW230351   0.667   1.583   5.055  0.1293  0.2755  0.2249
 6240SOL     OW30352   1.385   2.180   6.348 -0.0720 -0.0670  0.1374
 6240SOL    HW130353   1.382   2.226   6.432 -0.5692 -0.4546  0.3323
 6240SOL    HW230354   1.349   2.094   6.368  2.9849 -1.3737  0.0418
 6241SOL     OW30355   2.475   4.383   7.743  0.1336  0.5843 -0.0188
 6241SOL    HW130356   2.408   4.398   7.677  0.8182  0.2499 -0.7804
 6241SOL    HW230357   2.531   4.317   7.702  0.1859  0.4262  0.3016
 6242SOL     OW30358   0.807   2.213   2.765  0.1278  0.0370  0.1678
 6242SOL    HW130359   0.855   2.191   2.686 -1.8855 -0.7820 -0.8151
 6242SOL    HW230360   0.870   2.206   2.837  0.5483  0.0610 -0.2013
 6243SOL     OW30361   1.758   4.731   8.791 -0.1709 -0.3325  0.0166
 6243SOL    HW130362   1.765   4.654   8.847  2.6634 -0.5602 -0.6385
 6243SOL    HW230363   1.714   4.698   8.713  2.4334 -0.6552 -1.3125
 6244SOL     OW30364   3.700   1.392   2.487 -0.6603  0.3494  0.8177
 6244SOL    HW130365   3.699   1.304   2.450 -0.7919 -0.0212  1.6782
 6244SOL    HW230366   3.703   1.373   2.581 -0.2896 -0.2899  0.6772
 6245SOL     OW30367   2.508   0.824   9.191  0.2860  0.1748  0.4388
 6245SOL    HW130368   2.563   0.867   9.126  2.3440 -3.1278  0.0233
 6245SOL    HW230369   2.434   0.811   9.131  1.8428 -1.1640 -1.1707
 6246SOL     OW30370   4.257   0.814  14.836  0.4177 -0.5869  0.0006
 6246SOL    HW130371   4.257   0.741  14.775  3.8136 -1.7632  1.3837
 6246SOL    HW230372   4.249   0.884  14.771  1.6535  0.0532  0.5370
 6247SOL     OW30373   4.277   2.973  10.076 -0.1634 -0.0794  0.4395
 6247SOL    HW130374   4.335   2.922  10.132 -0.9833 -0.6895  0.7175
 6247SOL    HW230375   4.211   3.009  10.135 -0.8405  0.4460 -0.6500
 6248SOL     OW30376   1.927   2.911  14.175 -0.0955 -0.0866  0.1843
 6248SOL    HW130377   2.001   2.851  14.167 -0.1598 -0.2151  0.5314
 6248SOL    HW230378   1.961   2.994  14.143 -1.7173  0.7169  0.5311
 6249SOL     OW30379   0.042   3.611   5.334 -0.2861 -0.0943 -0.3429
 6249SOL    HW130380   4.706   3.675   5.338 -0.1515  0.2982 -4.0232
 6249SOL    HW230381   0.115   3.672   5.341  0.3254 -0.7509 -0.9512
 6250SOL     OW30382   2.882   3.120   4.403 -0.4560 -0.0895  0.2702
 6250SOL    HW130383   2.903   3.080   4.488  0.0884 -1.3924 -0.4777
 6250SOL    HW230384   2.874   3.040   4.352 -1.9564  0.8013 -0.8968
 6251SOL     OW30385   3.078   4.186   6.010 -0.1529 -0.2829 -0.4909
 6251SOL    HW130386   2.984   4.196   6.003 -0.2947 -1.5960 -0.5297
 6251SOL    HW230387   3.094   4.122   6.079 -1.1783 -0.3828 -0.3608
 6252SOL     OW30388   4.548   0.106   1.772  0.2502  0.1485 -0.2081
 6252SOL    HW130389   4.484   0.151   1.826 -0.0389 -1.4524  0.7800
 6252SOL    HW230390   4.501   0.100   1.689  1.7769  1.8858 -1.2090
 6253SOL     OW30391   1.349   2.037   9.197 -0.1410 -0.3776 -0.3313
 6253SOL    HW130392   1.330   1.966   9.258  0.2332  0.2063  0.4661
 6253SOL    HW230393   1.262   2.060   9.165 -0.3668  1.3155  1.4549
 6254SOL     OW30394   1.349   1.772   6.694  0.0019 -0.6416  0.2837
 6254SOL    HW130395   1.254   1.774   6.680  0.1457 -1.2723 -0.7060
 6254SOL    HW230396   1.359   1.726   6.777  1.0274  1.3681  1.3024
 6255SOL     OW30397   4.731   1.864   8.166 -0.3914 -0.5989 -0.2248
 6255SOL    HW130398   0.046   1.891   8.242 -2.4646 -1.7767  1.5725
 6255SOL    HW230399   4.659   1.926   8.179  0.7560  0.3863  1.3465
 6256SOL     OW30400   1.467   4.676   2.694 -0.0936  0.1173  0.0168
 6256SOL    HW130401   1.490   4.713   2.608 -0.2360  2.1298  0.8441
 6256SOL    HW230402   1.558   4.664   2.719 -0.0671  2.1610  0.8719
 6257SOL     OW30403   0.639   0.907  16.867 -0.2819 -0.2079 -0.3243
 6257SOL    HW130404   0.606   0.900  16.777 -2.2447 -0.9219  0.4718
 6257SOL    HW230405   0.725   0.865  16.861 -0.8246 -1.3751  0.1841
 6258SOL     OW30406   3.471   0.644  12.289  0.5388  0.2021  0.0268
 6258SOL    HW130407   3.381   0.661  12.316  0.7756 -0.2970  1.1177
 6258SOL    HW230408   3.490   0.561  12.332  0.5816  1.3284  2.1908
 6259SOL     OW30409   0.879   3.431   7.638 -0.0715 -0.2482 -0.2071
 6259SOL    HW130410   0.875   3.344   7.678 -0.6055  0.4038  1.1603
 6259SOL    HW230411   0.801   3.479   7.666 -0.6568 -0.7856 -0.9004
 6260SOL     OW30412   3.106   2.844   4.611 -0.0677 -0.0939  0.0577
 6260SOL    HW130413   3.106   2.904   4.685  1.2888  2.6604 -2.1454
 6260SOL    HW230414   3.198   2.861   4.587 -0.1129  0.3003  0.1665
 6261SOL     OW30415   3.853   3.137   2.009  0.3586  0.2095 -0.6424
 6261SOL    HW130416   3.929   3.085   2.033  0.0893  0.9651  1.9138
 6261SOL    HW230417   3.896   3.222   2.011  1.3016 -0.2861  0.2263
 6262SOL     OW30418   3.888   1.761   2.379 -0.0776 -0.3714  0.6963
 6262SOL    HW130419   3.907   1.702   2.306 -1.2008 -1.1609  1.0346
 6262SOL    HW230420   3.955   1.828   2.366 -0.8653  0.7103  2.1536
 6263SOL     OW30421   3.356   1.376   9.260  0.1625  0.2645  0.0950
 6263SOL    HW130422   3.300   1.320   9.312  0.4844  1.2970  1.5429
 6263SOL    HW230423   3.428   1.396   9.319 -1.8879 -0.6022  2.8598
 6264SOL     OW30424   1.908   3.585   1.975 -0.3419 -0.6847 -0.5114
 6264SOL    HW130425   1.814   3.576   1.959 -0.2060 -1.3203 -0.9594
 6264SOL    HW230426   1.902   3.624   2.062  0.3226  0.3582 -0.9343
 6265SOL     OW30427   1.904   1.266  15.972  0.0802  0.8416 -0.2685
 6265SOL    HW130428   1.849   1.297  16.045  0.9831  0.0227  0.7676
 6265SOL    HW230429   1.976   1.329  15.971 -0.7629  1.7962 -0.4597
 6266SOL     OW30430   1.447   4.509  12.863 -0.1477  0.6745 -0.0227
 6266SOL    HW130431   1.383   4.574  12.891 -1.3817 -0.2718 -0.6294
 6266SOL    HW230432   1.519   4.555  12.820  1.1086 -1.1523  0.1218
 6267SOL     OW30433   1.269   4.536  10.312  0.3782 -0.2842  0.5536
 6267SOL    HW130434   1.234   4.587  10.386 -0.1516 -2.0341  1.5254
 6267SOL    HW230435   1.302   4.457  10.355 -0.0755  0.3345  2.0488
 6268SOL     OW30436   1.926   1.534   8.813 -0.1689  0.4992 -1.1098
 6268SOL    HW130437   2.003   1.493   8.852  0.4479  0.8211 -1.9953
 6268SOL    HW230438   1.876   1.574   8.885 -0.2963 -1.3866 -0.1676
 6269SOL     OW30439   0.831   2.302   6.212  0.3543  0.2396  0.5223
 6269SOL    HW130440   0.920   2.335   6.208 -0.1248  1.5294  0.3805
 6269SOL    HW230441   0.828   2.257   6.297  2.0376 -0.0032  0.4371
 6270SOL     OW30442   2.822   2.539  12.200  0.1516 -0.0051 -0.1608
 6270SOL    HW130443   2.746   2.597  12.207 -0.2511 -0.5426 -0.0411
 6270SOL    HW230444   2.894   2.600  12.187  0.6068 -1.3287 -3.8344
 6271SOL     OW30445   3.260   4.109  14.781 -0.0970  0.3646 -0.3213
 6271SOL    HW130446   3.327   4.054  14.740 -0.2961  0.1915 -0.4092
 6271SOL    HW230447   3.248   4.085  14.873  2.0370 -0.8180 -0.3517
 6272SOL     OW30448   1.050   2.530   6.018  0.1699  0.2228 -0.7965
 6272SOL    HW130449   0.965   2.556   6.054 -0.4266 -0.2716 -1.8518
 6272SOL    HW230450   1.101   2.487   6.087 -1.7779 -1.9817 -0.7480
 6273SOL     OW30451   4.183   3.737   2.565  0.4181  0.3086  0.1645
 6273SOL    HW130452   4.187   3.759   2.472  1.2467 -3.7733 -0.7721
 6273SOL    HW230453   4.274   3.752   2.590  0.6174  0.7244 -0.7946
 6274SOL     OW30454   2.136   1.788  14.535 -0.1541  0.2701  0.2622
 6274SOL    HW130455   2.196   1.800  14.609 -1.0631  1.9305  0.7288
 6274SOL    HW230456   2.149   1.695  14.515  0.3637  0.0747  1.5064
 6275SOL     OW30457   1.529   1.956   4.561  0.2182 -0.4096  0.3323
 6275SOL    HW130458   1.582   1.990   4.633 -0.2744  1.4757 -0.1866
 6275SOL    HW230459   1.596   1.895   4.530 -1.2119 -1.4048 -0.8074
 6276SOL     OW30460   4.353   1.011   6.723  0.4811 -0.3342 -0.0189
 6276SOL    HW130461   4.312   1.096   6.737  3.9433  0.9441  2.2272
 6276SOL    HW230462   4.300   0.954   6.778  0.8056 -0.1933  0.4448
 6277SOL     OW30463   1.561   1.104   9.331  0.2277  0.1562  0.4688
 6277SOL    HW130464   1.580   1.121   9.239  0.1461  0.9384  0.5928
 6277SOL    HW230465   1.618   1.169   9.373 -0.3699  1.5430 -0.8390
 6278SOL     OW30466   2.711   4.366   2.833  0.8303 -0.0381 -0.2199
 6278SOL    HW130467   2.766   4.288   2.821  0.2680 -0.6337  1.1166
 6278SOL    HW230468   2.655   4.368   2.755 -3.0082 -0.4799  2.5156
 6279SOL     OW30469   0.630   3.861   8.868 -0.0030  0.4377  0.0606
 6279SOL    HW130470   0.657   3.778   8.907  0.1979  0.5700  0.2029
 6279SOL    HW230471   0.676   3.865   8.784 -2.8379  0.5855 -1.4773
 6280SOL     OW30472   2.773   3.530   5.295  0.2658 -0.1285  0.0733
 6280SOL    HW130473   2.805   3.513   5.383  1.4767  2.2782  0.0798
 6280SOL    HW230474   2.781   3.625   5.295  0.6264 -0.1709  2.5927
 6281SOL     OW30475   3.462   3.168   2.323  0.0989 -0.4331 -0.2647
 6281SOL    HW130476   3.520   3.215   2.383 -0.1364 -2.1934  1.3362
 6281SOL    HW230477   3.517   3.138   2.251  0.8596  0.3246  0.0020
 6282SOL     OW30478   2.607   0.927   2.684  0.1878  0.3816 -0.1432
 6282SOL    HW130479   2.522   0.885   2.677  0.6651 -0.2768 -1.8564
 6282SOL    HW230480   2.622   0.908   2.777  1.9880  0.2491 -0.4580
 6283SOL     OW30481   4.583   1.925   2.367  0.5181 -0.8543 -0.6799
 6283SOL    HW130482   4.621   1.928   2.455  0.2391 -1.1316 -0.5477
 6283SOL    HW230483   4.508   1.866   2.377 -1.5242  1.8385 -0.3323
 6284SOL     OW30484   4.439   0.267   3.964 -0.1949  0.2252  0.2718
 6284SOL    HW130485   4.359   0.219   3.940 -0.6533  0.4195  1.3901
 6284SOL    HW230486   4.502   0.242   3.897 -0.5810 -1.5391  0.5709
 6285SOL     OW30487   1.500   4.084   4.563  0.0177 -0.0221 -0.1474
 6285SOL    HW130488   1.461   4.144   4.627 -2.5856  0.1087 -1.8693
 6285SOL    HW230489   1.501   4.001   4.610  0.4731  0.8494  1.3834
 6286SOL     OW30490   2.005   1.694   0.748  0.2922  0.2214  0.1687
 6286SOL    HW130491   1.953   1.773   0.736 -0.9759 -0.5865  0.2769
 6286SOL    HW230492   2.085   1.725   0.705  0.7825 -1.7794 -0.3794
 6287SOL     OW30493   3.621   2.267   6.506  0.0766  0.1665  0.9457
 6287SOL    HW130494   3.569   2.229   6.576 -2.9446  0.1615 -1.3171
 6287SOL    HW230495   3.632   2.357   6.536  0.7542  0.9161 -1.4926
 6288SOL     OW30496   2.030   2.279   6.591 -0.4171 -0.1726 -0.6311
 6288SOL    HW130497   2.073   2.205   6.632 -0.8258  0.0042  0.1033
 6288SOL    HW230498   2.007   2.248   6.503 -0.6213 -1.3520 -0.1534
 6289SOL     OW30499   4.618   2.597  10.726 -0.1046 -0.5500 -0.3868
 6289SOL    HW130500   4.661   2.677  10.756 -0.3804 -0.6419  0.2612
 6289SOL    HW230501   4.527   2.625  10.724  0.2907  0.8825  1.8119
 6290SOL     OW30502   0.102   1.661   7.195 -0.0262  0.4495 -0.3527
 6290SOL    HW130503   0.050   1.592   7.154  0.2633 -0.9248  1.5507
 6290SOL    HW230504   0.185   1.615   7.209 -0.1472 -0.3775 -2.4863
 6291SOL     OW30505   0.782   0.172  16.438  0.1994  0.0371  0.4317
 6291SOL    HW130506   0.778   0.098  16.377  1.2812 -0.0936  0.5198
 6291SOL    HW230507   0.769   0.255  16.392  0.3884 -0.3712 -0.3568
 6292SOL     OW30508   1.992   3.205   8.862 -0.1013 -0.7369  0.3231
 6292SOL    HW130509   2.080   3.213   8.827 -0.3767  2.6023  0.3443
 6292SOL    HW230510   1.947   3.196   8.778 -2.6170 -0.3140  1.6323
 6293SOL     OW30511   1.945   3.529  12.395  0.5195  0.5349  0.1680
 6293SOL    HW130512   1.968   3.611  12.438  2.2723 -0.5135  1.2420
 6293SOL    HW230513   2.022   3.472  12.405 -0.6486 -1.0497  0.0629
 6294SOL     OW30514   2.174   3.390  12.368  0.3210  0.0745  0.4800
 6294SOL    HW130515   2.234   3.338  12.422  0.3306 -0.0476  0.3537
 6294SOL    HW230516   2.227   3.398  12.288 -0.4942  1.6055  0.1047
 6295SOL     OW30517   0.730   4.070   4.744  0.4935  0.3485 -0.1586
 6295SOL    HW130518   0.747   4.156   4.784 -2.0248  0.7943 -0.0872
 6295SOL    HW230519   0.647   4.038   4.779  1.0586 -1.8664 -0.8694
 6296SOL     OW30520   0.086   0.079   3.962 -0.2701 -0.0004 -0.5063
 6296SOL    HW130521   0.126   0.090   4.048 -0.4188 -0.3598 -0.3904
 6296SOL    HW230522   0.160   0.106   3.908  1.7231 -1.4897  1.5177
 6297SOL     OW30523   3.399   3.735  14.565 -0.0530 -0.4483  0.5893
 6297SOL    HW130524   3.332   3.746  14.498  0.0710 -0.4166  0.4705
 6297SOL    HW230525   3.400   3.822  14.604  0.5238 -1.1012  2.0727
 6298SOL     OW30526   1.039   3.716   3.107  0.4394 -0.1457 -0.2506
 6298SOL    HW130527   1.046   3.628   3.144  1.5482 -0.0534 -0.2275
 6298SOL    HW230528   0.947   3.718   3.081 -0.1211  0.6777  1.7824
 6299SOL     OW30529   4.462   0.116   6.471  0.0390  0.0480 -0.0000
 6299SOL    HW130530   4.437   0.108   6.563 -0.2273  0.6397 -0.0241
 6299SOL    HW230531   4.425   0.034   6.436 -0.4915  1.4805 -2.7760
 6300SOL     OW30532   0.102   2.931   3.578  0.1429  0.1340 -0.6127
 6300SOL    HW130533   0.087   2.900   3.667 -0.0639 -0.0440 -0.7123
 6300SOL    HW230534   0.059   3.016   3.591 -1.9559 -0.8003 -1.6228
 6301SOL     OW30535   3.225   3.416  12.745  0.2816  0.2224 -0.3715
 6301SOL    HW130536   3.245   3.383  12.833 -2.9326 -0.9210 -0.0827
 6301SOL    HW230537   3.193   3.504  12.761 -1.3660 -0.9665  2.8837
 6302SOL     OW30538   0.331   2.944   7.781 -0.2004 -0.4096  0.7677
 6302SOL    HW130539   0.317   2.876   7.715 -0.3871 -1.9534  2.3979
 6302SOL    HW230540   0.289   3.020   7.739  0.6335 -0.0412  0.5875
 6303SOL     OW30541   1.896   0.928   8.121 -0.0439 -0.3202  0.3982
 6303SOL    HW130542   1.928   0.904   8.208  1.6317 -0.2563 -0.1875
 6303SOL    HW230543   1.976   0.948   8.072 -0.1487 -0.6949  0.0768
 6304SOL     OW30544   3.277   4.271   7.147 -0.5868  0.3715 -0.0034
 6304SOL    HW130545   3.355   4.255   7.094 -1.6647 -0.2779 -1.4056
 6304SOL    HW230546   3.214   4.215   7.102  0.7293 -2.3164  1.5492
 6305SOL     OW30547   4.353   4.261   2.872 -0.0645 -0.2156  0.0289
 6305SOL    HW130548   4.326   4.198   2.939 -3.0418 -0.2762 -1.2360
 6305SOL    HW230549   4.382   4.330   2.933 -1.8198  0.7736 -0.2456
 6306SOL     OW30550   4.382   2.182   5.947 -0.4205  0.1248  0.2205
 6306SOL    HW130551   4.463   2.182   5.999 -0.6601  0.3084  0.5906
 6306SOL    HW230552   4.368   2.089   5.934  0.3909  0.1237 -0.6704
 6307SOL     OW30553   0.606   2.101  12.154 -0.6608 -0.2659  0.5989
 6307SOL    HW130554   0.598   2.073  12.245  0.0924  2.5166  1.5183
 6307SOL    HW230555   0.513   2.109  12.135 -0.2551  0.2266 -1.1784
 6308SOL     OW30556   4.563   2.033   8.878 -0.3481 -0.3834 -0.2514
 6308SOL    HW130557   4.568   2.001   8.787 -1.3234 -1.1634 -0.0261
 6308SOL    HW230558   4.618   1.964   8.915  1.3867  1.3377  0.3266
 6309SOL     OW30559   4.528   4.647  16.838  0.5653  0.0667  0.1246
 6309SOL    HW130560   4.502   0.002  16.853  0.3122  0.2642 -1.5605
 6309SOL    HW230561   4.591   4.638  16.910 -0.1635 -0.8838  0.6603
 6310SOL     OW30562   2.889   0.253  10.720 -0.5323 -0.2179 -0.4480
 6310SOL    HW130563   2.853   0.342  10.709  0.7612  0.2337 -1.0393
 6310SOL    HW230564   2.834   0.229  10.795 -2.9243 -1.0151 -2.4306
 6311SOL     OW30565   1.545   4.277   9.150 -0.0746  0.3496  0.7455
 6311SOL    HW130566   1.513   4.219   9.081 -1.5941  0.4166  1.3980
 6311SOL    HW230567   1.629   4.230   9.159  1.2016  1.8310 -3.7161
 6312SOL     OW30568   4.493   4.629   1.455 -0.0468  0.1030 -0.0710
 6312SOL    HW130569   4.494   4.659   1.364 -2.7417 -0.0434 -0.1458
 6312SOL    HW230570   4.473   4.716   1.490  0.5528  0.3652 -0.3740
 6313SOL     OW30571   2.890   0.539   5.416  0.2977 -0.2457  0.9996
 6313SOL    HW130572   2.917   0.571   5.329 -0.9186 -0.9609  0.3538
 6313SOL    HW230573   2.932   0.453   5.418 -0.0642 -0.3824  2.7607
 6314SOL     OW30574   2.922   1.072   0.674  0.1449  0.3236 -0.2596
 6314SOL    HW130575   2.872   1.021   0.609  1.3811 -1.5276  0.2522
 6314SOL    HW230576   2.857   1.088   0.742 -0.3751 -0.8725 -0.4741
 6315SOL     OW30577   3.334   3.755   3.448  0.5416 -0.2479  0.0573
 6315SOL    HW130578   3.334   3.664   3.480 -2.8223 -0.1402  0.3232
 6315SOL    HW230579   3.304   3.740   3.358  2.6367 -0.4004 -0.6259
 6316SOL     OW30580   3.114   3.983   4.443  0.0633 -0.6111 -0.0105
 6316SOL    HW130581   3.167   3.908   4.417 -0.0780 -0.8019  0.2561
 6316SOL    HW230582   3.065   4.010   4.365  1.2066 -0.5523 -0.7232
 6317SOL     OW30583   0.151   2.750   6.204 -0.4854  0.0555 -0.4395
 6317SOL    HW130584   0.154   2.671   6.149 -1.1650 -0.0291 -0.3547
 6317SOL    HW230585   0.121   2.714   6.287  0.4302 -2.1392 -1.0520
 6318SOL     OW30586   2.006   4.685   8.070 -0.4186  0.0969 -0.0887
 6318SOL    HW130587   1.938   0.008   8.036  1.4568  1.7388 -1.0477
 6318SOL    HW230588   2.070   4.714   8.006 -0.2047 -1.0162 -0.3805
 6319SOL     OW30589   0.658   2.722   2.784 -0.3300 -0.0218 -0.3013
 6319SOL    HW130590   0.742   2.753   2.818 -0.1138 -1.6904  0.6815
 6319SOL    HW230591   0.671   2.627   2.787 -0.9382 -0.1121 -0.5361
 6320SOL     OW30592   0.193   1.373   7.293 -0.5645  0.4061  0.2543
 6320SOL    HW130593   0.134   1.314   7.247 -0.3709 -0.4484  1.1125
 6320SOL    HW230594   0.279   1.367   7.250 -1.1470 -0.7211 -0.7459
 6321SOL     OW30595   1.678   0.136  16.878 -0.0911  0.1343 -0.3268
 6321SOL    HW130596   1.772   0.130  16.893 -0.3090 -0.7411  0.7309
 6321SOL    HW230597   1.643   0.046  16.876 -0.0319  0.0988  0.3314
 6322SOL     OW30598   0.062   2.064   5.708  0.0134 -0.0195  0.2258
 6322SOL    HW130599   0.064   2.159   5.722 -0.3738  0.0926 -0.4562
 6322SOL    HW230600   0.152   2.062   5.676 -0.2127  2.0752 -0.5897
 6323SOL     OW30601   3.901   3.993  10.098  0.1999  0.3528 -0.4189
 6323SOL    HW130602   3.867   3.955  10.180  1.6428  0.4816  0.2430
 6323SOL    HW230603   3.830   3.962  10.042  0.3083 -0.6783  0.0043
 6324SOL     OW30604   4.126   3.288  11.402  0.0109 -0.1655  0.0771
 6324SOL    HW130605   4.110   3.340  11.481 -1.6557 -1.9694  0.9414
 6324SOL    HW230606   4.185   3.352  11.364  0.9732 -0.9536  0.2225
 6325SOL     OW30607   1.525   2.410  11.559 -0.3299  0.3598  0.5619
 6325SOL    HW130608   1.558   2.434  11.472 -1.5166 -1.1578 -0.3123
 6325SOL    HW230609   1.484   2.326  11.539 -0.4844  0.8211 -1.0847
 6326SOL     OW30610   2.666   2.846   4.036  0.4008 -0.1154  0.1723
 6326SOL    HW130611   2.728   2.773   4.044  2.4695  1.5651 -0.4446
 6326SOL    HW230612   2.724   2.904   4.085 -2.3051  0.7407  2.3167
 6327SOL     OW30613   1.931   0.858  17.157 -0.1683 -0.6506  0.4778
 6327SOL    HW130614   1.858   0.814  17.199 -1.1109  0.9849  0.5554
 6327SOL    HW230615   2.010   0.824  17.198  1.5057  1.5899 -0.8353
 6328SOL     OW30616   0.207   0.693   8.222  0.0089  0.3308  0.4306
 6328SOL    HW130617   0.135   0.711   8.282 -0.2891  2.4789 -0.5723
 6328SOL    HW230618   0.281   0.690   8.282 -1.1381 -0.3914  1.8037
 6329SOL     OW30619   0.959   1.153   4.952 -0.5961 -0.1536  0.1761
 6329SOL    HW130620   1.000   1.071   4.927  0.8219  0.7085 -0.3395
 6329SOL    HW230621   0.868   1.123   4.960 -1.0764  1.3393  0.3940
 6330SOL     OW30622   3.148   1.257   2.221 -0.0811  0.1156 -0.7497
 6330SOL    HW130623   3.187   1.335   2.181  1.4348  0.2783  1.0187
 6330SOL    HW230624   3.223   1.198   2.212  0.3728  0.6318 -0.3577
 6331SOL     OW30625   1.320   3.300   3.397 -0.1688 -0.0780 -0.2324
 6331SOL    HW130626   1.261   3.253   3.456  0.4964  0.4088  0.8286
 6331SOL    HW230627   1.398   3.310   3.452  0.3865 -3.6379 -0.3626
 6332SOL     OW30628   3.538   0.432  12.451  0.0201  0.5401 -0.1430
 6332SOL    HW130629   3.541   0.386  12.534 -1.6870  0.8220  0.0763
 6332SOL    HW230630   3.530   0.354  12.396 -2.5812  0.2746  0.5895
 6333SOL     OW30631   0.552   1.876  17.446  0.4109 -0.0391  0.1936
 6333SOL    HW130632   0.572   1.938  17.516  1.5863  0.5371 -0.6708
 6333SOL    HW230633   0.558   1.785  17.475  1.4454 -0.1830 -0.4884
 6334SOL     OW30634   2.714   0.695   1.742  0.3074  0.1637  0.1145
 6334SOL    HW130635   2.724   0.772   1.685  0.2112  0.2029  0.1512
 6334SOL    HW230636   2.672   0.736   1.818 -0.7839  2.1392 -1.5500
 6335SOL     OW30637   1.498   3.574  13.357  0.3332 -0.2261 -0.2118
 6335SOL    HW130638   1.490   3.554  13.451  1.7000 -1.0802 -0.2762
 6335SOL    HW230639   1.579   3.624  13.344  1.1278 -0.6050  3.1648
 6336SOL     OW30640   1.750   0.481  11.078 -0.2826 -0.3259 -0.0880
 6336SOL    HW130641   1.751   0.491  11.173 -2.0398  1.9904 -0.2947
 6336SOL    HW230642   1.838   0.519  11.069 -0.5386  0.6269  1.3314
 6337SOL     OW30643   3.754   1.426   4.971  0.3022 -0.4172 -0.3220
 6337SOL    HW130644   3.825   1.478   5.010 -0.1585 -0.6702  0.8532
 6337SOL    HW230645   3.803   1.407   4.891 -0.0221  1.6826 -1.0263
 6338SOL     OW30646   2.711   4.144   6.826  0.4432 -0.4408 -0.1585
 6338SOL    HW130647   2.639   4.159   6.887  0.8219  1.5404 -0.1791
 6338SOL    HW230648   2.656   4.098   6.762  0.8018  0.6511 -1.2629
 6339SOL     OW30649   0.458   4.264   7.720 -0.0243  0.1133 -0.0439
 6339SOL    HW130650   0.546   4.284   7.688  0.1202  0.6946  0.7154
 6339SOL    HW230651   0.450   4.171   7.700  0.2352  0.0592  0.1097
 6340SOL     OW30652   3.418   3.094   8.159 -0.2971 -0.4134  0.3033
 6340SOL    HW130653   3.497   3.104   8.211 -0.2120  0.9479 -0.0654
 6340SOL    HW230654   3.433   3.178   8.115  0.0031 -0.2286  0.7618
 6341SOL     OW30655   0.633   3.502   3.781  0.3484  0.1714  0.2960
 6341SOL    HW130656   0.596   3.426   3.827  1.4483 -0.4835  0.1206
 6341SOL    HW230657   0.727   3.485   3.784  0.2955 -0.5817 -3.0614
 6342SOL     OW30658   4.459   2.843  14.718  0.6928  0.6491  0.5658
 6342SOL    HW130659   4.543   2.804  14.697 -0.1248 -0.7671 -0.0598
 6342SOL    HW230660   4.401   2.805  14.652  0.9701  2.2371 -0.6016
 6343SOL     OW30661   3.276   0.531  13.830  0.2294  0.1706 -0.0824
 6343SOL    HW130662   3.334   0.577  13.769  0.7952  1.2945  1.2756
 6343SOL    HW230663   3.324   0.452  13.855 -0.1613 -0.2193 -0.5696
 6344SOL     OW30664   2.857   0.364   6.897  0.1031  0.3285 -0.3715
 6344SOL    HW130665   2.871   0.293   6.961  0.7651 -1.7250 -2.7677
 6344SOL    HW230666   2.771   0.338   6.863 -0.8847  2.2615  0.7136
 6345SOL     OW30667   2.271   0.872   2.417 -0.1861  0.1667 -0.3328
 6345SOL    HW130668   2.336   0.846   2.352  0.0884  0.5802 -0.2179
 6345SOL    HW230669   2.309   0.856   2.504  0.5143 -0.7404 -0.8130
 6346SOL     OW30670   2.875   2.887   7.889  0.3755  0.5641 -0.3559
 6346SOL    HW130671   2.850   2.807   7.843  0.2042 -0.9725  2.3590
 6346SOL    HW230672   2.968   2.865   7.902  0.3188  1.1802  1.1633
 6347SOL     OW30673   0.772   4.254   7.900  0.1233  0.2121 -0.0001
 6347SOL    HW130674   0.838   4.322   7.912 -0.0100  0.4762 -0.7733
 6347SOL    HW230675   0.709   4.277   7.969  0.0483 -2.1386  0.7344
 6348SOL     OW30676   2.152   1.208  11.534 -0.3785 -0.5057 -0.2142
 6348SOL    HW130677   2.071   1.255  11.556  0.0505 -0.4940  1.3761
 6348SOL    HW230678   2.153   1.242  11.444  0.6697  1.2423  0.4518
 6349SOL     OW30679   3.112   0.844   6.014  0.3625 -0.7062 -0.1781
 6349SOL    HW130680   3.174   0.878   5.950  1.0584  0.6205  1.2069
 6349SOL    HW230681   3.143   0.754   6.000  1.4697 -0.3973  0.3043
 6350SOL     OW30682   2.812   3.064   4.131 -0.1820  0.4276  0.1248
 6350SOL    HW130683   2.741   3.128   4.130 -1.6451 -1.1822  0.8799
 6350SOL    HW230684   2.878   3.099   4.071  1.3049  0.6458  1.8802
 6351SOL     OW30685   2.775   4.354  14.375  0.4613 -0.5777 -0.1925
 6351SOL    HW130686   2.845   4.289  14.377  3.2779  2.3760 -1.9130
 6351SOL    HW230687   2.698   4.299  14.389  2.0500 -2.1202  2.4479
 6352SOL     OW30688   4.015   2.637   0.429  0.0216 -0.1235  0.3712
 6352SOL    HW130689   4.085   2.669   0.373 -0.0250 -2.5357 -1.0639
 6352SOL    HW230690   4.073   2.605   0.499 -2.3570  0.6355  2.6934
 6353SOL     OW30691   2.588   3.071   3.352  1.3006 -0.3027  0.2092
 6353SOL    HW130692   2.640   3.145   3.321 -0.7923  1.9861  2.1976
 6353SOL    HW230693   2.591   3.027   3.267  0.6805 -0.7390  0.4183
 6354SOL     OW30694   0.649   0.080   5.357 -0.4813  0.0211  0.5249
 6354SOL    HW130695   0.593   0.063   5.432 -0.1758 -2.0330  0.2904
 6354SOL    HW230696   0.706   0.002   5.351 -1.1067 -0.5425  1.9493
 6355SOL     OW30697   2.442   1.131   2.970 -0.5981 -0.2496 -0.2621
 6355SOL    HW130698   2.534   1.157   2.973 -1.0097  1.6156 -3.2383
 6355SOL    HW230699   2.419   1.131   3.063  0.0809  0.6336 -0.0905
 6356SOL     OW30700   1.545   4.274   2.455 -0.1970 -0.2286  0.0731
 6356SOL    HW130701   1.553   4.181   2.477  0.8551  0.1583  1.3286
 6356SOL    HW230702   1.501   4.277   2.370 -1.2420 -3.4034  0.4773
 6357SOL     OW30703   2.821   0.610  14.019  0.1878  0.1964  0.4817
 6357SOL    HW130704   2.840   0.679  14.083 -1.4281  0.9105  0.1943
 6357SOL    HW230705   2.904   0.563  14.020  0.0186 -0.1549 -1.9758
 6358SOL     OW30706   4.084   2.618   7.754  0.4575 -0.3945 -0.5414
 6358SOL    HW130707   4.103   2.606   7.847 -0.2180  0.2570 -0.3231
 6358SOL    HW230708   4.045   2.705   7.760  0.3135 -0.4094 -1.2162
 6359SOL     OW30709   4.478   2.224  16.407  0.7673 -0.4805  0.3315
 6359SOL    HW130710   4.555   2.272  16.377 -0.3713 -0.6169 -2.8522
 6359SOL    HW230711   4.523   2.158  16.460  2.4760 -1.5763 -2.4251
 6360SOL     OW30712   4.321   4.187   9.850 -0.3198 -0.6885  0.1795
 6360SOL    HW130713   4.350   4.221   9.935  1.2298 -0.1418 -0.5553
 6360SOL    HW230714   4.270   4.109   9.871 -0.9893 -0.6937 -1.4407
 6361SOL     OW30715   1.944   3.145  13.304 -0.2069 -0.3145 -0.0977
 6361SOL    HW130716   1.900   3.076  13.255  0.6052 -2.5123  2.2734
 6361SOL    HW230717   1.865   3.178  13.345  0.8662 -0.0526  1.7692
 6362SOL     OW30718   1.378   2.076  10.778 -0.2467 -0.8668  0.2439
 6362SOL    HW130719   1.453   2.129  10.802  0.4811 -1.6473 -0.3229
 6362SOL    HW230720   1.429   2.009  10.733  0.4596 -0.5750  0.6069
 6363SOL     OW30721   1.510   2.176  10.538 -0.2263  0.1201 -0.4557
 6363SOL    HW130722   1.534   2.224  10.459 -0.6857  0.0862 -0.6178
 6363SOL    HW230723   1.418   2.154  10.524 -0.9633  2.1318  1.2711
 6364SOL     OW30724   0.510   0.348   9.724  0.0619  0.1613 -0.2744
 6364SOL    HW130725   0.499   0.413   9.794  0.4379 -0.5511  0.4512
 6364SOL    HW230726   0.488   0.267   9.771  2.9344 -0.3963  0.1110
 6365SOL     OW30727   2.254   1.498  10.959 -0.2254 -0.2442  0.4898
 6365SOL    HW130728   2.315   1.569  10.979 -2.4359  2.3396 -1.9289
 6365SOL    HW230729   2.177   1.525  11.007  0.4966  0.2465  1.3720
 6366SOL     OW30730   2.253   2.106   6.642  0.1197  0.0840  0.1788
 6366SOL    HW130731   2.302   2.058   6.575  0.2324  1.8521 -0.9942
 6366SOL    HW230732   2.302   2.188   6.655  0.9311 -0.0838 -1.9331
 6367SOL     OW30733   1.351   0.223   2.996  0.1557 -0.6382  0.6239
 6367SOL    HW130734   1.278   0.231   2.935 -0.2468  2.0315  1.4597
 6367SOL    HW230735   1.400   0.158   2.945  0.6327 -2.6594  3.6319
 6368SOL     OW30736   2.240   0.949   6.450  0.4543 -0.3826 -0.0284
 6368SOL    HW130737   2.167   0.887   6.452  0.0239  0.0940 -1.4786
 6368SOL    HW230738   2.245   0.972   6.543  0.4574  1.2475 -0.4313
 6369SOL     OW30739   4.262   4.507   1.480 -0.4472 -0.0305 -0.3069
 6369SOL    HW130740   4.245   4.556   1.561  2.6833  1.0661 -0.3252
 6369SOL    HW230741   4.349   4.540   1.459 -0.3951  0.6575  0.9811
 6370SOL     OW30742   2.068   2.635  14.357 -0.3256  0.1427 -0.2716
 6370SOL    HW130743   2.050   2.724  14.387 -2.5237  0.3360 -2.1622
 6370SOL    HW230744   2.163   2.625  14.363 -0.2801  0.4396 -0.5417
 6371SOL     OW30745   0.350   2.479   7.318  0.4773  0.5933  0.2181
 6371SOL    HW130746   0.292   2.521   7.382 -0.5437 -2.9654  1.6775
 6371SOL    HW230747   0.320   2.388   7.318 -0.6628  0.9872 -1.5366
 6372SOL     OW30748   3.252   2.688  14.846  0.4685  0.0227  0.6341
 6372SOL    HW130749   3.311   2.621  14.879 -0.5103 -1.1864 -0.0924
 6372SOL    HW230750   3.309   2.721  14.776  0.2406  1.2980  1.0539
 6373SOL     OW30751   2.408   2.962  16.253  0.4771 -0.6319  0.3160
 6373SOL    HW130752   2.408   3.031  16.319 -1.1778  0.6399 -1.0144
 6373SOL    HW230753   2.317   2.964  16.222  0.6111 -3.0556 -0.2480
 6374SOL     OW30754   4.538   3.702   6.965 -0.1081  0.5624  0.8443
 6374SOL    HW130755   4.532   3.608   6.985 -0.4934  0.7148  1.4611
 6374SOL    HW230756   4.482   3.709   6.888  1.3323 -0.3398 -0.3015
 6375SOL     OW30757   4.070   2.056   5.997 -0.4549 -0.3118 -0.3992
 6375SOL    HW130758   4.044   2.148   5.985 -0.0631 -0.2028 -0.4288
 6375SOL    HW230759   4.150   2.045   5.945  0.1496  1.2727  0.1789
 6376SOL     OW30760   1.507   3.263   9.031  1.2565 -0.0304 -0.2982
 6376SOL    HW130761   1.436   3.209   8.996  0.1301  0.8883  0.5735
 6376SOL    HW230762   1.576   3.197   9.044 -0.1393 -0.8496  2.9145
 6377SOL     OW30763   3.772   0.227   4.121  0.0466  0.4242 -0.8103
 6377SOL    HW130764   3.854   0.178   4.125  0.1779  0.7228  0.1247
 6377SOL    HW230765   3.718   0.148   4.118 -1.3426  1.4323 -2.0439
 6378SOL     OW30766   2.327   0.121   8.128  0.1356  0.1466 -0.1751
 6378SOL    HW130767   2.359   0.046   8.177  1.6620  2.5269  2.4763
 6378SOL    HW230768   2.283   0.170   8.198 -0.2616 -1.2252  0.5294
 6379SOL     OW30769   2.335   1.315   4.282 -0.1069  0.3415  0.7786
 6379SOL    HW130770   2.297   1.261   4.351 -1.3490 -0.3597 -0.4546
 6379SOL    HW230771   2.255   1.359   4.255 -1.7795 -2.9504  0.3439
 6380SOL     OW30772   1.297   1.090   6.209  0.6037 -0.1228 -0.2216
 6380SOL    HW130773   1.292   1.185   6.222  0.3117 -0.1843  0.1263
 6380SOL    HW230774   1.244   1.057   6.282 -1.5520 -0.0585 -1.7465
 6381SOL     OW30775   1.739   1.808   4.511 -0.1621  0.1726 -0.0787
 6381SOL    HW130776   1.831   1.794   4.534  0.7268  0.5549 -3.4220
 6381SOL    HW230777   1.732   1.730   4.456  1.2978 -0.0655  0.0594
 6382SOL     OW30778   1.062   3.534   9.492 -0.2436 -0.2854  0.9562
 6382SOL    HW130779   1.104   3.611   9.455  1.4681 -1.5428  0.3179
 6382SOL    HW230780   0.969   3.557   9.484  0.2527  0.8805 -1.1914
 6383SOL     OW30781   2.821   0.027   1.613 -0.2543  0.0245 -0.1731
 6383SOL    HW130782   2.834   0.112   1.654  1.1847 -1.0161  1.5666
 6383SOL    HW230783   2.757   4.722   1.672 -1.2945 -0.3629 -1.5638
 6384SOL     OW30784   1.913   2.917   0.357 -0.2853 -0.2624  0.0104
 6384SOL    HW130785   1.885   3.006   0.378 -2.7711 -1.1110  0.2346
 6384SOL    HW230786   1.924   2.920   0.262  2.6296 -0.0464  0.3507
 6385SOL     OW30787   2.067   2.460  10.254 -0.1130 -0.3184 -0.0862
 6385SOL    HW130788   2.147   2.415  10.228  0.6699  0.6977  0.6083
 6385SOL    HW230789   2.060   2.533  10.192 -0.0515  1.1237  1.5903
 6386SOL     OW30790   3.140   4.269   6.751 -0.1042  0.5155 -0.0878
 6386SOL    HW130791   3.082   4.341   6.771  2.6634  2.4771  0.8380
 6386SOL    HW230792   3.213   4.278   6.812 -0.2369  1.0588 -0.0150
 6387SOL     OW30793   1.912   3.009   0.635  0.3459  0.7010 -0.2763
 6387SOL    HW130794   1.911   2.919   0.602  1.0271 -0.2313  2.2410
 6387SOL    HW230795   1.951   2.990   0.720  1.0734  0.5124 -0.6544
 6388SOL     OW30796   1.001   3.861   5.538 -0.1762 -0.1200  0.8918
 6388SOL    HW130797   0.957   3.943   5.515 -1.3521 -1.0578 -0.2149
 6388SOL    HW230798   0.939   3.820   5.598 -0.9101 -0.7484 -0.3066
 6389SOL     OW30799   3.588   4.129  10.719 -0.2856 -0.5807  0.0969
 6389SOL    HW130800   3.532   4.206  10.723  2.4627  1.3564  1.0260
 6389SOL    HW230801   3.545   4.072  10.784  0.1608  0.8609  1.6732
 6390SOL     OW30802   2.361   2.209  15.006 -0.0327  0.5574  0.0693
 6390SOL    HW130803   2.425   2.259  15.055  1.3444 -0.4908 -0.6668
 6390SOL    HW230804   2.398   2.121  15.015  0.8788  1.2712  3.2911
 6391SOL     OW30805   0.278   0.988   9.888  0.0162  0.1715  0.0575
 6391SOL    HW130806   0.186   0.964   9.898 -0.3146  0.8980 -1.2211
 6391SOL    HW230807   0.275   1.082   9.908  1.3760  0.2195 -0.0036
 6392SOL     OW30808   0.879   1.361  16.311  0.5569 -0.2256  0.0926
 6392SOL    HW130809   0.839   1.411  16.240  2.3317 -0.4945 -1.0967
 6392SOL    HW230810   0.937   1.300  16.266  1.0915 -0.8185  1.6074
 6393SOL     OW30811   0.247   1.623   1.479  0.2702  0.7856 -0.4344
 6393SOL    HW130812   0.311   1.678   1.435  0.7713 -0.0299 -0.7213
 6393SOL    HW230813   0.180   1.623   1.411  1.3926  1.5288 -1.5426
 6394SOL     OW30814   4.634   0.324   2.873 -0.2972 -0.4867 -0.1561
 6394SOL    HW130815   4.654   0.338   2.781 -1.1561 -0.1131 -0.2845
 6394SOL    HW230816   4.677   0.399   2.915 -2.2727 -0.0324  1.0449
 6395SOL     OW30817   4.071   3.552  11.100  0.0595 -0.4163 -0.1944
 6395SOL    HW130818   4.116   3.536  11.183 -0.3412 -0.9936 -0.0816
 6395SOL    HW230819   4.089   3.645  11.087 -0.8018 -0.2895 -0.5426
 6396SOL     OW30820   0.888   4.301   9.345 -0.2696  0.1557 -0.5371
 6396SOL    HW130821   0.973   4.261   9.361  0.5089  2.3521  0.7708
 6396SOL    HW230822   0.832   4.256   9.409  0.4190 -1.3047 -0.9610
 6397SOL     OW30823   2.136   2.736   1.952  0.2082 -0.4133  0.5071
 6397SOL    HW130824   2.069   2.803   1.939  0.2183 -0.6728 -0.8741
 6397SOL    HW230825   2.117   2.705   2.041  1.7468  1.0612  1.3547
 6398SOL     OW30826   0.006   2.282   3.801 -0.2318 -0.1130  0.2893
 6398SOL    HW130827   0.085   2.227   3.803  1.4220  2.2071 -1.0148
 6398SOL    HW230828   0.007   2.306   3.893 -0.5230  0.9195  0.0218
 6399SOL     OW30829   3.410   0.529   2.398  0.2025 -0.5504  0.1123
 6399SOL    HW130830   3.386   0.474   2.323  1.7310 -0.9098 -0.0971
 6399SOL    HW230831   3.444   0.609   2.358  2.3674 -1.0387  0.9798
 6400SOL     OW30832   1.602   3.027   7.803 -0.0293  0.0512  0.5977
 6400SOL    HW130833   1.635   3.084   7.872 -0.5425  1.3844 -0.2441
 6400SOL    HW230834   1.559   2.965   7.862 -0.7543  0.1589  0.1818
 6401SOL     OW30835   2.640   4.142   7.386  0.4125  0.7326 -0.2227
 6401SOL    HW130836   2.704   4.111   7.450  0.8558  1.5442 -0.2637
 6401SOL    HW230837   2.622   4.227   7.426 -1.3734  0.4901 -0.5060
 6402SOL     OW30838   2.144   0.151   5.577 -0.1085  0.2946  0.1361
 6402SOL    HW130839   2.146   0.227   5.519  0.9699 -0.1362 -0.3860
 6402SOL    HW230840   2.130   0.185   5.666  0.9488 -1.0353  0.8225
 6403SOL     OW30841   1.719   0.649   1.873 -0.3591 -0.2388 -0.3099
 6403SOL    HW130842   1.815   0.656   1.869 -0.2686 -2.7811 -2.6517
 6403SOL    HW230843   1.698   0.709   1.945  0.0623  2.1511 -2.1551
 6404SOL     OW30844   3.915   0.910   2.995  0.1826 -0.6724 -0.5349
 6404SOL    HW130845   3.834   0.859   2.990 -0.4153  0.2089  0.1725
 6404SOL    HW230846   3.962   0.881   2.916  1.1297  0.8627 -0.5274
 6405SOL     OW30847   3.172   2.337   7.198  0.7147 -0.5522  0.0290
 6405SOL    HW130848   3.243   2.365   7.257  0.1001 -1.0041  0.9769
 6405SOL    HW230849   3.223   2.328   7.118 -1.4218 -1.5350 -1.1998
 6406SOL     OW30850   0.905   0.517  15.819 -0.0485  0.2971  0.0034
 6406SOL    HW130851   0.909   0.559  15.733 -2.1597 -0.2790 -0.3595
 6406SOL    HW230852   1.000   0.520  15.834 -0.2732  2.2712  1.0866
 6407SOL     OW30853   0.066   0.210  11.292  0.5951  0.2884 -0.5157
 6407SOL    HW130854   0.027   0.136  11.246  1.0992  0.5481 -1.3716
 6407SOL    HW230855   0.144   0.175  11.335  0.8749  1.3874 -0.1037
 6408SOL     OW30856   1.121   0.973  10.021 -0.3382  0.4356  0.3852
 6408SOL    HW130857   1.045   1.030  10.010 -0.5064 -0.0715 -1.0722
 6408SOL    HW230858   1.162   0.981   9.935 -1.5916  0.9692 -0.1629
 6409SOL     OW30859   0.404   2.072   2.842  0.2791  0.3492 -0.4322
 6409SOL    HW130860   0.411   2.125   2.763  0.6107 -1.1697 -1.4209
 6409SOL    HW230861   0.385   1.989   2.799 -0.3712  0.3014 -0.0493
 6410SOL     OW30862   0.658   4.247   3.537  0.6132  0.4962  0.2205
 6410SOL    HW130863   0.603   4.311   3.492 -0.6661 -0.1559  0.8369
 6410SOL    HW230864   0.593   4.233   3.606 -0.0230  1.6981 -0.1328
 6411SOL     OW30865   2.837   2.142   6.021  0.0439  0.0600 -0.4759
 6411SOL    HW130866   2.789   2.212   5.977 -1.2656 -1.5823 -1.6811
 6411SOL    HW230867   2.862   2.089   5.946  1.3399  1.7549 -1.2254
 6412SOL     OW30868   1.623   3.694   3.397  0.2681  0.3640 -0.0464
 6412SOL    HW130869   1.638   3.637   3.322 -0.0285 -1.6717  1.4259
 6412SOL    HW230870   1.702   3.680   3.449 -0.9851  1.7904  2.2702
 6413SOL     OW30871   0.818   2.683  11.359 -0.2855 -0.2761  0.1254
 6413SOL    HW130872   0.796   2.673  11.267 -1.1747 -0.8807  0.3968
 6413SOL    HW230873   0.907   2.647  11.354  0.6054  2.1666 -1.9246
 6414SOL     OW30874   0.230   1.672   1.771  0.3959 -0.0579  0.1492
 6414SOL    HW130875   0.208   1.649   1.681 -0.3380  0.7428  0.1307
 6414SOL    HW230876   0.269   1.758   1.757  0.7850 -0.2651 -0.0419
 6415SOL     OW30877   1.405   0.129   6.629  0.3717 -0.0142  0.2688
 6415SOL    HW130878   1.442   0.201   6.681 -0.6341  0.7163 -0.0370
 6415SOL    HW230879   1.321   0.132   6.675  1.1752  0.0953  1.7383
 6416SOL     OW30880   0.238   2.495   6.122 -0.3545 -0.0151 -0.0587
 6416SOL    HW130881   0.280   2.429   6.176  1.2867  0.4304 -0.7711
 6416SOL    HW230882   0.149   2.460   6.119  0.5386 -2.4240  1.5727
 6417SOL     OW30883   0.121   3.634   2.440 -0.2471 -0.5291  0.3017
 6417SOL    HW130884   0.104   3.666   2.351  0.9865 -0.6144  0.0318
 6417SOL    HW230885   0.214   3.609   2.439 -0.4419 -1.1816 -1.3856
 6418SOL     OW30886   3.298   2.512   8.117 -0.1747 -0.2263 -0.1990
 6418SOL    HW130887   3.280   2.502   8.024  0.2205  3.2690 -0.6672
 6418SOL    HW230888   3.264   2.430   8.152  2.7464 -2.9985 -3.8552
 6419SOL     OW30889   2.804   1.798   1.811 -0.0102 -0.8532  0.5054
 6419SOL    HW130890   2.803   1.887   1.847 -2.2498  0.5731 -3.1431
 6419SOL    HW230891   2.716   1.783   1.778  0.7268 -1.6643 -1.0884
 6420SOL     OW30892   1.729   3.944   4.860  0.5473 -0.5281 -0.1772
 6420SOL    HW130893   1.658   3.933   4.797 -0.3818  0.6949  0.6550
 6420SOL    HW230894   1.676   3.978   4.933  0.1636  0.1882 -0.7944
 6421SOL     OW30895   2.487   3.187   4.850  0.1385  0.0838 -0.0721
 6421SOL    HW130896   2.503   3.113   4.909  0.6132 -1.1509 -1.7387
 6421SOL    HW230897   2.395   3.169   4.831  0.0434 -0.2396  0.6953
 6422SOL     OW30898   4.450   1.869   1.809  0.3571 -0.1919 -0.0790
 6422SOL    HW130899   4.380   1.825   1.857 -0.9497  4.1630  2.0290
 6422SOL    HW230900   4.502   1.893   1.885 -0.7024  0.0121  0.5781
 6423SOL     OW30901   3.161   2.587   1.219 -0.2616 -0.5790  0.1967
 6423SOL    HW130902   3.249   2.560   1.243  0.2017  0.5268 -0.2495
 6423SOL    HW230903   3.162   2.680   1.243 -1.5899 -0.4850 -0.1107
 6424SOL     OW30904   3.514   1.097  10.680 -0.4725  0.3750 -0.0957
 6424SOL    HW130905   3.573   1.032  10.718  2.0543  1.8575 -1.4862
 6424SOL    HW230906   3.434   1.051  10.707  1.3123 -0.8112  3.1644
 6425SOL     OW30907   1.115   3.446   4.614 -0.7662 -0.1058  0.2825
 6425SOL    HW130908   1.070   3.382   4.669 -0.0825 -1.1488 -0.3834
 6425SOL    HW230909   1.091   3.526   4.661  0.0125 -0.5855  1.4993
 6426SOL     OW30910   0.262   2.289   5.211 -0.3209 -0.4641 -0.1072
 6426SOL    HW130911   0.290   2.238   5.135 -2.0651 -1.4361 -0.0968
 6426SOL    HW230912   0.308   2.370   5.188  0.0101 -0.6206  0.0074
 6427SOL     OW30913   3.955   1.081   3.583 -0.4605 -0.5184  0.2881
 6427SOL    HW130914   3.879   1.027   3.604 -0.7214 -0.2618  0.0154
 6427SOL    HW230915   3.940   1.153   3.644 -1.6006 -2.7865  2.6829
 6428SOL     OW30916   2.687   2.215   0.326 -0.3678 -0.3955  0.0037
 6428SOL    HW130917   2.655   2.144   0.270 -0.8284 -0.5111  0.4242
 6428SOL    HW230918   2.607   2.240   0.372 -0.0107  1.3475 -0.3268
 6429SOL     OW30919   4.655   0.280   7.215  0.4333 -0.4182  0.1593
 6429SOL    HW130920   4.620   0.197   7.247 -0.7863  0.4666  1.1289
 6429SOL    HW230921   4.600   0.338   7.269  0.1212 -1.1897  0.6622
 6430SOL     OW30922   3.309   1.155   8.452 -0.0638  0.1968  0.5379
 6430SOL    HW130923   3.305   1.211   8.375 -2.6075 -1.5151 -0.5851
 6430SOL    HW230924   3.386   1.099   8.442 -0.3850  0.0048 -0.8749
 6431SOL     OW30925   0.054   4.582  15.058 -0.5180  0.4649  0.1540
 6431SOL    HW130926   0.050   4.669  15.097 -1.2427  0.4101  0.2033
 6431SOL    HW230927   0.093   4.529  15.128 -0.9624 -1.7426 -1.2546
 6432SOL     OW30928   0.477   1.073   1.829 -0.0088 -0.4596  0.2726
 6432SOL    HW130929   0.409   1.117   1.778 -1.3290 -0.0715  2.3589
 6432SOL    HW230930   0.539   1.039   1.764 -2.6570 -1.1534 -1.8823
 6433SOL     OW30931   3.700   0.836   4.950  0.5196 -0.3826  0.1895
 6433SOL    HW130932   3.722   0.831   4.857  0.6058 -0.9851  0.2466
 6433SOL    HW230933   3.748   0.915   4.975 -0.1202 -0.4518  1.6096
 6434SOL     OW30934   0.941   1.978   5.868  0.2579  0.0013  0.4395
 6434SOL    HW130935   0.882   2.038   5.824  0.5639 -0.1781 -0.2104
 6434SOL    HW230936   1.025   2.024   5.866  0.3710 -0.4289 -4.2024
 6435SOL     OW30937   4.505   4.524   1.858 -0.0393  0.2134  0.2179
 6435SOL    HW130938   4.532   4.488   1.943  0.1050  2.5015  1.1448
 6435SOL    HW230939   4.578   4.582   1.835 -0.8414  0.5622 -1.4374
 6436SOL     OW30940   2.814   0.936   3.707 -0.4601 -0.3172 -0.1661
 6436SOL    HW130941   2.759   1.004   3.669  1.5176  1.4597  0.1629
 6436SOL    HW230942   2.893   0.951   3.656  1.1426  0.5768  2.5523
 6437SOL     OW30943   0.439   3.089   6.518  0.2411 -0.8105 -0.1562
 6437SOL    HW130944   0.466   3.012   6.468  0.7311 -1.0055  0.4113
 6437SOL    HW230945   0.430   3.043   6.602 -2.5692  1.2364  0.6868
 6438SOL     OW30946   3.311   1.218   7.652 -0.1683 -0.7851 -0.0096
 6438SOL    HW130947   3.269   1.281   7.711 -0.6492 -0.3667 -0.7934
 6438SOL    HW230948   3.395   1.261   7.640 -1.1155  1.1484  0.2994
 6439SOL     OW30949   2.910   3.263   1.364  0.0623  0.6904  0.1913
 6439SOL    HW130950   3.003   3.268   1.389 -0.7462  5.2102  2.2991
 6439SOL    HW230951   2.877   3.203   1.430 -0.4963  1.5605  0.6978
 6440SOL     OW30952   4.239   1.550  12.662  0.4450  0.2731 -0.0938
 6440SOL    HW130953   4.302   1.591  12.604  1.0299  0.0124  0.3621
 6440SOL    HW230954   4.279   1.470  12.696 -0.0682 -0.1924 -0.5809
 6441SOL     OW30955   3.426   3.936   6.339  0.1709 -0.5953  0.2030
 6441SOL    HW130956   3.429   3.860   6.397 -3.0051 -1.5847 -0.9435
 6441SOL    HW230957   3.446   3.904   6.251 -0.3359  1.6475 -0.7510
 6442SOL     OW30958   1.193   3.432   6.795 -0.3045 -0.7056  0.7593
 6442SOL    HW130959   1.107   3.444   6.837 -1.3908 -2.6668 -0.9194
 6442SOL    HW230960   1.208   3.344   6.828  0.2388 -1.5000 -1.6424
 6443SOL     OW30961   0.255   1.769   4.542 -0.3187 -0.4225  0.0863
 6443SOL    HW130962   0.319   1.702   4.518 -0.8381 -1.3906  1.4266
 6443SOL    HW230963   0.240   1.825   4.465  0.3570 -1.4982 -0.8302
 6444SOL     OW30964   2.758   3.467   0.914  0.4962 -0.3537 -0.4364
 6444SOL    HW130965   2.746   3.439   1.004  0.1757  1.3510  0.0373
 6444SOL    HW230966   2.676   3.452   0.866 -0.4381 -0.3100  1.1753
 6445SOL     OW30967   2.855   2.612   5.122  0.0512 -0.6405 -0.6880
 6445SOL    HW130968   2.779   2.592   5.067 -0.6750  2.4032 -0.7753
 6445SOL    HW230969   2.924   2.558   5.082 -1.6616 -2.3719 -1.2918
 6446SOL     OW30970   2.491   2.301  16.211 -0.3198 -0.0816  0.0256
 6446SOL    HW130971   2.395   2.299  16.216 -0.2940  1.0944  1.0509
 6446SOL    HW230972   2.511   2.257  16.294 -2.0220 -0.2993  0.3309
 6447SOL     OW30973   3.230   0.281   3.164  0.2405  0.1794  0.0670
 6447SOL    HW130974   3.190   0.194   3.169  1.9164 -0.6437 -0.6822
 6447SOL    HW230975   3.296   0.286   3.233 -1.0790 -0.7833  1.3935
 6448SOL     OW30976   3.490   4.639   8.125  0.4868  0.8464  0.6148
 6448SOL    HW130977   3.517   4.716   8.075  1.2203 -1.0201 -1.8807
 6448SOL    HW230978   3.577   4.610   8.151  1.1643  2.5034  0.2310
 6449SOL     OW30979   0.959   1.305   6.733  0.1115  0.1060  0.1978
 6449SOL    HW130980   0.974   1.253   6.654  0.7028  1.9396 -0.8982
 6449SOL    HW230981   0.985   1.246   6.804  1.4295  0.6546  0.1696
 6450SOL     OW30982   1.568   3.603  14.675  0.3423 -0.1521  0.2708
 6450SOL    HW130983   1.655   3.616  14.713 -0.7996  2.1518  2.1113
 6450SOL    HW230984   1.559   3.508  14.681 -0.5411 -0.0570  0.4995
 6451SOL     OW30985   3.751   0.609  13.347  0.3181 -0.1553 -0.1780
 6451SOL    HW130986   3.796   0.692  13.360  2.3839 -1.3854  0.5275
 6451SOL    HW230987   3.764   0.583  13.438  2.1371 -0.8438 -0.6314
 6452SOL     OW30988   3.222   3.217   6.394 -0.5637 -0.0947  0.2558
 6452SOL    HW130989   3.276   3.259   6.461  0.7200 -1.2594 -0.0593
 6452SOL    HW230990   3.284   3.191   6.326  0.7475  0.7114  1.1535
 6453SOL     OW30991   0.268   4.077   5.951  0.1205  0.0626 -0.2418
 6453SOL    HW130992   0.311   4.045   5.871  1.5074 -1.4074  1.1006
 6453SOL    HW230993   0.201   4.010   5.967  2.7539 -2.3456  0.7083
 6454SOL     OW30994   3.139   0.317   4.135  0.5765  0.0623 -0.0203
 6454SOL    HW130995   3.227   0.353   4.140 -0.2639  1.9761  1.1385
 6454SOL    HW230996   3.106   0.361   4.056 -2.1133 -0.1019  1.0111
 6455SOL     OW30997   1.211   3.347   6.520 -0.0478 -0.4026 -0.0781
 6455SOL    HW130998   1.224   3.372   6.611 -0.4292  1.4307 -0.5304
 6455SOL    HW230999   1.118   3.322   6.528 -0.5557  1.4495 -0.1542
 6456SOL     OW31000   2.467   1.909   4.155 -0.1909 -0.2628  0.5191
 6456SOL    HW131001   2.516   1.844   4.105  0.0530  0.5919 -0.3406
 6456SOL    HW231002   2.448   1.965   4.080  0.2869  0.2075  0.7442
 6457SOL     OW31003   4.468   0.609   0.908 -0.2588  0.4125 -0.2956
 6457SOL    HW131004   4.506   0.685   0.951 -0.8808  0.2691  0.5010
 6457SOL    HW231005   4.544   0.573   0.863  0.2567 -0.6893  1.4414
 6458SOL     OW31006   2.673   4.133   4.916 -0.3444  0.4192  0.0284
 6458SOL    HW131007   2.609   4.194   4.879 -0.8545 -0.2615 -0.2044
 6458SOL    HW231008   2.732   4.127   4.841 -0.9577 -0.9086 -0.3366
 6459SOL     OW31009   0.598   2.400  12.027 -0.4794 -0.5496 -0.1161
 6459SOL    HW131010   0.583   2.340  11.955  1.9896 -1.4065  0.0801
 6459SOL    HW231011   0.510   2.400  12.065 -0.3481 -0.6200  0.1881
 6460SOL     OW31012   2.873   1.782  10.169  0.7520  0.0870  0.2023
 6460SOL    HW131013   2.850   1.705  10.221  2.4342  0.7483  1.8963
 6460SOL    HW231014   2.959   1.802  10.205  0.5547  0.1566  0.6377
 6461SOL     OW31015   1.034   4.463   7.532  0.2387  0.3834 -0.5902
 6461SOL    HW131016   0.990   4.438   7.450 -1.3834 -0.1494  0.4458
 6461SOL    HW231017   1.092   4.527   7.489  0.5369  0.4749 -0.0468
 6462SOL     OW31018   3.264   4.587   6.646  0.2016 -0.3314 -0.3480
 6462SOL    HW131019   3.242   4.674   6.679 -2.2384 -1.0726  0.0151
 6462SOL    HW231020   3.205   4.532   6.699 -1.6684 -0.2506 -2.3146
 6463SOL     OW31021   1.248   4.098   0.660 -0.2558  0.7536 -0.3340
 6463SOL    HW131022   1.259   4.076   0.567  1.0152 -1.3530  0.3240
 6463SOL    HW231023   1.153   4.105   0.664 -0.3527 -1.4518  1.3233
 6464SOL     OW31024   1.661   1.179   1.596  0.1180 -0.1227 -0.2195
 6464SOL    HW131025   1.735   1.201   1.652  0.1118 -1.4781  0.3192
 6464SOL    HW231026   1.666   1.251   1.533  1.3850  0.2652  0.3204
 6465SOL     OW31027   4.298   3.760   6.111  0.3430 -0.1368  0.0744
 6465SOL    HW131028   4.302   3.856   6.110  2.5250 -0.2389 -0.0185
 6465SOL    HW231029   4.210   3.752   6.147  0.6014 -0.3873  0.6453
 6466SOL     OW31030   2.456   0.560   8.817 -0.3964 -0.2156  0.0226
 6466SOL    HW131031   2.455   0.467   8.795  1.2490  0.3464 -2.4025
 6466SOL    HW231032   2.365   0.582   8.798 -0.6411 -0.4439  0.9168
 6467SOL     OW31033   1.133   3.250   3.839  0.9086 -0.2329 -0.3433
 6467SOL    HW131034   1.156   3.339   3.811  3.8922 -1.0427 -0.4976
 6467SOL    HW231035   1.166   3.258   3.928  2.4033 -1.6560 -0.7649
 6468SOL     OW31036   1.225   4.554  11.277 -0.5402 -0.3770 -0.0420
 6468SOL    HW131037   1.157   4.611  11.311  0.6493  0.4114  1.0494
 6468SOL    HW231038   1.266   4.540  11.363  0.0434 -0.3243 -0.3141
 6469SOL     OW31039   3.083   1.483   9.203 -0.4966 -0.1674  0.3910
 6469SOL    HW131040   3.160   1.465   9.257  0.3180  0.9040 -0.4196
 6469SOL    HW231041   3.012   1.484   9.267 -0.7706 -2.0623  0.1196
 6470SOL     OW31042   4.115   2.974  15.116  0.1553  0.1703  0.1110
 6470SOL    HW131043   4.113   3.060  15.074 -1.9426  0.5105  0.9095
 6470SOL    HW231044   4.202   2.941  15.091 -0.5986 -1.5247 -0.2711
 6471SOL     OW31045   4.584   2.631   5.181 -0.0993 -0.2003 -0.3666
 6471SOL    HW131046   4.558   2.594   5.096 -1.3777 -0.2781  0.0609
 6471SOL    HW231047   4.512   2.691   5.199  0.3739 -0.6544  2.9301
 6472SOL     OW31048   2.613   0.854   2.947 -0.2162  0.1910 -0.3480
 6472SOL    HW131049   2.524   0.877   2.972 -0.8583 -0.8393 -1.6810
 6472SOL    HW231050   2.607   0.766   2.985  2.8791 -0.5598 -1.5990
 6473SOL     OW31051   2.235   3.359   2.175  0.0191 -0.3294  0.8265
 6473SOL    HW131052   2.259   3.401   2.258 -1.8828 -0.3351  1.3622
 6473SOL    HW231053   2.321   3.330   2.144  0.1740 -0.3778  1.3029
 6474SOL     OW31054   2.839   2.187   4.310 -0.0629  0.0611  0.1403
 6474SOL    HW131055   2.773   2.119   4.295  2.2838 -2.3167  0.7235
 6474SOL    HW231056   2.918   2.148   4.271  0.8116  0.7134  1.2744
 6475SOL     OW31057   1.719   3.559  12.643 -0.5086 -0.4769 -0.1778
 6475SOL    HW131058   1.738   3.653  12.640  0.4355 -0.6546  0.0840
 6475SOL    HW231059   1.733   3.545  12.736 -1.0457 -0.3905 -0.0864
 6476SOL     OW31060   3.118   0.583   4.535 -0.1001  0.2581  0.1349
 6476SOL    HW131061   3.135   0.676   4.521  0.8292  0.3976  2.3321
 6476SOL    HW231062   3.205   0.545   4.541  0.5429  1.3779 -1.7839
 6477SOL     OW31063   3.652   0.024  11.480  0.1920 -0.3845  0.0226
 6477SOL    HW131064   3.658   0.027  11.576 -0.7588 -0.5486  0.0817
 6477SOL    HW231065   3.710   0.091  11.443 -1.9098  0.7280 -1.2347
 6478SOL     OW31066   0.048   1.503   9.707 -0.5000 -0.2506  0.2222
 6478SOL    HW131067   0.138   1.483   9.735  0.0177  1.1702 -0.4359
 6478SOL    HW231068   0.024   1.543   9.791 -1.4433  2.3178 -1.2672
 6479SOL     OW31069   3.865   2.922   4.699  0.3917 -0.0441  0.2617
 6479SOL    HW131070   3.904   2.865   4.766 -1.2703 -1.1320  0.3078
 6479SOL    HW231071   3.785   2.945   4.747 -0.6704 -1.1655 -0.9364
 6480SOL     OW31072   1.259   0.282   5.212  0.1319  0.8881  0.4880
 6480SOL    HW131073   1.186   0.344   5.210  0.2363  1.0399  1.4869
 6480SOL    HW231074   1.217   0.204   5.249 -2.2603  2.7365  1.6689
 6481SOL     OW31075   2.253   3.338   9.086  0.2886 -0.2469 -0.3065
 6481SOL    HW131076   2.252   3.255   9.133 -2.0254  0.1081  0.2572
 6481SOL    HW231077   2.166   3.350   9.048  0.7915  1.7293 -0.8637
 6482SOL     OW31078   0.662   1.516  12.283 -0.9854 -0.0827 -0.1546
 6482SOL    HW131079   0.679   1.472  12.366  1.3382  2.3975  0.7015
 6482SOL    HW231080   0.661   1.609  12.309 -4.2683 -0.3225  0.5799
 6483SOL     OW31081   4.261   4.621  13.519  0.3573  0.0683  0.2487
 6483SOL    HW131082   4.345   4.666  13.515 -0.2743  0.9376 -3.2800
 6483SOL    HW231083   4.217   4.641  13.436  1.3979  1.8925  0.1632
 6484SOL     OW31084   3.419   0.159   0.889 -0.1229  0.3736 -0.3082
 6484SOL    HW131085   3.390   0.202   0.970  1.6497 -0.1963  0.6399
 6484SOL    HW231086   3.484   0.091   0.910 -0.5945  0.2309  0.6682
 6485SOL     OW31087   3.687   0.982   6.900 -0.1586  0.0656 -0.2735
 6485SOL    HW131088   3.637   1.045   6.848 -0.9545 -0.5091 -0.2119
 6485SOL    HW231089   3.622   0.912   6.906  2.6815 -2.3606  1.8584
 6486SOL     OW31090   0.113   0.692  11.067 -0.6620  0.1037  0.0613
 6486SOL    HW131091   0.160   0.770  11.037  1.8007 -0.6908  1.9182
 6486SOL    HW231092   0.049   0.686  10.996 -0.8708  2.7182  0.0363
 6487SOL     OW31093   2.034   4.449   9.012 -0.0671 -0.3519  0.2167
 6487SOL    HW131094   2.110   4.480   9.062 -0.1275  1.6414 -0.9473
 6487SOL    HW231095   2.006   4.538   8.993  0.3567 -0.7193 -2.1675
 6488SOL     OW31096   2.863   4.309   6.985 -0.1145 -0.0594  0.1377
 6488SOL    HW131097   2.804   4.283   6.914  0.0377 -0.8759  0.3085
 6488SOL    HW231098   2.796   4.299   7.053 -0.1603  3.3690  0.6063
 6489SOL     OW31099   4.060   1.353  11.791  0.1314 -0.1746 -0.3890
 6489SOL    HW131100   3.974   1.334  11.754 -0.5413 -0.2850  1.2373
 6489SOL    HW231101   4.038   1.393  11.875  0.7822  0.6556 -0.6194
 6490SOL     OW31102   4.321   1.341  12.802  0.1710 -0.4448 -0.3351
 6490SOL    HW131103   4.331   1.251  12.831  1.3051  0.6548  2.6005
 6490SOL    HW231104   4.240   1.366  12.848  0.7721  0.3555  0.2823
 6491SOL     OW31105   1.331   2.734   3.271 -0.1435  0.2376  0.0037
 6491SOL    HW131106   1.381   2.759   3.348 -0.5427 -0.6502  0.5443
 6491SOL    HW231107   1.248   2.727   3.319  0.8015  0.4619  1.6794
 6492SOL     OW31108   4.207   0.693   5.138  0.1355 -0.0445  0.2297
 6492SOL    HW131109   4.117   0.672   5.113  0.5073  1.0577 -2.0704
 6492SOL    HW231110   4.190   0.767   5.197 -0.5522 -0.1233  0.1320
 6493SOL     OW31111   2.249   1.649   6.274  0.2432  0.3209  0.0612
 6493SOL    HW131112   2.322   1.607   6.320  0.3916 -1.3651 -1.6565
 6493SOL    HW231113   2.171   1.644   6.329  0.1150  1.4031 -0.0341
 6494SOL     OW31114   2.556   2.883   8.109 -0.0480 -0.4928 -0.0398
 6494SOL    HW131115   2.463   2.863   8.103 -0.1492  0.1806 -0.8244
 6494SOL    HW231116   2.573   2.874   8.015 -0.7123  0.1351 -0.2175
 6495SOL     OW31117   0.207   2.021   7.263  0.9118  0.1819 -0.2112
 6495SOL    HW131118   0.141   2.003   7.330 -0.6016  1.6021 -1.3038
 6495SOL    HW231119   0.267   2.083   7.304 -0.1686 -0.3894  2.2584
 6496SOL     OW31120   3.755   0.997   3.920  0.0255  0.4130 -0.3494
 6496SOL    HW131121   3.685   1.056   3.893 -0.7212 -0.0417  0.6130
 6496SOL    HW231122   3.765   0.947   3.839 -2.2313 -0.1901 -0.2382
 6497SOL     OW31123   1.086   1.431   3.128 -0.7105 -0.0078  0.6005
 6497SOL    HW131124   1.113   1.374   3.056 -0.4994  1.6093 -0.5857
 6497SOL    HW231125   1.153   1.397   3.188  1.3374  0.7570 -1.2638
 6498SOL     OW31126   3.791   0.124  14.546  0.3625  0.2256  0.3182
 6498SOL    HW131127   3.865   0.069  14.520 -0.4616 -1.5035  1.6269
 6498SOL    HW231128   3.738   0.130  14.467  2.1033  0.5806 -0.8257
 6499SOL     OW31129   0.673   0.214   6.410  0.5773  0.2170  0.3322
 6499SOL    HW131130   0.634   0.245   6.328  0.4044 -2.8456 -0.7281
 6499SOL    HW231131   0.743   0.275   6.434 -0.9168  0.4680  4.0235
 6500SOL     OW31132   0.121   0.114   5.922 -0.0684 -0.3409  0.2437
 6500SOL    HW131133   0.107   0.158   5.838 -1.6537 -0.2757  0.5559
 6500SOL    HW231134   0.141   0.184   5.983  3.3964 -0.2130 -1.0381
 6501SOL     OW31135   2.325   0.032   7.645 -0.2337 -0.1159 -0.1047
 6501SOL    HW131136   2.408   4.735   7.678 -0.9369 -2.7215 -0.8520
 6501SOL    HW231137   2.270   4.699   7.684  1.4446 -1.7955 -0.7070
 6502SOL     OW31138   3.406   3.888   9.244  0.1434 -0.7757 -0.8116
 6502SOL    HW131139   3.403   3.855   9.154 -0.7516  0.7694 -1.3426
 6502SOL    HW231140   3.447   3.974   9.241  0.1436 -0.7639 -0.3671
 6503SOL     OW31141   1.478   4.292  12.629 -0.7496  0.2939 -0.5055
 6503SOL    HW131142   1.389   4.328  12.631 -0.8478 -0.1023  1.9691
 6503SOL    HW231143   1.517   4.343  12.558 -0.8563 -0.2881 -0.9755
 6504SOL     OW31144   0.592   0.597  17.129 -0.4656  0.1455  0.5400
 6504SOL    HW131145   0.571   0.689  17.145  0.8168  0.6101 -0.4570
 6504SOL    HW231146   0.679   0.601  17.089 -1.0048  3.5048 -0.3507
 6505SOL     OW31147   2.348   3.387  12.144 -0.0135  0.1820  0.6591
 6505SOL    HW131148   2.361   3.324  12.073  2.0081 -0.1356  1.3206
 6505SOL    HW231149   2.436   3.402  12.180  0.1934  1.0487 -0.1955
 6506SOL     OW31150   2.762   4.485   8.004 -0.1797  0.1486  0.5501
 6506SOL    HW131151   2.851   4.499   8.037  0.6845 -1.6191 -1.0173
 6506SOL    HW231152   2.764   4.391   7.987  1.9225 -0.1091  2.0776
 6507SOL     OW31153   0.306   2.761   7.606  0.1452 -0.1649 -0.4502
 6507SOL    HW131154   0.306   2.792   7.516 -1.4627  0.1944 -0.3286
 6507SOL    HW231155   0.235   2.696   7.600  0.6585 -0.6478 -1.2946
 6508SOL     OW31156   1.291   0.744   4.786  0.0871  0.3352 -0.3281
 6508SOL    HW131157   1.268   0.665   4.834 -0.0482 -0.0652 -1.0592
 6508SOL    HW231158   1.383   0.766   4.804 -0.2622  1.4010  0.2139
 6509SOL     OW31159   1.933   2.169   0.763  0.6771  0.0176  0.2086
 6509SOL    HW131160   2.023   2.156   0.794  1.2389  0.1669 -1.3686
 6509SOL    HW231161   1.933   2.155   0.669  1.5075 -1.4562  0.4339
 6510SOL     OW31162   4.166   1.227  15.112  0.0841  0.7337  0.2916
 6510SOL    HW131163   4.092   1.186  15.067  2.0239 -1.2743 -1.0672
 6510SOL    HW231164   4.238   1.180  15.070 -1.0932 -0.6670 -0.1944
 6511SOL     OW31165   4.447   2.524   5.918 -0.1893  0.1768 -0.1617
 6511SOL    HW131166   4.433   2.537   5.824  3.9828  0.5683 -0.7549
 6511SOL    HW231167   4.357   2.495   5.930  0.4198 -1.2135  1.1571
 6512SOL     OW31168   4.510   0.323   4.399  0.2124  0.3217 -0.6581
 6512SOL    HW131169   4.592   0.349   4.440 -0.3832  1.3712 -0.1319
 6512SOL    HW231170   4.493   0.243   4.447 -3.2399  0.5766 -1.4282
 6513SOL     OW31171   3.911   1.744   1.048 -0.0580 -0.0430 -0.1336
 6513SOL    HW131172   3.994   1.713   1.013 -1.3881 -1.3917 -2.0902
 6513SOL    HW231173   3.942   1.740   1.138  0.7205 -0.7711 -0.4399
 6514SOL     OW31174   3.527   2.988   8.813  0.1920 -0.5761  0.1149
 6514SOL    HW131175   3.488   3.038   8.742 -0.2553 -0.5213  0.3972
 6514SOL    HW231176   3.491   3.035   8.889 -2.3034 -3.3322  0.6759
 6515SOL     OW31177   2.267   1.453   9.722  0.2266  0.7300 -0.6546
 6515SOL    HW131178   2.180   1.493   9.715 -0.9672 -2.0044 -1.3887
 6515SOL    HW231179   2.243   1.362   9.705 -0.8655  0.6633  1.1369
 6516SOL     OW31180   0.960   3.397  15.079  0.2068 -0.3886 -0.0986
 6516SOL    HW131181   1.027   3.383  15.146  0.7368  1.6528 -0.2091
 6516SOL    HW231182   1.003   3.362  15.001  1.6352  0.3612  0.3637
 6517SOL     OW31183   1.705   4.707  12.026  0.1609  0.3759 -0.3896
 6517SOL    HW131184   1.633   4.683  12.085 -0.4940 -1.1030 -1.8052
 6517SOL    HW231185   1.746   4.625  12.001  3.3962  1.9054 -0.1143
 6518SOL     OW31186   0.959   3.178   4.172  0.3912 -0.2462 -0.2601
 6518SOL    HW131187   0.872   3.143   4.151 -0.6259  1.4038  1.1723
 6518SOL    HW231188   0.935   3.186   4.265 -1.0299 -1.8993 -0.4941
 6519SOL     OW31189   1.078   2.885   8.684 -0.4877  0.0837  0.3167
 6519SOL    HW131190   1.145   2.924   8.628 -1.1732  0.2682 -0.3702
 6519SOL    HW231191   1.094   2.791   8.674 -2.3159 -0.3521  1.5777
 6520SOL     OW31192   0.609   4.653   8.910  0.0060  0.6364  0.3402
 6520SOL    HW131193   0.695   4.678   8.877 -0.4441  0.5639 -0.8916
 6520SOL    HW231194   0.618   4.639   9.004  1.0614  2.6949  0.5418
 6521SOL     OW31195   3.214   1.196   4.668 -0.0892  0.2952 -0.1240
 6521SOL    HW131196   3.273   1.251   4.719 -0.2405 -0.8591  1.3209
 6521SOL    HW231197   3.257   1.111   4.676  0.1018  0.3378 -0.6939
 6522SOL     OW31198   3.086   3.058   3.964 -0.0814  0.2615  0.2807
 6522SOL    HW131199   3.159   2.996   3.962  0.3965  0.9058 -2.2288
 6522SOL    HW231200   3.020   3.015   3.912  1.7127 -0.5016 -1.3610
 6523SOL     OW31201   4.183   4.064  10.381  0.1335 -0.5428 -0.5983
 6523SOL    HW131202   4.192   4.144  10.328 -0.0937 -0.3005 -0.2705
 6523SOL    HW231203   4.113   4.094  10.439 -0.4641 -0.5189 -1.3437
 6524SOL     OW31204   3.358   0.438   4.521  0.0218 -0.2597 -0.1181
 6524SOL    HW131205   3.396   0.515   4.480 -0.2306  0.6692  1.4046
 6524SOL    HW231206   3.437   0.398   4.559  0.8180  0.5621 -0.9261
 6525SOL     OW31207   3.265   0.394   2.195  0.5014  0.2234  0.5880
 6525SOL    HW131208   3.180   0.425   2.165 -1.1676 -1.7973  3.2440
 6525SOL    HW231209   3.281   0.324   2.132 -0.5183  0.1335  0.4270
 6526SOL     OW31210   2.301   1.076   4.763 -0.5231  0.4046 -0.1165
 6526SOL    HW131211   2.210   1.080   4.790 -0.7509 -0.0112 -0.8260
 6526SOL    HW231212   2.327   1.010   4.828 -0.3104 -1.0929 -1.7096
 6527SOL     OW31213   1.995   4.571  11.769  0.4869 -0.8533 -0.2463
 6527SOL    HW131214   1.922   4.600  11.715  0.7488  0.2091 -0.0198
 6527SOL    HW231215   1.955   4.532  11.847 -1.6067  2.1024  0.1589
 6528SOL     OW31216   3.956   0.735  16.195 -0.3590 -0.0826 -0.0310
 6528SOL    HW131217   3.951   0.831  16.196  0.5813 -0.0417  1.2722
 6528SOL    HW231218   4.045   0.713  16.223 -1.6103  0.6094  4.4542
 6529SOL     OW31219   1.545   0.137   6.389 -0.1546 -0.1836  0.3026
 6529SOL    HW131220   1.571   0.052   6.355  1.4592  2.2143 -4.4986
 6529SOL    HW231221   1.511   0.118   6.476  3.1542 -0.5423  1.4740
 6530SOL     OW31222   3.028   0.475   9.416  0.2072  0.0570  0.5748
 6530SOL    HW131223   2.973   0.538   9.463 -1.7527 -1.6569  0.5674
 6530SOL    HW231224   3.115   0.486   9.453  0.0373 -0.8655  1.2293
 6531SOL     OW31225   4.566   1.609   2.165 -0.1496  0.6874 -0.0376
 6531SOL    HW131226   4.566   1.518   2.135 -1.6163  0.3955  0.8174
 6531SOL    HW231227   4.649   1.649   2.141  1.2079 -1.5849  0.7973
 6532SOL     OW31228   1.887   4.492  14.211 -0.0604  0.2570 -0.3453
 6532SOL    HW131229   1.794   4.510  14.194 -0.4668 -0.5640  1.0524
 6532SOL    HW231230   1.888   4.397  14.217  3.4206  0.2604 -0.8899
 6533SOL     OW31231   0.013   3.600   3.384 -0.3691 -0.3354 -0.0690
 6533SOL    HW131232   0.079   3.546   3.427  0.2673  1.3064  1.0037
 6533SOL    HW231233   0.044   3.601   3.293  0.3851  0.1262  0.1927
 6534SOL     OW31234   1.469   2.289   3.976 -0.3424 -0.0920 -0.0345
 6534SOL    HW131235   1.450   2.277   4.069  0.4179  1.9972  0.3790
 6534SOL    HW231236   1.504   2.209   3.937 -1.2596 -0.1902 -0.6435
 6535SOL     OW31237   1.774   0.460   3.043  0.0080  0.0953 -0.1356
 6535SOL    HW131238   1.729   0.434   3.123  0.5264 -2.5293 -0.7005
 6535SOL    HW231239   1.844   0.394   3.041  0.1598  0.2722 -0.6604
 6536SOL     OW31240   1.372   1.799   4.408  0.2430 -0.3078  0.1326
 6536SOL    HW131241   1.277   1.807   4.419 -0.2354 -3.9553 -1.3787
 6536SOL    HW231242   1.420   1.851   4.472 -1.2638 -0.2504  1.2163
 6537SOL     OW31243   1.154   2.275   5.538 -0.2700 -0.6634 -0.2115
 6537SOL    HW131244   1.121   2.304   5.623 -0.8084  0.2875 -0.7434
 6537SOL    HW231245   1.199   2.351   5.501 -2.3737  0.5065 -0.3678
 6538SOL     OW31246   0.316   2.222   7.405  0.4958  0.4624  0.8543
 6538SOL    HW131247   0.401   2.195   7.441  1.2327  0.1928 -1.0771
 6538SOL    HW231248   0.277   2.245   7.489 -0.9784 -0.9260  0.5653
 6539SOL     OW31249   3.318   3.956   4.031 -0.5225 -0.2204 -0.1076
 6539SOL    HW131250   3.307   3.874   3.982 -0.0093 -0.0024 -0.5773
 6539SOL    HW231251   3.228   3.970   4.061 -1.3366 -2.6804 -1.4239
 6540SOL     OW31252   0.181   2.203   4.704 -0.8116  0.0414 -0.2267
 6540SOL    HW131253   0.116   2.180   4.770  1.4982 -2.9133  1.0663
 6540SOL    HW231254   0.250   2.137   4.713 -1.2948 -0.7386 -2.2294
 6541SOL     OW31255   2.861   2.775  17.560 -0.5017  0.3210  0.2675
 6541SOL    HW131256   2.853   2.824  17.642  0.2647  0.7329  0.0932
 6541SOL    HW231257   2.957   2.773  17.557 -0.4665  1.3341  0.5957
 6542SOL     OW31258   2.815   1.917   4.479  0.7359 -0.0508  0.1046
 6542SOL    HW131259   2.805   2.000   4.526 -1.5325  1.7379 -3.5619
 6542SOL    HW231260   2.897   1.886   4.518  0.2258 -0.1666  1.0826
 6543SOL     OW31261   1.100   2.269  12.658 -0.0065  0.6190 -0.1691
 6543SOL    HW131262   1.073   2.276  12.566  0.2580  1.0919 -0.2091
 6543SOL    HW231263   1.172   2.206  12.657  0.6340  1.3629  0.8109
 6544SOL     OW31264   3.460   3.936   0.844  0.1357 -0.2904 -0.1431
 6544SOL    HW131265   3.550   3.907   0.829 -0.6434 -1.7261 -2.0887
 6544SOL    HW231266   3.467   3.990   0.922  0.9530 -0.8134  0.1410
 6545SOL     OW31267   4.271   1.049  13.832 -0.0960 -0.2913 -0.2965
 6545SOL    HW131268   4.328   1.048  13.908  0.4984  2.7687 -0.7098
 6545SOL    HW231269   4.260   0.954  13.823  0.4215 -0.6541  3.0406
 6546SOL     OW31270   4.243   1.946   8.007  0.2667  0.1628 -0.1962
 6546SOL    HW131271   4.219   1.900   8.088  1.7979  0.0952  0.2069
 6546SOL    HW231272   4.248   1.867   7.952  0.0139 -0.9307  1.3578
 6547SOL     OW31273   2.002   0.847   3.870 -0.0459 -0.5705  0.2782
 6547SOL    HW131274   1.986   0.810   3.957  0.9336  0.6053  0.9527
 6547SOL    HW231275   1.928   0.908   3.870  1.3626  1.1471 -3.3119
 6548SOL     OW31276   1.614   2.670   6.097 -0.1841  0.2391 -0.0187
 6548SOL    HW131277   1.596   2.614   6.173  1.0032 -3.0308 -2.1242
 6548SOL    HW231278   1.684   2.625   6.049  0.6739  1.8130 -0.2518
 6549SOL     OW31279   4.722   3.138   5.440 -0.6497  0.2273 -0.5390
 6549SOL    HW131280   4.735   3.216   5.387  1.5740 -0.0069 -0.3284
 6549SOL    HW231281   0.053   3.152   5.507 -1.3074 -1.1193  0.3929
 6550SOL     OW31282   3.106   4.148  10.148  0.4476  0.6065  0.1947
 6550SOL    HW131283   3.180   4.196  10.110 -1.1882  2.1334 -1.0430
 6550SOL    HW231284   3.076   4.087  10.082 -1.3440 -0.9212  2.4348
 6551SOL     OW31285   0.627   4.504  16.524 -0.1516  0.5655  0.3221
 6551SOL    HW131286   0.570   4.442  16.569  0.2765 -0.6949 -0.8706
 6551SOL    HW231287   0.575   4.583  16.541  3.9688  2.7923  2.4496
 6552SOL     OW31288   1.663   3.955   1.102  0.0752  0.4768  0.3258
 6552SOL    HW131289   1.744   3.910   1.125 -0.0776 -0.4434 -0.9623
 6552SOL    HW231290   1.684   4.009   1.027  0.5329  0.3541  0.3680
 6553SOL     OW31291   3.349   4.348   7.412 -0.4162  0.3444 -0.0127
 6553SOL    HW131292   3.439   4.318   7.419 -0.3469  0.8955  1.5693
 6553SOL    HW231293   3.315   4.315   7.329 -0.1543  0.0011  0.0174
 6554SOL     OW31294   1.858   0.934  12.675 -0.0019  0.0643 -0.1875
 6554SOL    HW131295   1.906   0.970  12.750 -0.2881 -2.3619  1.1376
 6554SOL    HW231296   1.932   0.923  12.615 -1.9025 -3.0137 -1.9646
 6555SOL     OW31297   2.615   3.740   6.168  0.0849 -0.0441  0.5899
 6555SOL    HW131298   2.663   3.693   6.236  1.6965  1.4042  0.4461
 6555SOL    HW231299   2.603   3.825   6.210  0.8303 -1.1168  2.9969
 6556SOL     OW31300   4.379   0.839   3.976 -0.0380  0.2737 -0.9425
 6556SOL    HW131301   4.307   0.899   3.994  0.2880 -0.4623  2.8434
 6556SOL    HW231302   4.335   0.761   4.011  1.5084 -0.7111 -1.1615
 6557SOL     OW31303   0.160   1.651   9.009 -0.3553  0.3040 -0.4848
 6557SOL    HW131304   0.221   1.721   9.032 -1.2861  1.3784 -1.2880
 6557SOL    HW231305   0.218   1.580   8.980  0.2298  1.0017 -1.0227
 6558SOL     OW31306   2.016   1.375   5.715 -0.5373  0.4155 -0.3844
 6558SOL    HW131307   2.105   1.383   5.750 -1.1965  0.3619  1.3302
 6558SOL    HW231308   1.985   1.328   5.793  0.2688  0.6386  0.0750
 6559SOL     OW31309   1.529   0.083   2.453  0.3101 -0.2404 -0.2141
 6559SOL    HW131310   1.570   0.169   2.463  0.3395 -0.2215 -0.5073
 6559SOL    HW231311   1.453   0.115   2.403  0.6754 -0.3421 -0.8362
 6560SOL     OW31312   2.855   1.420   7.447  0.0164 -0.1762  0.1432
 6560SOL    HW131313   2.895   1.462   7.371 -0.4033 -0.0135  0.0122
 6560SOL    HW231314   2.918   1.462   7.505  1.7330 -0.1626 -1.7247
 6561SOL     OW31315   4.139   1.490   9.499  0.3887  0.0112 -0.2256
 6561SOL    HW131316   4.129   1.521   9.409  0.9995  0.1106 -0.2593
 6561SOL    HW231317   4.113   1.400   9.480 -1.2254  0.2098  1.0459
 6562SOL     OW31318   1.830   0.812   7.120  0.0124 -0.0819  0.0810
 6562SOL    HW131319   1.757   0.770   7.073  0.2289 -0.7521  0.3502
 6562SOL    HW231320   1.827   0.769   7.205  0.1208 -1.9359 -0.8511
 6563SOL     OW31321   3.960   4.259   9.079 -0.2733 -0.0608 -0.0612
 6563SOL    HW131322   3.881   4.311   9.093 -0.4219 -0.5729  1.0814
 6563SOL    HW231323   4.028   4.298   9.134 -0.6442 -1.6065  1.5214
 6564SOL     OW31324   1.036   4.277   0.833  0.4612  0.1568  0.4572
 6564SOL    HW131325   1.011   4.220   0.906  1.6657 -0.4233  0.4130
 6564SOL    HW231326   1.119   4.316   0.861  1.3976 -2.1494  0.8630
 6565SOL     OW31327   0.868   3.382   3.942 -0.6089 -0.3388  0.3544
 6565SOL    HW131328   0.904   3.298   3.968 -1.8121 -0.4469  1.7099
 6565SOL    HW231329   0.940   3.424   3.896 -0.2298  0.0963  1.3440
 6566SOL     OW31330   0.789   0.078   7.265 -0.4340 -0.2464 -0.4393
 6566SOL    HW131331   0.694   0.092   7.273 -0.5330 -0.2658 -1.6597
 6566SOL    HW231332   0.817   0.158   7.220 -2.7949  1.2288  0.6963
 6567SOL     OW31333   0.543   3.081   8.172  0.3901 -0.4361  0.3352
 6567SOL    HW131334   0.466   3.025   8.161 -1.0779  1.8408 -0.8121
 6567SOL    HW231335   0.530   3.118   8.260 -1.9856 -0.3136 -0.0915
 6568SOL     OW31336   1.207   0.529   5.765 -0.4725 -0.1717  0.4837
 6568SOL    HW131337   1.258   0.493   5.837 -0.6503 -0.6503  0.3683
 6568SOL    HW231338   1.228   0.620   5.789 -0.8931  0.1664 -0.3962
 6569SOL     OW31339   0.816   3.976   6.243  0.7843 -0.0392 -0.5925
 6569SOL    HW131340   0.761   3.908   6.283  2.4816  0.5318  2.6857
 6569SOL    HW231341   0.905   3.947   6.260 -0.1139 -1.2055  2.2143
 6570SOL     OW31342   4.359   2.324  17.639  0.0588  0.0598 -0.2004
 6570SOL    HW131343   4.413   2.251  17.609 -1.2317 -0.1900 -1.8928
 6570SOL    HW231344   4.269   2.297  17.621 -0.5622  3.4233 -1.9732
 6571SOL     OW31345   2.331   3.840   1.335  0.0198 -0.5732  0.3025
 6571SOL    HW131346   2.264   3.906   1.354  0.9627 -0.0165  1.7643
 6571SOL    HW231347   2.332   3.788   1.416  2.3555 -2.4573 -0.9524
 6572SOL     OW31348   1.859   4.041   0.179 -0.0548 -0.1524 -0.0422
 6572SOL    HW131349   1.832   4.116   0.127 -0.6004 -0.7589 -0.6286
 6572SOL    HW231350   1.871   4.080   0.266  1.1057  0.7164 -0.5869
 6573SOL     OW31351   3.717   1.852   0.123  0.3287 -0.1574  0.1635
 6573SOL    HW131352   3.644   1.821   0.176 -0.8712  0.3821 -1.1722
 6573SOL    HW231353   3.718   1.790   0.050 -0.6958  0.8318 -0.6870
 6574SOL     OW31354   4.146   1.677   7.903 -0.5408 -0.1051 -0.2876
 6574SOL    HW131355   4.143   1.635   7.817 -0.6031  0.8474 -0.7442
 6574SOL    HW231356   4.237   1.659   7.924  0.0648  3.4106  0.0374
 6575SOL     OW31357   4.547   0.478  10.743 -0.9022  0.7299  0.1702
 6575SOL    HW131358   4.595   0.395  10.750 -0.1813  1.1113 -0.2371
 6575SOL    HW231359   4.457   0.448  10.757 -0.9614  0.6197 -0.4521
 6576SOL     OW31360   2.123   2.104  16.172  0.1614  0.1075  0.1419
 6576SOL    HW131361   2.069   2.183  16.175 -1.9156 -1.3655  1.5221
 6576SOL    HW231362   2.206   2.134  16.133 -0.0927 -0.0803 -0.5379
 6577SOL     OW31363   3.504   0.498  15.086  0.1743 -0.1427  0.0787
 6577SOL    HW131364   3.460   0.432  15.032 -1.2489  0.5730  0.3705
 6577SOL    HW231365   3.557   0.436  15.136  0.6265  0.8330  0.8040
 6578SOL     OW31366   2.134   2.207  15.172  0.0747 -0.6449 -0.6921
 6578SOL    HW131367   2.204   2.196  15.108 -0.2837  0.7480 -1.3334
 6578SOL    HW231368   2.060   2.253  15.133  0.7360 -0.0241 -1.2325
 6579SOL     OW31369   3.543   1.759   5.417 -0.0295  0.0723  0.3175
 6579SOL    HW131370   3.528   1.814   5.340 -2.6291 -0.0119  0.7608
 6579SOL    HW231371   3.508   1.809   5.491 -0.9997 -0.2015  0.0393
 6580SOL     OW31372   0.302   0.821  15.243 -0.2054  0.2234  0.2187
 6580SOL    HW131373   0.358   0.891  15.210  0.8563 -2.5082 -3.6631
 6580SOL    HW231374   0.357   0.747  15.217  0.6815  0.0020  2.7041
 6581SOL     OW31375   2.054   3.142  13.578 -0.5358 -0.3006 -0.7387
 6581SOL    HW131376   2.014   3.225  13.553  0.0197  0.8428  2.1039
 6581SOL    HW231377   2.056   3.090  13.498  0.7640 -0.5240 -0.5734
 6582SOL     OW31378   1.015   4.579   5.444 -0.4201 -0.1486 -0.2082
 6582SOL    HW131379   0.974   4.659   5.410  0.1221 -0.1533 -0.8938
 6582SOL    HW231380   1.081   4.624   5.497 -0.6159  0.9164 -0.8597
 6583SOL     OW31381   0.277   3.985  17.327  0.0393  0.2297 -0.2322
 6583SOL    HW131382   0.310   4.067  17.364 -0.7187  0.5444 -0.2574
 6583SOL    HW231383   0.360   3.966  17.283 -0.2540  2.7587 -1.8768
 6584SOL     OW31384   0.169   3.157   7.665 -0.3835 -0.4863 -0.0369
 6584SOL    HW131385   0.122   3.093   7.612 -2.1544  0.4886  0.3583
 6584SOL    HW231386   0.235   3.171   7.597 -0.8597  0.6917 -0.2506
 6585SOL     OW31387   3.568   2.321   4.793 -0.0940  0.7736  0.0868
 6585SOL    HW131388   3.634   2.340   4.727 -0.5327  1.9128 -0.0339
 6585SOL    HW231389   3.617   2.338   4.873  1.8761 -1.4719 -0.6547
 6586SOL     OW31390   1.431   4.393   0.697 -0.5206 -0.3487  0.2975
 6586SOL    HW131391   1.474   4.469   0.737 -1.2259 -0.1324  0.6504
 6586SOL    HW231392   1.472   4.392   0.610  0.6361 -0.9797  0.8586
 6587SOL     OW31393   3.466   3.670   4.807 -0.2501  0.3838 -0.5748
 6587SOL    HW131394   3.418   3.589   4.822 -0.5890  0.5724 -0.6464
 6587SOL    HW231395   3.549   3.649   4.763  0.2245  2.3043 -0.6146
 6588SOL     OW31396   2.713   1.344   3.268 -0.0847  0.1610  0.7940
 6588SOL    HW131397   2.679   1.429   3.238  0.0909 -0.1784 -0.3427
 6588SOL    HW231398   2.806   1.365   3.277 -0.0331  1.0204 -1.7476
 6589SOL     OW31399   0.846   3.934  16.757 -0.7812  0.0731 -0.5027
 6589SOL    HW131400   0.804   3.848  16.764 -1.1391  0.2640 -0.2852
 6589SOL    HW231401   0.776   3.984  16.799  0.6304 -0.1751  2.1431
 6590SOL     OW31402   1.675   2.067   8.323  0.2254  0.1249  0.4565
 6590SOL    HW131403   1.653   2.065   8.416  2.8035 -1.1339  1.0481
 6590SOL    HW231404   1.745   2.002   8.328 -1.2408 -1.3253  1.7566
 6591SOL     OW31405   0.922   3.579   7.396 -0.8313  0.0383  0.4427
 6591SOL    HW131406   0.940   3.512   7.462  3.9438  0.1156 -0.7695
 6591SOL    HW231407   0.929   3.657   7.452 -0.7115  0.9174 -0.8165
 6592SOL     OW31408   2.281   1.762  14.775  0.3780 -0.7476 -0.4897
 6592SOL    HW131409   2.316   1.851  14.776 -0.3238 -0.5082  1.5176
 6592SOL    HW231410   2.339   1.721  14.840 -1.0602  0.5865  1.6467
 6593SOL     OW31411   2.631   0.520   9.515 -0.4175 -0.2362 -0.0463
 6593SOL    HW131412   2.673   0.472   9.444  1.7347 -0.6785  1.5399
 6593SOL    HW231413   2.665   0.608   9.503  0.6647 -0.4959  1.1814
 6594SOL     OW31414   2.825   4.679   4.215 -0.0828 -0.2678 -0.0507
 6594SOL    HW131415   2.853   4.715   4.131 -0.6328 -2.8400 -1.3620
 6594SOL    HW231416   2.764   4.618   4.174  0.9462 -0.7736 -0.8341
 6595SOL     OW31417   3.766   4.717   2.545  0.8859 -0.0517  0.0474
 6595SOL    HW131418   3.805   0.009   2.628  0.7072 -0.8874  0.4077
 6595SOL    HW231419   3.806   0.050   2.492 -1.3710  0.9984 -0.3354
 6596SOL     OW31420   4.649   1.429   8.355  0.2076 -0.4607  0.1878
 6596SOL    HW131421   4.561   1.421   8.393  0.1075  0.6688  0.1719
 6596SOL    HW231422   4.709   1.384   8.414 -0.3135 -3.9120 -1.8992
 6597SOL     OW31423   3.245   4.378   6.086 -0.1400 -0.4116 -0.1214
 6597SOL    HW131424   3.189   4.323   6.032 -1.7274 -0.4993  1.6154
 6597SOL    HW231425   3.266   4.327   6.165  2.9660 -0.4155 -0.9637
 6598SOL     OW31426   0.007   2.499  16.542  0.7900  0.0401  1.0016
 6598SOL    HW131427   4.713   2.504  16.451 -1.3344  0.4208  1.7209
 6598SOL    HW231428   4.730   2.589  16.569  3.1485  0.5923  0.2682
 6599SOL     OW31429   2.910   3.892  12.296 -0.4767  0.5779  0.5996
 6599SOL    HW131430   2.846   3.921  12.232 -1.2843  1.1813  1.6780
 6599SOL    HW231431   2.951   3.977  12.313 -0.3130  1.2205 -2.9657
 6600SOL     OW31432   3.694   4.565  14.576 -0.1181 -0.2223  0.0115
 6600SOL    HW131433   3.648   4.591  14.496 -2.7644 -1.8264  1.0251
 6600SOL    HW231434   3.698   4.642  14.632  1.6403  1.5440 -2.5293
 6601SOL     OW31435   3.017   0.854  15.124 -0.2917  0.4476 -0.1366
 6601SOL    HW131436   2.932   0.889  15.151 -0.7467 -0.6270 -0.1647
 6601SOL    HW231437   3.044   0.926  15.068  2.1984 -0.9283 -0.6969
 6602SOL     OW31438   3.117   2.379   3.420 -0.1525  0.3335  0.3184
 6602SOL    HW131439   3.092   2.319   3.490 -2.4191 -1.2930 -1.8841
 6602SOL    HW231440   3.042   2.373   3.360 -0.2161  0.6574  0.3643
 6603SOL     OW31441   1.757   0.844  10.010  0.2434 -0.1971 -0.0848
 6603SOL    HW131442   1.720   0.932  10.000  1.9655  0.2514 -2.6570
 6603SOL    HW231443   1.743   0.821  10.102  2.0710 -0.2743  0.1716
 6604SOL     OW31444   3.346   0.906  10.762  0.4866 -0.3966  0.7332
 6604SOL    HW131445   3.397   0.826  10.748 -2.1776 -1.5036 -2.5263
 6604SOL    HW231446   3.302   0.898  10.847  1.1334 -1.2812  0.9872
 6605SOL     OW31447   1.111   1.848  13.540 -0.4343  0.5239  0.0087
 6605SOL    HW131448   1.147   1.911  13.602 -0.2858  1.8694 -1.4583
 6605SOL    HW231449   1.034   1.820  13.589 -0.4670  1.4905  0.5114
 6606SOL     OW31450   1.116   3.164   2.280  0.3847  0.5453  0.5260
 6606SOL    HW131451   1.029   3.198   2.300  0.9176  1.2672  1.6799
 6606SOL    HW231452   1.102   3.123   2.195  0.9520  0.6576  0.3784
 6607SOL     OW31453   3.826   4.417   5.298  0.1424  0.0632  0.4890
 6607SOL    HW131454   3.732   4.407   5.312 -0.1522  0.6373 -1.1229
 6607SOL    HW231455   3.867   4.331   5.297  1.6882  0.8258 -1.5396
 6608SOL     OW31456   2.766   2.374   8.611 -0.6614  0.6599  0.4810
 6608SOL    HW131457   2.845   2.346   8.658 -0.1385 -1.6265 -1.7311
 6608SOL    HW231458   2.804   2.424   8.539 -0.8024 -1.7711 -1.3111
 6609SOL     OW31459   3.499   1.154   3.867  0.8632 -0.6906  0.4702
 6609SOL    HW131460   3.434   1.098   3.908  0.5554 -0.0546  0.8658
 6609SOL    HW231461   3.454   1.182   3.788 -1.3215  0.8468  2.2612
 6610SOL     OW31462   4.228   2.109   8.597  0.2725  0.0711 -0.5557
 6610SOL    HW131463   4.299   2.051   8.569 -2.0219 -2.8333 -0.4325
 6610SOL    HW231464   4.157   2.047   8.617  0.8602  0.1568  1.8270
 6611SOL     OW31465   4.305   0.939  15.937 -0.3848  0.3511 -0.1856
 6611SOL    HW131466   4.367   1.010  15.922  0.3985 -0.3074 -0.0824
 6611SOL    HW231467   4.259   0.960  16.018  0.7094  1.0402  0.2540
 6612SOL     OW31468   1.637   0.304   6.719 -0.4102  0.5241 -0.1525
 6612SOL    HW131469   1.666   0.351   6.797  1.3553 -1.8842  0.6487
 6612SOL    HW231470   1.672   0.363   6.653  0.4161  1.2856  0.9575
 6613SOL     OW31471   0.975   3.402   8.984 -0.5489  0.0744  0.4989
 6613SOL    HW131472   1.048   3.363   8.935 -2.0737 -4.2314  1.6610
 6613SOL    HW231473   1.007   3.492   8.990 -1.0046  0.3050 -0.5428
 6614SOL     OW31474   1.438   3.538   6.010 -0.6790  0.1348  0.4355
 6614SOL    HW131475   1.515   3.483   6.002 -0.5718  0.0231  2.4076
 6614SOL    HW231476   1.432   3.545   6.105  0.3372  0.6761  0.4599
 6615SOL     OW31477   4.267   2.187   3.518 -0.2542 -0.5763 -0.7111
 6615SOL    HW131478   4.342   2.173   3.575 -1.0059 -0.0530  0.4067
 6615SOL    HW231479   4.221   2.104   3.529 -2.0884  0.6417  0.7488
 6616SOL     OW31480   3.436   2.875  14.696 -0.0966 -0.0988  0.2280
 6616SOL    HW131481   3.375   2.946  14.674 -0.7413 -0.0615  2.0951
 6616SOL    HW231482   3.512   2.894  14.642 -0.0359  0.1939  0.4187
 6617SOL     OW31483   2.626   1.155   5.484  0.6673 -0.2705  0.0208
 6617SOL    HW131484   2.674   1.077   5.513 -0.6927 -1.9244 -2.2009
 6617SOL    HW231485   2.694   1.217   5.511 -0.2445  0.8198 -0.1938
 6618SOL     OW31486   4.443   0.053   2.654  0.4236 -0.3076  0.3752
 6618SOL    HW131487   4.354   0.075   2.682  0.1881 -0.5943 -0.1508
 6618SOL    HW231488   4.466   0.129   2.600  0.7923 -0.9883 -0.4306
 6619SOL     OW31489   1.603   1.327  10.420  0.3453  0.0851  0.2964
 6619SOL    HW131490   1.605   1.417  10.387  1.1658  0.0436  0.2431
 6619SOL    HW231491   1.522   1.319  10.471  0.0307  0.8879 -0.0764
 6620SOL     OW31492   1.594   1.012   5.788 -0.0308 -0.5096  0.1885
 6620SOL    HW131493   1.540   1.024   5.867 -1.0355 -2.8446 -0.1454
 6620SOL    HW231494   1.632   0.930   5.820 -0.0503 -0.3799  0.5527
 6621SOL     OW31495   0.447   1.492   1.616 -0.0165 -0.3141 -0.3979
 6621SOL    HW131496   0.406   1.406   1.627 -0.7319  0.2941  1.7441
 6621SOL    HW231497   0.383   1.544   1.567  0.8379  0.8271 -0.3083
 6622SOL     OW31498   0.382   2.129   4.441  0.0309 -0.9817  0.2071
 6622SOL    HW131499   0.417   2.176   4.517 -0.7534 -1.0426  0.5992
 6622SOL    HW231500   0.413   2.043   4.469 -1.1826 -1.6762 -0.6063
 6623SOL     OW31501   4.180   4.465   3.273 -0.1528  0.2776 -0.0423
 6623SOL    HW131502   4.250   4.432   3.217  0.8721  2.1710  0.1348
 6623SOL    HW231503   4.213   4.553   3.294  3.2408 -1.3038  1.1980
 6624SOL     OW31504   2.877   4.150  10.931  0.1803  0.4643 -0.2077
 6624SOL    HW131505   2.898   4.218  10.995  1.3298 -0.2493  0.1679
 6624SOL    HW231506   2.796   4.187  10.896 -0.0696  1.6068  1.5838
 6625SOL     OW31507   2.598   0.325   6.840  0.2286  0.5256  0.1719
 6625SOL    HW131508   2.595   0.244   6.788 -0.1502 -0.2297  1.3744
 6625SOL    HW231509   2.559   0.390   6.782  1.3409  0.7145 -0.3603
 6626SOL     OW31510   1.384   0.310  10.080  0.2963 -0.5686 -0.0214
 6626SOL    HW131511   1.329   0.249  10.031 -0.7293  0.9591 -0.7743
 6626SOL    HW231512   1.414   0.253  10.151 -1.4852  1.6200  2.4652
 6627SOL     OW31513   3.152   2.967   2.722 -0.3982  0.4620 -0.3132
 6627SOL    HW131514   3.246   2.964   2.702  0.1160 -1.1820  2.2808
 6627SOL    HW231515   3.151   2.973   2.818 -0.8667  0.2718 -0.3072
 6628SOL     OW31516   3.759   3.567   8.549 -0.8054  0.3202 -0.0690
 6628SOL    HW131517   3.830   3.536   8.604  2.0927  0.7149 -3.6175
 6628SOL    HW231518   3.723   3.633   8.609 -1.5955  0.7668 -1.0275
 6629SOL     OW31519   2.181   2.877  16.043 -0.8848 -0.8565 -0.4886
 6629SOL    HW131520   2.217   2.809  15.985  1.5930 -0.0374  0.0649
 6629SOL    HW231521   2.127   2.930  15.985  0.1118  0.0114 -0.6252
 6630SOL     OW31522   1.475   1.125   4.963  0.0326 -0.3520 -0.2178
 6630SOL    HW131523   1.526   1.045   4.956  1.7906  0.7099  0.3284
 6630SOL    HW231524   1.544   1.190   4.977 -0.0985 -0.2544 -0.0190
 6631SOL     OW31525   2.585   2.056  14.325  0.6288  0.0326  0.0127
 6631SOL    HW131526   2.680   2.068  14.333  0.6138 -0.4993  0.9804
 6631SOL    HW231527   2.575   2.120  14.255  0.7233  0.5023  0.4336
 6632SOL     OW31528   3.014   2.079  16.808  0.1048  0.0564  0.2756
 6632SOL    HW131529   3.068   2.044  16.878 -0.7898 -1.1455  0.3632
 6632SOL    HW231530   3.009   2.173  16.829  0.0663  0.1419 -0.1132
 6633SOL     OW31531   3.336   2.863   2.953 -0.4408 -0.4038 -0.4485
 6633SOL    HW131532   3.274   2.922   2.995  0.7248  0.0211  0.6844
 6633SOL    HW231533   3.357   2.808   3.028 -3.4911 -0.4896  0.3175
 6634SOL     OW31534   0.958   4.404   8.362  0.5170 -0.3156  0.1529
 6634SOL    HW131535   0.910   4.478   8.399 -1.2939 -1.8939  1.0242
 6634SOL    HW231536   0.885   4.354   8.325  1.4068 -0.5000 -1.3359
 6635SOL     OW31537   4.517   1.128   3.808  0.3469  0.5279  0.3748
 6635SOL    HW131538   4.580   1.177   3.755 -1.3189  1.9025 -0.3343
 6635SOL    HW231539   4.444   1.109   3.748  1.4020  1.0864 -1.1015
 6636SOL     OW31540   0.969   4.260   2.057 -0.2772 -0.0217  0.9396
 6636SOL    HW131541   1.018   4.216   2.127 -0.1229 -2.4133 -0.6599
 6636SOL    HW231542   0.981   4.347   2.094  1.2983  0.3319 -0.3868
 6637SOL     OW31543   1.790   1.206  14.557  0.2493 -0.0701  0.2947
 6637SOL    HW131544   1.842   1.244  14.485  0.1079 -0.7464 -0.1628
 6637SOL    HW231545   1.703   1.215  14.518  0.6962  0.0931 -0.6743
 6638SOL     OW31546   2.731   0.472   7.297 -0.6285  0.4643  0.7140
 6638SOL    HW131547   2.669   0.448   7.229  0.9564  0.6997 -0.8161
 6638SOL    HW231548   2.672   0.459   7.371 -0.2530  0.3462  0.9911
 6639SOL     OW31549   1.439   1.868   7.652  0.5371  0.4416 -0.1549
 6639SOL    HW131550   1.478   1.784   7.627  2.0725  1.1926 -0.2712
 6639SOL    HW231551   1.499   1.901   7.718  0.5439 -1.0851  0.6110
 6640SOL     OW31552   0.534   0.596   2.078  0.4941 -0.2188  0.0652
 6640SOL    HW131553   0.566   0.506   2.085  0.3863 -0.0206  3.5532
 6640SOL    HW231554   0.536   0.611   1.984  1.5993  0.9065  0.2637
 6641SOL     OW31555   4.366   2.139   3.060  0.5178 -0.4764 -0.3598
 6641SOL    HW131556   4.375   2.234   3.047 -1.2985 -0.5890 -2.4751
 6641SOL    HW231557   4.419   2.123   3.138 -0.5725  0.2577  0.5403
 6642SOL     OW31558   4.706   4.596   8.172  0.4202 -0.1503  0.0483
 6642SOL    HW131559   4.617   4.631   8.164  0.7061  1.0427  1.9573
 6642SOL    HW231560   4.711   4.614   8.266  0.3869  2.6811 -0.4911
 6643SOL     OW31561   0.863   4.043   1.935  0.2820 -0.3137  0.7349
 6643SOL    HW131562   0.935   4.012   1.880  0.3988  0.8441  0.2386
 6643SOL    HW231563   0.904   4.124   1.965  0.9096 -0.0929 -0.7062
 6644SOL     OW31564   4.143   0.361  10.392  0.0099 -0.3147  0.1358
 6644SOL    HW131565   4.084   0.293  10.423  1.3909 -1.0956  1.0246
 6644SOL    HW231566   4.074   0.424  10.371  1.1324  0.0396 -2.5188
 6645SOL     OW31567   4.625   0.275  16.278 -0.2891 -0.2225  0.2674
 6645SOL    HW131568   4.618   0.366  16.250  0.1376 -0.1667  0.3429
 6645SOL    HW231569   4.621   0.220  16.200  1.8109  0.9502 -0.6509
 6646SOL     OW31570   1.849   0.090   4.672  0.5237  0.1815  0.1778
 6646SOL    HW131571   1.802   0.157   4.622  1.1455  0.9736  0.6527
 6646SOL    HW231572   1.935   0.101   4.632  0.2932  0.5869 -0.2057
 6647SOL     OW31573   0.832   3.872  12.700  0.4330 -0.4621  0.3600
 6647SOL    HW131574   0.887   3.824  12.762  0.4578 -0.0904  0.6275
 6647SOL    HW231575   0.755   3.869  12.758 -0.3958  3.1961 -0.6060
 6648SOL     OW31576   0.073   2.968   7.470  0.3522  0.4174  0.2821
 6648SOL    HW131577   0.018   3.005   7.401 -0.2966 -1.0882 -0.0183
 6648SOL    HW231578   0.141   2.919   7.424  0.8979 -1.0949  2.6911
 6649SOL     OW31579   1.303   2.604   3.957 -0.1448  0.0339 -0.4661
 6649SOL    HW131580   1.371   2.596   4.023  0.7910 -1.5585 -1.6217
 6649SOL    HW231581   1.237   2.543   3.989 -0.8981  0.9333 -0.2969
 6650SOL     OW31582   4.312   3.816   7.957 -0.8149 -0.0891 -0.2205
 6650SOL    HW131583   4.274   3.876   8.022  0.4619 -0.1984  0.6322
 6650SOL    HW231584   4.379   3.770   8.008 -1.5152 -1.7905 -0.8145
 6651SOL     OW31585   1.874   3.828  13.784  0.3347  0.1791 -0.3532
 6651SOL    HW131586   1.905   3.763  13.847 -1.2187  1.1158  1.3528
 6651SOL    HW231587   1.784   3.847  13.809  1.0652  3.3079 -0.0579
 6652SOL     OW31588   0.580   2.879  16.707  0.4621  0.1307  0.2980
 6652SOL    HW131589   0.650   2.855  16.768  0.3882  1.2714  0.8211
 6652SOL    HW231590   0.632   2.916  16.636 -2.0431  1.2559 -0.9386
 6653SOL     OW31591   1.488   1.666   6.151  0.1452  0.1962  0.3451
 6653SOL    HW131592   1.410   1.636   6.105  0.9502  1.1684 -1.6911
 6653SOL    HW231593   1.454   1.659   6.240 -0.1360 -1.7451  0.0776
 6654SOL     OW31594   4.455   3.862   8.320 -0.1270 -0.2834  0.2001
 6654SOL    HW131595   4.403   3.914   8.258 -0.5105 -0.4754  0.3614
 6654SOL    HW231596   4.546   3.893   8.315 -0.2227 -0.0096  0.1690
 6655SOL     OW31597   3.650   0.445   6.566 -0.0887 -0.4031  0.2815
 6655SOL    HW131598   3.644   0.418   6.474  0.1042 -1.7858  0.6853
 6655SOL    HW231599   3.701   0.378   6.611 -2.0538 -1.4781  0.9203
 6656SOL     OW31600   3.104   1.319   9.691  0.4079  0.5475 -0.0919
 6656SOL    HW131601   3.169   1.384   9.665  2.1722 -1.4276 -0.5881
 6656SOL    HW231602   3.059   1.363   9.764 -0.2255 -0.3971  0.1042
 6657SOL     OW31603   2.641   2.744  17.400 -0.1398  0.1206  0.0547
 6657SOL    HW131604   2.580   2.755  17.473  2.4430  0.7214  2.1229
 6657SOL    HW231605   2.728   2.755  17.437 -0.7334  0.1948  1.4065
 6658SOL     OW31606   0.658   4.135  15.647 -0.1007  0.2639 -0.0999
 6658SOL    HW131607   0.584   4.139  15.708 -0.3850  2.1546 -0.5637
 6658SOL    HW231608   0.733   4.152  15.704  0.6544  1.2964 -1.4049
 6659SOL     OW31609   3.752   4.461  10.044  0.5190  0.0079  0.2025
 6659SOL    HW131610   3.660   4.436  10.055  0.0077  0.4946 -3.1794
 6659SOL    HW231611   3.786   4.414  10.121 -0.9555  0.1191  0.9188
 6660SOL     OW31612   3.209   2.715  12.368 -0.1629  0.1998  0.1263
 6660SOL    HW131613   3.246   2.627  12.378  1.3098  0.8789  0.7455
 6660SOL    HW231614   3.287   2.771  12.368  0.4090 -0.5948  1.4928
 6661SOL     OW31615   2.605   0.627  14.224  0.0053 -0.5587  0.5941
 6661SOL    HW131616   2.597   0.613  14.130 -1.8234 -3.2035  1.1310
 6661SOL    HW231617   2.667   0.563  14.260  1.5936  0.3285 -0.5771
 6662SOL     OW31618   2.748   4.334   8.845 -0.2310 -0.4691  0.5988
 6662SOL    HW131619   2.678   4.270   8.836  1.5233 -2.5141  1.6793
 6662SOL    HW231620   2.727   4.384   8.923 -1.4854 -0.6596  0.3785
 6663SOL     OW31621   4.439   3.984   7.470  0.1133 -0.2248 -0.4915
 6663SOL    HW131622   4.526   3.945   7.455  0.5023  0.5031 -0.1487
 6663SOL    HW231623   4.413   3.926   7.540 -0.8226 -1.0406 -1.5240
 6664SOL     OW31624   1.792   0.681  17.356 -0.0941  0.0774 -0.2282
 6664SOL    HW131625   1.851   0.658  17.428 -0.7501 -1.3656 -0.1510
 6664SOL    HW231626   1.783   0.773  17.380  0.7064  0.2494 -0.5731
 6665SOL     OW31627   1.737   2.744   3.909  0.5094 -0.4124  0.0276
 6665SOL    HW131628   1.647   2.776   3.910  0.2724 -0.9630 -1.9170
 6665SOL    HW231629   1.774   2.796   3.980 -1.2166  0.5043  0.2467
 6666SOL     OW31630   0.972   2.056  13.411  0.3391  0.0077 -0.3317
 6666SOL    HW131631   0.964   1.983  13.350  1.2707  1.1311 -1.8089
 6666SOL    HW231632   1.002   2.012  13.490  0.7395 -0.3585 -0.6890
 6667SOL     OW31633   0.282   1.413  11.660  0.1676 -0.1521 -0.1724
 6667SOL    HW131634   0.327   1.458  11.589 -0.3995 -1.0424 -1.1025
 6667SOL    HW231635   0.231   1.485  11.698  1.8405  0.1184  1.5729
 6668SOL     OW31636   3.664   0.379   6.296 -0.2788 -0.1419  0.3364
 6668SOL    HW131637   3.696   0.302   6.249  0.9567  0.5751  0.0088
 6668SOL    HW231638   3.732   0.444   6.277 -1.1055  1.0381  1.4389
 6669SOL     OW31639   1.225   2.790  13.260  0.1273 -0.3921 -0.5886
 6669SOL    HW131640   1.252   2.698  13.257 -0.9080 -0.7986  2.5407
 6669SOL    HW231641   1.269   2.808  13.343  0.9678  0.2543 -1.1813
 6670SOL     OW31642   0.810   0.359   2.074  0.2230 -0.1203  0.7513
 6670SOL    HW131643   0.841   0.389   2.159  0.4295  2.6277 -0.3127
 6670SOL    HW231644   0.860   0.413   2.014 -0.3654  1.4798  1.7068
 6671SOL     OW31645   0.267   4.457   8.501  0.1360 -0.0164 -0.3333
 6671SOL    HW131646   0.263   4.552   8.505  1.1776 -0.0129  0.7203
 6671SOL    HW231647   0.291   4.440   8.410 -1.9841 -2.9328 -0.3432
 6672SOL     OW31648   3.426   2.528   5.908  0.0324 -0.0547 -0.6906
 6672SOL    HW131649   3.401   2.441   5.877  1.9540 -1.1038  0.6914
 6672SOL    HW231650   3.341   2.572   5.902  0.0243  0.1959  1.1636
 6673SOL     OW31651   3.560   0.187   9.510  0.7719 -0.2887  0.7036
 6673SOL    HW131652   3.587   0.121   9.574  4.5127 -0.2919 -0.8822
 6673SOL    HW231653   3.648   0.206   9.478  0.3693  0.8044  0.2125
 6674SOL     OW31654   4.136   0.018   5.937 -0.3095 -0.1522  0.3233
 6674SOL    HW131655   4.102   4.683   5.881  0.1205  0.6451 -0.9533
 6674SOL    HW231656   4.186   0.061   5.868  1.1464 -2.1419  0.1309
 6675SOL     OW31657   4.668   3.403   4.117 -0.1299  0.2959  0.3571
 6675SOL    HW131658   4.575   3.398   4.097 -0.6816  1.6432  2.5017
 6675SOL    HW231659   4.677   3.469   4.187 -1.7398  0.8806  0.0224
 6676SOL     OW31660   3.976   1.979   2.733  0.5795 -0.0502 -0.0053
 6676SOL    HW131661   3.935   2.001   2.817 -3.6968 -0.6271 -1.9644
 6676SOL    HW231662   3.998   2.064   2.694  0.0133  1.3405  2.7138
 6677SOL     OW31663   1.354   0.453   4.191 -0.1502 -0.1524 -0.2052
 6677SOL    HW131664   1.361   0.409   4.106  1.1610 -0.6027  0.1419
 6677SOL    HW231665   1.344   0.541   4.153  1.6249  0.2479  0.2539
 6678SOL     OW31666   1.898   2.298  16.642 -0.5364 -0.3682 -0.0285
 6678SOL    HW131667   1.971   2.242  16.671  1.9816  2.7630 -0.2682
 6678SOL    HW231668   1.833   2.234  16.615  0.2560 -0.2042 -2.2907
 6679SOL     OW31669   3.743   0.949   6.223  0.3525  0.1524  0.2002
 6679SOL    HW131670   3.737   0.924   6.315 -3.1535 -4.5978 -1.3459
 6679SOL    HW231671   3.807   1.020   6.233 -0.5264  1.0945 -0.8484
 6680SOL     OW31672   1.038   0.047   7.548 -0.1639  0.2893  0.4093
 6680SOL    HW131673   0.980   0.115   7.515 -0.2561 -0.4688 -1.0194
 6680SOL    HW231674   1.043   4.724   7.472 -0.6388  0.5638  0.1690
 6681SOL     OW31675   3.529   2.799   7.515  0.2921 -0.2867  0.0758
 6681SOL    HW131676   3.584   2.813   7.592 -1.0271  0.2358  0.9230
 6681SOL    HW231677   3.504   2.706   7.508  1.0973 -0.7866  4.3710
 6682SOL     OW31678   0.637   0.360   9.486 -0.0661 -0.4142  0.4560
 6682SOL    HW131679   0.598   0.376   9.572  0.5181 -0.7339  0.7800
 6682SOL    HW231680   0.630   0.265   9.486 -2.3993 -0.2410  0.9156
 6683SOL     OW31681   2.882   1.344   4.300  0.4462 -0.2744  0.1440
 6683SOL    HW131682   2.968   1.382   4.319 -0.3176  1.4912  0.0472
 6683SOL    HW231683   2.899   1.314   4.211  0.3868  0.9748 -0.2921
 6684SOL     OW31684   3.896   4.480  13.168 -0.2863  0.0947 -0.6207
 6684SOL    HW131685   3.899   4.385  13.161  0.6432 -0.0637  1.8234
 6684SOL    HW231686   3.906   4.506  13.077 -0.9208 -1.9985 -1.2672
 6685SOL     OW31687   0.995   0.378   2.631  0.1757  0.4964 -0.0216
 6685SOL    HW131688   0.984   0.284   2.611  2.8222  0.2472 -0.2600
 6685SOL    HW231689   1.084   0.392   2.601  0.5154 -0.1018  0.6918
 6686SOL     OW31690   1.186   3.082   4.606  0.5095 -0.1498  0.3253
 6686SOL    HW131691   1.208   3.049   4.519  0.8307  0.5657  0.1427
 6686SOL    HW231692   1.231   3.165   4.618 -1.6768  1.2713 -1.3809
 6687SOL     OW31693   0.359   0.219   5.466  0.4165 -0.4481 -0.2019
 6687SOL    HW131694   0.326   0.242   5.380 -0.9847  0.4413  0.5830
 6687SOL    HW231695   0.440   0.270   5.469  0.2409 -0.1606 -0.3745
 6688SOL     OW31696   3.719   4.712  10.070  0.1270  0.2649  0.0502
 6688SOL    HW131697   3.751   4.622  10.062  0.0704  0.2250  0.2608
 6688SOL    HW231698   3.626   4.701  10.091 -0.6344  2.7445 -2.1399
 6689SOL     OW31699   4.087   1.424   6.482  0.1225  0.2952 -0.6676
 6689SOL    HW131700   4.125   1.345   6.520 -2.0176 -0.3908  0.0320
 6689SOL    HW231701   4.160   1.486   6.471  0.7282 -0.3262 -0.1325
 6690SOL     OW31702   4.445   4.378   9.707 -0.4337 -0.2800 -0.0056
 6690SOL    HW131703   4.520   4.327   9.738  0.4109  0.3030 -1.1046
 6690SOL    HW231704   4.381   4.326   9.754 -0.7260 -1.3360 -1.5725
 6691SOL     OW31705   1.625   1.386   3.716 -0.4717  0.1157 -0.0365
 6691SOL    HW131706   1.705   1.389   3.663 -1.0271 -0.5081 -0.9108
 6691SOL    HW231707   1.635   1.297   3.749 -1.0768  0.7047  1.7642
 6692SOL     OW31708   1.830   3.680  12.010  0.8170  0.0380 -0.4224
 6692SOL    HW131709   1.883   3.638  12.078  0.5876  0.6017  0.1035
 6692SOL    HW231710   1.786   3.612  11.960  1.1306 -0.0648 -0.5582
 6693SOL     OW31711   4.537   0.633   1.287 -0.0380 -0.2286 -0.3324
 6693SOL    HW131712   4.533   0.666   1.377  2.1217 -1.6901  0.3058
 6693SOL    HW231713   4.610   0.573   1.302 -0.2086 -0.5351 -0.7393
 6694SOL     OW31714   1.556   1.515   1.801  0.6057 -0.1866  0.0394
 6694SOL    HW131715   1.635   1.559   1.832  1.5056 -1.7445 -0.0655
 6694SOL    HW231716   1.555   1.432   1.848  1.3345  1.7599  3.4925
 6695SOL     OW31717   3.467   2.961   6.454 -0.1384  0.2433 -0.4275
 6695SOL    HW131718   3.383   2.925   6.481  0.7247  0.3654  2.4201
 6695SOL    HW231719   3.472   2.948   6.360 -0.8435 -0.2834 -0.3932
 6696SOL     OW31720   0.993   3.295   8.592  0.2832 -0.4555  0.3701
 6696SOL    HW131721   0.903   3.325   8.579 -0.1306 -1.9285 -0.1706
 6696SOL    HW231722   1.024   3.318   8.679  0.6373 -0.2773  0.2007
 6697SOL     OW31723   0.933   1.776   4.709  0.2436  0.0838 -0.0183
 6697SOL    HW131724   0.953   1.683   4.710 -1.3090 -0.2292  0.8468
 6697SOL    HW231725   1.017   1.806   4.744  0.0665  1.0917 -0.4636
 6698SOL     OW31726   0.548   3.470   7.553 -0.5790 -0.8556  0.1146
 6698SOL    HW131727   0.596   3.405   7.503 -1.3190 -1.8053  0.6310
 6698SOL    HW231728   0.523   3.416   7.629  2.0333 -0.3365  1.3260
 6699SOL     OW31729   1.413   1.075   4.436  0.1150 -0.1487 -0.0416
 6699SOL    HW131730   1.500   1.104   4.464 -0.4273  0.2751  1.2104
 6699SOL    HW231731   1.369   1.160   4.431  0.3742  0.0055  0.2952
 6700SOL     OW31732   1.127   2.297   0.734  0.4299  0.1959 -0.6272
 6700SOL    HW131733   1.180   2.298   0.655  0.8893 -0.6954 -0.3335
 6700SOL    HW231734   1.188   2.267   0.802 -1.2663 -1.0173  0.3868
 6701SOL     OW31735   4.370   3.619   8.840  0.4838  0.3489  0.6550
 6701SOL    HW131736   4.423   3.664   8.906 -1.9235  1.1133  2.0719
 6701SOL    HW231737   4.310   3.563   8.889 -0.8425  1.0267 -0.1679
 6702SOL     OW31738   4.352   1.244   4.025 -0.3291  0.2689 -0.5531
 6702SOL    HW131739   4.396   1.253   3.941  0.7167 -0.7275 -0.1061
 6702SOL    HW231740   4.424   1.271   4.082 -0.0329 -0.7082 -0.4530
 6703SOL     OW31741   1.822   4.729  10.440  0.2279  0.1700  0.0692
 6703SOL    HW131742   1.870   4.667  10.495  1.0129  1.8347  1.2483
 6703SOL    HW231743   1.758   4.671  10.399  0.3471 -1.1877  1.7928
 6704SOL     OW31744   0.019   1.954   5.258 -0.2834  0.5639  0.5568
 6704SOL    HW131745   0.037   2.048   5.262 -0.6262  0.5612  1.9298
 6704SOL    HW231746   0.109   1.927   5.236 -0.8437 -0.0255 -1.0438
 6705SOL     OW31747   1.114   1.905   7.751 -0.4049 -1.1021 -0.3269
 6705SOL    HW131748   1.155   1.892   7.665 -0.9233 -2.4903 -0.3699
 6705SOL    HW231749   1.175   1.962   7.797 -0.7642 -1.1000  0.1442
 6706SOL     OW31750   1.942   2.067  15.349  0.1474 -0.3722 -0.4156
 6706SOL    HW131751   2.025   2.101  15.315  1.7746 -0.7589  3.1306
 6706SOL    HW231752   1.882   2.135  15.317  1.7233  0.7131 -1.0468
 6707SOL     OW31753   4.659   3.178   3.891 -0.2499  0.2582 -0.7698
 6707SOL    HW131754   4.649   3.085   3.911 -2.3578  1.2038  2.8404
 6707SOL    HW231755   4.726   3.205   3.955 -1.1380 -1.4624  0.8997
 6708SOL     OW31756   1.303   1.913   2.122  0.7213 -0.2859 -0.0354
 6708SOL    HW131757   1.233   1.977   2.128  1.4947  0.4625  0.9538
 6708SOL    HW231758   1.374   1.957   2.169 -0.4502  0.4526  1.0274
 6709SOL     OW31759   2.922   2.633   4.831 -0.7186 -0.2752  0.2385
 6709SOL    HW131760   2.984   2.598   4.895 -1.8509 -3.0317 -0.1737
 6709SOL    HW231761   2.949   2.593   4.749 -0.2716  2.1608 -0.8104
 6710SOL     OW31762   3.243   1.494   8.806  0.1542  0.0557  0.0245
 6710SOL    HW131763   3.283   1.483   8.720 -0.7978 -2.0995 -0.1241
 6710SOL    HW231764   3.171   1.432   8.797 -0.5720  0.9314 -0.1872
 6711SOL     OW31765   1.263   4.634  16.650  0.3082  0.3779 -0.0303
 6711SOL    HW131766   1.260   4.615  16.556  2.3774 -0.8353  0.1549
 6711SOL    HW231767   1.219   4.556  16.683 -0.2828  0.5100 -0.4900
 6712SOL     OW31768   2.191   0.132   0.786  0.7565  0.2482 -0.4163
 6712SOL    HW131769   2.175   0.224   0.808 -0.6285  0.3783 -2.0281
 6712SOL    HW231770   2.245   0.122   0.865  0.0103  3.2089  0.4594
 6713SOL     OW31771   1.708   2.651   8.842 -0.0931 -0.9450 -0.0539
 6713SOL    HW131772   1.640   2.595   8.879  0.8998 -1.1012  1.5134
 6713SOL    HW231773   1.675   2.679   8.756 -0.3329 -1.3359 -0.0893
 6714SOL     OW31774   2.419   3.213   8.244  0.3974 -0.5384  0.1631
 6714SOL    HW131775   2.491   3.173   8.292  0.2419 -0.4443  0.4750
 6714SOL    HW231776   2.429   3.175   8.156 -1.2919 -0.7698  0.0591
 6715SOL     OW31777   1.669   2.330   1.413 -0.8681 -0.2927 -0.0006
 6715SOL    HW131778   1.714   2.262   1.363 -2.2938  0.1181 -1.8723
 6715SOL    HW231779   1.604   2.351   1.346  0.0392 -0.3870 -0.9070
 6716SOL     OW31780   1.656   1.089   2.130 -0.2264  0.0863 -0.4160
 6716SOL    HW131781   1.736   1.076   2.181  0.0383 -1.1815 -1.1747
 6716SOL    HW231782   1.589   1.101   2.197  1.2185  0.0420  1.0389
 6717SOL     OW31783   1.580   1.595   9.942 -0.1380 -0.1060 -0.0797
 6717SOL    HW131784   1.640   1.667   9.926 -1.3317  0.6444 -1.2517
 6717SOL    HW231785   1.610   1.527   9.881 -1.1351 -1.1512  0.5922
 6718SOL     OW31786   0.846   2.341   8.652  0.0380 -0.4356 -0.1035
 6718SOL    HW131787   0.807   2.353   8.565 -0.8071  0.2905  0.3799
 6718SOL    HW231788   0.836   2.422   8.702 -0.5935 -0.6680  0.1508
 6719SOL     OW31789   2.149   4.300   5.069  0.6706 -0.0043 -1.0065
 6719SOL    HW131790   2.117   4.373   5.123 -1.0409  0.3867 -2.5477
 6719SOL    HW231791   2.079   4.266   5.013 -0.0704 -0.0069 -0.0750
 6720SOL     OW31792   0.311   0.080  10.425  0.0158  0.1561  0.1146
 6720SOL    HW131793   0.234   0.105  10.374  1.5004  0.0165 -2.1897
 6720SOL    HW231794   0.379   0.086  10.358 -1.6235  1.8440 -1.3755
 6721SOL     OW31795   2.688   3.898   5.513 -0.3874 -0.5421 -0.0403
 6721SOL    HW131796   2.692   3.990   5.489  1.5179 -1.1457 -1.9589
 6721SOL    HW231797   2.732   3.867   5.434 -0.6889  0.6781 -0.6929
 6722SOL     OW31798   2.455   1.419   7.327  0.0657  0.3001  0.0672
 6722SOL    HW131799   2.524   1.354   7.339  0.1806  0.5896  0.9809
 6722SOL    HW231800   2.392   1.376   7.386  0.7229 -1.5079 -0.5523
 6723SOL     OW31801   3.910   4.134   4.768 -0.2464 -0.0996  0.4887
 6723SOL    HW131802   3.886   4.103   4.855 -0.7206  0.2770  0.4912
 6723SOL    HW231803   3.830   4.129   4.715 -0.4621 -1.3196  0.9424
 6724SOL     OW31804   3.791   2.404   7.326  0.2108  0.4969 -0.0759
 6724SOL    HW131805   3.789   2.492   7.288 -0.4849  1.1285  1.4414
 6724SOL    HW231806   3.757   2.414   7.415  0.6012  0.2036  0.1048
 6725SOL     OW31807   0.468   0.198   9.953  0.2852  0.2031 -0.3087
 6725SOL    HW131808   0.455   0.288   9.981  0.1868 -0.0941  0.6178
 6725SOL    HW231809   0.387   0.156   9.982  0.0791  0.3996 -0.6015
 6726SOL     OW31810   3.553   1.614   3.747  0.1136 -0.4704 -0.3146
 6726SOL    HW131811   3.570   1.678   3.678 -2.1359 -1.9651 -2.2093
 6726SOL    HW231812   3.564   1.532   3.699 -0.7668  0.7144 -2.5439
 6727SOL     OW31813   3.836   0.089   9.770  0.2756 -0.1738  0.5486
 6727SOL    HW131814   3.866   0.021   9.830  2.6107  0.5968  0.2439
 6727SOL    HW231815   3.766   0.044   9.723  2.8590 -2.1670 -1.4122
 6728SOL     OW31816   4.660   0.366   4.777 -0.1756  0.4312 -0.3978
 6728SOL    HW131817   4.637   0.275   4.797 -1.1193  0.5928 -0.7523
 6728SOL    HW231818   4.679   0.406   4.862  1.3251 -0.0943 -0.4937
 6729SOL     OW31819   3.858   0.903  13.939  0.6613  0.3784 -0.1077
 6729SOL    HW131820   3.828   0.989  13.969  1.4647  0.7191 -0.2844
 6729SOL    HW231821   3.776   0.866  13.905  1.3999  0.2442 -1.7706
 6730SOL     OW31822   1.018   4.508   6.828  0.0377  0.1086 -0.0090
 6730SOL    HW131823   1.088   4.453   6.792 -1.2589 -1.7191  0.2822
 6730SOL    HW231824   0.979   4.452   6.895  0.7149  1.5657  1.6080
 6731SOL     OW31825   3.490   0.851  11.637 -0.0350 -0.0227  0.4205
 6731SOL    HW131826   3.563   0.790  11.649 -0.2255  0.4601  3.8387
 6731SOL    HW231827   3.533   0.917  11.582 -1.3505  0.4054 -0.0833
 6732SOL     OW31828   2.286   4.698   9.687 -0.4444 -0.3236  0.2431
 6732SOL    HW131829   2.198   4.676   9.719 -0.1009 -2.3340 -0.1801
 6732SOL    HW231830   2.312   4.609   9.665 -0.9094 -0.0938 -1.1883
 6733SOL     OW31831   4.627   2.841  12.851  1.1777  0.1961  0.3574
 6733SOL    HW131832   4.671   2.923  12.873  0.1129  0.9318 -0.2550
 6733SOL    HW231833   4.564   2.867  12.784 -1.6361 -4.1207  1.2631
 6734SOL     OW31834   2.454   3.981  13.321  0.2621 -0.1052 -0.2126
 6734SOL    HW131835   2.414   3.903  13.280 -0.9810  0.4703 -0.1086
 6734SOL    HW231836   2.465   3.941  13.408  2.0883 -0.4444 -0.6028
 6735SOL     OW31837   4.612   3.291   8.918 -0.3264  0.1993  0.3073
 6735SOL    HW131838   4.629   3.268   8.826  1.3513 -0.4627  0.7903
 6735SOL    HW231839   4.518   3.272   8.908 -0.2268 -0.0565 -0.1710
 6736SOL     OW31840   4.305   2.682   4.593 -0.3424  0.0698 -0.3159
 6736SOL    HW131841   4.354   2.646   4.667 -0.7567 -1.2584 -0.6905
 6736SOL    HW231842   4.373   2.653   4.532 -0.6546  1.1516 -1.1882
 6737SOL     OW31843   3.326   1.508   9.635  0.5993 -0.1089  0.4937
 6737SOL    HW131844   3.418   1.522   9.659  0.6893  0.2218 -0.0591
 6737SOL    HW231845   3.294   1.598   9.641  1.7103  0.3629 -0.6939
 6738SOL     OW31846   1.983   3.347  12.680 -0.0441 -0.1039  0.3856
 6738SOL    HW131847   1.909   3.296  12.646  0.0781 -0.0179 -0.0105
 6738SOL    HW231848   2.019   3.272  12.726 -0.7043 -0.3458  0.5106
 6739SOL     OW31849   2.829   3.693   3.123 -0.1879  0.0169 -0.7767
 6739SOL    HW131850   2.859   3.711   3.034  1.7864 -0.7450 -0.2564
 6739SOL    HW231851   2.912   3.710   3.168 -1.3676 -1.5821  2.0095
 6740SOL     OW31852   1.032   4.474   2.188 -1.2477 -0.0516 -0.6981
 6740SOL    HW131853   0.953   4.496   2.236 -0.5969 -1.1774  0.8667
 6740SOL    HW231854   1.057   4.560   2.155 -1.9785  0.3269 -0.2517
 6741SOL     OW31855   0.612   2.582   7.364  0.3527  0.3332 -0.0288
 6741SOL    HW131856   0.643   2.515   7.304  1.0870  1.1241 -0.5482
 6741SOL    HW231857   0.519   2.588   7.342  0.1102 -1.2030  0.6056
 6742SOL     OW31858   0.191   4.431   3.558 -0.3208  0.7209 -0.0459
 6742SOL    HW131859   0.167   4.485   3.633 -0.0776  1.7218 -0.6851
 6742SOL    HW231860   0.150   4.347   3.578 -1.6511  1.5117  0.4911
 6743SOL     OW31861   2.810   0.507  10.988 -0.1296 -0.2598 -0.4493
 6743SOL    HW131862   2.778   0.597  10.994  2.5052  0.5624  1.1744
 6743SOL    HW231863   2.895   0.521  11.029 -0.3546  2.9164 -1.0739
 6744SOL     OW31864   0.909   4.611  13.272  0.1908 -0.3402 -0.3202
 6744SOL    HW131865   0.985   4.663  13.297 -0.4793  0.0518  0.8579
 6744SOL    HW231866   0.879   4.567  13.351 -0.9004 -1.2543 -1.2427
 6745SOL     OW31867   3.961   4.271   6.399 -0.7252 -0.2952 -0.2768
 6745SOL    HW131868   3.986   4.179   6.392 -0.9836 -0.4622  1.0397
 6745SOL    HW231869   3.931   4.280   6.489  0.8085 -1.5330  0.3460
 6746SOL     OW31870   0.263   4.118   4.314 -0.1750  0.9847  0.3101
 6746SOL    HW131871   0.247   4.188   4.377  0.6622  0.5725  0.9748
 6746SOL    HW231872   0.188   4.060   4.332  1.7340 -1.6613 -0.2230
 6747SOL     OW31873   2.137   1.421  16.254 -0.0852 -0.1316  0.7162
 6747SOL    HW131874   2.121   1.478  16.330  0.2934  0.4929  0.3346
 6747SOL    HW231875   2.176   1.487  16.197  0.5323  0.5483  1.9002
 6748SOL     OW31876   4.216   3.479   3.144 -0.4153 -0.1442  0.1407
 6748SOL    HW131877   4.219   3.475   3.239  1.5002 -0.6106  0.0572
 6748SOL    HW231878   4.129   3.442   3.128  0.2426 -0.7554 -2.0750
 6749SOL     OW31879   1.343   4.595   8.880 -0.5169  0.5083 -0.2997
 6749SOL    HW131880   1.354   4.501   8.896  2.0403  1.1665  1.7259
 6749SOL    HW231881   1.378   4.636   8.959 -1.9014 -0.9526  1.0859
 6750SOL     OW31882   0.363   4.233   6.797 -0.0983 -0.6066 -0.4067
 6750SOL    HW131883   0.332   4.254   6.708  2.3016  0.3536 -1.0178
 6750SOL    HW231884   0.343   4.141   6.814  1.1509 -0.9149 -0.6489
 6751SOL     OW31885   0.192   0.133   9.983  0.3365  0.5995 -0.1943
 6751SOL    HW131886   0.186   0.051   9.935  0.3997 -0.7677  2.1031
 6751SOL    HW231887   0.178   0.197   9.914 -2.9509  1.2985  1.1174
 6752SOL     OW31888   4.158   2.588   3.108  0.7249 -0.5788  0.5181
 6752SOL    HW131889   4.099   2.592   3.183  1.5798 -1.2529  1.2279
 6752SOL    HW231890   4.111   2.641   3.043  1.6011 -0.8558 -0.3443
 6753SOL     OW31891   0.894   3.199   1.400  0.1805 -0.6359 -0.1923
 6753SOL    HW131892   0.851   3.204   1.315  1.5723 -0.0433 -0.8570
 6753SOL    HW231893   0.899   3.107   1.426 -0.3163 -0.5049  0.3760
 6754SOL     OW31894   1.639   0.818  12.804  0.0596  0.0711 -0.0947
 6754SOL    HW131895   1.720   0.838  12.757 -1.1968  0.2029 -2.1838
 6754SOL    HW231896   1.576   0.846  12.739 -1.3707  0.7797  1.5910
 6755SOL     OW31897   2.843   0.831   3.269  0.2456  0.0503  0.3426
 6755SOL    HW131898   2.909   0.804   3.205 -0.4266 -0.2629 -0.2090
 6755SOL    HW231899   2.875   0.915   3.304  0.1716 -0.8217  2.4875
 6756SOL     OW31900   3.398   3.948   5.592  0.4722 -0.4117 -0.2765
 6756SOL    HW131901   3.352   4.033   5.595 -0.4857 -0.9064 -0.8569
 6756SOL    HW231902   3.370   3.923   5.504  0.1548  0.5034 -0.4420
 6757SOL     OW31903   3.803   0.584  13.617  0.8363  0.2254 -0.3397
 6757SOL    HW131904   3.777   0.584  13.709 -0.7987 -1.5109 -0.7923
 6757SOL    HW231905   3.771   0.670  13.589  1.9006  0.5413 -0.5896
 6758SOL     OW31906   4.166   4.020   4.909 -0.0628 -0.5315  0.9894
 6758SOL    HW131907   4.248   3.986   4.873  0.0279 -0.9746  1.6006
 6758SOL    HW231908   4.105   3.987   4.844  1.3303 -1.7829  0.3215
 6759SOL     OW31909   0.263   1.265   6.576  0.5159 -0.5669  0.2741
 6759SOL    HW131910   0.302   1.179   6.566  0.4936 -0.3870 -1.2802
 6759SOL    HW231911   0.178   1.247   6.616  0.8878 -0.3157  1.1810
 6760SOL     OW31912   0.695   2.311   9.131 -0.1717  0.6688 -0.5172
 6760SOL    HW131913   0.724   2.283   9.044  1.9840  0.7594  0.1906
 6760SOL    HW231914   0.613   2.260   9.131 -1.3127  2.5203 -0.0493
 6761SOL     OW31915   0.955   4.069   1.502 -0.6589 -0.1788 -0.2792
 6761SOL    HW131916   0.926   4.151   1.542  0.4423  0.0674  0.0124
 6761SOL    HW231917   0.875   4.018   1.513 -1.4089  1.5497  2.4689
 6762SOL     OW31918   3.416   4.575   8.590 -0.2989  0.6392 -0.5873
 6762SOL    HW131919   3.343   4.532   8.634 -0.0816 -0.1272 -0.9874
 6762SOL    HW231920   3.376   4.586   8.504  3.5788  1.0279 -2.3517
 6763SOL     OW31921   2.061   1.160   4.852 -0.7639  0.1088 -0.5604
 6763SOL    HW131922   2.026   1.071   4.856  2.1721 -0.9756  0.7769
 6763SOL    HW231923   2.069   1.188   4.943 -0.1254 -3.0172  0.3555
 6764SOL     OW31924   3.337   1.116   2.465 -0.5267  0.5208  0.4788
 6764SOL    HW131925   3.241   1.107   2.459 -0.4177 -0.7091  0.6062
 6764SOL    HW231926   3.347   1.194   2.409  0.0778 -1.3058 -1.9397
 6765SOL     OW31927   2.085   1.657   7.284  0.6350  0.3991  0.2666
 6765SOL    HW131928   2.112   1.594   7.217  0.6147  0.4134  0.2451
 6765SOL    HW231929   2.008   1.611   7.318  0.5522  1.6144  1.7254
 6766SOL     OW31930   3.705   4.648   8.646 -0.5095  0.7206  0.1727
 6766SOL    HW131931   3.711   4.652   8.741 -0.8838 -3.0863  0.3388
 6766SOL    HW231932   3.610   4.643   8.637 -0.0645 -3.9838 -1.9774
 6767SOL     OW31933   0.642   2.354   5.071  0.2543 -0.3685 -0.0027
 6767SOL    HW131934   0.685   2.357   5.156  1.1930 -1.5107 -0.4395
 6767SOL    HW231935   0.577   2.424   5.084 -0.0192 -1.0393  2.2033
 6768SOL     OW31936   1.935   0.834   3.547 -0.5459  0.1269 -0.3660
 6768SOL    HW131937   1.913   0.752   3.501  2.5198  0.0362 -1.6413
 6768SOL    HW231938   1.991   0.876   3.482  1.9990 -1.6771  0.6494
 6769SOL     OW31939   3.530   3.940  13.409 -0.0250  0.1860  0.0430
 6769SOL    HW131940   3.606   3.881  13.417 -0.0713  0.2011  0.5898
 6769SOL    HW231941   3.569   4.026  13.422  0.0890  0.1503 -0.0602
 6770SOL     OW31942   1.391   1.542   2.623  0.0868 -0.5457 -0.4086
 6770SOL    HW131943   1.323   1.493   2.578  1.4322 -0.4666 -2.5326
 6770SOL    HW231944   1.434   1.484   2.687 -3.0515 -0.7445  1.5030
 6771SOL     OW31945   4.160   0.457   6.002 -0.3072  0.1809 -0.0114
 6771SOL    HW131946   4.196   0.371   6.024 -1.4576 -0.1450  0.5957
 6771SOL    HW231947   4.070   0.452   6.032  0.2968  0.3639  1.8218
 6772SOL     OW31948   2.451   3.867   7.006  0.0484 -0.1250 -0.1153
 6772SOL    HW131949   2.469   3.843   7.097  1.3674  1.4907  0.0537
 6772SOL    HW231950   2.527   3.839   6.956 -0.9681 -1.3159 -1.0130
 6773SOL     OW31951   1.866   2.420   2.117 -0.0592  0.3882 -0.5953
 6773SOL    HW131952   1.948   2.470   2.121 -0.1976  0.3353  2.9644
 6773SOL    HW231953   1.801   2.479   2.156  0.8978  0.7439  0.4613
 6774SOL     OW31954   1.260   2.646   8.638  0.7506  0.7620 -0.3684
 6774SOL    HW131955   1.325   2.582   8.666  0.0809 -0.2813 -1.1862
 6774SOL    HW231956   1.194   2.620   8.702  1.1282  0.8035  0.0312
 6775SOL     OW31957   1.657   2.871   8.283  0.3030  0.6469 -0.7211
 6775SOL    HW131958   1.753   2.865   8.281  0.3860  1.0593  2.8491
 6775SOL    HW231959   1.624   2.931   8.217  1.5253  1.3164 -0.7268
 6776SOL     OW31960   3.564   4.415   3.332  0.0994 -0.3174 -0.2767
 6776SOL    HW131961   3.574   4.500   3.376  0.3047 -1.2880  1.5332
 6776SOL    HW231962   3.601   4.434   3.245  0.1079 -1.2264 -0.4689
 6777SOL     OW31963   4.149   2.841   6.040 -0.1173  0.5012 -1.1072
 6777SOL    HW131964   4.242   2.865   6.050 -1.0778  3.2719  1.0904
 6777SOL    HW231965   4.112   2.925   6.068 -1.0093 -0.7304  1.3308
 6778SOL     OW31966   1.101   2.731   2.149 -0.4106  0.3215  0.9020
 6778SOL    HW131967   1.025   2.754   2.202  0.2327  1.8985  1.1124
 6778SOL    HW231968   1.064   2.657   2.100 -1.6436  2.0819 -0.8233
 6779SOL     OW31969   3.119   4.226   8.456  0.3844  0.0740 -0.0539
 6779SOL    HW131970   3.176   4.276   8.514  0.3899 -0.2634  0.2367
 6779SOL    HW231971   3.032   4.262   8.473  0.8017  1.5772 -1.0923
 6780SOL     OW31972   0.959   0.873  17.675  0.4063  0.1792 -0.8380
 6780SOL    HW131973   0.925   0.792  17.636 -0.0897  0.1500 -0.3412
 6780SOL    HW231974   1.040   0.855  17.724 -0.7623  3.1649  2.1254
 6781SOL     OW31975   2.583   4.135   9.200 -0.3808  0.2370  0.2419
 6781SOL    HW131976   2.667   4.091   9.194  0.5356  1.8379  1.4586
 6781SOL    HW231977   2.598   4.172   9.287  1.0297  0.4989 -0.1160
 6782SOL     OW31978   4.379   2.570   9.404 -0.0241  0.3742 -0.2614
 6782SOL    HW131979   4.307   2.547   9.463 -0.8055  2.3763 -0.4373
 6782SOL    HW231980   4.446   2.594   9.468  0.7603 -1.0226 -0.5519
 6783SOL     OW31981   2.223   1.318   1.923 -0.4903  0.1798  0.0122
 6783SOL    HW131982   2.215   1.224   1.938  0.6222  0.2503  1.0162
 6783SOL    HW231983   2.195   1.331   1.832  3.0118 -0.3652 -1.1619
 6784SOL     OW31984   3.029   0.127  13.625  0.6114 -0.2563 -0.0336
 6784SOL    HW131985   3.003   0.121  13.533 -2.9584 -0.5725  0.9703
 6784SOL    HW231986   3.075   0.211  13.632  1.7727 -0.9714  0.9945
 6785SOL     OW31987   0.544   2.780   7.015 -0.9247  0.0744 -0.3516
 6785SOL    HW131988   0.498   2.858   6.984 -0.6564  1.7088  3.3339
 6785SOL    HW231989   0.485   2.715   6.977  1.1134 -0.6424 -2.3286
 6786SOL     OW31990   1.016   4.148   3.928  0.1866  0.1737 -0.7139
 6786SOL    HW131991   0.930   4.121   3.960  1.1149 -0.6691  1.0928
 6786SOL    HW231992   0.993   4.189   3.845  1.4242 -0.3533 -1.3181
 6787SOL     OW31993   0.902   2.702   2.905  0.1232 -0.0710 -0.2202
 6787SOL    HW131994   0.986   2.707   2.952  0.8863 -0.8748 -1.4874
 6787SOL    HW231995   0.904   2.613   2.871  1.0366  0.1193 -0.6741
 6788SOL     OW31996   1.215   3.076   1.160  0.0884 -0.1309 -0.6694
 6788SOL    HW131997   1.120   3.068   1.160  0.1285 -0.5008  0.7164
 6788SOL    HW231998   1.257   2.992   1.148 -0.9156 -0.0443 -4.8587
 6789SOL     OW31999   0.969   0.354  13.676 -0.7063 -0.0727  0.3413
 6789SOL    HW132000   0.966   0.264  13.642 -2.7730 -0.8613  2.5659
 6789SOL    HW232001   0.918   0.335  13.755  0.7258 -0.0748  1.2495
 6790SOL     OW32002   0.376   1.278  17.083  0.3354 -0.0469  0.0909
 6790SOL    HW132003   0.338   1.347  17.136  0.9395  2.2514 -2.4838
 6790SOL    HW232004   0.388   1.335  17.007 -0.9410 -2.3164 -1.8173
 6791SOL     OW32005   1.705   1.676   7.089 -0.0094  0.2188  0.6542
 6791SOL    HW132006   1.614   1.673   7.119 -0.6245  1.4906 -1.0586
 6791SOL    HW232007   1.713   1.581   7.081  0.6412  0.7066 -4.3908
 6792SOL     OW32008   0.042   1.223   5.897  0.5582 -0.0370 -0.4056
 6792SOL    HW132009   0.025   1.306   5.940 -0.5218 -1.6269  2.2597
 6792SOL    HW232010   4.696   1.175   5.913  1.0305 -0.6509  0.1590
 6793SOL     OW32011   0.787   1.240   2.825  0.3801  0.8536  0.1227
 6793SOL    HW132012   0.774   1.331   2.851 -0.5075  0.2196  1.8675
 6793SOL    HW232013   0.856   1.210   2.884 -1.2509 -3.5325 -0.1863
 6794SOL     OW32014   2.690   4.426   9.107 -0.3933 -0.8850 -0.2409
 6794SOL    HW132015   2.662   4.349   9.158  3.9760 -2.6654 -0.5167
 6794SOL    HW232016   2.688   4.488   9.180 -1.3676 -1.9212  0.6278
 6795SOL     OW32017   2.424   4.456   8.686 -0.1056  0.1203  0.5167
 6795SOL    HW132018   2.394   4.411   8.765 -1.4269  2.2637  1.2781
 6795SOL    HW232019   2.361   4.529   8.691 -0.5654 -0.2293 -0.1748
 6796SOL     OW32020   4.108   3.403   4.263 -0.1752  0.2754 -0.0188
 6796SOL    HW132021   4.139   3.320   4.226 -1.5246  0.0937 -0.7671
 6796SOL    HW232022   4.111   3.388   4.357 -2.6279  0.4245  0.0872
 6797SOL     OW32023   3.422   4.168  10.293  0.0407  0.5116  0.5653
 6797SOL    HW132024   3.450   4.106  10.360  0.3886  1.1641  1.0165
 6797SOL    HW232025   3.371   4.225  10.350  1.4901  0.9776  1.3822
 6798SOL     OW32026   2.212   2.298  15.953 -0.0629  0.4601 -0.0579
 6798SOL    HW132027   2.196   2.348  16.033 -2.4546  0.9890 -0.8837
 6798SOL    HW232028   2.215   2.358  15.879  2.1028 -0.1959 -0.5126
 6799SOL     OW32029   1.503   2.668   5.109  0.0056  0.3314  0.0083
 6799SOL    HW132030   1.539   2.590   5.066 -2.0161 -0.1264 -0.8734
 6799SOL    HW232031   1.573   2.690   5.170  0.3237 -3.9734  1.2394
 6800SOL     OW32032   4.058   0.008   3.012  0.0876 -0.2615 -0.8298
 6800SOL    HW132033   4.141   0.048   3.040  1.1253 -1.7565 -1.7712
 6800SOL    HW232034   3.996   0.060   3.063 -2.4248 -0.9096 -3.2681
 6801SOL     OW32035   3.193   0.048  11.930 -0.2717 -0.0333  0.1403
 6801SOL    HW132036   3.130   0.013  11.867 -0.4901 -0.5276  0.6366
 6801SOL    HW232037   3.246   0.094  11.865 -0.0652 -0.1932  0.1969
 6802SOL     OW32038   2.449   1.781   7.768  0.6048  0.7071  0.1328
 6802SOL    HW132039   2.498   1.746   7.693 -0.8727 -0.1848 -0.4211
 6802SOL    HW232040   2.521   1.799   7.828  1.7705 -0.8315 -0.8146
 6803SOL     OW32041   1.755   4.547   7.659 -0.2466 -0.3171  0.1933
 6803SOL    HW132042   1.825   4.487   7.685  1.1159  1.5282  0.8677
 6803SOL    HW232043   1.709   4.531   7.741 -1.2756 -1.7751 -0.6850
 6804SOL     OW32044   4.640   0.800   2.697 -0.0792 -0.1342  0.1433
 6804SOL    HW132045   4.637   0.893   2.720  0.5909 -0.2222  0.5875
 6804SOL    HW232046   4.700   0.802   2.622 -2.2197  0.9072 -1.5599
 6805SOL     OW32047   1.568   2.463   6.513  0.0843  0.4264  0.5268
 6805SOL    HW132048   1.490   2.422   6.550  0.6124 -0.2715  0.8412
 6805SOL    HW232049   1.614   2.386   6.481  0.3454  1.0524 -0.6209
 6806SOL     OW32050   4.720   1.654   0.908  0.9131 -0.2316  0.6331
 6806SOL    HW132051   0.072   1.619   0.924 -0.0101 -2.1374  1.4867
 6806SOL    HW232052   4.663   1.578   0.916 -0.4767  0.8317  0.7121
 6807SOL     OW32053   2.121   0.921   8.530  0.3043 -0.3105 -0.7149
 6807SOL    HW132054   2.053   0.869   8.486  1.0734 -1.7722 -0.1990
 6807SOL    HW232055   2.171   0.940   8.451  0.2158  0.1184 -0.6671
 6808SOL     OW32056   1.684   4.378   4.850  0.5377 -0.1135  0.3819
 6808SOL    HW132057   1.606   4.388   4.795  1.2317  0.1833 -0.5455
 6808SOL    HW232058   1.644   4.335   4.925 -0.8887 -0.8924 -0.8046
 6809SOL     OW32059   3.806   1.670  16.200 -0.1911  0.2519 -0.4236
 6809SOL    HW132060   3.836   1.758  16.180  0.1302  0.2448  0.0457
 6809SOL    HW232061   3.889   1.623  16.195  0.1237  0.8663 -1.0179
 6810SOL     OW32062   3.169   0.217  14.811  0.1134 -0.0398  0.1052
 6810SOL    HW132063   3.105   0.164  14.858 -1.2945 -1.6279 -3.5791
 6810SOL    HW232064   3.103   0.275  14.774 -0.0600 -0.9356 -1.0139
 6811SOL     OW32065   1.147   4.447  16.020  0.0767  0.1765 -0.3995
 6811SOL    HW132066   1.214   4.384  16.049  0.1187 -0.3844 -1.6950
 6811SOL    HW232067   1.122   4.463  16.111  1.7107  2.0637 -0.2757
 6812SOL     OW32068   2.985   0.031   7.401 -0.4611 -0.0595  0.1172
 6812SOL    HW132069   2.973   0.121   7.371  2.3007  0.6057  1.0309
 6812SOL    HW232070   2.948   0.039   7.489  1.3458 -0.4326  0.9220
 6813SOL     OW32071   2.289   2.541   0.913  0.4725  0.4770  0.3131
 6813SOL    HW132072   2.210   2.489   0.897  0.2146  0.2241  2.3845
 6813SOL    HW232073   2.262   2.606   0.977  0.1896 -1.3492  2.0626
 6814SOL     OW32074   0.800   2.956   9.688 -0.6139  0.1893  0.2558
 6814SOL    HW132075   0.762   2.894   9.626 -0.2195 -1.2383  1.4281
 6814SOL    HW232076   0.720   2.996   9.723 -0.8459 -0.4218  0.4212
 6815SOL     OW32077   1.723   2.200   9.060  0.4793 -0.0595  0.3791
 6815SOL    HW132078   1.736   2.112   9.095  1.9282 -0.8896 -2.2793
 6815SOL    HW232079   1.813   2.229   9.073  0.5658  0.2646 -0.9792
 6816SOL     OW32080   0.851   1.869   8.943  1.0625 -0.7267 -0.0397
 6816SOL    HW132081   0.832   1.779   8.920  0.7068 -0.6980  0.1347
 6816SOL    HW232082   0.785   1.901   8.882  1.1937 -2.8572 -1.2711
 6817SOL     OW32083   0.189   3.612   1.004 -0.1981  0.9032  0.5344
 6817SOL    HW132084   0.119   3.651   1.056 -2.6614  0.2004 -2.2406
 6817SOL    HW232085   0.143   3.537   0.967  0.4597  2.1791 -2.9302
 6818SOL     OW32086   3.718   0.694   3.025 -0.2908  0.0114 -0.3020
 6818SOL    HW132087   3.785   0.643   3.071  2.7691  0.7955 -3.9280
 6818SOL    HW232088   3.650   0.633   3.055 -0.3537  1.1208  1.8148
 6819SOL     OW32089   2.953   1.041  14.872 -0.0680  0.2924 -0.0053
 6819SOL    HW132090   2.929   1.099  14.944 -1.1364 -0.3685  0.1812
 6819SOL    HW232091   3.020   1.086  14.821 -1.3700  1.8179 -0.3432
 6820SOL     OW32092   3.948   1.302   7.857 -0.2593  0.0820 -0.7903
 6820SOL    HW132093   4.039   1.332   7.855 -0.3268  0.2521 -1.2221
 6820SOL    HW232094   3.932   1.269   7.768  1.0897  0.6660 -1.2431
 6821SOL     OW32095   3.180   2.001  17.015 -0.2879  0.0289  0.0438
 6821SOL    HW132096   3.092   1.994  17.051 -0.4753 -0.9358 -0.6168
 6821SOL    HW232097   3.233   2.034  17.088 -0.1557 -1.2070  0.5039
 6822SOL     OW32098   2.345   3.862   2.773 -0.4194 -0.1013 -0.0291
 6822SOL    HW132099   2.297   3.848   2.854 -2.1257  0.2852 -0.9747
 6822SOL    HW232100   2.436   3.873   2.800 -0.3194 -1.3633  0.1375
 6823SOL     OW32101   3.528   2.555   8.399 -0.0089 -0.0563 -0.2084
 6823SOL    HW132102   3.458   2.561   8.464  0.9642 -0.7554  0.9111
 6823SOL    HW232103   3.602   2.579   8.456  1.8497 -2.6532 -1.5293
 6824SOL     OW32104   4.145   1.993  12.675 -0.8101  0.1218 -0.3319
 6824SOL    HW132105   4.159   2.022  12.585  0.8967 -1.2408 -0.5054
 6824SOL    HW232106   4.078   1.925  12.669  0.1245 -0.6712 -1.7444
 6825SOL     OW32107   2.323   4.614   6.574 -0.4514  0.0920 -1.0359
 6825SOL    HW132108   2.337   4.575   6.660 -0.6378 -1.6552 -1.8026
 6825SOL    HW232109   2.346   4.541   6.516 -0.7750  0.4770 -1.6512
 6826SOL     OW32110   1.556   4.126   6.176  0.7660  0.1328  0.1080
 6826SOL    HW132111   1.520   4.158   6.093  1.0602 -2.7983 -1.1228
 6826SOL    HW232112   1.550   4.199   6.239  0.3671  0.9008 -0.8209
 6827SOL     OW32113   0.727   3.873   5.069 -0.1228 -0.1065  0.0538
 6827SOL    HW132114   0.650   3.879   5.124  0.8678 -0.2958  1.4527
 6827SOL    HW232115   0.736   3.778   5.070 -0.5333 -0.1096  1.8050
 6828SOL     OW32116   2.150   2.608   6.533  0.1249  0.5088 -0.7099
 6828SOL    HW132117   2.223   2.656   6.495 -1.5672  2.2558 -1.7756
 6828SOL    HW232118   2.177   2.581   6.620  3.0459  1.2663 -1.3904
 6829SOL     OW32119   1.591   4.048  16.497 -0.1132  0.8327  0.3860
 6829SOL    HW132120   1.652   4.101  16.445  0.3411  0.7418  0.8246
 6829SOL    HW232121   1.657   4.025  16.562  0.3616  0.8452 -0.0878
 6830SOL     OW32122   4.728   2.661   6.400  0.2528 -0.2907 -0.5026
 6830SOL    HW132123   4.727   2.569   6.425  0.4297 -0.7464 -2.1898
 6830SOL    HW232124   4.641   2.677   6.364  0.5437 -1.1691 -1.5859
 6831SOL     OW32125   3.638   1.973   8.003 -0.1481 -0.1325  0.2125
 6831SOL    HW132126   3.683   2.009   7.927 -0.1879  1.7286  1.0694
 6831SOL    HW232127   3.715   1.935   8.044  1.9288  2.3488 -1.4271
 6832SOL     OW32128   2.469   0.910  14.711 -0.1867  0.3158  0.4129
 6832SOL    HW132129   2.471   1.004  14.728 -1.0075  0.5953 -1.1188
 6832SOL    HW232130   2.513   0.867  14.785 -0.5243  1.0391  1.0292
 6833SOL     OW32131   3.932   0.525   5.808 -0.6743  0.2265  0.1468
 6833SOL    HW132132   3.934   0.574   5.725  1.3231 -0.1574 -0.0426
 6833SOL    HW232133   4.024   0.522   5.834 -0.6412 -0.8400 -0.0875
 6834SOL     OW32134   4.225   3.036  12.680 -0.2796  0.2516  0.3734
 6834SOL    HW132135   4.219   2.954  12.729  0.0061 -0.3944 -0.6811
 6834SOL    HW232136   4.284   3.084  12.738 -0.5067 -0.7081  1.3988
 6835SOL     OW32137   4.695   3.372   9.287 -0.3870  0.0581 -0.4631
 6835SOL    HW132138   0.009   3.302   9.243 -0.8704 -1.5771  1.5926
 6835SOL    HW232139   4.680   3.431   9.213 -1.1454  0.1286 -0.2497
 6836SOL     OW32140   3.747   4.311  11.090  0.7968  0.0269 -0.1417
 6836SOL    HW132141   3.742   4.231  11.037  0.8160 -1.6216  2.3403
 6836SOL    HW232142   3.797   4.284  11.167  0.1437 -2.3766 -0.5295
 6837SOL     OW32143   1.779   3.055   4.684 -0.6137  0.6465  0.1851
 6837SOL    HW132144   1.763   2.961   4.692 -1.0128  0.5339 -1.8350
 6837SOL    HW232145   1.705   3.083   4.631 -0.6564 -0.8244 -0.5334
 6838SOL     OW32146   2.308   4.201   0.209  0.3142  0.5085 -0.5001
 6838SOL    HW132147   2.307   4.258   0.133 -0.3322  0.3465 -0.6122
 6838SOL    HW232148   2.282   4.117   0.171 -2.4604  0.7547  0.8477
 6839SOL     OW32149   3.901   4.442   4.895 -0.2149  0.0557 -0.3559
 6839SOL    HW132150   3.965   4.379   4.862  0.0696  0.1159  0.0802
 6839SOL    HW232151   3.833   4.379   4.919  0.3916 -0.8308 -0.9965
 6840SOL     OW32152   3.575   1.525  11.799  0.0146  0.1370  0.4072
 6840SOL    HW132153   3.606   1.518  11.709  0.4251  0.6319  0.5132
 6840SOL    HW232154   3.639   1.476  11.851 -0.8152 -1.2284  0.1415
 6841SOL     OW32155   2.146   3.600   1.331 -0.6227  0.0641  0.6740
 6841SOL    HW132156   2.116   3.564   1.414  3.7048  3.3301  3.6212
 6841SOL    HW232157   2.206   3.667   1.365 -0.1498 -1.1197  2.1939
 6842SOL     OW32158   2.353   0.508   2.649  0.4085 -0.1355 -0.3845
 6842SOL    HW132159   2.269   0.506   2.696 -0.2766 -2.0467 -1.7019
 6842SOL    HW232160   2.345   0.424   2.604 -0.3449 -0.1910 -0.1455
 6843SOL     OW32161   4.626   2.776   7.568 -0.9728  0.7404 -0.5390
 6843SOL    HW132162   4.560   2.842   7.591 -0.6450  0.9564 -0.2195
 6843SOL    HW232163   4.706   2.824   7.547 -0.2175 -1.1248 -1.8739
 6844SOL     OW32164   2.274   1.664   3.124  0.1563  0.8533  0.0316
 6844SOL    HW132165   2.193   1.690   3.079 -1.1671 -0.4169  1.7173
 6844SOL    HW232166   2.340   1.682   3.056  0.2486 -1.2510 -0.4238
 6845SOL     OW32167   1.390   3.714   9.304 -0.0311 -0.3142 -0.2510
 6845SOL    HW132168   1.298   3.722   9.280 -0.0994 -0.9821 -0.1995
 6845SOL    HW232169   1.421   3.665   9.228  1.7313 -0.1683  0.3761
 6846SOL     OW32170   4.671   3.907   9.782 -0.0354 -0.6379  0.5626
 6846SOL    HW132171   4.620   3.887   9.860 -1.0031  1.5756  0.4966
 6846SOL    HW232172   4.682   3.814   9.759 -0.1518 -0.3493 -0.6767
 6847SOL     OW32173   1.814   2.914  14.462 -0.5523  0.0877 -0.6711
 6847SOL    HW132174   1.797   3.008  14.458 -0.2154  0.2251  1.2107
 6847SOL    HW232175   1.898   2.924  14.506 -1.1328  0.1145  0.4235
 6848SOL     OW32176   2.663   3.346  12.156 -0.2139  0.5434  0.0131
 6848SOL    HW132177   2.753   3.344  12.122 -0.0424  1.4973  0.4293
 6848SOL    HW232178   2.650   3.251  12.155 -2.4565  0.8713 -1.1099
 6849SOL     OW32179   0.249   0.320  11.671 -0.1898  0.0363  0.1761
 6849SOL    HW132180   0.267   0.267  11.749 -3.5044 -1.4956 -0.0961
 6849SOL    HW232181   0.165   0.292  11.633  0.3243  0.9047 -1.5954
 6850SOL     OW32182   1.547   1.921   7.315 -0.3468 -0.0528 -0.4607
 6850SOL    HW132183   1.456   1.921   7.285 -0.9817  0.9011  1.4315
 6850SOL    HW232184   1.552   2.010   7.349  0.4004 -0.1517 -0.3063
 6851SOL     OW32185   3.081   4.603  15.766 -0.3506 -0.0519  0.0734
 6851SOL    HW132186   3.062   4.660  15.691  1.7332  2.7159  1.6515
 6851SOL    HW232187   3.147   4.545  15.729 -1.0679 -0.3370 -0.7526
 6852SOL     OW32188   2.692   4.573   7.249  0.0371  0.3967 -0.4063
 6852SOL    HW132189   2.782   4.599   7.225  0.2265  0.0295 -0.0963
 6852SOL    HW232190   2.696   4.484   7.216 -1.1903 -0.1532  0.9334
 6853SOL     OW32191   1.174   2.911   1.577 -0.4116 -0.2539 -0.0779
 6853SOL    HW132192   1.206   2.978   1.638  1.5717 -1.5251  0.2634
 6853SOL    HW232193   1.250   2.887   1.524 -1.3584 -3.6035  0.0914
 6854SOL     OW32194   1.820   3.440   6.676 -0.1824  0.5650 -0.8524
 6854SOL    HW132195   1.819   3.535   6.689  0.2531  0.6414 -1.3665
 6854SOL    HW232196   1.731   3.407   6.689  0.3844  0.1741  2.1833
 6855SOL     OW32197   1.626   3.968   4.128  0.6568  0.6083  0.3757
 6855SOL    HW132198   1.552   3.944   4.185  0.4035 -1.4611 -0.8262
 6855SOL    HW232199   1.662   4.045   4.173  0.3274  0.9635  0.0374
 6856SOL     OW32200   0.620   3.622  12.352 -0.6314 -0.7726 -0.3373
 6856SOL    HW132201   0.692   3.680  12.327 -0.2976 -1.3950 -0.8190
 6856SOL    HW232202   0.561   3.640  12.279  1.8970 -1.8260 -2.6373
 6857SOL     OW32203   0.658   1.340   5.367 -0.2372 -0.0841 -0.5874
 6857SOL    HW132204   0.720   1.361   5.437  0.3865 -0.3552 -1.0638
 6857SOL    HW232205   0.609   1.266   5.403 -2.9359  1.5991 -0.7891
 6858SOL     OW32206   3.463   4.429  16.177  0.3838 -0.1351 -0.3224
 6858SOL    HW132207   3.530   4.492  16.149 -0.1545  0.0439 -1.2092
 6858SOL    HW232208   3.470   4.433  16.272 -0.6808 -0.0644 -0.2542
 6859SOL     OW32209   0.910   3.837   5.908 -0.0089  0.6153 -0.7212
 6859SOL    HW132210   0.994   3.791   5.908 -0.8753 -0.9637 -0.6064
 6859SOL    HW232211   0.877   3.817   5.995  1.0703 -3.7464 -1.3010
 6860SOL     OW32212   3.621   2.116  17.432 -0.5554 -0.2218  0.1918
 6860SOL    HW132213   3.530   2.146  17.429 -0.6820 -0.5039  1.5517
 6860SOL    HW232214   3.606   2.023  17.418 -0.3660 -0.3844  1.0980
 6861SOL     OW32215   0.103   3.575  12.170 -0.1318  0.4811  0.3142
 6861SOL    HW132216   0.181   3.606  12.125 -0.3060  1.1824  0.5059
 6861SOL    HW232217   0.092   3.499  12.112  1.2072  1.1086 -0.7427
 6862SOL     OW32218   1.625   3.065   0.189  0.4107  0.7761 -0.2811
 6862SOL    HW132219   1.660   2.982   0.155  0.7316 -0.6758  3.5232
 6862SOL    HW232220   1.566   3.036   0.259  0.6407  1.6456  0.2752
 6863SOL     OW32221   2.477   0.243   4.676 -0.0964  0.0587  0.6371
 6863SOL    HW132222   2.513   0.325   4.711  0.6049  0.5405 -1.2425
 6863SOL    HW232223   2.477   0.265   4.583 -0.8295 -1.6492  0.2256
 6864SOL     OW32224   2.944   3.324  16.860 -0.4519 -0.3925 -0.4122
 6864SOL    HW132225   3.012   3.271  16.903  0.3973  0.8560 -0.2223
 6864SOL    HW232226   2.897   3.359  16.935 -0.7280  0.6415 -1.0712
 6865SOL     OW32227   3.950   3.104   5.220 -0.3343 -0.2876 -0.2182
 6865SOL    HW132228   3.972   3.194   5.198  0.4951 -0.3961  0.1758
 6865SOL    HW232229   3.919   3.073   5.135  0.4577  0.0509 -0.6255
 6866SOL     OW32230   3.438   0.130   1.505 -0.2187  0.3023 -0.0149
 6866SOL    HW132231   3.460   0.184   1.429  0.3399  0.5581  0.3251
 6866SOL    HW232232   3.372   0.072   1.466  0.6921  1.0057 -2.5933
 6867SOL     OW32233   2.996   2.428   2.120 -0.0600 -0.1780 -0.5169
 6867SOL    HW132234   3.067   2.397   2.176 -1.2931 -1.1921  0.4971
 6867SOL    HW232235   3.018   2.388   2.036  0.8049  0.8710 -0.7833
 6868SOL     OW32236   0.818   3.687   9.581  0.0233  0.1918  0.4260
 6868SOL    HW132237   0.878   3.759   9.599 -0.4137  0.8657 -0.8037
 6868SOL    HW232238   0.786   3.659   9.666 -0.1234 -1.9484 -0.3220
 6869SOL     OW32239   3.634   0.975  13.755  0.5789 -0.2256  0.2608
 6869SOL    HW132240   3.661   1.067  13.747  1.6048 -0.3997  1.7944
 6869SOL    HW232241   3.563   0.988  13.819  0.2892 -0.1254 -0.0792
 6870SOL     OW32242   0.601   0.110  14.409  0.0814  0.9528 -0.0915
 6870SOL    HW132243   0.650   0.168  14.467  1.3614  0.3531 -0.5758
 6870SOL    HW232244   0.511   0.144  14.403 -0.9050 -1.3366  1.8032
 6871SOL     OW32245   4.334   4.219  16.121 -0.1443 -0.1221  0.2615
 6871SOL    HW132246   4.342   4.271  16.041 -0.6799  0.6286  0.7018
 6871SOL    HW232247   4.263   4.266  16.165 -0.4607  0.0065 -0.3908
 6872SOL     OW32248   2.960   1.849  14.062 -0.1063  0.4491  0.2237
 6872SOL    HW132249   2.880   1.819  14.019 -0.5502 -1.7562  2.6857
 6872SOL    HW232250   2.923   1.880  14.145  2.1388  3.2229  0.2198
 6873SOL     OW32251   3.025   0.512   3.544  0.8933 -0.1974 -0.1034
 6873SOL    HW132252   2.955   0.491   3.483  0.8074  0.6490 -0.2981
 6873SOL    HW232253   2.968   0.561   3.604  0.5638  0.8595 -1.2883
 6874SOL     OW32254   3.131   4.391   6.463  0.2196  0.5079  0.7218
 6874SOL    HW132255   3.215   4.414   6.425 -0.4941  0.7301 -0.7141
 6874SOL    HW232256   3.170   4.336   6.531  0.1077  1.2131  1.3615
 6875SOL     OW32257   3.619   4.081   6.773 -0.0296 -0.4767 -0.1003
 6875SOL    HW132258   3.665   4.000   6.800 -0.5336 -1.2396 -1.5682
 6875SOL    HW232259   3.656   4.100   6.687 -1.2482 -1.1313 -0.7636
 6876SOL     OW32260   3.902   0.599   2.591 -0.2183  0.2839 -0.5129
 6876SOL    HW132261   3.811   0.589   2.560 -0.6035 -0.6416  0.9564
 6876SOL    HW232262   3.912   0.690   2.562 -1.2308  0.7213  0.4920
 6877SOL     OW32263   1.781   1.173   9.677  0.1001  0.2512  0.2601
 6877SOL    HW132264   1.700   1.122   9.668 -1.7641  3.3777 -0.8332
 6877SOL    HW232265   1.847   1.116   9.716  0.0293  1.6770  2.4276
 6878SOL     OW32266   3.868   1.969  16.076  0.0330  0.1262  0.3522
 6878SOL    HW132267   3.945   1.920  16.045 -0.6251  0.3382 -1.6520
 6878SOL    HW232268   3.845   2.017  15.996 -1.8000  1.7472  1.8493
 6879SOL     OW32269   3.574   2.132  14.735 -0.3890  0.5795  0.4226
 6879SOL    HW132270   3.618   2.059  14.779 -0.4327  0.9530  1.0818
 6879SOL    HW232271   3.640   2.201  14.743  1.1010 -0.8256  0.1968
 6880SOL     OW32272   1.060   1.821  14.733 -0.1119 -0.4008 -0.2203
 6880SOL    HW132273   1.148   1.832  14.771 -1.3167 -1.1776  2.7938
 6880SOL    HW232274   1.071   1.850  14.643 -0.8132 -1.3451 -0.6033
 6881SOL     OW32275   4.255   1.848   7.679 -0.1394  0.2626 -0.1506
 6881SOL    HW132276   4.239   1.875   7.588  0.7641  0.9781 -0.0988
 6881SOL    HW232277   4.255   1.753   7.672 -1.9016  0.2295  0.2010
 6882SOL     OW32278   0.356   2.673   2.959 -0.0464  0.1981  0.4705
 6882SOL    HW132279   0.299   2.648   3.032 -1.2691 -0.9281 -0.8671
 6882SOL    HW232280   0.441   2.657   3.000  1.5254  0.4428 -2.7225
 6883SOL     OW32281   1.852   1.637   3.179  0.4364  0.4392 -0.0006
 6883SOL    HW132282   1.844   1.691   3.258  0.3807 -1.3300  1.2179
 6883SOL    HW232283   1.893   1.556   3.210  0.6254  0.3416 -0.5078
 6884SOL     OW32284   4.175   1.675   5.520 -0.0986 -0.4095  0.1192
 6884SOL    HW132285   4.114   1.714   5.458  1.3621  0.7926 -0.5631
 6884SOL    HW232286   4.198   1.596   5.472  0.0674  0.1055 -0.6347
 6885SOL     OW32287   3.415   0.700   9.820 -0.6165  0.8488  0.8892
 6885SOL    HW132288   3.453   0.612   9.828  0.6433  1.3335  0.0867
 6885SOL    HW232289   3.358   0.692   9.897 -1.6353 -0.8303 -0.0280
 6886SOL     OW32290   1.506   0.766  13.037 -0.5779  0.1474  0.1683
 6886SOL    HW132291   1.556   0.706  13.093 -2.6878  0.4751  2.3646
 6886SOL    HW232292   1.559   0.777  12.958  0.5509 -2.9875  0.4788
 6887SOL     OW32293   2.166   2.150  10.115 -0.1994 -0.2629  0.3489
 6887SOL    HW132294   2.204   2.212  10.176  1.8257 -1.3812  0.2168
 6887SOL    HW232295   2.188   2.068  10.160 -1.0082 -1.5980 -1.7047
 6888SOL     OW32296   1.697   0.937   0.395 -0.1043 -0.4024  0.5527
 6888SOL    HW132297   1.740   1.023   0.398  1.0711 -0.9619 -0.4204
 6888SOL    HW232298   1.763   0.877   0.431 -0.1533 -0.8823 -0.1455
 6889SOL     OW32299   0.264   3.441   7.654  0.5016 -0.0043  0.4168
 6889SOL    HW132300   0.197   3.498   7.693  1.9037  1.8308  0.1369
 6889SOL    HW232301   0.290   3.497   7.581  0.0415 -1.1543 -0.6174
 6890SOL     OW32302   4.359   3.065   4.809  0.0928 -0.4315  0.6014
 6890SOL    HW132303   4.393   3.058   4.720  0.4242 -1.3431  0.7951
 6890SOL    HW232304   4.287   3.126   4.792  1.9774  1.6149  0.0033
 6891SOL     OW32305   3.132   3.854  11.818  0.5998 -0.0334  0.5612
 6891SOL    HW132306   3.167   3.929  11.865 -0.2958  0.9526 -0.3358
 6891SOL    HW232307   3.204   3.831  11.760  1.4159  2.3002  0.6592
 6892SOL     OW32308   2.349   2.496  15.258 -0.1348 -0.0824  0.2128
 6892SOL    HW132309   2.433   2.541  15.261  1.2591 -2.6365  0.4034
 6892SOL    HW232310   2.358   2.454  15.344 -1.4894  1.2845  0.9926
 6893SOL     OW32311   0.764   0.681   5.566  0.1118  0.3307 -0.1437
 6893SOL    HW132312   0.773   0.724   5.480  0.4186 -0.1754 -0.3649
 6893SOL    HW232313   0.842   0.707   5.614 -1.3764  1.9524  1.3560
 6894SOL     OW32314   0.560   1.048  14.006 -0.0158 -0.1415  0.2597
 6894SOL    HW132315   0.555   0.988  14.080  1.1822  0.5236  0.8759
 6894SOL    HW232316   0.630   1.001  13.961 -1.5437 -2.5022  0.3783
 6895SOL     OW32317   1.051   4.197  12.438 -0.3598 -0.3576  0.0708
 6895SOL    HW132318   1.023   4.244  12.517 -0.7420  0.3112 -0.4664
 6895SOL    HW232319   1.017   4.111  12.460  0.3797  0.1100  3.1918
 6896SOL     OW32320   1.226   3.480   3.753  0.0226 -0.2319 -0.5142
 6896SOL    HW132321   1.149   3.531   3.725 -1.7269 -1.4674  1.9868
 6896SOL    HW232322   1.289   3.534   3.706 -1.6514  2.7902  0.6755
 6897SOL     OW32323   1.730   1.066   6.279 -0.1447 -0.3578 -0.2802
 6897SOL    HW132324   1.815   1.108   6.288  0.3397 -0.6918 -3.1380
 6897SOL    HW232325   1.755   0.975   6.266  1.0782  0.3398 -2.8377
 6898SOL     OW32326   0.329   2.066   5.894  0.2583 -0.2722 -0.0761
 6898SOL    HW132327   0.331   2.068   5.798 -0.0621 -1.5501 -0.1073
 6898SOL    HW232328   0.331   2.161   5.908 -0.9061 -0.3793  0.8634
 6899SOL     OW32329   2.834   2.535   7.419 -0.1752  0.5519 -0.1740
 6899SOL    HW132330   2.833   2.631   7.415  0.7753  0.6022  1.0223
 6899SOL    HW232331   2.853   2.508   7.329  1.3246 -0.8976  0.5697
 6900SOL     OW32332   2.830   0.542   4.584 -0.2058 -0.0067  0.3867
 6900SOL    HW132333   2.908   0.596   4.593  0.7628 -0.7818 -3.1804
 6900SOL    HW232334   2.784   0.572   4.662  1.3864  0.7783  1.0054
 6901SOL     OW32335   3.674   1.462   7.080 -0.6544  0.1650 -0.0621
 6901SOL    HW132336   3.622   1.510   7.145 -0.0633  0.7283 -0.0086
 6901SOL    HW232337   3.611   1.431   7.015  0.6636 -0.1523 -1.1840
 6902SOL     OW32338   2.380   2.381   1.912  0.4059 -0.0413 -0.2771
 6902SOL    HW132339   2.345   2.292   1.920  0.8435 -0.0002  2.0992
 6902SOL    HW232340   2.413   2.390   2.001  0.6010 -2.0781 -0.1544
 6903SOL     OW32341   2.966   1.904  14.742  0.2555 -0.1769  0.0437
 6903SOL    HW132342   2.967   1.905  14.838  1.1007 -3.3153  0.0451
 6903SOL    HW232343   2.963   1.999  14.730 -1.3309 -0.2925 -0.5762
 6904SOL     OW32344   1.662   3.420  14.948  0.2140  0.1295 -0.4197
 6904SOL    HW132345   1.729   3.354  14.964  0.6196  1.1167  1.9760
 6904SOL    HW232346   1.719   3.491  14.919  0.5298  0.1449  0.2322
 6905SOL     OW32347   2.484   1.019   6.098 -0.0786  0.0995 -0.2630
 6905SOL    HW132348   2.396   1.057   6.103  0.4826  1.3470  0.3194
 6905SOL    HW232349   2.511   1.060   6.015  1.7603  0.2242  0.3956
 6906SOL     OW32350   2.599   3.607  12.195 -0.4145  0.3135  0.4285
 6906SOL    HW132351   2.601   3.522  12.153 -1.4543 -0.0099  1.0108
 6906SOL    HW232352   2.604   3.573  12.285 -1.0529  0.5812  0.5705
 6907SOL     OW32353   2.674   1.563   7.845  0.1066  0.2652  0.3053
 6907SOL    HW132354   2.769   1.569   7.846  0.0114  1.8423  0.3806
 6907SOL    HW232355   2.655   1.604   7.930 -1.1530  0.4039 -0.0424
 6908SOL     OW32356   3.331   2.914   4.245 -0.1849 -0.0227 -0.6134
 6908SOL    HW132357   3.407   2.971   4.232 -0.2979  0.3344  0.2794
 6908SOL    HW232358   3.299   2.885   4.160 -1.1519 -0.5999 -0.0574
 6909SOL     OW32359   0.387   3.994   9.651 -0.3178 -0.3840  0.1273
 6909SOL    HW132360   0.350   3.907   9.637  0.2984 -0.4191 -1.3146
 6909SOL    HW232361   0.305   4.042   9.646  0.2020  0.6721  1.9902
 6910SOL     OW32362   4.676   3.813   7.380  0.2334 -0.1019  0.3558
 6910SOL    HW132363   0.001   3.856   7.319  1.9935 -1.7094  0.9670
 6910SOL    HW232364   0.004   3.810   7.451 -0.2439 -0.3469  0.7729
 6911SOL     OW32365   3.956   0.775   7.052 -0.2234 -0.2848  0.6466
 6911SOL    HW132366   4.035   0.736   7.089  0.2341  0.9254  0.9524
 6911SOL    HW232367   3.887   0.729   7.100  1.0955 -1.6192  1.2620
 6912SOL     OW32368   0.865   2.272   7.640 -0.3129 -0.2392 -0.1284
 6912SOL    HW132369   0.915   2.353   7.633 -0.9255  0.1934  0.5576
 6912SOL    HW232370   0.889   2.252   7.731  0.0873  1.8303  0.2087
 6913SOL     OW32371   0.725   0.423   4.107 -0.2717  0.2362 -0.4858
 6913SOL    HW132372   0.728   0.517   4.121 -0.7993  0.3313 -1.0345
 6913SOL    HW232373   0.820   0.409   4.103 -0.2620 -1.0707  3.6951
 6914SOL     OW32374   4.237   1.433  11.323 -0.1653 -0.4579 -0.6988
 6914SOL    HW132375   4.212   1.523  11.299  0.5890  0.0103  0.2436
 6914SOL    HW232376   4.239   1.431  11.419  3.1078 -2.0013 -0.7987
 6915SOL     OW32377   0.924   1.178   8.724  0.4205  0.1536 -0.1093
 6915SOL    HW132378   0.953   1.269   8.721  0.5370  0.0785 -1.0829
 6915SOL    HW232379   0.853   1.180   8.788  2.7096  1.4068  2.3917
 6916SOL     OW32380   3.105   1.213   0.976 -0.6827 -0.6552 -0.0395
 6916SOL    HW132381   3.103   1.308   0.968 -2.0317 -0.9480 -3.3378
 6916SOL    HW232382   3.197   1.206   0.947 -0.5402  0.3786  0.1701
 6917SOL     OW32383   2.532   2.548   5.163  0.4300 -0.5752 -0.3752
 6917SOL    HW132384   2.470   2.490   5.208  1.3677 -1.1619  0.1651
 6917SOL    HW232385   2.495   2.565   5.077 -2.9770  0.9332  1.3897
 6918SOL     OW32386   1.800   2.642   0.575  0.1120  0.1691 -0.0157
 6918SOL    HW132387   1.721   2.695   0.570 -1.1168 -1.4378  2.5442
 6918SOL    HW232388   1.818   2.662   0.667  0.3793  3.8278 -0.8580
 6919SOL     OW32389   3.762   2.259  16.776 -0.3197  0.0224 -0.0435
 6919SOL    HW132390   3.724   2.184  16.730  0.4970  0.1764 -0.9789
 6919SOL    HW232391   3.734   2.319  16.707 -0.7044 -0.0593  0.0440
 6920SOL     OW32392   4.134   3.615   4.854  0.1152  0.0952 -0.1739
 6920SOL    HW132393   4.091   3.532   4.872 -0.2120  0.7812  2.2467
 6920SOL    HW232394   4.076   3.672   4.904 -0.0355  0.3249 -0.6130
 6921SOL     OW32395   3.029   4.493   8.167  0.0700 -0.6644  0.2379
 6921SOL    HW132396   3.003   4.584   8.180 -1.3883 -1.0375 -0.0133
 6921SOL    HW232397   3.121   4.501   8.143 -0.0449  0.6526  0.2501
 6922SOL     OW32398   1.243   0.807  15.056 -0.1264 -0.3951  0.5882
 6922SOL    HW132399   1.194   0.795  15.137 -1.1206 -2.3290 -0.3016
 6922SOL    HW232400   1.278   0.718  15.051  0.2648 -0.2022 -0.0833
 6923SOL     OW32401   4.531   4.388   9.073 -0.3585  0.2289 -0.1577
 6923SOL    HW132402   4.537   4.402   9.168 -0.3903  0.4523 -0.1883
 6923SOL    HW232403   4.595   4.317   9.074 -0.0213  0.5373  1.0803
 6924SOL     OW32404   3.278   2.201   5.004 -0.5081  0.0075 -0.4875
 6924SOL    HW132405   3.282   2.112   4.969 -2.0689 -0.1457 -0.2644
 6924SOL    HW232406   3.204   2.201   5.064 -0.8003  0.8685 -0.8442
 6925SOL     OW32407   2.108   3.194  14.357  0.3239  0.4617  0.6564
 6925SOL    HW132408   2.177   3.195  14.291 -0.9602 -1.2222 -0.7550
 6925SOL    HW232409   2.076   3.105  14.341  0.5232  0.6663 -0.9304
 6926SOL     OW32410   2.279   3.252   1.828 -0.5977 -0.2945  0.0317
 6926SOL    HW132411   2.294   3.186   1.896 -1.1019 -0.7655 -0.3118
 6926SOL    HW232412   2.190   3.287   1.841 -0.6219  0.3157 -1.7840
 6927SOL     OW32413   1.816   3.731   0.501 -0.2596  0.2789  0.2515
 6927SOL    HW132414   1.817   3.778   0.417  0.4278 -0.2114 -0.0138
 6927SOL    HW232415   1.808   3.642   0.467  1.1734  1.5867 -3.4824
 6928SOL     OW32416   1.289   4.031   2.689  0.3674  0.6182  0.2740
 6928SOL    HW132417   1.309   4.105   2.632  0.9063 -0.4123 -0.8845
 6928SOL    HW232418   1.278   4.075   2.773  1.5870 -0.1503  0.8264
 6929SOL     OW32419   2.290   4.085   4.763 -0.6100 -0.6235  0.0623
 6929SOL    HW132420   2.338   4.023   4.708 -0.9373  0.4967 -1.4967
 6929SOL    HW232421   2.269   4.021   4.831 -0.8056  1.6983  2.1557
 6930SOL     OW32422   2.592   2.147   2.657 -0.6209  0.3630  0.0398
 6930SOL    HW132423   2.564   2.132   2.567 -2.5460 -0.2771  0.7206
 6930SOL    HW232424   2.507   2.168   2.698 -1.6519 -1.7543 -0.9886
 6931SOL     OW32425   1.431   3.198   0.432 -0.3659 -0.4635 -0.2464
 6931SOL    HW132426   1.476   3.282   0.426  0.6991 -0.9706  0.7140
 6931SOL    HW232427   1.490   3.143   0.483  0.1976 -0.2276 -0.6436
 6932SOL     OW32428   3.482   3.114   3.403 -0.0381  0.2594  1.1230
 6932SOL    HW132429   3.533   3.195   3.402  1.1718 -0.5722 -2.9347
 6932SOL    HW232430   3.540   3.067   3.462  0.8129 -1.9026 -1.4525
 6933SOL     OW32431   1.121   1.653   6.244  0.5840 -0.2027  0.1010
 6933SOL    HW132432   1.121   1.559   6.257 -0.6929 -0.4375 -1.4907
 6933SOL    HW232433   1.037   1.672   6.287  1.8386  1.2033  1.9211
 6934SOL     OW32434   1.315   2.591   8.249 -0.1757  0.0806  0.2807
 6934SOL    HW132435   1.406   2.577   8.278  0.3980 -0.8034 -1.9759
 6934SOL    HW232436   1.303   2.685   8.243 -2.7709 -0.3222 -0.7632
 6935SOL     OW32437   4.731   2.555   5.679  0.4585  0.8324 -0.4331
 6935SOL    HW132438   4.673   2.622   5.715 -0.0131 -0.6888  1.6531
 6935SOL    HW232439   0.032   2.600   5.603 -1.3403  2.5501 -0.2689
 6936SOL     OW32440   3.373   3.514   3.558 -0.1732  0.8652  0.3806
 6936SOL    HW132441   3.422   3.477   3.632 -1.6685 -1.3901  0.2512
 6936SOL    HW232442   3.310   3.442   3.550 -0.0346  0.7217  0.5768
 6937SOL     OW32443   2.864   1.730   3.470 -0.3719  0.2415 -0.5649
 6937SOL    HW132444   2.835   1.744   3.380 -1.7613 -0.3486 -0.2176
 6937SOL    HW232445   2.890   1.812   3.513  2.3814 -1.0684  0.2631
 6938SOL     OW32446   4.576   2.247   8.484 -0.2420 -0.2704 -0.0423
 6938SOL    HW132447   4.514   2.212   8.421 -2.0207  0.3813  1.3522
 6938SOL    HW232448   4.661   2.218   8.450 -1.1589  0.0704 -2.6229
 6939SOL     OW32449   2.148   3.229   7.826  0.7029 -0.2848 -0.3148
 6939SOL    HW132450   2.170   3.198   7.738  0.3832 -0.9454 -0.1623
 6939SOL    HW232451   2.096   3.305   7.799 -0.0381 -0.6250  0.1635
 6940SOL     OW32452   0.624   3.791   7.715  0.0161 -0.1745  0.3444
 6940SOL    HW132453   0.628   3.839   7.798 -1.5299  1.2573 -0.4265
 6940SOL    HW232454   0.674   3.712   7.736  2.0684  1.4762  1.6429
 6941SOL     OW32455   1.696   2.652  17.116  0.5047 -0.0111  0.5841
 6941SOL    HW132456   1.681   2.602  17.197 -0.1758 -1.2550 -0.3132
 6941SOL    HW232457   1.781   2.614  17.097 -0.8389 -2.0501 -1.3347
 6942SOL     OW32458   0.542   1.986   6.569 -0.2507  0.5316  0.4836
 6942SOL    HW132459   0.578   1.950   6.489  3.3598  0.3283  2.2054
 6942SOL    HW232460   0.478   1.916   6.582  2.0703 -1.2833  2.1024
 6943SOL     OW32461   1.707   0.138   4.431  0.9476 -0.4912  0.3518
 6943SOL    HW132462   1.652   0.211   4.402  0.7483 -0.2642  1.3120
 6943SOL    HW232463   1.682   0.085   4.355  0.8636 -0.8501  0.6320
 6944SOL     OW32464   2.965   4.503   2.812  0.5223  0.0098  0.4039
 6944SOL    HW132465   2.870   4.492   2.816  0.4852  0.9167  2.0414
 6944SOL    HW232466   2.973   4.443   2.887  1.7220 -1.2490 -0.7234
 6945SOL     OW32467   0.133   4.657   0.643 -0.7416 -0.1444 -0.5110
 6945SOL    HW132468   0.207   4.607   0.609 -1.2974 -0.9479 -0.5347
 6945SOL    HW232469   0.169   4.693   0.724  2.4973 -1.4459 -1.3625
 6946SOL     OW32470   4.719   3.439   8.442  0.2254  0.7229 -0.2913
 6946SOL    HW132471   0.049   3.466   8.507 -0.6946 -0.4301  1.1291
 6946SOL    HW232472   4.673   3.523   8.434 -1.4494 -0.1873 -0.1168
 6947SOL     OW32473   4.055   4.629   9.427 -0.2503  0.0058 -0.0144
 6947SOL    HW132474   4.042   4.534   9.429 -0.0197  0.0915  4.3650
 6947SOL    HW232475   4.122   4.630   9.358  0.5348  1.3281  0.7773
 6948SOL     OW32476   4.063   2.084   7.830 -0.6040 -0.2793 -0.3592
 6948SOL    HW132477   4.106   2.130   7.758 -0.6534 -1.2589 -1.0118
 6948SOL    HW232478   4.138   2.043   7.873 -0.6144  1.4275  1.2951
 6949SOL     OW32479   0.845   0.241  15.772 -0.3691 -0.1493 -0.0160
 6949SOL    HW132480   0.865   0.324  15.729 -1.2561 -0.9802 -2.0346
 6949SOL    HW232481   0.825   0.199  15.689  1.7354 -0.4412 -0.3752
 6950SOL     OW32482   1.529   3.518   8.202  0.1862 -0.3142  0.5929
 6950SOL    HW132483   1.536   3.565   8.285 -1.5300 -0.7527  0.9837
 6950SOL    HW232484   1.488   3.587   8.150  1.0242 -0.4810 -0.2866
 6951SOL     OW32485   3.415   1.125  17.305 -0.3161 -0.3925 -0.2003
 6951SOL    HW132486   3.369   1.098  17.225  0.4196 -0.3886 -0.6273
 6951SOL    HW232487   3.344   1.141  17.367 -0.9866 -0.3184 -0.9833
 6952SOL     OW32488   3.832   1.101   4.516 -1.3566 -0.4184 -0.0118
 6952SOL    HW132489   3.910   1.046   4.509 -0.8353  0.6510 -2.6083
 6952SOL    HW232490   3.817   1.121   4.423 -0.3424 -2.1406 -0.5597
 6953SOL     OW32491   2.920   2.535   2.451 -0.0594  0.0866 -0.5183
 6953SOL    HW132492   2.999   2.482   2.438  0.6340  0.6056  1.6931
 6953SOL    HW232493   2.862   2.464   2.479  0.3733  0.0781  0.3672
 6954SOL     OW32494   0.023   4.662   4.618  0.2212  0.3374 -0.0977
 6954SOL    HW132495   0.101   4.700   4.577  0.3365 -1.4725 -1.5306
 6954SOL    HW232496   0.052   4.578   4.653 -2.8060 -1.4461 -1.7666
 6955SOL     OW32497   0.115   2.161   9.369  0.7644  0.0036 -0.2447
 6955SOL    HW132498   0.035   2.131   9.324  0.1100  0.4262  0.6434
 6955SOL    HW232499   0.076   2.214   9.438  1.4850  1.1301 -0.7008
 6956SOL     OW32500   1.750   3.339   6.421 -0.4499 -0.0789 -0.4079
 6956SOL    HW132501   1.662   3.353   6.456 -0.0424 -1.0996  1.0146
 6956SOL    HW232502   1.802   3.365   6.498  0.2093 -1.5801 -0.3415
 6957SOL     OW32503   1.681   0.860   3.657  0.6092 -0.0425 -0.0298
 6957SOL    HW132504   1.615   0.839   3.591 -1.3863  1.5962  1.4261
 6957SOL    HW232505   1.769   0.863   3.618  1.1802  0.7664  1.3099
 6958SOL     OW32506   3.899   4.301   6.115 -0.1105  0.2236 -0.2280
 6958SOL    HW132507   3.870   4.300   6.206  1.1620 -2.0756  0.1449
 6958SOL    HW232508   3.979   4.353   6.121  1.3004 -1.8953 -0.6541
 6959SOL     OW32509   4.078   1.748  15.111  0.2105 -0.8866 -0.5039
 6959SOL    HW132510   4.093   1.654  15.122 -0.4669 -0.7686  1.4705
 6959SOL    HW232511   4.014   1.748  15.182 -0.9068  3.5034 -1.5368
 6960SOL     OW32512   2.038   3.536   3.967  0.0065 -0.2739  0.0144
 6960SOL    HW132513   2.002   3.624   3.953 -1.2058 -1.3561 -3.6062
 6960SOL    HW232514   2.083   3.513   3.886  0.0716 -0.3581  0.0750
 6961SOL     OW32515   4.143   4.032   9.991  0.1294  0.2849 -1.0261
 6961SOL    HW132516   4.050   4.025  10.013  0.5704 -1.6884  0.1833
 6961SOL    HW232517   4.176   3.956  10.038 -0.6726 -0.3937 -1.5638
 6962SOL     OW32518   3.200   3.227   7.266  0.2298 -0.0529 -0.8303
 6962SOL    HW132519   3.288   3.231   7.301 -0.5114  0.0915  0.9855
 6962SOL    HW232520   3.167   3.303   7.314 -4.5636 -1.8776 -1.1775
 6963SOL     OW32521   1.998   2.389   0.963 -0.2657 -0.3050  1.1916
 6963SOL    HW132522   2.072   2.335   0.937  0.9482  2.0286 -0.2525
 6963SOL    HW232523   1.916   2.343   0.944  0.3306 -0.4280 -1.1263
 6964SOL     OW32524   3.420   0.945   0.784  0.2773 -0.0474  0.7061
 6964SOL    HW132525   3.446   1.029   0.820  1.5853  0.7633 -2.1108
 6964SOL    HW232526   3.505   0.906   0.763  0.5316 -0.2005  2.0300
 6965SOL     OW32527   0.323   0.416  10.468 -0.8059  0.6053 -1.0595
 6965SOL    HW132528   0.241   0.464  10.465 -1.9758 -1.2423  1.1033
 6965SOL    HW232529   0.320   0.393  10.561 -2.5874  1.0111 -1.0254
 6966SOL     OW32530   0.443   4.159  11.822  0.4820 -0.0297  0.3363
 6966SOL    HW132531   0.531   4.195  11.824  0.2914  0.4058  0.7794
 6966SOL    HW232532   0.431   4.139  11.729  0.2930 -0.4645  0.4572
 6967SOL     OW32533   1.318   1.302   1.882  0.1356  0.2841  0.5339
 6967SOL    HW132534   1.321   1.352   1.964  0.3002  1.9827 -0.4914
 6967SOL    HW232535   1.399   1.251   1.887  1.0853  1.4759 -2.9511
 6968SOL     OW32536   4.717   0.760  10.407  0.1337 -0.3926  0.0295
 6968SOL    HW132537   4.720   0.789  10.316  0.5339  1.7526  0.7270
 6968SOL    HW232538   4.634   0.712  10.411 -0.5166  0.9958  3.0507
 6969SOL     OW32539   1.490   2.041  11.724 -0.3553 -0.3154 -0.1053
 6969SOL    HW132540   1.449   2.078  11.646 -0.8810  0.1024  0.3711
 6969SOL    HW232541   1.436   2.087  11.787  2.7035  0.0393  2.2622
 6970SOL     OW32542   3.619   3.549   7.467 -0.8497 -0.1519  0.0067
 6970SOL    HW132543   3.583   3.500   7.541  1.8708 -0.0631  1.4039
 6970SOL    HW232544   3.686   3.492   7.428  1.3655  1.2588  1.7651
 6971SOL     OW32545   3.887   0.407  14.574  0.3678 -0.1745  0.3466
 6971SOL    HW132546   3.875   0.313  14.565  0.0348  0.0653 -1.8646
 6971SOL    HW232547   3.966   0.409  14.628  0.7912  1.3252 -0.3290
 6972SOL     OW32548   1.404   3.586   6.942  0.3663  0.2273 -0.0228
 6972SOL    HW132549   1.340   3.530   6.897 -1.1565  1.4973  0.5641
 6972SOL    HW232550   1.467   3.515   6.957 -0.3701 -0.6822 -1.1444
 6973SOL     OW32551   3.053   3.951   5.526 -0.3531  0.4839 -0.2932
 6973SOL    HW132552   3.083   3.906   5.606 -0.2285  0.4714 -0.3476
 6973SOL    HW232553   3.027   4.032   5.569  1.2865  1.6559 -1.5299
 6974SOL     OW32554   4.400   0.932  16.894 -0.0246  0.0142 -0.0793
 6974SOL    HW132555   4.399   0.873  16.819 -0.7877  1.3119 -1.0817
 6974SOL    HW232556   4.402   1.020  16.856 -1.6146  0.1677  0.2222
 6975SOL     OW32557   1.891   3.245   6.109 -0.1157 -0.2343 -0.3986
 6975SOL    HW132558   1.955   3.283   6.169  1.3623 -1.3021 -1.3243
 6975SOL    HW232559   1.914   3.153   6.095 -1.2617 -0.4953 -0.6340
 6976SOL     OW32560   4.028   4.600   4.371  0.3425  0.3166 -0.1057
 6976SOL    HW132561   3.965   4.622   4.302 -1.3664  0.0673  1.3594
 6976SOL    HW232562   4.033   4.505   4.360 -4.0900  0.0570  0.0147
 6977SOL     OW32563   2.727   3.263   9.935 -0.1023 -0.4544 -0.1464
 6977SOL    HW132564   2.734   3.266   9.840  1.1383 -0.2539 -0.0451
 6977SOL    HW232565   2.685   3.348   9.950  0.0297 -0.6297  1.2271
 6978SOL     OW32566   3.974   1.892   0.663 -0.2183  0.0737 -0.1221
 6978SOL    HW132567   4.056   1.910   0.617  1.9132 -3.1024  2.4514
 6978SOL    HW232568   3.897   1.920   0.614 -0.7105 -0.2971  0.4346
 6979SOL     OW32569   2.965   4.451   3.924  0.5866  0.2155 -0.5520
 6979SOL    HW132570   2.876   4.418   3.933  1.2599 -0.9814  1.8728
 6979SOL    HW232571   2.988   4.417   4.011 -2.6922 -1.6204 -0.4027
 6980SOL     OW32572   3.315   0.946   4.662  0.1776  0.1709  0.8374
 6980SOL    HW132573   3.250   0.901   4.607  1.4216 -0.4144 -0.1388
 6980SOL    HW232574   3.394   0.917   4.617  0.8335 -0.2335  2.2361
 6981SOL     OW32575   3.623   1.411   8.437  0.4786 -0.1967  0.4560
 6981SOL    HW132576   3.638   1.461   8.517  1.7527 -1.9810  1.3114
 6981SOL    HW232577   3.528   1.410   8.450  0.6707 -0.1190  1.8700
 6982SOL     OW32578   3.588   0.275   6.010 -0.3036 -0.7150  0.0640
 6982SOL    HW132579   3.570   0.183   6.028 -1.8568 -1.2506 -4.1460
 6982SOL    HW232580   3.503   0.319   6.010  0.5005  0.8526 -1.1958
 6983SOL     OW32581   4.730   0.631   7.455 -0.0535  0.2922 -0.6621
 6983SOL    HW132582   4.670   0.582   7.398  0.4128 -0.0299 -0.8767
 6983SOL    HW232583   0.049   0.684   7.397  0.2709  0.9073  0.1929
 6984SOL     OW32584   0.065   0.337   9.103 -0.1210 -0.3825 -0.1847
 6984SOL    HW132585   4.716   0.379   9.083  0.5593 -0.2883 -2.8141
 6984SOL    HW232586   0.118   0.350   9.024 -0.3432  1.2300 -0.0816
 6985SOL     OW32587   2.243   2.548   6.797 -0.1708  0.0691 -0.2436
 6985SOL    HW132588   2.264   2.474   6.854 -2.8797 -2.2015 -2.1474
 6985SOL    HW232589   2.274   2.616   6.856 -1.6766 -1.9185  2.8353
 6986SOL     OW32590   0.149   1.893   7.006  0.0379  0.4683  0.4568
 6986SOL    HW132591   0.196   1.959   7.056 -1.1879  1.8536 -0.2168
 6986SOL    HW232592   0.133   1.828   7.074  0.3362 -0.1477 -0.0668
 6987SOL     OW32593   1.131   2.981   4.228 -0.0213 -0.3777 -0.5214
 6987SOL    HW132594   1.054   2.925   4.227 -0.1821 -0.1033 -2.5527
 6987SOL    HW232595   1.082   3.049   4.183 -0.3334  0.4050  1.0033
 6988SOL     OW32596   0.608   4.352  11.413 -0.7568 -0.0360 -0.2078
 6988SOL    HW132597   0.585   4.444  11.399 -1.8020  0.2836  3.7915
 6988SOL    HW232598   0.702   4.369  11.408 -1.1006  1.7391 -0.6684
 6989SOL     OW32599   2.947   1.843   6.502  0.8559 -0.0085  0.2398
 6989SOL    HW132600   2.960   1.919   6.559  0.2443 -0.1573  0.5735
 6989SOL    HW232601   2.859   1.812   6.521  0.7383  1.6378  2.3528
 6990SOL     OW32602   2.486   3.898  17.533 -0.9103 -0.1123 -0.0621
 6990SOL    HW132603   2.420   3.830  17.522 -1.6852  0.9746 -2.1094
 6990SOL    HW232604   2.562   3.854  17.495 -1.3260  1.3905 -2.6198
 6991SOL     OW32605   2.720   2.145   4.033 -0.1722  0.3364  0.5616
 6991SOL    HW132606   2.638   2.118   4.073 -0.2499  0.4266  0.4609
 6991SOL    HW232607   2.718   2.240   4.045 -1.1271  0.4991 -0.9306
 6992SOL     OW32608   4.437   1.097   2.407 -0.1714  0.4598 -0.1940
 6992SOL    HW132609   4.485   1.172   2.443  0.7223  0.5068 -1.4821
 6992SOL    HW232610   4.417   1.049   2.487 -0.0216  0.8899  0.0982
 6993SOL     OW32611   3.011   1.055   5.823 -0.1394 -1.0867  0.4195
 6993SOL    HW132612   2.997   1.036   5.916  1.9922  2.7918  1.5265
 6993SOL    HW232613   3.102   1.027   5.816  0.1913  0.1293 -0.0105
 6994SOL     OW32614   2.090   1.393   3.424  0.8766  0.3848 -0.4042
 6994SOL    HW132615   2.182   1.418   3.419  0.7633  1.2034  1.3691
 6994SOL    HW232616   2.074   1.350   3.340 -2.1243  3.4865 -1.4289
 6995SOL     OW32617   3.673   2.861   1.723 -0.1656  0.3126  0.4372
 6995SOL    HW132618   3.648   2.914   1.799 -1.1121 -0.1510  0.4452
 6995SOL    HW232619   3.757   2.831   1.756  0.3828 -0.2653 -1.4672
 6996SOL     OW32620   1.126   3.581   3.453 -0.6181 -0.2950 -0.2535
 6996SOL    HW132621   1.168   3.546   3.374 -0.7483 -0.6035 -0.1855
 6996SOL    HW232622   1.199   3.609   3.508 -0.6071  0.4758 -0.6506
 6997SOL     OW32623   1.203   0.357   6.902  0.2028 -0.9372  0.0838
 6997SOL    HW132624   1.187   0.290   6.969  2.3816  0.6005  2.1032
 6997SOL    HW232625   1.213   0.307   6.821  3.0651  1.7049 -1.1939
 6998SOL     OW32626   0.335   1.334  13.842  0.3734 -0.7543  0.5287
 6998SOL    HW132627   0.339   1.239  13.839  0.1854 -0.7830  1.1659
 6998SOL    HW232628   0.289   1.342  13.926 -0.5823  2.7317 -0.2949
 6999SOL     OW32629   3.287   0.223   8.147 -0.1919  0.0332  0.4776
 6999SOL    HW132630   3.315   0.313   8.129  2.8729 -1.1527 -0.6815
 6999SOL    HW232631   3.367   0.172   8.157  0.6407  1.3885  0.8522
 7000SOL     OW32632   3.396   3.797   8.968  0.8857  0.3438 -0.3259
 7000SOL    HW132633   3.402   3.762   8.879 -0.8118  1.0130 -0.7096
 7000SOL    HW232634   3.300   3.802   8.967  0.9646  1.7617 -0.8173
 7001SOL     OW32635   2.298   0.846   8.096 -0.1846 -0.4442 -0.1292
 7001SOL    HW132636   2.225   0.786   8.086 -1.3411  0.6157  2.0957
 7001SOL    HW232637   2.268   0.921   8.044 -0.2112 -0.0077  0.5142
 7002SOL     OW32638   3.792   1.111  10.929  0.4111  0.0759  0.2439
 7002SOL    HW132639   3.760   1.057  10.857  2.4377 -1.0979  0.2319
 7002SOL    HW232640   3.872   1.063  10.950  1.2653 -0.1691 -3.6052
 7003SOL     OW32641   2.891   2.847  12.732 -0.0355  0.4108 -0.3220
 7003SOL    HW132642   2.908   2.928  12.685  1.8486  0.2534  0.1147
 7003SOL    HW232643   2.944   2.783  12.683  0.2939  0.6599 -0.2851
 7004SOL     OW32644   3.566   1.139   9.477  0.2801 -0.0656  0.5319
 7004SOL    HW132645   3.478   1.146   9.514  1.4099  1.2274  2.9858
 7004SOL    HW232646   3.557   1.230   9.447  1.5151 -0.0568  0.2028
 7005SOL     OW32647   3.628   0.457   5.443 -0.4196  0.4510  0.3317
 7005SOL    HW132648   3.706   0.451   5.388 -1.5777 -1.1445 -1.1612
 7005SOL    HW232649   3.564   0.480   5.376 -0.5248 -1.2835 -0.1813
 7006SOL     OW32650   3.419   4.588  17.351 -0.0638 -0.4633 -0.2222
 7006SOL    HW132651   3.370   4.604  17.270 -0.7796  0.8428  0.4845
 7006SOL    HW232652   3.438   4.679  17.372  1.3748 -0.6039 -0.9000
 7007SOL     OW32653   3.285   3.774  11.212  0.1706 -0.3950  0.4219
 7007SOL    HW132654   3.327   3.732  11.137 -2.5110  0.0492 -1.3212
 7007SOL    HW232655   3.269   3.700  11.271 -3.1093  0.2972  0.3976
 7008SOL     OW32656   4.360   1.463   7.256  0.2515 -0.2761 -0.0512
 7008SOL    HW132657   4.365   1.557   7.274 -0.5752 -0.9565  3.9021
 7008SOL    HW232658   4.334   1.468   7.164  0.3601 -0.0283 -0.0682
 7009SOL     OW32659   3.351   4.213   6.309  0.2794 -0.2460  0.2958
 7009SOL    HW132660   3.349   4.218   6.405  1.2395  1.5394  0.2174
 7009SOL    HW232661   3.399   4.132   6.293  2.3637  0.8895  0.7847
 7010SOL     OW32662   1.272   2.082   5.749 -0.0837  0.2684  0.0293
 7010SOL    HW132663   1.324   2.147   5.796  2.4127 -1.4441 -0.3927
 7010SOL    HW232664   1.221   2.143   5.695 -2.2609 -1.9381 -0.4644
 7011SOL     OW32665   0.009   0.365   2.599 -0.0412 -0.3011 -0.2275
 7011SOL    HW132666   0.050   0.450   2.615  0.9697 -0.8968  0.2834
 7011SOL    HW232667   0.077   0.299   2.610 -1.7765 -1.8976  0.8252
 7012SOL     OW32668   0.729   2.037   4.809 -0.4492 -0.4901 -0.4417
 7012SOL    HW132669   0.793   1.982   4.765  0.0324 -0.1173 -0.2120
 7012SOL    HW232670   0.680   1.975   4.863  0.2260 -0.8880 -0.2987
 7013SOL     OW32671   1.738   1.869   6.914 -0.1191 -0.0912 -0.0663
 7013SOL    HW132672   1.727   1.792   6.971 -0.0262  1.8932  2.6523
 7013SOL    HW232673   1.669   1.929   6.942 -0.0192 -1.4000  3.0346
 7014SOL     OW32674   0.557   3.208   8.459 -0.2101  0.6547  0.2487
 7014SOL    HW132675   0.464   3.227   8.458 -0.4109 -0.5669 -5.3805
 7014SOL    HW232676   0.568   3.241   8.548  1.5310  1.1745 -0.1487
 7015SOL     OW32677   2.943   4.622   6.529 -0.3610 -0.2237  0.2886
 7015SOL    HW132678   3.004   4.558   6.493 -2.6852 -2.5422  0.5251
 7015SOL    HW232679   2.865   4.573   6.554 -0.7596 -0.0129 -0.5296
 7016SOL     OW32680   0.478   2.714   5.411  0.3732  0.3199 -0.1176
 7016SOL    HW132681   0.550   2.699   5.473  0.0182 -2.6133 -0.4053
 7016SOL    HW232682   0.401   2.694   5.463  0.2381  1.7383  0.2266
 7017SOL     OW32683   1.290   1.825   5.575  0.1173  0.0393 -0.4028
 7017SOL    HW132684   1.312   1.912   5.608  0.6024 -0.3343  0.2563
 7017SOL    HW232685   1.371   1.776   5.589 -2.1047 -3.3283  0.6462
 7018SOL     OW32686   1.921   4.179   6.610  0.3130  0.2005  0.0614
 7018SOL    HW132687   1.941   4.130   6.530 -0.4588 -0.4405  0.2670
 7018SOL    HW232688   1.849   4.130   6.650  0.5052  0.3999  0.6601
 7019SOL     OW32689   2.000   1.784   4.305  0.7986  0.3648 -0.5797
 7019SOL    HW132690   2.024   1.705   4.352 -2.3180  0.3338  0.9710
 7019SOL    HW232691   2.070   1.844   4.331  1.9748 -0.0973 -2.7110
 7020SOL     OW32692   1.102   1.228   4.718 -0.2058  0.0512  0.4587
 7020SOL    HW132693   1.043   1.190   4.783  0.8898 -0.3828  1.1895
 7020SOL    HW232694   1.183   1.213   4.765  0.5659 -0.4111 -1.0168
 7021SOL     OW32695   0.530   2.783  11.221  0.4951 -0.3524  0.2856
 7021SOL    HW132696   0.562   2.749  11.305  0.0465  0.2342  0.6931
 7021SOL    HW232697   0.434   2.774  11.219  0.5499 -0.6465 -1.3171
 7022SOL     OW32698   4.563   2.290   4.245 -0.3151  0.2049  0.3185
 7022SOL    HW132699   4.519   2.327   4.168 -0.1825  1.6393  0.9239
 7022SOL    HW232700   4.532   2.200   4.246  0.7370 -0.1617  0.1558
 7023SOL     OW32701   0.198   1.105   9.011 -0.6780 -0.0301  0.0092
 7023SOL    HW132702   0.201   1.181   9.068  1.9288  0.5254 -0.8452
 7023SOL    HW232703   0.254   1.046   9.062  0.2691  0.3661 -0.5603
 7024SOL     OW32704   0.429   3.395  14.972  0.1223 -0.6762 -0.1846
 7024SOL    HW132705   0.420   3.471  15.030  1.8261 -0.1628 -0.5920
 7024SOL    HW232706   0.523   3.379  14.982  0.7113  3.4227  0.7948
 7025SOL     OW32707   3.928   3.371   9.854 -0.6329  0.3753 -0.5798
 7025SOL    HW132708   3.912   3.359   9.948 -0.2559  1.1462 -0.4189
 7025SOL    HW232709   3.878   3.448   9.828 -0.9635 -0.2456 -1.8029
 7026SOL     OW32710   2.867   3.125   2.482 -0.2173  0.4167  0.2765
 7026SOL    HW132711   2.856   3.182   2.558 -0.1744 -0.8814  1.2542
 7026SOL    HW232712   2.825   3.175   2.412 -0.0099  0.2860  0.0564
 7027SOL     OW32713   3.534   2.324  16.356  0.4290  0.4665 -0.3125
 7027SOL    HW132714   3.565   2.316  16.446 -2.3114  0.2939  0.6368
 7027SOL    HW232715   3.460   2.380  16.380  0.9441  0.8349  0.4021
 7028SOL     OW32716   0.332   1.835   2.752 -0.6569 -0.2874  0.2369
 7028SOL    HW132717   0.353   1.769   2.819  0.2433 -0.2615 -0.0206
 7028SOL    HW232718   0.343   1.783   2.672 -1.7324  1.4784 -1.0491
 7029SOL     OW32719   4.093   0.492   8.260 -0.3861 -0.0253 -0.6135
 7029SOL    HW132720   4.133   0.453   8.182 -2.9182  1.1884 -2.5311
 7029SOL    HW232721   4.085   0.418   8.319 -1.3632  0.2369 -0.4189
 7030SOL     OW32722   2.775   2.480   8.966  0.1876 -0.0074  0.5798
 7030SOL    HW132723   2.789   2.564   8.922  0.3850 -0.4039 -0.1190
 7030SOL    HW232724   2.821   2.493   9.049 -0.7924 -0.4224  1.1901
 7031SOL     OW32725   1.563   1.748   5.367  0.4787 -0.3317 -0.0966
 7031SOL    HW132726   1.526   1.665   5.397  0.5014 -0.4581 -0.4202
 7031SOL    HW232727   1.594   1.719   5.281  3.3382  2.0922  0.0987
 7032SOL     OW32728   0.609   1.018   8.507  0.0282  0.8376 -0.0739
 7032SOL    HW132729   0.571   1.031   8.594 -0.1964  1.4564 -0.2648
 7032SOL    HW232730   0.704   1.024   8.515  0.1354  0.7972 -1.3744
 7033SOL     OW32731   3.370   4.058   0.598  0.0819  0.5345  0.3617
 7033SOL    HW132732   3.413   4.009   0.668  0.9553 -4.2940 -3.5183
 7033SOL    HW232733   3.392   4.004   0.521 -0.6633  0.6528  0.0674
 7034SOL     OW32734   0.465   3.361   3.329  0.0950 -0.5879 -0.0665
 7034SOL    HW132735   0.504   3.314   3.255 -0.0871  0.9567 -1.1464
 7034SOL    HW232736   0.476   3.451   3.299 -1.2714 -0.6387 -0.7038
 7035SOL     OW32737   3.328   3.924   6.834  0.5102 -0.3209 -0.1679
 7035SOL    HW132738   3.400   3.873   6.796 -0.9657 -2.5074 -0.0192
 7035SOL    HW232739   3.286   3.959   6.757  3.4540 -0.8784 -2.0469
 7036SOL     OW32740   1.260   0.815   5.763 -0.0049  0.5819  0.3751
 7036SOL    HW132741   1.308   0.783   5.687  2.0626  2.4523  0.9076
 7036SOL    HW232742   1.319   0.866   5.818  0.9290  0.2497 -0.3187
 7037SOL     OW32743   3.608   3.096   9.768 -0.0061  0.8335 -0.5787
 7037SOL    HW132744   3.613   3.027   9.702  0.1927 -0.5738  0.9240
 7037SOL    HW232745   3.585   3.173   9.716  3.6987  1.0619 -1.8578
 7038SOL     OW32746   2.897   0.514   0.229  0.4397  0.0057 -0.8647
 7038SOL    HW132747   2.992   0.524   0.230  0.3472  0.6905  1.0072
 7038SOL    HW232748   2.880   0.422   0.210  1.3193  0.1361 -2.2531
 7039SOL     OW32749   4.612   2.033  10.484  0.5803 -0.4951 -0.0919
 7039SOL    HW132750   4.545   1.967  10.503  0.2216  0.1571  0.9113
 7039SOL    HW232751   4.574   2.087  10.416  0.8492  0.5165  0.5701
 7040SOL     OW32752   3.500   3.108   5.477  0.0095  0.2359 -0.0381
 7040SOL    HW132753   3.577   3.056   5.456  0.1321  0.8489 -1.1060
 7040SOL    HW232754   3.456   3.114   5.392 -0.5443  1.0793  0.3080
 7041SOL     OW32755   3.576   4.253   5.268 -0.5712 -0.0323 -0.5153
 7041SOL    HW132756   3.536   4.167   5.261  0.2830 -0.5186  0.5245
 7041SOL    HW232757   3.497   4.307   5.266  0.5203  1.5874 -0.1033
 7042SOL     OW32758   3.238   1.196   1.682 -0.4568  0.3828 -0.3778
 7042SOL    HW132759   3.278   1.163   1.763  0.6288  2.5425 -0.0425
 7042SOL    HW232760   3.320   1.224   1.642 -1.7515  0.7559 -2.7493
 7043SOL     OW32761   4.336   3.285   6.477  0.2265  0.1135  0.4944
 7043SOL    HW132762   4.362   3.236   6.399  2.1336  1.0014  0.5713
 7043SOL    HW232763   4.295   3.361   6.437  1.3627  0.2386 -0.4120
 7044SOL     OW32764   4.109   0.567   3.129 -0.0189 -0.2021  0.4935
 7044SOL    HW132765   4.155   0.543   3.210 -1.3638 -1.7469  0.8118
 7044SOL    HW232766   4.176   0.594   3.067 -0.0968 -3.2314 -0.9258
 7045SOL     OW32767   0.238   0.139   2.965 -0.4307 -0.7435 -0.0038
 7045SOL    HW132768   0.205   0.118   3.053  2.2610 -2.3343  0.6431
 7045SOL    HW232769   0.302   0.207   2.985 -0.1999 -1.2238  0.9130
 7046SOL     OW32770   0.550   0.960  15.166  0.7016  0.5323 -0.0486
 7046SOL    HW132771   0.569   0.996  15.079  2.0182  0.1668  0.0913
 7046SOL    HW232772   0.642   0.943  15.187  1.5012  2.7307 -1.6571
 7047SOL     OW32773   1.483   0.172   8.942  0.2673  0.5509 -0.7016
 7047SOL    HW132774   1.495   0.141   8.852 -2.7941 -3.1605  0.1955
 7047SOL    HW232775   1.467   0.265   8.924  1.0603  0.6482 -0.9305
 7048SOL     OW32776   1.743   3.052   2.528  0.2563  0.0669 -0.0374
 7048SOL    HW132777   1.703   3.118   2.585 -0.3455  1.9001 -2.5927
 7048SOL    HW232778   1.749   2.976   2.587  1.7950  2.5286  2.9974
 7049SOL     OW32779   1.099   4.504   4.554  0.1235 -0.1693 -0.0840
 7049SOL    HW132780   1.139   4.515   4.468  0.9827 -0.8836  0.2260
 7049SOL    HW232781   1.154   4.560   4.609  0.0666  0.4520 -0.6646
 7050SOL     OW32782   0.634   0.303   6.995 -0.2991 -0.0276  0.4361
 7050SOL    HW132783   0.579   0.231   6.964  0.0611 -0.0389 -0.1723
 7050SOL    HW232784   0.573   0.376   7.008  0.5127  0.5924  0.7714
 7051SOL     OW32785   1.947   4.109   2.674  0.1182 -0.1707  0.7166
 7051SOL    HW132786   2.030   4.093   2.629 -1.0308 -1.8477 -0.7863
 7051SOL    HW232787   1.988   4.115   2.761 -1.3791  2.2903  1.2595
 7052SOL     OW32788   4.701   1.526   4.285 -0.1439 -0.3098 -0.4695
 7052SOL    HW132789   0.040   1.540   4.226 -1.2558  2.1081 -1.2666
 7052SOL    HW232790   0.008   1.482   4.359  1.4941 -0.2917 -1.4016
 7053SOL     OW32791   0.855   0.763  16.777  0.3189  0.5452  0.0612
 7053SOL    HW132792   0.784   0.781  16.715  0.2452  0.1515  0.0367
 7053SOL    HW232793   0.907   0.843  16.767 -1.2429  1.1758 -3.1989
 7054SOL     OW32794   2.601   2.632  12.025  0.0175 -0.1262  0.2808
 7054SOL    HW132795   2.552   2.619  11.945 -0.1303  2.3196 -0.0205
 7054SOL    HW232796   2.687   2.655  11.989 -0.3515 -0.3951 -0.7594
 7055SOL     OW32797   2.281   1.741   9.263 -0.4296  0.1866 -0.4578
 7055SOL    HW132798   2.374   1.724   9.275 -0.4046  1.0237  0.5406
 7055SOL    HW232799   2.275   1.811   9.329  0.6243  0.3221 -0.5192
 7056SOL     OW32800   2.786   0.652   6.662 -0.1650 -0.0683  0.0402
 7056SOL    HW132801   2.868   0.637   6.616 -1.3158 -2.6278 -1.1542
 7056SOL    HW232802   2.806   0.725   6.721  0.8437 -2.3080  2.4447
 7057SOL     OW32803   3.714   1.120  14.038  0.1902 -0.8113 -0.0607
 7057SOL    HW132804   3.621   1.136  14.022  0.6556  1.7692 -0.2208
 7057SOL    HW232805   3.710   1.102  14.132  0.5880 -1.0422 -0.0874
 7058SOL     OW32806   1.850   3.887   3.977  0.2675  0.2429  0.5347
 7058SOL    HW132807   1.773   3.916   4.026  1.2418  0.2742  2.0337
 7058SOL    HW232808   1.811   3.838   3.904  1.6570  0.1598 -0.1440
 7059SOL     OW32809   2.746   4.608   9.347 -0.0583 -0.2324 -0.2047
 7059SOL    HW132810   2.740   4.699   9.376 -0.1906  0.6814 -3.1933
 7059SOL    HW232811   2.825   4.574   9.388  0.2998 -0.6936 -1.2976
 7060SOL     OW32812   1.253   0.460   6.605 -0.4115  1.0329 -0.8900
 7060SOL    HW132813   1.193   0.394   6.571  1.1843 -0.1365 -1.4177
 7060SOL    HW232814   1.330   0.455   6.549  0.0855 -0.5399 -0.0602
 7061SOL     OW32815   1.357   3.276   7.844 -0.4867 -0.1019  0.0956
 7061SOL    HW132816   1.351   3.314   7.756 -1.2070  0.0281  0.2056
 7061SOL    HW232817   1.272   3.234   7.852  1.4635 -3.9811  0.2954
 7062SOL     OW32818   1.402   1.702   1.693  0.8291  0.1567  0.1060
 7062SOL    HW132819   1.444   1.679   1.609 -0.7388 -1.1567 -0.2937
 7062SOL    HW232820   1.452   1.650   1.755 -2.4999 -2.8674  0.1963
 7063SOL     OW32821   3.949   1.402   3.049 -0.1380  0.6442  0.4667
 7063SOL    HW132822   3.942   1.308   3.064  0.0107  0.4387 -0.7267
 7063SOL    HW232823   3.893   1.436   3.119 -0.9046 -0.9234  0.6118
 7064SOL     OW32824   0.616   0.290   7.889 -0.1763 -0.7354 -0.0468
 7064SOL    HW132825   0.522   0.279   7.907 -0.4635 -0.9848 -1.6743
 7064SOL    HW232826   0.619   0.232   7.812 -1.3426  0.8656 -1.3039
 7065SOL     OW32827   1.442   1.602   3.929 -0.2472 -0.2951 -0.0068
 7065SOL    HW132828   1.390   1.680   3.949  1.2779  0.0700  2.4171
 7065SOL    HW232829   1.513   1.648   3.885 -0.4760 -0.0014 -0.0752
 7066SOL     OW32830   3.078   2.994   7.195 -0.2509 -0.0915  0.0242
 7066SOL    HW132831   3.133   3.072   7.191  2.6294 -2.2044 -0.9935
 7066SOL    HW232832   3.065   2.990   7.290  2.8504  0.3833  0.4613
 7067SOL     OW32833   0.577   4.018   0.862 -0.0973  0.1784  0.1342
 7067SOL    HW132834   0.597   4.055   0.776 -1.1770  0.2943 -0.0748
 7067SOL    HW232835   0.653   3.963   0.882 -0.5407 -0.6343 -0.3800
 7068SOL     OW32836   3.870   3.240   5.707 -0.2611  0.1171  0.1959
 7068SOL    HW132837   3.957   3.201   5.704  1.1394  3.2384 -0.5957
 7068SOL    HW232838   3.823   3.182   5.766  1.1881 -1.3594 -0.1085
 7069SOL     OW32839   3.582   2.923  16.995 -0.4021 -0.2762 -0.4602
 7069SOL    HW132840   3.647   2.874  17.046  2.2942  1.5405 -2.1770
 7069SOL    HW232841   3.521   2.854  16.969 -1.8277  1.2976 -1.3516
 7070SOL     OW32842   1.967   1.077   3.670  0.0449  0.2012  0.4191
 7070SOL    HW132843   1.971   0.985   3.643 -1.0461  0.1142  0.5417
 7070SOL    HW232844   2.054   1.115   3.659 -0.0130 -0.0683 -1.0218
 7071SOL     OW32845   0.194   2.700  10.882  0.2321  0.6003 -0.1910
 7071SOL    HW132846   0.136   2.754  10.828  1.2632  2.0800  0.1890
 7071SOL    HW232847   0.176   2.736  10.969 -0.2023  0.7369 -0.3342
 7072SOL     OW32848   1.852   3.644   1.005 -0.1000  0.5689 -0.0937
 7072SOL    HW132849   1.893   3.719   1.048  0.0921  1.1452 -1.2832
 7072SOL    HW232850   1.922   3.585   0.976 -1.1966  0.2124 -2.0580
 7073SOL     OW32851   2.344   4.354  17.716 -0.4415 -0.0630  0.2979
 7073SOL    HW132852   2.315   4.444  17.701  0.4341 -0.0183 -1.0815
 7073SOL    HW232853   2.409   4.348  17.646 -0.2680  1.9192  0.2847
 7074SOL     OW32854   2.463   4.043   1.837  0.5109 -0.1297  0.3494
 7074SOL    HW132855   2.510   4.077   1.761  0.2849 -0.2315  0.1643
 7074SOL    HW232856   2.520   4.059   1.912  0.3051  1.2031  0.2183
 7075SOL     OW32857   1.029   1.975   5.296 -0.0510  0.1308 -0.5989
 7075SOL    HW132858   0.992   1.906   5.240  0.3325  0.8554 -1.7226
 7075SOL    HW232859   1.079   2.024   5.231 -0.4504 -2.5946 -2.9703
 7076SOL     OW32860   4.535   2.460  15.613 -0.0154 -0.2562 -0.2748
 7076SOL    HW132861   4.617   2.493  15.575  0.3871 -0.0319  0.8111
 7076SOL    HW232862   4.558   2.471  15.705 -2.3383  0.1959  0.2395
 7077SOL     OW32863   2.974   3.528   8.041  0.3726 -0.2592  0.0574
 7077SOL    HW132864   3.041   3.499   7.979 -1.5667 -0.5791 -1.8804
 7077SOL    HW232865   3.000   3.619   8.058 -1.1494 -0.1047  1.6233
 7078SOL     OW32866   1.462   3.989   4.982 -0.2289  0.5547 -0.1856
 7078SOL    HW132867   1.379   3.994   4.936 -0.0237 -0.5224 -0.6680
 7078SOL    HW232868   1.450   3.914   5.041  3.1815 -0.4798 -0.8053
 7079SOL     OW32869   2.183   1.790   3.386  0.2320  0.0542 -0.7193
 7079SOL    HW132870   2.196   1.759   3.297 -0.0826 -1.1888 -0.3362
 7079SOL    HW232871   2.265   1.764   3.429  0.9889 -1.1126 -2.8425
 7080SOL     OW32872   3.158   2.731  12.860 -0.2754  0.3408  0.0916
 7080SOL    HW132873   3.119   2.785  12.792 -1.4236 -1.1195 -0.4198
 7080SOL    HW232874   3.141   2.650  12.811 -1.1176 -0.4357  1.6865
 7081SOL     OW32875   3.929   2.598   3.305 -0.4372 -0.2040  0.4448
 7081SOL    HW132876   3.976   2.524   3.344 -0.9109 -1.5087 -1.4877
 7081SOL    HW232877   3.877   2.625   3.381 -0.3317 -0.4443  0.6025
 7082SOL     OW32878   2.580   3.536   5.555 -0.2126 -0.4695 -0.0051
 7082SOL    HW132879   2.547   3.562   5.641 -0.9984  0.7417 -0.6801
 7082SOL    HW232880   2.673   3.559   5.555 -0.2174 -0.4698 -1.4571
 7083SOL     OW32881   2.725   1.618  16.617  0.2378 -0.2288  0.0323
 7083SOL    HW132882   2.677   1.545  16.578 -1.7399  2.2882 -2.2008
 7083SOL    HW232883   2.659   1.654  16.675 -0.3727 -0.1873 -0.6917
 7084SOL     OW32884   1.438   2.213   2.003  0.0397 -0.1216  0.0902
 7084SOL    HW132885   1.457   2.195   2.095  1.0279  0.2667 -0.0322
 7084SOL    HW232886   1.353   2.255   2.013 -0.6239 -1.3823 -0.1549
 7085SOL     OW32887   2.666   4.179   7.712  0.1135 -0.4059  0.2703
 7085SOL    HW132888   2.750   4.189   7.667  0.3847  0.5701  0.9966
 7085SOL    HW232889   2.676   4.246   7.780  0.5731  1.2203 -1.3988
 7086SOL     OW32890   2.928   0.227   2.828  0.1583 -0.3065 -0.7071
 7086SOL    HW132891   2.994   0.167   2.864  0.5880 -1.3683 -3.2368
 7086SOL    HW232892   2.843   0.197   2.858  0.1925  0.6823  0.3817
 7087SOL     OW32893   4.390   3.879  12.447  0.5702  0.3959  0.8492
 7087SOL    HW132894   4.402   3.788  12.475 -1.3828  0.0143  0.4106
 7087SOL    HW232895   4.469   3.914  12.490  1.9345  1.5884 -2.6289
 7088SOL     OW32896   2.684   3.794   4.052  0.1132 -0.2613  0.0862
 7088SOL    HW132897   2.661   3.884   4.075 -2.4796 -0.4257 -1.9277
 7088SOL    HW232898   2.619   3.778   3.984  0.6591  4.4635 -1.5520
 7089SOL     OW32899   0.515   3.599   5.592 -0.6404 -0.5238 -0.0088
 7089SOL    HW132900   0.475   3.683   5.613 -0.0798  0.5969 -3.5070
 7089SOL    HW232901   0.523   3.563   5.681  1.8592 -0.2175 -0.1338
 7090SOL     OW32902   1.299   0.798  10.161 -0.3209  0.3133 -1.0191
 7090SOL    HW132903   1.245   0.836  10.091  0.4891 -0.1833 -1.9043
 7090SOL    HW232904   1.322   0.878  10.208  0.2752 -1.0196  0.9727
 7091SOL     OW32905   3.611   1.419   6.783  0.3644 -0.2094  0.4228
 7091SOL    HW132906   3.652   1.346   6.736 -0.3634  0.1904 -0.8386
 7091SOL    HW232907   3.549   1.358   6.822  0.5779  0.5690  1.9603
 7092SOL     OW32908   2.771   2.531  17.083 -0.5363 -0.0869 -0.1385
 7092SOL    HW132909   2.847   2.513  17.138  0.7053 -2.1178 -2.4979
 7092SOL    HW232910   2.708   2.521  17.154  0.4003 -0.6700  0.6129
 7093SOL     OW32911   2.645   1.720   4.504  0.1958 -0.0672 -0.6696
 7093SOL    HW132912   2.552   1.742   4.507  0.7086  2.2393 -1.3388
 7093SOL    HW232913   2.691   1.804   4.498  0.2817  0.0459  1.3602
 7094SOL     OW32914   3.285   2.489   4.227  0.2878 -0.1807  0.5398
 7094SOL    HW132915   3.227   2.532   4.164  1.1206 -0.1826 -0.2349
 7094SOL    HW232916   3.225   2.446   4.288 -0.2667  1.1965  0.9727
 7095SOL     OW32917   4.013   3.931   2.736  0.3875  0.4041 -0.2231
 7095SOL    HW132918   4.066   3.863   2.692 -0.6599 -1.0776  0.8024
 7095SOL    HW232919   4.033   4.012   2.690 -0.3446 -0.1580 -1.5415
 7096SOL     OW32920   2.863   2.681   8.803  0.2064  0.0055  0.3053
 7096SOL    HW132921   2.858   2.735   8.882  0.7876 -0.6756  0.8155
 7096SOL    HW232922   2.799   2.727   8.749  0.2930 -0.7315 -0.4264
 7097SOL     OW32923   4.346   2.965  14.370 -0.9210  0.2487 -0.0025
 7097SOL    HW132924   4.330   2.871  14.356  2.2864 -0.3325  0.3063
 7097SOL    HW232925   4.431   2.973  14.328 -0.4381  1.9804  1.2902
 7098SOL     OW32926   0.979   2.179   2.966  0.5666  0.8828 -0.3096
 7098SOL    HW132927   1.042   2.110   2.946 -1.0780 -0.6028 -0.3571
 7098SOL    HW232928   0.998   2.186   3.060 -0.9971  0.7551  0.0150
 7099SOL     OW32929   3.794   2.094   6.755  0.0060 -0.0587 -0.5449
 7099SOL    HW132930   3.854   2.156   6.797 -2.0898  0.5126  1.6339
 7099SOL    HW232931   3.831   2.083   6.667 -0.6076  0.4899 -0.8760
 7100SOL     OW32932   2.692   1.743   3.245 -0.0892  0.3173 -0.2647
 7100SOL    HW132933   2.643   1.816   3.284  0.9519 -0.5233  2.6434
 7100SOL    HW232934   2.738   1.788   3.174 -0.3541  0.4092 -0.3799
 7101SOL     OW32935   4.318   0.701   3.005  0.5439 -0.1402 -0.1581
 7101SOL    HW132936   4.346   0.737   2.922 -0.6564 -1.2430 -1.0385
 7101SOL    HW232937   4.379   0.740   3.068 -0.9149 -0.3686  1.4228
 7102SOL     OW32938   0.147   0.125  16.178 -0.3639  0.3152  0.3181
 7102SOL    HW132939   0.174   0.213  16.204 -0.5556  0.2181  0.8294
 7102SOL    HW232940   0.069   0.143  16.125  0.6916  0.2740 -1.2593
 7103SOL     OW32941   2.727   4.509   5.616 -0.4923  0.6790 -0.5084
 7103SOL    HW132942   2.698   4.437   5.672  0.0703 -1.0158 -2.4463
 7103SOL    HW232943   2.692   4.491   5.529 -0.9333 -0.7514 -0.0399
 7104SOL     OW32944   2.582   2.337   8.111 -0.3108 -0.1119  0.5099
 7104SOL    HW132945   2.536   2.308   8.190  0.6261  2.3653  1.9851
 7104SOL    HW232946   2.613   2.426   8.128 -1.9294  0.9795 -2.2632
 7105SOL     OW32947   4.323   3.139   2.110  0.4477  0.0939  0.2066
 7105SOL    HW132948   4.340   3.137   2.016  0.3124  1.8169  0.1576
 7105SOL    HW232949   4.319   3.232   2.129  0.0821 -0.3096  2.0600
 7106SOL     OW32950   3.563   0.060  11.001 -0.5474  0.2025 -0.0680
 7106SOL    HW132951   3.583   4.721  11.058  0.8350 -0.1177 -0.9576
 7106SOL    HW232952   3.505   0.112  11.056 -0.2256  1.5289 -0.9974
 7107SOL     OW32953   4.411   1.867   9.688 -0.4704  0.7438  0.2887
 7107SOL    HW132954   4.388   1.777   9.662 -1.3646  0.5937  1.6314
 7107SOL    HW232955   4.441   1.843   9.776  0.5402  1.6773  0.1838
 7108SOL     OW32956   2.245   4.732  15.574 -0.2055  0.0256  0.5949
 7108SOL    HW132957   2.282   4.731  15.486  1.2241  0.0437  1.2011
 7108SOL    HW232958   2.181   0.067  15.565 -2.7942 -2.2157  1.6121
 7109SOL     OW32959   3.078   0.070   6.261 -0.1299 -0.0888 -0.2446
 7109SOL    HW132960   3.018   0.130   6.304  2.2079  1.8297  0.3466
 7109SOL    HW232961   3.019   0.035   6.194 -1.1416  2.1366 -0.5269
 7110SOL     OW32962   3.971   0.208   1.813  0.2148  0.3444  0.2653
 7110SOL    HW132963   3.902   0.233   1.752  1.4142  0.3333 -1.1023
 7110SOL    HW232964   4.044   0.211   1.752  2.1964 -0.0223  2.6097
 7111SOL     OW32965   3.675   1.588   8.644  0.2871  0.8737 -0.1909
 7111SOL    HW132966   3.666   1.623   8.733  1.4848 -0.4786  0.4761
 7111SOL    HW232967   3.763   1.619   8.622  0.3156  1.3782  0.6102
 7112SOL     OW32968   3.164   3.548   6.887 -0.2599 -0.0579  0.2178
 7112SOL    HW132969   3.180   3.640   6.908  2.6250 -0.0054 -2.1841
 7112SOL    HW232970   3.111   3.519   6.961  0.7268 -1.3727  0.4076
 7113SOL     OW32971   3.531   1.059   6.517  0.2734 -0.6334 -0.4173
 7113SOL    HW132972   3.447   1.104   6.517  0.8304  0.4803  3.1196
 7113SOL    HW232973   3.504   0.991   6.456 -0.7480 -1.3388  0.8244
 7114SOL     OW32974   2.906   1.417   3.813 -0.1559  0.1515  0.0524
 7114SOL    HW132975   2.959   1.410   3.734  1.4794 -2.7967  1.3885
 7114SOL    HW232976   2.845   1.486   3.790 -1.6277 -2.1314 -2.8082
 7115SOL     OW32977   1.303   0.058  11.732  0.0413  0.0971 -0.3289
 7115SOL    HW132978   1.318   0.072  11.639 -2.0701  1.8099 -0.4083
 7115SOL    HW232979   1.317   0.144  11.771 -0.0849 -1.0682  2.2633
 7116SOL     OW32980   3.457   2.703   0.382 -0.2913  0.1804 -0.5349
 7116SOL    HW132981   3.541   2.672   0.418 -1.4387  0.3462  2.3098
 7116SOL    HW232982   3.489   2.732   0.297  3.1333 -0.7635  0.4259
 7117SOL     OW32983   3.609   4.198   7.484 -0.2152  0.2154 -0.1427
 7117SOL    HW132984   3.697   4.213   7.517 -0.7669  1.4190  0.8199
 7117SOL    HW232985   3.640   4.144   7.412  1.0884 -0.9892  1.3388
 7118SOL     OW32986   0.633   0.441  11.572 -0.5192  0.1792  0.2959
 7118SOL    HW132987   0.672   0.413  11.655  0.4668 -1.8384 -0.8592
 7118SOL    HW232988   0.670   0.527  11.554 -0.9868  0.5238  0.9814
 7119SOL     OW32989   1.752   2.658  11.785  0.0685 -0.1709 -0.0970
 7119SOL    HW132990   1.818   2.609  11.737  1.6457  3.6470 -1.8607
 7119SOL    HW232991   1.674   2.605  11.772 -0.2958  0.3861 -0.2189
 7120SOL     OW32992   0.460   1.051  16.608 -0.4547  0.2175 -0.2163
 7120SOL    HW132993   0.437   1.068  16.699 -0.0283  0.4002 -0.1435
 7120SOL    HW232994   0.377   1.038  16.562 -0.2750 -0.6502 -0.2870
 7121SOL     OW32995   4.077   3.577   3.804  0.3109 -0.9000  0.2983
 7121SOL    HW132996   4.108   3.606   3.718 -1.5957  0.2388 -0.0103
 7121SOL    HW232997   4.028   3.644   3.852 -1.7478 -2.4025  0.2903
 7122SOL     OW32998   0.799   4.218   6.991  0.6471  0.4323 -0.3410
 7122SOL    HW132999   0.726   4.239   7.049  1.8890 -3.5164  2.6975
 7122SOL    HW233000   0.802   4.122   6.994  0.2540  0.4146 -0.5806
 7123SOL     OW33001   1.822   2.121   1.287 -0.0258 -0.5500 -0.0441
 7123SOL    HW133002   1.807   2.046   1.344 -2.2520 -0.1638 -0.1348
 7123SOL    HW233003   1.876   2.075   1.222  1.9171 -0.5155  1.5444
 7124SOL     OW33004   1.165   2.517   0.980 -0.3721  0.0800  0.0206
 7124SOL    HW133005   1.129   2.586   0.925  1.5314 -0.9637 -2.5468
 7124SOL    HW233006   1.148   2.558   1.065 -3.3972  0.0125 -0.5406
 7125SOL     OW33007   1.191   1.999   3.094 -0.1941  0.3284 -0.5402
 7125SOL    HW133008   1.149   1.935   3.036 -0.6028  1.2692 -1.2657
 7125SOL    HW233009   1.217   1.935   3.161  1.8036  0.0511 -1.5666
 7126SOL     OW33010   1.404   1.423   3.533  0.3557 -0.3177  0.7715
 7126SOL    HW133011   1.351   1.420   3.613  0.3551 -1.1082  0.7368
 7126SOL    HW233012   1.489   1.414   3.576 -0.8708 -0.3771  3.1627
 7127SOL     OW33013   1.716   0.941   8.360 -0.5388  0.2351 -0.2118
 7127SOL    HW133014   1.625   0.917   8.381  0.6707 -3.6498  0.5965
 7127SOL    HW233015   1.715   1.033   8.385 -0.5033 -0.2783  1.6413
 7128SOL     OW33016   0.868   1.172   3.351 -0.2955 -0.0095  0.2048
 7128SOL    HW133017   0.940   1.168   3.288 -1.1490  0.3043 -0.7961
 7128SOL    HW233018   0.906   1.167   3.438  1.3405 -0.9700 -0.5544
 7129SOL     OW33019   0.881   4.076   5.429 -0.1503  0.0729  0.3782
 7129SOL    HW133020   0.842   4.082   5.342  1.4530  0.1262 -0.3313
 7129SOL    HW233021   0.856   4.164   5.454  0.0806  0.1025  0.5042
 7130SOL     OW33022   3.047   2.248   7.809  0.1820  0.6465  0.5388
 7130SOL    HW133023   3.018   2.338   7.795 -2.5848 -0.2150  0.7256
 7130SOL    HW233024   2.990   2.207   7.745  0.2896  1.1010  0.1501
 7131SOL     OW33025   3.189   1.665   6.163 -0.4133 -0.2252  0.8469
 7131SOL    HW133026   3.152   1.644   6.248 -1.2456 -1.1113  0.2774
 7131SOL    HW233027   3.148   1.749   6.143 -1.0073 -0.6944  0.0897
 7132SOL     OW33028   2.781   4.088   2.676  0.5791 -0.4051  0.2991
 7132SOL    HW133029   2.837   4.131   2.611  1.6569 -2.4693 -0.1215
 7132SOL    HW233030   2.833   4.102   2.755  0.3448 -0.2938  0.4345
 7133SOL     OW33031   2.950   1.617   7.818 -0.0087 -0.7247  0.4869
 7133SOL    HW133032   2.996   1.700   7.814 -1.8041  0.3492  1.7934
 7133SOL    HW233033   2.960   1.591   7.727 -2.2243  1.0558 -0.2745
 7134SOL     OW33034   1.257   1.673   5.048 -0.2245  0.2711 -0.3618
 7134SOL    HW133035   1.254   1.672   5.143  1.0873 -1.1980 -0.3320
 7134SOL    HW233036   1.215   1.588   5.032 -0.2153  0.7274 -2.8611
 7135SOL     OW33037   1.858   0.144   7.769  0.2480  0.7511  0.5735
 7135SOL    HW133038   1.891   0.122   7.682  0.4635  0.8828  0.6232
 7135SOL    HW233039   1.799   0.071   7.788  2.0606 -0.6363  0.9248
 7136SOL     OW33040   2.625   0.341  11.100  0.3850 -0.2741 -0.3629
 7136SOL    HW133041   2.669   0.421  11.071  1.3600 -0.1138  1.5239
 7136SOL    HW233042   2.689   0.320  11.169  0.2106 -0.3601 -0.2278
 7137SOL     OW33043   1.710   3.130   6.769 -0.5769  0.0341 -0.5978
 7137SOL    HW133044   1.670   3.190   6.706 -0.7540 -1.5115 -1.9380
 7137SOL    HW233045   1.779   3.089   6.718  1.0984 -0.0173  1.7434
 7138SOL     OW33046   2.548   1.446   8.907 -0.1231  0.2481 -0.0606
 7138SOL    HW133047   2.512   1.380   8.847  0.1503 -0.2011  0.2685
 7138SOL    HW233048   2.551   1.401   8.991  1.4090  1.6489  0.6290
 7139SOL     OW33049   2.196   2.014   3.148  0.0562 -0.1336 -0.3494
 7139SOL    HW133050   2.147   1.936   3.121  2.1826 -1.4530 -0.4226
 7139SOL    HW233051   2.129   2.078   3.125 -1.0017 -1.1331 -0.0474
 7140SOL     OW33052   1.388   1.640   9.122 -0.3245  0.1934 -0.1326
 7140SOL    HW133053   1.370   1.663   9.031 -0.4962 -0.0702 -0.1658
 7140SOL    HW233054   1.450   1.707   9.151  3.6229 -3.2963 -0.4143
 7141SOL     OW33055   1.758   1.149  12.548 -0.5386 -0.8330  0.3023
 7141SOL    HW133056   1.833   1.208  12.552 -2.0738  0.9279  2.9828
 7141SOL    HW233057   1.780   1.074  12.602 -0.8807 -1.1661 -0.0167
 7142SOL     OW33058   0.689   3.326   5.022  0.5465  0.2047  0.7261
 7142SOL    HW133059   0.718   3.362   4.938 -1.4414 -1.8205 -0.8039
 7142SOL    HW233060   0.639   3.250   4.993  2.0006 -0.0104 -1.2570
 7143SOL     OW33061   4.569   4.671   3.317  0.5535  0.7007  0.0270
 7143SOL    HW133062   4.658   4.640   3.302 -0.5994 -2.2419 -0.6508
 7143SOL    HW233063   4.588   0.027   3.339 -2.0503  0.9308  1.2671
 7144SOL     OW33064   0.677   0.744   8.952 -0.4427  0.1634  0.6589
 7144SOL    HW133065   0.633   0.716   9.033 -0.1297 -0.1948  0.7059
 7144SOL    HW233066   0.605   0.722   8.893  0.2756  0.8388 -0.4604
 7145SOL     OW33067   4.524   3.194   7.380 -0.2215  0.0545  0.2918
 7145SOL    HW133068   4.608   3.152   7.361  0.2756  0.9516  0.4816
 7145SOL    HW233069   4.549   3.213   7.471  1.7804 -0.4428 -0.1537
 7146SOL     OW33070   0.809   4.554   6.639 -0.6728  0.0921 -0.1594
 7146SOL    HW133071   0.775   4.464   6.642  0.3045 -0.2543  0.8081
 7146SOL    HW233072   0.841   4.561   6.729 -3.1669 -0.0148  0.7407
 7147SOL     OW33073   0.348   4.484   2.922  0.0910  0.9628  0.1544
 7147SOL    HW133074   0.284   4.450   2.985 -0.1965  0.8200 -0.2125
 7147SOL    HW233075   0.430   4.446   2.953 -1.0400 -0.1454  1.7861
 7148SOL     OW33076   3.135   0.653  16.017  0.0204 -0.3551  0.8002
 7148SOL    HW133077   3.196   0.587  16.050  1.3172 -0.5176 -1.9116
 7148SOL    HW233078   3.066   0.601  15.976 -0.8834  0.2101  1.5721
 7149SOL     OW33079   3.190   3.754   6.501  0.1575 -0.3017 -0.1395
 7149SOL    HW133080   3.174   3.843   6.531 -0.8152 -0.7709  0.7412
 7149SOL    HW233081   3.279   3.738   6.532 -0.0254  0.7301  0.8845
 7150SOL     OW33082   1.081   1.381   9.069  0.4397  0.2455  0.2012
 7150SOL    HW133083   1.107   1.327   9.143  1.2299  0.7800  0.3047
 7150SOL    HW233084   0.986   1.369   9.073  0.4522  0.4348  0.9748
 7151SOL     OW33085   0.131   2.759   2.791 -0.1318 -0.1056  0.6988
 7151SOL    HW133086   0.181   2.818   2.734  0.8131 -2.5616 -1.0204
 7151SOL    HW233087   0.189   2.716   2.854  1.3647  1.0068  0.0861
 7152SOL     OW33088   0.640   4.255   9.486 -0.2797  0.1988 -0.4099
 7152SOL    HW133089   0.615   4.313   9.414 -2.7203 -0.4849 -0.1177
 7152SOL    HW233090   0.572   4.276   9.551  0.1591  0.1636  0.0625
 7153SOL     OW33091   1.032   3.058   8.939  0.0328 -0.0483  0.6381
 7153SOL    HW133092   1.072   2.981   8.899  1.2377  1.1644 -0.4701
 7153SOL    HW233093   0.957   3.071   8.881 -0.0419 -0.3734  0.6608
 7154SOL     OW33094   1.613   2.935   6.017  0.7464  0.2904 -0.0893
 7154SOL    HW133095   1.602   2.860   6.075 -0.1404  0.0272 -0.6000
 7154SOL    HW233096   1.617   3.009   6.078 -1.1335  1.4626 -1.3767
 7155SOL     OW33097   1.735   2.660   4.494 -0.1509  0.4446 -0.3781
 7155SOL    HW133098   1.712   2.704   4.412  0.2123 -1.3120 -1.4024
 7155SOL    HW233099   1.703   2.572   4.477 -1.5245  1.1881 -1.6434
 7156SOL     OW33100   0.961   0.319   8.156 -0.0404 -0.1575 -0.4428
 7156SOL    HW133101   0.889   0.266   8.190 -0.4208  0.0203 -0.9691
 7156SOL    HW233102   0.937   0.411   8.168  1.2887  0.0980  0.2561
 7157SOL     OW33103   0.016   0.350   2.117 -0.2210  0.1470 -0.0533
 7157SOL    HW133104   0.098   0.347   2.067 -0.3541  0.3474 -0.2880
 7157SOL    HW233105   0.037   0.281   2.179 -2.2752  0.2374  0.7293
 7158SOL     OW33106   4.266   4.513   7.455  0.8486 -0.5833 -0.0741
 7158SOL    HW133107   4.314   4.476   7.382  2.3267 -0.1952  0.7074
 7158SOL    HW233108   4.347   4.549   7.491  0.6048  1.1422 -1.2479
 7159SOL     OW33109   0.842   0.603   8.818  0.4480 -0.2422  0.5807
 7159SOL    HW133110   0.774   0.536   8.822 -1.3050  1.6343  1.9572
 7159SOL    HW233111   0.808   0.667   8.879  1.7671  0.7156  0.3087
 7160SOL     OW33112   0.880   1.582  15.204 -0.0688  0.3363 -0.1116
 7160SOL    HW133113   0.865   1.610  15.294  1.1504  1.9615 -0.4106
 7160SOL    HW233114   0.806   1.522  15.194  0.1284 -0.1112  1.1590
 7161SOL     OW33115   3.827   2.186   9.298  0.0153  0.2013 -0.4054
 7161SOL    HW133116   3.857   2.134   9.224 -0.9034 -0.2521 -0.4607
 7161SOL    HW233117   3.889   2.257   9.312 -0.5045  0.5070  0.3807
 7162SOL     OW33118   1.829   2.232   1.614  0.0183  0.4172 -0.0578
 7162SOL    HW133119   1.761   2.165   1.606  0.0028  0.0887  2.8912
 7162SOL    HW233120   1.791   2.285   1.544 -1.6319  1.8514  1.9473
 7163SOL     OW33121   1.559   2.284  10.766 -0.2185 -0.0012 -0.5293
 7163SOL    HW133122   1.621   2.353  10.744 -1.3355  1.2194  0.0868
 7163SOL    HW233123   1.539   2.244  10.682 -0.8598 -1.6821  0.4042
 7164SOL     OW33124   0.659   1.408  15.278  0.3840 -0.1413 -0.4307
 7164SOL    HW133125   0.657   1.487  15.332 -0.7926 -0.6494  0.2525
 7164SOL    HW233126   0.674   1.338  15.341  2.4314  0.4306 -0.2850
 7165SOL     OW33127   0.501   0.686   0.058 -0.1391  0.0329 -0.3022
 7165SOL    HW133128   0.569   0.730   0.109  1.3527 -0.0329 -2.2224
 7165SOL    HW233129   0.519   0.594   0.079 -1.9058 -0.1027  0.6302
 7166SOL     OW33130   1.587   2.431   0.756 -0.6202 -0.3316  0.1768
 7166SOL    HW133131   1.571   2.467   0.668 -0.3637 -1.1728 -0.2170
 7166SOL    HW233132   1.534   2.490   0.810 -1.3618 -1.7965  1.0356
 7167SOL     OW33133   1.434   0.060   8.689  0.6370 -0.1910 -0.0333
 7167SOL    HW133134   1.439   0.019   8.603 -1.7430 -1.4907  0.4558
 7167SOL    HW233135   1.415   4.712   8.731  1.5040 -0.3994 -0.0631
 7168SOL     OW33136   0.739   0.207   9.953 -0.3889 -0.3710  0.2803
 7168SOL    HW133137   0.721   0.268  10.024  3.4096  0.2748  0.7307
 7168SOL    HW233138   0.648   0.183   9.937 -0.0466 -1.1660 -0.5187
 7169SOL     OW33139   3.917   1.639   6.603 -0.0926 -0.2239 -0.4135
 7169SOL    HW133140   3.989   1.597   6.556  0.8010  1.0518 -0.1932
 7169SOL    HW233141   3.843   1.585   6.575  0.3543 -1.4461  0.8168
 7170SOL     OW33142   1.092   0.303   9.259 -0.3913  0.9354 -0.1800
 7170SOL    HW133143   1.131   0.271   9.340 -0.0631  0.4670 -0.5215
 7170SOL    HW233144   1.071   0.217   9.221  4.2659 -0.9958  1.6912
 7171SOL     OW33145   2.720   0.603  11.680  0.6335 -0.3309  0.1426
 7171SOL    HW133146   2.709   0.519  11.724 -1.9715 -0.6649 -1.1042
 7171SOL    HW233147   2.809   0.629  11.704  1.1732 -1.7512 -0.3260
 7172SOL     OW33148   2.284   4.085   7.115  0.5167 -0.5311 -0.4963
 7172SOL    HW133149   2.321   4.011   7.067  0.2778 -1.1759  0.3003
 7172SOL    HW233150   2.306   4.162   7.064  1.0402  1.4447  2.7129
 7173SOL     OW33151   3.650   4.560   2.287 -0.4064  0.2517 -0.7628
 7173SOL    HW133152   3.681   4.598   2.369 -0.5034 -1.7053  0.1668
 7173SOL    HW233153   3.558   4.587   2.290 -0.2930  0.3286  1.8059
 7174SOL     OW33154   0.357   3.743   7.713  0.2930  0.2761 -0.6595
 7174SOL    HW133155   0.378   3.702   7.797  0.3608  2.8219  0.5612
 7174SOL    HW233156   0.446   3.762   7.683  0.9558  0.9738  1.7390
 7175SOL     OW33157   2.449   1.618   2.385  0.4356 -0.1931 -0.5642
 7175SOL    HW133158   2.414   1.700   2.350  0.7498 -0.2158 -0.9309
 7175SOL    HW233159   2.500   1.601   2.306 -0.7787 -0.3499 -1.3141
 7176SOL     OW33160   3.112   1.048   8.162 -0.4012  0.0724  0.4066
 7176SOL    HW133161   3.054   0.972   8.162 -0.6225  0.2374  1.0494
 7176SOL    HW233162   3.134   1.074   8.252 -0.9221  0.8679  0.2982
 7177SOL     OW33163   4.473   4.408  14.559 -0.0818  0.0124  0.7043
 7177SOL    HW133164   4.445   4.476  14.621  0.4621  0.5069  0.4004
 7177SOL    HW233165   4.539   4.447  14.503  0.4255  0.3753  1.5604
 7178SOL     OW33166   3.964   3.849   3.010 -0.2927  0.0110  0.0263
 7178SOL    HW133167   3.999   3.904   2.941 -0.0304 -2.6238 -1.9374
 7178SOL    HW233168   3.936   3.775   2.956 -0.3656 -0.0092  0.0919
 7179SOL     OW33169   0.922   2.528   0.244  0.7746 -0.0231  0.2944
 7179SOL    HW133170   0.892   2.560   0.329  0.1092  1.8907 -0.6643
 7179SOL    HW233171   0.847   2.556   0.191  1.5342  1.8428  0.2074
 7180SOL     OW33172   0.317   1.895  10.937 -0.4797 -0.3083  0.1820
 7180SOL    HW133173   0.349   1.985  10.945 -0.5032 -0.1548 -1.5062
 7180SOL    HW233174   0.384   1.856  10.881  0.1111  2.0194 -0.7419
 7181SOL     OW33175   0.341   1.133  14.895 -0.5568 -0.1319 -0.4353
 7181SOL    HW133176   0.260   1.082  14.897  0.7362 -2.2809 -1.9577
 7181SOL    HW233177   0.341   1.163  14.986 -1.4573 -0.8471 -0.1912
 7182SOL     OW33178   2.048   3.416   7.178 -0.2318  0.2596 -1.0244
 7182SOL    HW133179   1.961   3.392   7.208  0.6019  0.4293  1.4858
 7182SOL    HW233180   2.024   3.502   7.143  0.2065  0.3398 -1.1283
 7183SOL     OW33181   1.818   2.481   8.227  0.1986 -0.2051  0.2106
 7183SOL    HW133182   1.880   2.421   8.268 -2.1023 -2.8108 -0.1517
 7183SOL    HW233183   1.858   2.558   8.269  3.5270 -1.6974 -0.1979
 7184SOL     OW33184   1.663   4.515   2.361  0.1665  0.2694  0.2529
 7184SOL    HW133185   1.590   4.453   2.363 -0.0255  0.5504  1.8281
 7184SOL    HW233186   1.676   4.521   2.266  0.7513 -1.4885  0.2080
 7185SOL     OW33187   1.849   1.896   0.683  0.2039 -0.4840 -0.6360
 7185SOL    HW133188   1.860   1.991   0.672 -0.8213 -0.0471  2.0851
 7185SOL    HW233189   1.755   1.892   0.697  0.3216 -1.2077 -0.0097
 7186SOL     OW33190   2.608   0.572   7.577 -0.2473 -0.1117  0.4053
 7186SOL    HW133191   2.634   0.605   7.663 -3.1743 -0.3015  1.3767
 7186SOL    HW233192   2.670   0.500   7.587  3.0014  2.5874 -0.3084
 7187SOL     OW33193   2.435   1.393  15.319  0.3159 -0.3029 -0.4368
 7187SOL    HW133194   2.502   1.462  15.311 -1.1677  1.0007 -1.6390
 7187SOL    HW233195   2.408   1.389  15.411 -2.4328  1.9609 -1.1501
 7188SOL     OW33196   1.944   2.975   0.082  0.3301 -0.2439  0.4218
 7188SOL    HW133197   1.998   2.958   0.004 -0.5699 -1.5964  0.0939
 7188SOL    HW233198   1.870   2.917   0.064  0.2209 -0.5836  1.9576
 7189SOL     OW33199   0.728   1.412  11.087 -0.1512 -0.1422  0.2510
 7189SOL    HW133200   0.732   1.497  11.132  1.7001  0.3479 -0.8515
 7189SOL    HW233201   0.785   1.356  11.140  0.2719  0.7918  0.7881
 7190SOL     OW33202   3.948   2.474   6.423  0.2018  0.3987 -0.0296
 7190SOL    HW133203   3.970   2.382   6.411  1.2670  0.8377 -1.4592
 7190SOL    HW233204   3.936   2.465   6.518  2.3698  1.0307  0.2876
 7191SOL     OW33205   1.779   3.542  13.922 -0.2352  0.4278  0.5296
 7191SOL    HW133206   1.748   3.617  13.971 -1.6379 -0.7135  1.3990
 7191SOL    HW233207   1.870   3.568  13.909 -0.5129  0.3274 -1.6811
 7192SOL     OW33208   3.787   3.784   2.436 -0.2619  0.0392  0.2669
 7192SOL    HW133209   3.786   3.699   2.481 -0.3498 -0.4625 -0.6759
 7192SOL    HW233210   3.826   3.755   2.354  0.7127 -1.5338  1.2759
 7193SOL     OW33211   1.220   3.322   7.466 -0.3161 -0.5004  0.7087
 7193SOL    HW133212   1.144   3.265   7.457 -0.4310 -0.1745 -0.4961
 7193SOL    HW233213   1.278   3.290   7.396  1.2613 -1.3157  2.4024
 7194SOL     OW33214   2.498   0.254   4.399  0.3785 -0.3514 -0.2128
 7194SOL    HW133215   2.496   0.158   4.405  1.9041 -0.3709  0.0559
 7194SOL    HW233216   2.538   0.262   4.313  1.4122 -0.2125  0.2731
 7195SOL     OW33217   2.807   2.473  11.203 -0.0292  0.5698 -0.5344
 7195SOL    HW133218   2.892   2.464  11.247 -0.1149  1.9084 -0.0925
 7195SOL    HW233219   2.779   2.382  11.207 -2.8367  1.4810  0.4655
 7196SOL     OW33220   0.588   2.128   7.178 -0.0230 -0.2560  0.1593
 7196SOL    HW133221   0.495   2.152   7.187 -0.7078 -1.5592 -3.1993
 7196SOL    HW233222   0.576   2.048   7.126 -0.4753 -1.3968  2.0191
 7197SOL     OW33223   2.098   4.363   6.231  0.2535  0.3001 -0.1594
 7197SOL    HW133224   2.091   4.440   6.175  1.7970  0.2558 -0.4109
 7197SOL    HW233225   2.009   4.332   6.214 -0.9378  3.8288 -0.3639
 7198SOL     OW33226   0.727   1.630   2.042  0.0868  0.4490  0.6430
 7198SOL    HW133227   0.690   1.694   1.982  1.6340  0.0122 -0.7799
 7198SOL    HW233228   0.793   1.686   2.083  1.3103 -2.4353  2.6013
 7199SOL     OW33229   0.105   1.804   4.987  0.2184 -0.1168  0.5391
 7199SOL    HW133230   0.172   1.847   5.040  0.5495 -0.7103  0.6009
 7199SOL    HW233231   0.066   1.748   5.053 -0.6959  0.6999  0.6950
 7200SOL     OW33232   3.586   2.817   2.839  0.5058 -0.0377 -0.0584
 7200SOL    HW133233   3.554   2.847   2.754 -0.7238 -0.8027  0.1429
 7200SOL    HW233234   3.510   2.840   2.891  0.0676  0.8492 -1.0843
 7201SOL     OW33235   0.850   4.425   5.124  0.2132  0.5999 -0.0307
 7201SOL    HW133236   0.935   4.468   5.134  0.3155  0.5081 -0.5287
 7201SOL    HW233237   0.803   4.479   5.187  3.7149  0.3607  2.7911
 7202SOL     OW33238   0.703   3.464  14.964 -0.1165  0.4209 -0.4114
 7202SOL    HW133239   0.705   3.409  14.886 -0.5242  1.9713 -1.5392
 7202SOL    HW233240   0.759   3.415  15.024  0.1259 -0.3183 -1.2457
 7203SOL     OW33241   2.037   4.649  13.726  0.2458 -0.4040  0.4293
 7203SOL    HW133242   2.055   0.004  13.700 -0.2236  0.2499  2.3256
 7203SOL    HW233243   2.126   4.630  13.756  0.7192 -2.0000 -2.0297
 7204SOL     OW33244   0.479   4.179   1.527  0.2979 -0.4711  0.7880
 7204SOL    HW133245   0.449   4.231   1.602 -1.1847  0.5634 -0.5267
 7204SOL    HW233246   0.431   4.234   1.465  0.0998  1.0043  2.2310
 7205SOL     OW33247   2.232   3.560  16.022 -0.2033 -0.0421 -0.2060
 7205SOL    HW133248   2.216   3.533  16.113 -0.3995  0.2040 -0.1657
 7205SOL    HW233249   2.156   3.525  15.975  0.7241 -1.4138 -0.7053
 7206SOL     OW33250   0.413   2.561   4.071  0.3991 -0.0241  0.1710
 7206SOL    HW133251   0.417   2.496   4.001 -1.6629  0.5542 -0.5017
 7206SOL    HW233252   0.490   2.616   4.061 -0.0625  1.1865  3.2632
 7207SOL     OW33253   0.662   1.702   6.402  0.2635 -0.0987  0.3784
 7207SOL    HW133254   0.619   1.698   6.488 -1.6411  1.9680 -0.4693
 7207SOL    HW233255   0.606   1.765   6.357  0.6273 -1.8159 -2.4595
 7208SOL     OW33256   0.403   2.115  13.675 -0.4131 -0.2139 -0.4019
 7208SOL    HW133257   0.423   2.021  13.677  1.1471  0.1501  0.7582
 7208SOL    HW233258   0.358   2.111  13.590 -1.8561 -0.7846  0.3825
 7209SOL     OW33259   0.160   1.899   6.664  0.3709  0.3522 -0.2264
 7209SOL    HW133260   0.085   1.849   6.699  0.5145  0.3223  0.0391
 7209SOL    HW233261   0.120   1.923   6.581  1.5445  0.2757 -0.8096
 7210SOL     OW33262   2.307   2.975   3.253 -0.0614  0.3774  0.4735
 7210SOL    HW133263   2.351   2.952   3.172  1.5650  2.5406  0.7352
 7210SOL    HW233264   2.350   3.058   3.276 -0.3901  1.0651 -1.3590
 7211SOL     OW33265   1.257   1.809  15.860  0.4750 -0.0343  0.4212
 7211SOL    HW133266   1.290   1.721  15.879  1.2635 -0.0479 -1.0186
 7211SOL    HW233267   1.213   1.829  15.942 -1.3971 -0.2548 -0.5229
 7212SOL     OW33268   0.669   1.848  17.040  0.1367 -0.0555 -0.3546
 7212SOL    HW133269   0.660   1.891  16.955  1.2417  0.5361 -0.1634
 7212SOL    HW233270   0.633   1.917  17.095  0.6266 -0.2700  0.2361
 7213SOL     OW33271   4.294   3.056  14.623 -0.1843  0.0485  0.3593
 7213SOL    HW133272   4.326   3.045  14.533  0.2810  0.4182  0.4847
 7213SOL    HW233273   4.357   2.999  14.667 -0.0695 -1.3575 -1.6194
 7214SOL     OW33274   3.866   3.192   6.894 -0.5461 -0.2291 -0.4517
 7214SOL    HW133275   3.813   3.122   6.857 -3.4617  1.1585  1.1267
 7214SOL    HW233276   3.959   3.168   6.886 -0.8987 -1.3983 -1.0137
 7215SOL     OW33277   3.055   3.918  13.952  0.3101  0.0214 -0.3133
 7215SOL    HW133278   2.995   3.939  13.881  0.6600  1.0711 -0.2943
 7215SOL    HW233279   3.029   3.973  14.026  0.1294 -0.7267  0.1800
 7216SOL     OW33280   4.638   4.335   6.343 -0.2748  0.7909  0.0864
 7216SOL    HW133281   4.547   4.363   6.340 -0.3753  0.6989  2.3677
 7216SOL    HW233282   4.642   4.295   6.256 -2.0431  0.0793  0.3323
 7217SOL     OW33283   3.718   1.028   1.267  0.1829  0.4449 -0.0361
 7217SOL    HW133284   3.628   1.004   1.289  1.0645 -2.8959 -0.0925
 7217SOL    HW233285   3.713   1.121   1.288 -0.5526  0.3066  0.4118
 7218SOL     OW33286   2.359   3.978  14.183 -0.7313 -0.0302  0.4647
 7218SOL    HW133287   2.365   4.073  14.181 -0.9320 -0.0419 -0.8555
 7218SOL    HW233288   2.269   3.957  14.157 -1.6164  2.1224  1.8706
 7219SOL     OW33289   3.160   2.843   8.809 -0.6357 -0.0242 -0.6853
 7219SOL    HW133290   3.178   2.766   8.862 -0.1634  0.9265  0.5354
 7219SOL    HW233291   3.116   2.811   8.730 -0.2739 -1.2148 -0.4011
 7220SOL     OW33292   4.040   1.020  11.798  0.5177 -0.1347  0.2768
 7220SOL    HW133293   4.131   1.017  11.829 -0.0190 -1.2188  1.7598
 7220SOL    HW233294   4.000   1.014  11.885 -1.3626 -1.5711 -0.6901
 7221SOL     OW33295   1.482   0.502   5.359 -0.6542  0.5913  0.2075
 7221SOL    HW133296   1.518   0.424   5.315 -2.5912 -0.1681 -0.0438
 7221SOL    HW233297   1.494   0.570   5.293  0.5511  0.5000  0.3309
 7222SOL     OW33298   1.087   1.212   6.508 -0.4296 -0.5163 -0.4876
 7222SOL    HW133299   1.032   1.158   6.451  1.5281 -1.6912 -1.2664
 7222SOL    HW233300   1.167   1.161   6.501  0.5626  1.4946 -3.5982
 7223SOL     OW33301   3.398   3.922   7.419  0.0315 -0.5102 -1.1268
 7223SOL    HW133302   3.357   4.005   7.443 -0.0319 -0.6531 -0.7375
 7223SOL    HW233303   3.455   3.916   7.496 -1.2165 -0.7341 -0.1997
 7224SOL     OW33304   2.589   0.305   1.422 -0.2759  0.1734 -0.2802
 7224SOL    HW133305   2.605   0.353   1.504  1.4356  0.2166 -0.6402
 7224SOL    HW233306   2.556   0.220   1.452  1.4244 -0.2782  0.3111
 7225SOL     OW33307   0.739   1.297   8.537 -0.2441 -0.3419  0.2063
 7225SOL    HW133308   0.794   1.222   8.514  1.2280  0.4018  1.3140
 7225SOL    HW233309   0.655   1.261   8.564  1.2892 -1.9166  2.9081
 7226SOL     OW33310   3.125   2.628   8.978  0.3472  0.1480  0.3278
 7226SOL    HW133311   3.199   2.573   9.006  1.1929 -0.3142 -2.7849
 7226SOL    HW233312   3.070   2.569   8.926  0.2573  0.5345 -0.0117
 7227SOL     OW33313   4.486   2.106  15.667 -0.1213  0.6274  0.2166
 7227SOL    HW133314   4.544   2.033  15.689  2.3834  1.8146 -2.5033
 7227SOL    HW233315   4.488   2.096  15.572  0.3899  4.1995 -0.1387
 7228SOL     OW33316   3.884   2.670   4.505 -0.3202  0.7341  0.3725
 7228SOL    HW133317   3.869   2.758   4.540  0.4845  0.4051  1.5141
 7228SOL    HW233318   3.930   2.639   4.583  0.2837  0.0083 -0.2771
 7229SOL     OW33319   3.090   1.026   3.949 -0.3761  0.4032  0.3657
 7229SOL    HW133320   3.032   0.969   3.898  1.1512 -1.2722  0.4989
 7229SOL    HW233321   3.175   0.981   3.943 -0.1674  0.8562 -0.0673
 7230SOL     OW33322   0.981   1.143   7.739  0.5340 -0.3033 -0.1838
 7230SOL    HW133323   0.994   1.099   7.822 -0.4361  0.0055  0.1345
 7230SOL    HW233324   1.017   1.231   7.754 -2.1714  1.2723 -2.7151
 7231SOL     OW33325   2.570   0.774   8.097  0.4490 -0.5336 -0.0019
 7231SOL    HW133326   2.486   0.813   8.074  1.0755  0.1228 -1.2150
 7231SOL    HW233327   2.583   0.803   8.188 -1.4669  0.3110 -0.0068
 7232SOL     OW33328   0.712   0.088   4.888 -0.0478  0.4893 -0.1616
 7232SOL    HW133329   0.678   0.061   4.973  2.2768 -1.5520  0.1341
 7232SOL    HW233330   0.687   0.009   4.840 -1.0004  1.5762 -1.4262
 7233SOL     OW33331   2.521   1.695   8.579 -0.3871 -0.3647 -0.2112
 7233SOL    HW133332   2.515   1.624   8.514 -1.6452 -0.6464  0.2104
 7233SOL    HW233333   2.432   1.717   8.607  0.6241  1.8545  1.2200
 7234SOL     OW33334   0.375   4.595   4.129  1.0996  0.0495  0.0906
 7234SOL    HW133335   0.348   4.599   4.037 -0.9679  0.3046  0.6982
 7234SOL    HW233336   0.306   4.545   4.173 -1.5185  2.3719 -1.3858
 7235SOL     OW33337   4.709   0.425  11.104 -0.1005  0.3943 -0.1105
 7235SOL    HW133338   0.005   0.384  11.185 -2.4480  0.1548  0.6663
 7235SOL    HW233339   0.004   0.515  11.115 -3.5198  1.3208  1.8330
 7236SOL     OW33340   3.638   2.987   0.183 -0.0915  0.3845  0.2898
 7236SOL    HW133341   3.581   3.013   0.255 -0.7485  2.4354 -0.9560
 7236SOL    HW233342   3.720   3.032   0.203 -0.5285  0.9181  0.8783
 7237SOL     OW33343   3.383   4.203   6.860 -0.1217  0.7783  0.4572
 7237SOL    HW133344   3.469   4.181   6.824 -1.9712 -2.0829 -2.2252
 7237SOL    HW233345   3.356   4.119   6.894 -0.3894  0.7090  0.0757
 7238SOL     OW33346   3.815   2.658   7.446 -0.4921 -0.1156 -0.0417
 7238SOL    HW133347   3.826   2.738   7.498  1.0724 -0.6279  0.4033
 7238SOL    HW233348   3.898   2.614   7.464  1.5463  4.5267  2.0301
 7239SOL     OW33349   2.830   3.109  14.410 -0.2985  0.4642  0.4360
 7239SOL    HW133350   2.882   3.166  14.353 -0.0079 -1.7697 -1.5639
 7239SOL    HW233351   2.797   3.040  14.352 -0.8737 -0.6940  2.1412
 7240SOL     OW33352   3.814   3.384   7.383 -0.6509 -0.7444  0.4013
 7240SOL    HW133353   3.905   3.365   7.358 -0.6971 -0.8870  0.3420
 7240SOL    HW233354   3.764   3.351   7.308 -1.3147 -1.6712  1.2588
 7241SOL     OW33355   0.252   0.115   4.181  0.6632 -0.5512 -0.3425
 7241SOL    HW133356   0.301   0.035   4.163  1.3402  0.0317 -1.0900
 7241SOL    HW233357   0.243   0.124   4.276 -1.2186 -0.5557 -0.5150
 7242SOL     OW33358   2.211   1.019  10.847  0.5450  0.1576  0.5398
 7242SOL    HW133359   2.252   0.945  10.893  0.1574 -0.4264 -0.0643
 7242SOL    HW233360   2.170   0.966  10.779  1.6499 -1.0077  0.7547
 7243SOL     OW33361   2.907   0.139   4.827  0.3347 -0.0621 -0.3932
 7243SOL    HW133362   2.896   0.209   4.763  2.0210 -0.7227 -1.4047
 7243SOL    HW233363   2.820   0.100   4.831  0.2182  0.0046 -2.1591
 7244SOL     OW33364   1.632   1.078  10.318 -0.3826  0.3244  0.2531
 7244SOL    HW133365   1.537   1.071  10.309 -0.3627  0.4978 -0.0557
 7244SOL    HW233366   1.628   1.161  10.365 -0.6934 -0.6877  2.0427
 7245SOL     OW33367   0.993   2.947   0.832  0.3362  0.0364  0.5312
 7245SOL    HW133368   1.003   2.970   0.740 -0.7361 -3.8949 -0.5643
 7245SOL    HW233369   1.021   3.032   0.867  0.9679 -0.2549  0.7331
 7246SOL     OW33370   2.546   0.761   6.608 -0.5698  0.5630 -0.0688
 7246SOL    HW133371   2.617   0.700   6.625 -0.2729  1.2733  1.1995
 7246SOL    HW233372   2.552   0.775   6.513 -0.3822  1.6418  0.0978
 7247SOL     OW33373   0.198   0.669  11.714 -0.3397 -0.3405  0.2196
 7247SOL    HW133374   0.244   0.752  11.726 -0.9239  0.1601 -1.0104
 7247SOL    HW233375   0.272   0.616  11.687 -0.9424 -2.1974  2.2524
 7248SOL     OW33376   3.096   3.366   5.830 -0.3202 -0.2158  0.0515
 7248SOL    HW133377   3.159   3.435   5.810 -0.4976 -0.2882 -0.7407
 7248SOL    HW233378   3.141   3.305   5.888  2.7335  1.3135 -0.6992
 7249SOL     OW33379   1.257   4.462  12.616 -0.0031 -0.7832 -0.1877
 7249SOL    HW133380   1.164   4.472  12.634 -0.0510 -0.1459 -0.8030
 7249SOL    HW233381   1.305   4.535  12.656 -2.6150  1.3824 -1.0357
 7250SOL     OW33382   1.947   2.684   4.888  0.5726 -0.2693  0.1368
 7250SOL    HW133383   2.022   2.655   4.940 -0.8908 -2.7328  0.8569
 7250SOL    HW233384   1.984   2.766   4.856 -1.0423 -0.8060 -3.1148
 7251SOL     OW33385   0.430   3.248   2.860  0.0049  0.1159 -0.6901
 7251SOL    HW133386   0.501   3.248   2.796  0.8672  0.9414  0.2679
 7251SOL    HW233387   0.404   3.156   2.861 -1.9542  0.6683  0.7379
 7252SOL     OW33388   3.059   2.344   1.403 -0.2068  0.5035  0.4784
 7252SOL    HW133389   3.098   2.422   1.362  0.6048 -0.7084 -1.0382
 7252SOL    HW233390   2.965   2.363   1.397 -0.1414  0.9889  1.0759
 7253SOL     OW33391   1.751   2.286   0.910 -0.2417  0.4864 -0.3328
 7253SOL    HW133392   1.803   2.236   0.848 -0.3174  0.9542 -0.7703
 7253SOL    HW233393   1.699   2.347   0.858 -1.4232 -0.9214 -0.7993
 7254SOL     OW33394   2.529   1.812   7.100  0.3136  0.0115 -0.2071
 7254SOL    HW133395   2.476   1.788   7.024  1.5861 -1.8677 -0.5038
 7254SOL    HW233396   2.570   1.728   7.119 -0.4427  0.0442  1.5636
 7255SOL     OW33397   0.445   0.523   4.323 -0.1430  0.4608 -0.0602
 7255SOL    HW133398   0.511   0.457   4.303  0.4148  0.8565  0.4657
 7255SOL    HW233399   0.367   0.488   4.280 -2.3088  3.6515  1.3015
 7256SOL     OW33400   2.687   4.066  11.660 -0.3535  0.4597 -0.6211
 7256SOL    HW133401   2.734   4.150  11.659 -0.1005  0.3693  1.6019
 7256SOL    HW233402   2.746   4.008  11.612  0.5595  0.4779  0.4581
 7257SOL     OW33403   0.868   2.567   9.047 -0.4849  0.1034 -0.2142
 7257SOL    HW133404   0.783   2.611   9.053 -0.1782  0.4620  1.3598
 7257SOL    HW233405   0.848   2.485   9.093  0.6727  0.3397  0.7082
 7258SOL     OW33406   0.616   3.979   9.445  0.0774  0.4139 -0.3439
 7258SOL    HW133407   0.564   3.953   9.522  0.9644 -0.5776 -0.0956
 7258SOL    HW233408   0.641   4.069   9.466 -0.3055  0.3425  0.4368
 7259SOL     OW33409   1.676   1.707   7.830  0.3573  0.4779  0.1831
 7259SOL    HW133410   1.737   1.766   7.874 -0.2178 -0.2933  2.0212
 7259SOL    HW233411   1.661   1.643   7.900  1.3983  2.3500  2.1162
 7260SOL     OW33412   2.829   3.088   7.688 -0.1038  0.5157 -0.3459
 7260SOL    HW133413   2.791   3.066   7.773  3.0385 -1.7215  0.5040
 7260SOL    HW233414   2.788   3.174   7.677  2.5134  1.5839 -1.7954
 7261SOL     OW33415   2.368   1.344  13.072 -0.1937 -0.8511 -0.2796
 7261SOL    HW133416   2.390   1.256  13.103 -0.5597 -1.4718 -1.8196
 7261SOL    HW233417   2.450   1.386  13.096 -0.3933 -0.4877 -0.2387
 7262SOL     OW33418   4.429   2.771   7.025 -0.2718  0.6485 -0.1319
 7262SOL    HW133419   4.388   2.723   6.953 -0.0114  1.1477 -0.6127
 7262SOL    HW233420   4.446   2.858   6.988  0.3811  0.4646 -0.2536
 7263SOL     OW33421   1.642   3.499   4.047 -0.5304  0.1712 -0.3515
 7263SOL    HW133422   1.718   3.510   4.104 -0.9196  2.3223 -0.2410
 7263SOL    HW233423   1.577   3.479   4.115 -1.6423  0.9333 -1.1825
 7264SOL     OW33424   3.125   0.768   2.559  0.0088 -0.2897  0.5962
 7264SOL    HW133425   3.102   0.861   2.562 -0.8107 -0.4679 -0.1771
 7264SOL    HW233426   3.062   0.737   2.624 -0.7052 -0.4853 -0.1862
 7265SOL     OW33427   4.538   4.468  13.566  0.4544  0.2086  0.0523
 7265SOL    HW133428   4.561   4.431  13.480 -0.9247  1.5313 -0.8886
 7265SOL    HW233429   4.446   4.486  13.548 -0.1414  0.2201  3.2063
 7266SOL     OW33430   3.850   3.392   3.627 -0.2340 -0.3132 -0.1866
 7266SOL    HW133431   3.892   3.444   3.559  1.5719  1.8066  2.5374
 7266SOL    HW233432   3.871   3.438   3.708 -0.3053  0.2437 -0.4833
 7267SOL     OW33433   4.048   0.031   6.259  0.2637  0.0888  0.4888
 7267SOL    HW133434   4.044   4.677   6.294 -1.1608 -0.3090 -0.7010
 7267SOL    HW233435   3.956   0.054   6.243 -0.1951 -2.3133 -0.3003
 7268SOL     OW33436   3.720   0.622  16.242 -0.8699  0.3248  0.4741
 7268SOL    HW133437   3.669   0.696  16.274 -1.1467 -0.2427  1.3455
 7268SOL    HW233438   3.805   0.665  16.232  0.0310 -1.1206  1.8515
 7269SOL     OW33439   1.975   4.207   3.747 -0.0137  0.3415  0.0962
 7269SOL    HW133440   2.062   4.185   3.714 -0.4078 -1.6417  0.3926
 7269SOL    HW233441   1.915   4.146   3.705 -1.1885  2.2436 -0.9877
 7270SOL     OW33442   2.991   3.536  16.267  0.1281 -0.3054 -1.0387
 7270SOL    HW133443   3.037   3.608  16.225  1.2085 -0.1723  0.3336
 7270SOL    HW233444   3.055   3.518  16.337  1.0249  1.0196 -1.5289
 7271SOL     OW33445   1.826   2.826   2.955 -0.3604  0.6293 -0.1477
 7271SOL    HW133446   1.752   2.811   3.014  0.3367 -1.2303  0.2276
 7271SOL    HW233447   1.821   2.921   2.942  1.0004  0.6336 -0.5881
 7272SOL     OW33448   4.647   3.630   4.959 -0.0976 -0.4919 -0.0017
 7272SOL    HW133449   4.552   3.632   4.956 -0.0840  1.1989  0.8828
 7272SOL    HW233450   4.671   3.556   4.903 -1.2042 -1.4816  0.8261
 7273SOL     OW33451   1.397   1.447  16.947 -0.3621 -0.0201 -0.5151
 7273SOL    HW133452   1.341   1.517  16.980 -1.8338 -2.0126  1.1991
 7273SOL    HW233453   1.455   1.507  16.899 -0.0441 -0.5033 -0.7404
 7274SOL     OW33454   1.906   3.562   8.778  0.0785 -0.1354 -0.0877
 7274SOL    HW133455   1.985   3.587   8.730 -0.3130  0.8780 -0.2034
 7274SOL    HW233456   1.938   3.577   8.866  1.1663 -4.4641  0.2577
 7275SOL     OW33457   4.227   0.250   7.335 -0.8009  0.5842 -0.7290
 7275SOL    HW133458   4.257   0.185   7.272 -0.6587 -0.5382  0.4950
 7275SOL    HW233459   4.135   0.224   7.329 -0.7900  0.7043 -1.4458
 7276SOL     OW33460   0.177   0.993  17.672  0.4733 -0.6440  0.0341
 7276SOL    HW133461   0.256   0.943  17.655  0.9083  0.0749 -0.0215
 7276SOL    HW233462   0.200   1.023   0.020  2.7471 -1.0614 -0.4172
 7277SOL     OW33463   3.901   0.098   8.627  0.2168 -0.1560 -0.0291
 7277SOL    HW133464   3.827   0.042   8.651  0.2261 -0.6485 -1.1496
 7277SOL    HW233465   3.889   0.118   8.534 -0.1365 -1.9656 -0.3574
 7278SOL     OW33466   3.922   0.295   5.101  0.3639 -0.0509 -0.1295
 7278SOL    HW133467   3.877   0.215   5.075 -1.0313  0.3390  1.0900
 7278SOL    HW233468   4.008   0.283   5.059 -0.5154  0.6785 -2.1390
 7279SOL     OW33469   0.805   3.731   5.685  0.3742  0.3401 -0.2284
 7279SOL    HW133470   0.778   3.647   5.721 -0.8819  0.9196  0.2035
 7279SOL    HW233471   0.840   3.774   5.763  1.8150 -2.2843  0.5451
 7280SOL     OW33472   3.176   1.909   6.851  0.5006 -0.0768  0.1699
 7280SOL    HW133473   3.233   1.951   6.916  2.2598  0.4909 -1.7373
 7280SOL    HW233474   3.243   1.868   6.795  0.8146  0.1830  0.3550
 7281SOL     OW33475   4.251   3.190   7.640  0.0558 -0.4629 -0.7131
 7281SOL    HW133476   4.299   3.175   7.721 -0.6883 -1.3321 -0.4286
 7281SOL    HW233477   4.231   3.282   7.622 -0.3967  0.2052  3.2089
 7282SOL     OW33478   3.012   3.812  14.792 -0.3066  0.0458 -0.0375
 7282SOL    HW133479   3.092   3.762  14.807 -0.1603  0.2956  0.0119
 7282SOL    HW233480   2.933   3.761  14.778  0.1753 -1.0686  1.2787
 7283SOL     OW33481   1.944   1.656   7.739 -0.0034 -0.3175  0.3914
 7283SOL    HW133482   1.849   1.663   7.752  0.0032 -0.3941  0.4847
 7283SOL    HW233483   1.954   1.565   7.711 -0.4613  0.0330 -0.9117
 7284SOL     OW33484   2.687   2.871  16.219  0.3191 -0.3386 -0.1430
 7284SOL    HW133485   2.623   2.907  16.280  0.7240 -0.2026  0.2081
 7284SOL    HW233486   2.675   2.917  16.136  1.1609  2.7012  1.3776
 7285SOL     OW33487   2.667   4.174   5.433 -0.0838 -0.3444  0.5315
 7285SOL    HW133488   2.689   4.210   5.347  1.2740 -1.0923  0.5616
 7285SOL    HW233489   2.577   4.201   5.450 -1.2064 -3.4433 -0.5518
 7286SOL     OW33490   3.609   4.363   8.743 -0.0885  0.9017  0.5508
 7286SOL    HW133491   3.543   4.400   8.685 -0.3859  1.0886  1.0154
 7286SOL    HW233492   3.550   4.349   8.817  0.3508  0.1145  0.7558
 7287SOL     OW33493   3.680   4.472   3.077  0.1841 -0.0678 -0.2414
 7287SOL    HW133494   3.676   4.558   3.036 -0.7679  1.2801  2.6273
 7287SOL    HW233495   3.773   4.465   3.098  0.0593 -1.3384 -0.1006
 7288SOL     OW33496   1.681   2.810   1.873  0.2697  0.4452 -0.2273
 7288SOL    HW133497   1.743   2.770   1.812 -0.2499 -0.1790 -0.3385
 7288SOL    HW233498   1.595   2.802   1.830  0.5924  1.4726 -1.0727
 7289SOL     OW33499   0.454   4.466   2.225  0.2399 -0.0201  0.5285
 7289SOL    HW133500   0.367   4.426   2.229  0.9319 -1.4285  1.6153
 7289SOL    HW233501   0.464   4.465   2.321  1.4143 -0.3892  0.4050
 7290SOL     OW33502   3.050   2.962   3.389  0.2270 -0.5018  0.0880
 7290SOL    HW133503   3.053   3.049   3.350  0.7505 -0.4743  0.1791
 7290SOL    HW233504   2.960   2.935   3.370  0.5942 -0.2450 -2.0044
 7291SOL     OW33505   0.410   2.648   5.949  0.6218  0.2117 -0.2449
 7291SOL    HW133506   0.441   2.688   6.030 -1.0515  0.2526  0.3773
 7291SOL    HW233507   0.343   2.590   5.987 -0.6454  2.1877  0.5360
 7292SOL     OW33508   2.849   2.095  10.070 -0.3855 -0.0258  0.0983
 7292SOL    HW133509   2.884   2.093   9.981  1.9082  3.4372  0.8897
 7292SOL    HW233510   2.862   2.008  10.107 -1.6919 -0.7228 -1.0952
 7293SOL     OW33511   2.747   0.454   5.676 -0.2720 -0.3335 -0.2520
 7293SOL    HW133512   2.664   0.408   5.677  1.6400 -3.7670  0.2458
 7293SOL    HW233513   2.731   0.511   5.601 -3.3339 -0.1392  0.5426
 7294SOL     OW33514   3.005   2.315   5.766 -0.1506 -0.4498  0.0344
 7294SOL    HW133515   3.068   2.338   5.698 -0.8732  0.4995 -0.3126
 7294SOL    HW233516   2.929   2.372   5.755  0.0491  0.1213  1.5112
 7295SOL     OW33517   1.853   1.328   2.172  0.2444 -0.2156 -0.4152
 7295SOL    HW133518   1.888   1.239   2.174  0.5630 -0.1199 -1.6280
 7295SOL    HW233519   1.931   1.378   2.194  0.8397 -1.0175 -0.6790
 7296SOL     OW33520   4.224   3.971   7.108  0.2336 -0.8008  0.3578
 7296SOL    HW133521   4.315   3.967   7.079 -0.0294  1.8029 -0.8511
 7296SOL    HW233522   4.198   3.878   7.107  0.5828 -0.9292  2.8008
 7297SOL     OW33523   0.200   4.663   0.207  0.0342 -0.3016  0.4273
 7297SOL    HW133524   0.115   4.708   0.209  0.3700  0.4677 -2.4527
 7297SOL    HW233525   0.162   4.593   0.155 -0.3450  0.8866 -0.8900
 7298SOL     OW33526   1.544   4.283   6.594 -0.1600 -0.4135 -0.0259
 7298SOL    HW133527   1.589   4.360   6.629 -0.3440  0.1308 -0.9998
 7298SOL    HW233528   1.590   4.222   6.651  0.7188 -0.0566 -0.3326
 7299SOL     OW33529   2.261   4.259   6.440 -0.0875 -0.2143  0.1015
 7299SOL    HW133530   2.168   4.267   6.463 -0.3034 -1.1727 -0.4328
 7299SOL    HW233531   2.259   4.306   6.357 -0.3318  1.4840  1.0718
 7300SOL     OW33532   2.013   2.627   3.426  0.4819 -0.6543  0.2493
 7300SOL    HW133533   2.087   2.623   3.487  0.0302 -2.4854  0.6754
 7300SOL    HW233534   2.045   2.710   3.391  0.0055 -0.2338  0.8135
 7301SOL     OW33535   0.823   3.528   8.627 -0.3259  0.0718  0.1981
 7301SOL    HW133536   0.781   3.525   8.541 -0.2130  1.5005  0.0849
 7301SOL    HW233537   0.908   3.571   8.615 -0.3067  0.2950  1.1335
 7302SOL     OW33538   2.766   0.897   2.213 -0.5626 -0.4217 -0.0649
 7302SOL    HW133539   2.815   0.973   2.182 -0.9695 -0.5916 -1.1336
 7302SOL    HW233540   2.796   0.890   2.303 -0.8415  2.0078  0.2006
 7303SOL     OW33541   1.114   3.346   0.142  0.4874 -0.7993  0.1478
 7303SOL    HW133542   1.143   3.346   0.233  1.0111 -2.4809 -0.0151
 7303SOL    HW233543   1.188   3.393   0.104 -0.3486 -0.1148 -0.6266
 7304SOL     OW33544   1.686   0.408  10.309  0.6682  0.4397 -0.4771
 7304SOL    HW133545   1.648   0.493  10.283 -2.6135 -0.9121 -0.0735
 7304SOL    HW233546   1.650   0.396  10.397  3.1839  1.0836  0.6328
 7305SOL     OW33547   2.904   0.639  10.705  0.3144  0.1358 -0.1994
 7305SOL    HW133548   2.824   0.617  10.658 -1.7014  2.0454  2.4104
 7305SOL    HW233549   2.887   0.613  10.795 -1.7074  1.1248 -0.3065
 7306SOL     OW33550   2.255   4.315   6.742 -0.1712 -0.2086  1.1441
 7306SOL    HW133551   2.249   4.228   6.702  1.2351  0.1421  0.1686
 7306SOL    HW233552   2.179   4.358   6.701  0.3969 -1.8253 -1.6474
 7307SOL     OW33553   4.139   4.505   7.704  0.1878  0.1235 -0.0131
 7307SOL    HW133554   4.181   4.510   7.618 -1.8776  4.1304 -0.7642
 7307SOL    HW233555   4.092   4.589   7.700  0.3510  0.3672  3.7104
 7308SOL     OW33556   4.628   1.729   3.535  0.4057  0.3225  0.2707
 7308SOL    HW133557   4.534   1.730   3.515  0.3138 -1.1487  0.6486
 7308SOL    HW233558   4.633   1.707   3.628  1.9223 -1.2781 -0.1921
 7309SOL     OW33559   0.624   0.433   5.971  0.0494 -0.6444  0.0631
 7309SOL    HW133560   0.626   0.529   5.965  0.8210 -0.7127 -0.7377
 7309SOL    HW233561   0.613   0.406   5.880 -0.1248  1.6928 -0.6239
 7310SOL     OW33562   4.725   3.409   4.747  0.8462  0.7472 -0.3557
 7310SOL    HW133563   4.714   3.434   4.655  4.1556 -1.4918 -1.3451
 7310SOL    HW233564   0.023   3.321   4.733  0.0760  0.7686 -2.2887
 7311SOL     OW33565   1.746   3.560   3.184  0.2462  0.4426 -0.0031
 7311SOL    HW133566   1.724   3.473   3.218 -1.2088  0.6363 -0.4928
 7311SOL    HW233567   1.836   3.543   3.154  0.2535  0.1383  0.1845
 7312SOL     OW33568   0.772   0.337   3.018  0.1760  0.4875 -0.1503
 7312SOL    HW133569   0.763   0.245   3.043  0.5044 -0.1065 -2.1451
 7312SOL    HW233570   0.685   0.355   2.981 -0.1669 -1.9095 -0.5004
 7313SOL     OW33571   3.130   0.936   0.791  0.0583  0.5374 -0.1438
 7313SOL    HW133572   3.226   0.930   0.795 -0.0742 -0.7485  1.1447
 7313SOL    HW233573   3.108   1.007   0.731 -0.6515 -0.5812 -1.2079
 7314SOL     OW33574   1.897   2.045  11.497  0.0559 -0.4925  0.2871
 7314SOL    HW133575   1.852   2.031  11.413  1.6574 -1.0539 -0.4823
 7314SOL    HW233576   1.837   2.111  11.532 -0.2748  1.3959 -3.7707
 7315SOL     OW33577   4.297   3.227   8.929 -0.7638 -0.4590 -0.0675
 7315SOL    HW133578   4.213   3.185   8.914 -1.7251  1.4837 -0.1741
 7315SOL    HW233579   4.276   3.317   8.958  1.4116  0.1014 -0.2418
 7316SOL     OW33580   3.804   4.174   9.550  0.8153  0.5308 -0.1088
 7316SOL    HW133581   3.847   4.183   9.635  0.3525 -0.8052  0.2693
 7316SOL    HW233582   3.814   4.082   9.524 -1.7769 -1.3317  5.4995
 7317SOL     OW33583   1.957   3.421   4.200 -0.3430  0.1218  0.0085
 7317SOL    HW133584   1.979   3.506   4.239  0.3297  0.4514 -1.0899
 7317SOL    HW233585   1.973   3.455   4.112  0.5778  1.5902  0.7426
 7318SOL     OW33586   0.155   0.991   1.781  0.4103  0.1491  0.2381
 7318SOL    HW133587   0.064   0.983   1.752  0.8762 -0.0951 -1.1612
 7318SOL    HW233588   0.154   0.989   1.877 -0.1006  1.4854  0.2660
 7319SOL     OW33589   3.753   1.224   6.638  0.0538  0.2138 -0.5747
 7319SOL    HW133590   3.688   1.185   6.579  0.1666 -0.3046 -0.3645
 7319SOL    HW233591   3.828   1.165   6.627 -1.5450 -2.2425  1.6233
 7320SOL     OW33592   2.182   1.733   3.835 -0.0959 -0.3719  0.0604
 7320SOL    HW133593   2.125   1.724   3.758  0.6919 -1.2383 -0.4109
 7320SOL    HW233594   2.121   1.724   3.908  0.7027 -1.2943  0.5994
 7321SOL     OW33595   2.470   4.208  16.209  0.0998  0.1693 -0.2014
 7321SOL    HW133596   2.481   4.302  16.220 -0.8229  0.1888  0.6066
 7321SOL    HW233597   2.378   4.203  16.181  0.1708 -2.4533  0.0179
 7322SOL     OW33598   1.866   2.470   1.777  0.5504 -0.6858  0.3396
 7322SOL    HW133599   1.958   2.494   1.765  0.2037 -0.8546 -2.7806
 7322SOL    HW233600   1.860   2.389   1.725  2.3737 -2.4662  2.9222
 7323SOL     OW33601   3.405   0.922  15.064 -0.0516 -0.2674  0.0747
 7323SOL    HW133602   3.415   0.870  15.143 -3.1621  1.7296  1.7806
 7323SOL    HW233603   3.490   0.966  15.055 -0.7728  1.1259  0.1032
 7324SOL     OW33604   4.283   2.244   4.792  0.1498 -0.2000  0.2605
 7324SOL    HW133605   4.377   2.231   4.804  0.1544 -0.1912  0.2349
 7324SOL    HW233606   4.277   2.276   4.702  0.1768  0.4446  0.4895
 7325SOL     OW33607   1.234   4.455   8.309  0.0288  1.0329  0.4747
 7325SOL    HW133608   1.143   4.440   8.333  0.6100 -0.5634  1.6648
 7325SOL    HW233609   1.213   4.469   8.217  0.2393 -0.3383  0.2130
 7326SOL     OW33610   2.559   2.655   3.094 -0.3397  0.1205  0.7707
 7326SOL    HW133611   2.557   2.617   3.006 -1.3791  1.9028  0.0155
 7326SOL    HW233612   2.569   2.750   3.081 -1.0626  0.1356  0.3242
 7327SOL     OW33613   3.920   4.033   7.150  0.0789 -0.3192 -0.1215
 7327SOL    HW133614   3.971   4.023   7.231 -1.5203  1.8768  1.1524
 7327SOL    HW233615   3.832   4.013   7.182  0.0858  0.9927  0.7190
 7328SOL     OW33616   0.836   1.283  14.182  0.0611  0.4324 -0.1082
 7328SOL    HW133617   0.805   1.364  14.222 -2.0621 -1.0194  1.2701
 7328SOL    HW233618   0.824   1.302  14.089 -0.8931 -0.7880 -0.2460
 7329SOL     OW33619   0.462   3.279   7.801  0.1035  0.8166  0.1882
 7329SOL    HW133620   0.419   3.238   7.876  2.1083  0.8260  1.3591
 7329SOL    HW233621   0.383   3.296   7.750 -1.6614 -0.3737  2.5655
 7330SOL     OW33622   1.101   0.418  11.661 -0.2383 -0.1843  0.2131
 7330SOL    HW133623   1.167   0.418  11.730 -0.8716 -0.3951  0.8174
 7330SOL    HW233624   1.110   0.509  11.633  0.2585  0.0492  1.1266
 7331SOL     OW33625   1.726   0.847   2.503  0.2972  0.0251  0.1895
 7331SOL    HW133626   1.818   0.859   2.479  0.6588 -1.2142  0.9733
 7331SOL    HW233627   1.695   0.936   2.485  0.2043 -0.2564 -1.0164
 7332SOL     OW33628   0.706   4.570   6.185  0.4977 -0.2459 -0.5774
 7332SOL    HW133629   0.638   4.630   6.156  0.4651 -0.4699 -0.9681
 7332SOL    HW233630   0.705   4.602   6.275 -3.0060  0.9913 -1.0917
 7333SOL     OW33631   3.422   2.785  12.065 -0.1982 -0.9640  0.0754
 7333SOL    HW133632   3.374   2.828  12.136  0.2258 -0.6989  0.1995
 7333SOL    HW233633   3.464   2.710  12.106 -1.7463 -0.6881  2.1950
 7334SOL     OW33634   4.261   2.736   1.044  0.4089  0.0122  0.6716
 7334SOL    HW133635   4.252   2.782   1.127 -2.2986  1.0130 -0.1396
 7334SOL    HW233636   4.279   2.811   0.986 -1.6114 -0.6608 -0.8413
 7335SOL     OW33637   3.081   2.310   4.746  0.0093 -0.2213 -0.1112
 7335SOL    HW133638   3.120   2.361   4.675 -2.3267  1.4237 -0.1824
 7335SOL    HW233639   3.007   2.274   4.697  0.4237 -0.2360 -0.7329
 7336SOL     OW33640   1.576   4.684  14.785  0.2034 -0.3056 -0.2531
 7336SOL    HW133641   1.541   4.609  14.736  0.6233 -1.7351  1.6347
 7336SOL    HW233642   1.516   4.689  14.859  0.0502  1.2241 -0.4846
 7337SOL     OW33643   2.151   0.625   3.056 -0.3056  0.0402 -0.0698
 7337SOL    HW133644   2.159   0.545   3.107  0.2822  1.8356  2.6753
 7337SOL    HW233645   2.158   0.590   2.967 -0.7093  2.1758 -0.9472
 7338SOL     OW33646   1.413   4.191   5.906  0.0376 -0.2776  0.3667
 7338SOL    HW133647   1.373   4.198   5.819  3.2285  1.6139 -0.9252
 7338SOL    HW233648   1.344   4.215   5.968  0.1180  1.7946 -0.3450
 7339SOL     OW33649   3.295   2.985   3.527 -0.2340  0.4872  0.0554
 7339SOL    HW133650   3.218   2.968   3.474  0.5792 -3.2979  0.1026
 7339SOL    HW233651   3.349   3.031   3.463  1.6310  0.3648  1.5295
 7340SOL     OW33652   1.895   3.698   2.236  0.3636  0.1848  0.2343
 7340SOL    HW133653   1.922   3.708   2.327  0.9013  1.4214 -0.0646
 7340SOL    HW233654   1.820   3.637   2.238  0.2279  0.3992  1.9223
 7341SOL     OW33655   0.354   2.484   7.050 -0.2461  0.2617 -0.0184
 7341SOL    HW133656   0.361   2.390   7.031 -0.3975  0.3795 -0.6576
 7341SOL    HW233657   0.373   2.480   7.143 -0.8692  0.6160  0.1216
 7342SOL     OW33658   2.420   3.934   2.285 -0.0765  0.1976  0.6142
 7342SOL    HW133659   2.337   3.941   2.236  0.9204 -1.2828 -1.2839
 7342SOL    HW233660   2.424   3.838   2.283 -1.1637  0.1831 -1.2221
 7343SOL     OW33661   4.613   1.111   4.517 -0.3862  0.4518  0.0440
 7343SOL    HW133662   4.613   1.064   4.434 -0.2143  1.6781 -0.6577
 7343SOL    HW233663   4.640   1.046   4.582  3.2115  1.5032 -0.3739
 7344SOL     OW33664   1.993   0.148  17.488 -0.6892  0.2783 -0.3629
 7344SOL    HW133665   2.059   0.148  17.419 -0.7740  0.8884 -0.4506
 7344SOL    HW233666   1.996   0.243  17.504  0.2020  0.3023 -0.6768
 7345SOL     OW33667   1.153   3.718   8.330  0.3609 -0.3634 -0.2121
 7345SOL    HW133668   1.243   3.685   8.329  0.8037  0.8268  0.2802
 7345SOL    HW233669   1.165   3.793   8.272  0.2087 -0.0968  0.1006
 7346SOL     OW33670   4.551   1.039   1.259 -0.0036  0.4261 -0.4295
 7346SOL    HW133671   4.559   1.055   1.353 -2.9353  1.1740 -0.3122
 7346SOL    HW233672   4.479   1.090   1.221 -0.1607 -0.6633 -1.5929
 7347SOL     OW33673   0.641   3.161   4.624 -0.6102 -0.3398 -0.4850
 7347SOL    HW133674   0.705   3.131   4.688  1.6843  1.5607 -1.8631
 7347SOL    HW233675   0.564   3.174   4.679 -1.5154 -0.3117 -1.7523
 7348SOL     OW33676   3.578   0.467  14.083  0.2714  0.1059  0.0729
 7348SOL    HW133677   3.669   0.458  14.113 -0.0215 -0.5117  0.7716
 7348SOL    HW233678   3.554   0.375  14.070  0.1780  0.5344 -2.6327
 7349SOL     OW33679   1.101   0.944   4.845  0.1561 -0.1931  0.4756
 7349SOL    HW133680   1.035   0.902   4.790 -1.7724  1.6821  1.3407
 7349SOL    HW233681   1.174   0.883   4.849  0.9096  0.7194  0.6411
 7350SOL     OW33682   1.593   0.907   2.805  0.0019  0.9377  0.0566
 7350SOL    HW133683   1.617   0.814   2.798 -1.8274  0.3750  1.3772
 7350SOL    HW233684   1.681   0.932   2.833  0.4042 -0.2044 -0.1424
 7351SOL     OW33685   1.569   1.220  16.690 -0.1666  0.1258  0.5868
 7351SOL    HW133686   1.584   1.236  16.597  2.8723 -1.9543  0.7220
 7351SOL    HW233687   1.658   1.202  16.719 -0.1316  0.1851  0.5141
 7352SOL     OW33688   3.261   3.157   1.191  0.8693  0.0190 -0.3571
 7352SOL    HW133689   3.354   3.149   1.171  1.0287 -1.1890  0.8281
 7352SOL    HW233690   3.225   3.205   1.117 -0.2578 -0.4135 -0.0871
 7353SOL     OW33691   4.500   2.084   2.665  0.0174 -0.4074  0.5896
 7353SOL    HW133692   4.562   2.140   2.711  0.4444 -1.8102  1.7345
 7353SOL    HW233693   4.566   2.022   2.635 -0.5768 -0.3837 -0.7965
 7354SOL     OW33694   0.926   4.526   9.201  0.1679  0.2217 -0.8017
 7354SOL    HW133695   0.920   4.449   9.256  1.4364  0.9193  0.3338
 7354SOL    HW233696   1.021   4.522   9.188  0.2139  0.7874 -0.6731
 7355SOL     OW33697   0.709   3.508   6.789  0.3296  0.3349  0.3554
 7355SOL    HW133698   0.695   3.566   6.863  1.4920 -0.5213  1.2471
 7355SOL    HW233699   0.653   3.542   6.719  0.6431 -1.2543 -0.6748
 7356SOL     OW33700   1.151   4.452  14.871  0.3489 -0.4985 -0.4233
 7356SOL    HW133701   1.108   4.370  14.849 -1.9285  0.2687  1.1907
 7356SOL    HW233702   1.120   4.454  14.962  0.8694  0.8901 -0.2703
 7357SOL     OW33703   4.132   1.289  15.432 -0.1194  0.5824  0.2413
 7357SOL    HW133704   4.109   1.231  15.505  2.3452 -0.4271  0.2224
 7357SOL    HW233705   4.152   1.226  15.363  3.0088  0.4239  1.2813
 7358SOL     OW33706   2.505   1.550   0.266  0.6035 -0.2945  0.7229
 7358SOL    HW133707   2.589   1.506   0.278  1.3586  0.8555 -0.4028
 7358SOL    HW233708   2.472   1.514   0.184  0.0765  0.8334  0.4325
 7359SOL     OW33709   0.767   3.427  10.089 -0.8080  0.4457  0.5445
 7359SOL    HW133710   0.748   3.507  10.137  2.1099 -0.3030  2.9156
 7359SOL    HW233711   0.677   3.399  10.068 -0.0697 -0.4251 -1.4643
 7360SOL     OW33712   1.487   4.294   7.560 -0.2314 -0.1133  0.3989
 7360SOL    HW133713   1.474   4.209   7.518  0.9596  1.1086 -2.3886
 7360SOL    HW233714   1.474   4.274   7.653  2.3312  0.7637  0.9536
 7361SOL     OW33715   2.449   3.733   0.126  0.0173  0.4014  0.7424
 7361SOL    HW133716   2.497   3.759   0.205 -0.7958 -0.9848  1.6821
 7361SOL    HW233717   2.361   3.748   0.159 -0.2424 -0.1619  0.2970
 7362SOL     OW33718   0.010   3.549   0.655  0.0869  0.3288  0.2320
 7362SOL    HW133719   0.020   3.463   0.695 -1.5337  0.8642  1.7940
 7362SOL    HW233720   0.027   3.534   0.562 -2.1255  0.4721 -0.1867
 7363SOL     OW33721   2.347   1.091  17.093  0.0385 -0.6339 -0.3779
 7363SOL    HW133722   2.296   1.095  17.174  1.8654  1.0549  0.6747
 7363SOL    HW233723   2.298   1.018  17.056 -1.2565 -0.1434  0.3781
 7364SOL     OW33724   1.519   2.876   6.335  0.2241 -0.5054 -0.4757
 7364SOL    HW133725   1.586   2.945   6.337  1.7623 -1.9163 -2.7796
 7364SOL    HW233726   1.574   2.801   6.312  0.8652 -0.0866 -0.3140
 7365SOL     OW33727   3.237   2.040   1.783 -0.2060 -0.0080  0.2571
 7365SOL    HW133728   3.242   2.062   1.690 -0.4277 -0.7431  0.0644
 7365SOL    HW233729   3.324   2.066   1.813 -0.4011 -2.7624  3.1904
 7366SOL     OW33730   3.581   0.856  16.316 -0.5616  0.5819 -0.2601
 7366SOL    HW133731   3.530   0.858  16.236 -0.9061  1.9761  0.0003
 7366SOL    HW233732   3.548   0.939  16.351  0.5282  1.3123 -0.9661
 7367SOL     OW33733   3.905   3.019  10.606  0.1648  0.1554  0.5531
 7367SOL    HW133734   3.945   3.036  10.691 -2.8476  2.6197  1.4857
 7367SOL    HW233735   3.974   3.039  10.542 -0.5240  1.3840  0.2044
 7368SOL     OW33736   1.848   3.551  17.488 -0.0363  0.4651 -0.5245
 7368SOL    HW133737   1.829   3.542  17.395 -2.0458  0.6642 -0.1352
 7368SOL    HW233738   1.810   3.636  17.509  1.1848  0.6915  0.7798
 7369SOL     OW33739   1.281   4.025   9.203  0.5928 -0.1174 -0.4992
 7369SOL    HW133740   1.242   3.944   9.169  0.6534  0.3289 -1.5929
 7369SOL    HW233741   1.355   3.987   9.251  1.0401  0.7153 -0.5282
 7370SOL     OW33742   1.904   4.209  12.013  0.2440 -0.4731  0.3169
 7370SOL    HW133743   1.837   4.140  12.012 -0.8893  0.5922  1.8756
 7370SOL    HW233744   1.949   4.196  12.097 -1.2676 -1.1823  1.0265
 7371SOL     OW33745   0.198   3.329   3.239 -0.7365  0.0314  0.5934
 7371SOL    HW133746   0.281   3.312   3.285 -0.6855  0.9445  0.8364
 7371SOL    HW233747   0.138   3.333   3.313  0.8091 -2.6340  1.9856
 7372SOL     OW33748   4.651   2.719   2.544 -0.0125 -0.0180  0.6721
 7372SOL    HW133749   4.559   2.729   2.518  0.1896 -0.5936 -0.2670
 7372SOL    HW233750   4.646   2.657   2.616 -0.5013 -1.4430 -0.5813
 7373SOL     OW33751   3.986   2.271   6.876 -1.0320 -0.3837  0.0547
 7373SOL    HW133752   4.068   2.222   6.870  1.0767  3.1423 -0.1325
 7373SOL    HW233753   3.999   2.298   6.967  0.4901  3.9140 -1.4455
 7374SOL     OW33754   0.342   0.537   8.881 -0.1643 -0.0202  0.3576
 7374SOL    HW133755   0.287   0.516   8.805 -0.8275 -1.1843  1.1609
 7374SOL    HW233756   0.344   0.457   8.933 -0.9921  0.2618  0.8245
 7375SOL     OW33757   0.522   0.125   7.226  0.2435  0.1094  0.2162
 7375SOL    HW133758   0.459   0.082   7.283  1.5639 -1.1959  0.6907
 7375SOL    HW233759   0.488   0.107   7.138  1.6979 -0.4316 -0.2376
 7376SOL     OW33760   2.566   2.925   2.274 -0.2697 -0.5071  0.1366
 7376SOL    HW133761   2.639   2.865   2.291  1.7358  2.3452  1.4726
 7376SOL    HW233762   2.522   2.876   2.205  0.0358 -0.3143 -0.1951
 7377SOL     OW33763   3.577   1.405   9.395  0.0505  0.0507 -0.0606
 7377SOL    HW133764   3.578   1.458   9.475 -1.0608 -1.9928  1.2855
 7377SOL    HW233765   3.649   1.444   9.344 -1.3624  0.7787 -1.5313
 7378SOL     OW33766   2.502   0.326   5.278  0.1917 -0.6184 -0.2988
 7378SOL    HW133767   2.415   0.356   5.254 -0.4409 -1.0937  1.3552
 7378SOL    HW233768   2.554   0.352   5.202 -2.8780  0.6738 -1.9577
 7379SOL     OW33769   2.765   2.485  14.079 -0.2463 -0.0886 -0.3411
 7379SOL    HW133770   2.832   2.532  14.127  0.5240  0.0771 -1.5836
 7379SOL    HW233771   2.814   2.459  14.001 -1.9689  0.5016 -1.6278
 7380SOL     OW33772   4.375   2.414   3.058 -0.4564 -0.2314  0.1472
 7380SOL    HW133773   4.316   2.481   3.095 -1.8407 -1.7165  0.6340
 7380SOL    HW233774   4.453   2.466   3.038 -1.9444  2.3415  0.9184
 7381SOL     OW33775   2.716   0.119   5.816 -0.0693  0.7851 -0.4762
 7381SOL    HW133776   2.655   0.046   5.827 -0.7873  1.0789 -2.5127
 7381SOL    HW233777   2.654   0.190   5.798 -1.9803 -0.9209 -0.6202
 7382SOL     OW33778   3.048   2.166   8.124  0.0469 -0.3821 -0.1951
 7382SOL    HW133779   3.055   2.214   8.041 -0.5603 -2.1063 -1.2305
 7382SOL    HW233780   2.978   2.102   8.113  0.7766 -1.2263  0.0508
 7383SOL     OW33781   0.032   0.888   0.931 -0.2309  0.0606  0.9130
 7383SOL    HW133782   4.693   0.838   0.964  0.5754 -2.1005 -0.4621
 7383SOL    HW233783   0.016   0.888   0.836 -0.7751  0.5488  1.0040
 7384SOL     OW33784   4.024   2.601   1.635  0.5453  0.1236 -0.1715
 7384SOL    HW133785   3.939   2.590   1.678 -0.0497  0.3548 -1.2724
 7384SOL    HW233786   4.079   2.624   1.710  1.8208  1.0364 -1.3829
 7385SOL     OW33787   3.767   0.418  14.327  0.3176 -0.4785 -0.8618
 7385SOL    HW133788   3.828   0.388  14.395 -2.9246 -2.2026  1.2912
 7385SOL    HW233789   3.741   0.497  14.374  0.9664 -2.5376  2.9906
 7386SOL     OW33790   3.564   0.323   4.652  0.0416 -0.0004  0.3395
 7386SOL    HW133791   3.593   0.374   4.727  3.0388  0.0296 -0.8424
 7386SOL    HW233792   3.650   0.290   4.625 -0.6106 -0.3964 -1.2352
 7387SOL     OW33793   1.005   0.649   5.361  0.5301  0.0610  0.4150
 7387SOL    HW133794   1.084   0.645   5.306  0.4831  0.7253  0.2943
 7387SOL    HW233795   1.024   0.580   5.425 -3.2566  0.0186  1.4459
 7388SOL     OW33796   4.170   4.492   6.635 -0.1974 -0.0694 -0.0970
 7388SOL    HW133797   4.155   4.427   6.567 -4.4154  0.6951  0.1039
 7388SOL    HW233798   4.183   4.428   6.705  1.5658 -0.7909 -1.0889
 7389SOL     OW33799   0.612   0.517   3.685  0.7662 -0.0882 -0.2109
 7389SOL    HW133800   0.656   0.444   3.728 -3.0366 -1.6354  1.0796
 7389SOL    HW233801   0.521   0.497   3.709  0.9292 -2.2967 -1.4334
 7390SOL     OW33802   0.136   1.246   3.079 -0.3923  0.3369 -0.9301
 7390SOL    HW133803   0.204   1.190   3.043  0.7103  0.7563  0.4982
 7390SOL    HW233804   0.182   1.294   3.149 -1.8193  2.0525 -1.1627
 7391SOL     OW33805   2.791   3.274   5.730 -0.4554 -0.2357 -0.1720
 7391SOL    HW133806   2.864   3.335   5.716 -1.9822  1.5908 -0.1402
 7391SOL    HW233807   2.739   3.313   5.801 -1.9985  2.0867 -2.5677
 7392SOL     OW33808   0.486   2.595   7.952 -0.7324 -0.3936 -0.1527
 7392SOL    HW133809   0.437   2.513   7.941 -0.3152 -0.7275  0.5453
 7392SOL    HW233810   0.448   2.634   7.873 -1.8806  0.2006  0.6915
 7393SOL     OW33811   2.845   2.710   4.232  0.7974 -0.0621  0.6501
 7393SOL    HW133812   2.900   2.783   4.260  1.2156 -0.2964  0.4383
 7393SOL    HW233813   2.898   2.660   4.170  2.4774  1.9936  0.4322
 7394SOL     OW33814   0.514   3.463   8.248  0.2068  0.0020  0.1045
 7394SOL    HW133815   0.480   3.391   8.301  2.7407  0.2212  2.0493
 7394SOL    HW233816   0.433   3.489   8.203  0.3987  2.2747  1.0728
 7395SOL     OW33817   4.670   2.399   8.162  0.3196 -0.6342 -0.2477
 7395SOL    HW133818   4.712   2.387   8.076  0.7243  0.5307 -0.2161
 7395SOL    HW233819   0.012   2.426   8.212 -1.6687  1.1316  1.8103
 7396SOL     OW33820   0.421   2.507   5.196  0.1515  0.8538  0.1140
 7396SOL    HW133821   0.374   2.589   5.207 -2.2803 -0.8543  2.4768
 7396SOL    HW233822   0.475   2.504   5.275  0.7335  0.6623 -0.2914
 7397SOL     OW33823   2.609   1.831   7.986  0.2586  0.7794 -0.6596
 7397SOL    HW133824   2.676   1.883   8.029 -0.7003 -0.0970  1.8987
 7397SOL    HW233825   2.538   1.826   8.050  0.8711  0.7371  0.0103
 7398SOL     OW33826   3.229   2.411   8.726  0.5002 -0.1310  0.0797
 7398SOL    HW133827   3.248   2.421   8.633 -1.1299  0.4697 -0.1917
 7398SOL    HW233828   3.140   2.377   8.727  0.7956 -0.9104 -0.4669
 7399SOL     OW33829   2.656   3.407   5.920  0.2265 -0.1752  0.3500
 7399SOL    HW133830   2.652   3.503   5.929  1.4621  0.0897 -1.9195
 7399SOL    HW233831   2.564   3.399   5.897  0.3810  1.3456 -0.8465
 7400SOL     OW33832   1.999   0.839   6.820  0.1618  0.2448 -0.2215
 7400SOL    HW133833   2.060   0.912   6.813  0.4935 -0.0137 -0.0608
 7400SOL    HW233834   2.037   0.786   6.890 -1.3908 -2.5182 -1.4681
 7401SOL     OW33835   0.560   2.731   2.180  0.4168 -0.4299 -0.0505
 7401SOL    HW133836   0.490   2.795   2.168  0.6440 -0.0201  0.7636
 7401SOL    HW233837   0.510   2.679   2.243 -1.4155  0.3424 -0.8852
 7402SOL     OW33838   1.946   3.395   1.088  0.4855  0.8047  1.1138
 7402SOL    HW133839   2.035   3.428   1.099  0.7383  0.1009  1.2291
 7402SOL    HW233840   1.904   3.394   1.174  1.5537  0.4428  1.6395
 7403SOL     OW33841   1.969   2.945   1.915  0.3598 -1.0994  0.3834
 7403SOL    HW133842   1.907   3.018   1.910  0.6840 -0.8043  0.7237
 7403SOL    HW233843   1.935   2.890   1.844 -3.5281  0.9948  0.6044
 7404SOL     OW33844   4.290   1.344  15.784  0.5162 -0.6222 -0.6285
 7404SOL    HW133845   4.224   1.295  15.734 -1.8852 -0.3694  2.2623
 7404SOL    HW233846   4.333   1.270  15.827  0.0079 -1.2245 -1.1414
 7405SOL     OW33847   0.116   4.033   2.463  0.1371 -0.0672 -0.1607
 7405SOL    HW133848   0.036   4.082   2.481 -1.3233 -1.5580 -2.6924
 7405SOL    HW233849   0.134   4.056   2.372 -0.7268 -2.5530 -0.9612
 7406SOL     OW33850   4.018   3.091  16.447  0.2472 -0.2640 -0.0444
 7406SOL    HW133851   3.989   3.010  16.488  0.5880  0.6138  1.9739
 7406SOL    HW233852   4.026   3.146  16.525  1.1331  1.4971 -1.3751
 7407SOL     OW33853   2.499   2.269  14.688  0.7851 -0.0244 -0.9617
 7407SOL    HW133854   2.432   2.338  14.688 -0.9277 -1.6872  1.3507
 7407SOL    HW233855   2.531   2.298  14.602 -0.8775 -1.9010 -2.2184
 7408SOL     OW33856   0.405   2.664  11.916  0.3836 -0.1726  0.1297
 7408SOL    HW133857   0.431   2.598  11.852 -0.1629 -0.0235 -0.2483
 7408SOL    HW233858   0.441   2.641  12.002  0.1214 -1.5945 -0.1477
 7409SOL     OW33859   2.049   0.235  12.147  0.2394  0.5011 -0.7493
 7409SOL    HW133860   2.068   0.156  12.097 -2.5314 -1.2857  1.0297
 7409SOL    HW233861   1.958   0.228  12.177  0.4439  2.2030  0.2356
 7410SOL     OW33862   2.337   2.423   4.503 -0.2546  0.1677  0.3033
 7410SOL    HW133863   2.391   2.502   4.503  0.1682 -0.1238  4.4866
 7410SOL    HW233864   2.362   2.367   4.429  0.6100  1.8235 -0.6648
 7411SOL     OW33865   0.656   0.540   4.741  0.4250 -0.1267 -0.1220
 7411SOL    HW133866   0.691   0.486   4.812  1.2276  0.8856  0.2377
 7411SOL    HW233867   0.722   0.540   4.671  0.6985 -0.7193  0.1298
 7412SOL     OW33868   0.153   3.709   4.446 -0.7076 -0.5520  0.3735
 7412SOL    HW133869   0.161   3.720   4.541  2.4580  1.1599 -0.1056
 7412SOL    HW233870   0.244   3.722   4.423 -1.0691  0.9380 -0.1938
 7413SOL     OW33871   0.812   2.013   9.592 -0.7274 -0.8651 -0.1894
 7413SOL    HW133872   0.880   1.949   9.571  2.1105  1.7062  1.0592
 7413SOL    HW233873   0.732   1.976   9.555 -0.7536 -1.7486  0.7540
 7414SOL     OW33874   3.296   0.959   5.840 -0.4487 -0.0686  0.0878
 7414SOL    HW133875   3.362   1.017   5.879 -2.5313  2.8572 -0.7826
 7414SOL    HW233876   3.328   0.959   5.750  0.1551 -1.2653  0.3055
 7415SOL     OW33877   0.044   4.550  13.664  0.0749  0.4525 -0.1955
 7415SOL    HW133878   0.114   4.486  13.655  0.3756  0.6898  0.4735
 7415SOL    HW233879   4.701   4.499  13.640 -1.2749  2.3138  0.2911
 7416SOL     OW33880   3.327   1.034   3.532 -0.1677 -0.6098  0.4555
 7416SOL    HW133881   3.422   1.032   3.527 -0.2897  0.1799 -2.1791
 7416SOL    HW233882   3.301   1.038   3.440 -0.1225  3.2007  0.6373
 7417SOL     OW33883   4.699   1.184   0.918  0.2104  0.2075 -0.7401
 7417SOL    HW133884   4.656   1.167   0.834 -0.4668 -2.9065  0.2726
 7417SOL    HW233885   0.015   1.104   0.923 -0.6012 -0.1221  2.2658
 7418SOL     OW33886   0.324   1.593   6.018 -0.2901 -0.3898  0.2683
 7418SOL    HW133887   0.290   1.505   6.029 -1.7453  0.2919  1.2766
 7418SOL    HW233888   0.256   1.616   5.955 -0.2605  0.3309  0.4930
 7419SOL     OW33889   0.932   2.487   0.765 -0.2361  0.4616  0.1679
 7419SOL    HW133890   1.015   2.441   0.778  0.3179  1.2648 -0.5506
 7419SOL    HW233891   0.865   2.456   0.826 -1.2307  0.7800 -0.7553
 7420SOL     OW33892   1.104   3.142   7.878 -0.0205 -0.0147  0.2199
 7420SOL    HW133893   1.039   3.203   7.913  0.2217  1.7088 -2.3670
 7420SOL    HW233894   1.055   3.062   7.856  1.4409 -0.6483 -0.7032
 7421SOL     OW33895   3.298   4.643   3.728  0.0175  0.2270  0.8803
 7421SOL    HW133896   3.322   4.675   3.815  3.2073 -1.0083  0.4640
 7421SOL    HW233897   3.367   4.664   3.665 -2.3480  1.8281 -1.1473
 7422SOL     OW33898   4.506   4.207   6.631  0.3623  0.8186  0.6616
 7422SOL    HW133899   4.537   4.253   6.709  2.4698 -0.0000  0.3039
 7422SOL    HW233900   4.556   4.248   6.561  2.3532 -1.7765  0.5326
 7423SOL     OW33901   0.219   3.822   5.374 -0.1302  0.1436 -0.0264
 7423SOL    HW133902   0.304   3.786   5.348  0.0650  0.3608  0.3154
 7423SOL    HW233903   0.243   3.861   5.457 -3.0326 -1.1309  1.4159
 7424SOL     OW33904   4.331   3.802   9.778 -0.1883 -0.5326  0.3318
 7424SOL    HW133905   4.338   3.857   9.701  1.4112 -1.2229 -0.0012
 7424SOL    HW233906   4.351   3.719   9.734  0.1126  0.0236 -0.5662
 7425SOL     OW33907   2.054   4.701   2.364 -0.2960 -0.0373 -0.1297
 7425SOL    HW133908   1.962   4.724   2.380 -0.3275  0.6138 -1.2076
 7425SOL    HW233909   2.043   4.606   2.353 -0.4509 -0.1792  1.2890
 7426SOL     OW33910   2.302   3.394   7.216  0.3066  0.2856  0.2404
 7426SOL    HW133911   2.208   3.381   7.205  0.3721 -0.8102  0.9231
 7426SOL    HW233912   2.310   3.488   7.233  0.7463 -0.2000  2.7680
 7427SOL     OW33913   3.059   4.046   9.878  0.2190  0.0562  0.1481
 7427SOL    HW133914   3.017   4.124   9.840  0.9627  0.5081  0.2656
 7427SOL    HW233915   3.121   4.010   9.815 -0.5176 -2.7112  1.0167
 7428SOL     OW33916   1.292   4.662   6.136  0.2162 -0.2362 -0.0149
 7428SOL    HW133917   1.368   4.606   6.116 -0.5727  0.1961 -4.0793
 7428SOL    HW233918   1.226   4.632   6.074  0.0608 -0.6768  0.3651
 7429SOL     OW33919   0.293   0.106  16.827 -0.4972 -0.3215 -0.2421
 7429SOL    HW133920   0.321   0.093  16.918 -1.0323  1.9442  0.2516
 7429SOL    HW233921   0.304   0.200  16.813  0.6544 -0.3538  0.4576
 7430SOL     OW33922   2.359   0.556   6.305 -0.6066  0.0188  0.4025
 7430SOL    HW133923   2.454   0.569   6.295 -0.8870 -0.0970 -2.4420
 7430SOL    HW233924   2.338   0.575   6.214  2.7038  4.9700  0.6605
 7431SOL     OW33925   1.911   1.553  17.525 -0.2992 -0.5975  0.0492
 7431SOL    HW133926   1.910   1.553  17.429 -1.2274  0.5994  0.0548
 7431SOL    HW233927   1.897   1.646  17.542 -0.6954 -0.1603 -2.7296
 7432SOL     OW33928   1.406   2.075   2.952 -0.2903 -0.6070 -0.2918
 7432SOL    HW133929   1.442   2.138   3.015  0.1038  0.4198 -1.5581
 7432SOL    HW233930   1.333   2.048   3.008  0.7757  0.1054  1.4445
 7433SOL     OW33931   4.296   0.803  11.651  0.4363  0.1488  0.1449
 7433SOL    HW133932   4.265   0.727  11.601 -1.2718  0.5225  0.6361
 7433SOL    HW233933   4.269   0.780  11.740  1.1183  0.7722  0.5122
 7434SOL     OW33934   2.187   3.202   6.098  0.1854  0.3393 -0.0049
 7434SOL    HW133935   2.158   3.264   6.031 -0.1011  0.0755 -0.1278
 7434SOL    HW233936   2.164   3.255   6.174 -1.4089 -1.3632  0.7199
 7435SOL     OW33937   0.064   4.565   3.266  0.3954  0.6985 -0.1804
 7435SOL    HW133938   0.103   4.488   3.225 -4.4150 -0.6476 -2.2419
 7435SOL    HW233939   0.107   4.558   3.351 -0.2111 -2.0726 -0.0929
 7436SOL     OW33940   0.511   3.220   1.958  0.6521  0.3470  0.8333
 7436SOL    HW133941   0.574   3.251   2.023  1.5095 -1.0255  0.6517
 7436SOL    HW233942   0.559   3.146   1.919  0.4857  0.2685  0.7799
 7437SOL     OW33943   1.999   3.137   3.312  0.2935 -0.7144 -0.4035
 7437SOL    HW133944   2.053   3.058   3.301  0.9291 -0.4142  0.6331
 7437SOL    HW233945   1.924   3.098   3.357 -1.2354  2.3610 -0.3048
 7438SOL     OW33946   0.378   2.683   3.432  0.1741  0.0262  0.9570
 7438SOL    HW133947   0.320   2.715   3.363  1.0190  1.1469  0.7714
 7438SOL    HW233948   0.411   2.602   3.395 -3.5667 -1.2653  0.4682
 7439SOL     OW33949   2.227   0.939  10.428 -0.2877 -0.2495  0.2798
 7439SOL    HW133950   2.232   0.845  10.448 -0.9644 -0.3088  0.1597
 7439SOL    HW233951   2.312   0.970  10.459 -0.9094  1.5347  0.1465
 7440SOL     OW33952   1.806   4.425   6.489 -0.1427  0.1104  0.0895
 7440SOL    HW133953   1.828   4.334   6.510  0.1929  0.0247 -0.6114
 7440SOL    HW233954   1.824   4.429   6.395  4.2691  2.3799  1.0515
 7441SOL     OW33955   4.262   1.412   8.989  0.2232  0.0857 -0.1027
 7441SOL    HW133956   4.320   1.361   8.933  1.1852 -0.3944  1.3466
 7441SOL    HW233957   4.245   1.343   9.053  1.1018 -2.3241 -2.5011
 7442SOL     OW33958   0.350   2.511   9.130 -0.7732  0.4784  0.0157
 7442SOL    HW133959   0.368   2.440   9.193 -3.6046  0.4048  0.7529
 7442SOL    HW233960   0.273   2.466   9.096 -0.1861 -0.7889  0.3532
 7443SOL     OW33961   3.199   0.549   8.206 -0.3466  0.0116 -0.1331
 7443SOL    HW133962   3.232   0.547   8.296 -0.1674  0.0190 -0.1982
 7443SOL    HW233963   3.107   0.537   8.226 -0.2819  0.6224  0.5508
 7444SOL     OW33964   1.795   0.551  11.624  0.1779  0.4788 -0.2653
 7444SOL    HW133965   1.802   0.511  11.711  0.1465  3.0218  0.9153
 7444SOL    HW233966   1.859   0.620  11.640 -0.8238  1.0216  1.4423
 7445SOL     OW33967   1.587   2.638   6.992  0.4295  0.2111  0.4012
 7445SOL    HW133968   1.657   2.655   6.929 -0.4024 -0.6636 -0.7611
 7445SOL    HW233969   1.641   2.587   7.053  1.2724  0.3068 -0.2735
 7446SOL     OW33970   1.724   1.388   6.683  0.1417 -0.0124 -0.0811
 7446SOL    HW133971   1.803   1.420   6.726 -0.4917 -2.4731  2.9515
 7446SOL    HW233972   1.738   1.293   6.676  0.8441  0.3925 -3.7551
 7447SOL     OW33973   4.604   2.294   5.500 -0.6483  0.0302  0.3182
 7447SOL    HW133974   4.642   2.244   5.573 -1.2306  0.6343  1.0422
 7447SOL    HW233975   4.525   2.323   5.547 -1.1767 -1.9249  0.6309
 7448SOL     OW33976   4.671   4.279   6.080  0.1457 -0.1703 -0.0932
 7448SOL    HW133977   4.640   4.216   6.014 -0.0243 -0.3240  0.1317
 7448SOL    HW233978   0.018   4.307   6.041 -0.4730  0.4690 -0.9423
 7449SOL     OW33979   1.921   0.931  10.461  0.2066 -0.4537  0.2316
 7449SOL    HW133980   1.920   0.951  10.367  0.0426  2.0603  0.7657
 7449SOL    HW233981   2.012   0.945  10.488  0.4529 -0.5394 -0.5560
 7450SOL     OW33982   2.157   4.263   4.555 -0.5008  0.5081  0.2773
 7450SOL    HW133983   2.214   4.264   4.478  0.3908  2.0225  0.9823
 7450SOL    HW233984   2.200   4.200   4.613 -1.7460 -1.4087 -0.8822
 7451SOL     OW33985   0.875   4.368   6.079 -0.4942 -0.2266 -0.5400
 7451SOL    HW133986   0.813   4.436   6.104 -0.3623  0.2622 -1.5285
 7451SOL    HW233987   0.884   4.317   6.159 -0.2932  2.6783  1.2804
 7452SOL     OW33988   3.153   1.785  16.865 -0.5297  0.1655 -0.9344
 7452SOL    HW133989   3.180   1.868  16.905 -0.9612 -0.1069 -0.0679
 7452SOL    HW233990   3.214   1.722  16.904  1.0006  0.7285 -2.4216
 7453SOL     OW33991   0.145   1.872   7.918  0.0967  0.1676 -0.0762
 7453SOL    HW133992   0.092   1.897   7.994 -0.4469  0.4118 -0.5351
 7453SOL    HW233993   0.109   1.785   7.902 -2.0536  1.1260 -0.3489
 7454SOL     OW33994   4.387   2.892  14.991 -0.7698 -0.5644  0.9053
 7454SOL    HW133995   4.408   2.882  14.898  1.1030  0.7334  1.1862
 7454SOL    HW233996   4.460   2.844  15.030  0.5215 -0.6850 -1.6734
 7455SOL     OW33997   2.721   0.259  17.310 -0.3638 -0.4447  0.2881
 7455SOL    HW133998   2.720   0.193  17.240  0.9465 -1.0959  0.8861
 7455SOL    HW233999   2.811   0.292  17.305 -0.3034 -0.5270  0.8504
 7456SOL     OW34000   0.820   0.679   0.908 -0.3111 -0.3325  0.8614
 7456SOL    HW134001   0.752   0.746   0.919  0.3316 -0.0432  3.1291
 7456SOL    HW234002   0.876   0.697   0.984 -0.4215 -1.6303  1.2554
 7457SOL     OW34003   1.712   0.127  14.985 -0.4858 -0.0887 -0.7002
 7457SOL    HW134004   1.708   0.056  14.921 -1.4061 -0.1555 -0.5772
 7457SOL    HW234005   1.794   0.100  15.025 -0.6636  1.5090  0.7529
 7458SOL     OW34006   2.881   2.762  16.058 -0.5008 -0.0697  0.2847
 7458SOL    HW134007   2.789   2.763  16.083  0.3361  3.6445  3.2220
 7458SOL    HW234008   2.887   2.688  15.998 -0.5207  1.0840 -1.1513
 7459SOL     OW34009   3.341   2.068   8.397  0.4718  0.5838  0.6731
 7459SOL    HW134010   3.319   2.109   8.481  1.0764 -2.0538  2.1256
 7459SOL    HW234011   3.377   2.138   8.343  1.3126  1.1105  1.9137
 7460SOL     OW34012   4.426   3.503   0.674 -0.3023  0.1016  0.7881
 7460SOL    HW134013   4.424   3.530   0.766  0.4384 -0.7491  1.0649
 7460SOL    HW234014   4.520   3.504   0.654 -0.3664 -0.4266  0.4642
 7461SOL     OW34015   0.115   2.217  13.762  0.1380  0.2928  0.1765
 7461SOL    HW134016   0.073   2.134  13.785 -0.1442  0.0965 -1.0597
 7461SOL    HW234017   0.208   2.207  13.784 -0.1604 -0.4025  1.1551
 7462SOL     OW34018   1.368   0.431  17.089 -0.1769 -0.6284  0.1327
 7462SOL    HW134019   1.420   0.493  17.140  0.1248  0.5854 -1.6419
 7462SOL    HW234020   1.309   0.402  17.159 -1.2108 -0.9717 -0.8752
 7463SOL     OW34021   1.186   0.393  15.635 -0.2026  0.2647  0.1045
 7463SOL    HW134022   1.169   0.468  15.693  1.2813  0.8330 -0.1962
 7463SOL    HW234023   1.178   0.323  15.701 -2.5011 -0.3302 -0.8007
 7464SOL     OW34024   2.141   1.339   7.985 -0.2294  0.4167 -0.4670
 7464SOL    HW134025   2.236   1.354   7.982 -0.0283 -1.2732 -2.6936
 7464SOL    HW234026   2.100   1.414   7.943 -0.6953 -0.0005 -0.7601
 7465SOL     OW34027   3.420   3.449  10.683  0.0590 -0.0392  0.5712
 7465SOL    HW134028   3.504   3.432  10.726 -0.4637  1.7179  2.3056
 7465SOL    HW234029   3.431   3.539  10.653  2.5712 -1.0829 -1.6594
 7466SOL     OW34030   2.261   4.458   5.488  0.3199 -0.1973  0.2688
 7466SOL    HW134031   2.174   4.425   5.467 -0.0058  0.4771  0.5504
 7466SOL    HW234032   2.241   4.550   5.503  0.7088 -0.4355  2.1812
 7467SOL     OW34033   1.098   4.664   7.313  0.2050  0.1340  0.3095
 7467SOL    HW134034   1.185   4.657   7.274 -1.1826 -1.6819 -2.4121
 7467SOL    HW234035   1.054   4.697   7.235  0.8420  0.6010  0.1450
 7468SOL     OW34036   0.823   3.306   9.175 -0.1483  0.0660 -0.3516
 7468SOL    HW134037   0.887   3.309   9.104  0.1363  1.6041 -0.0270
 7468SOL    HW234038   0.877   3.304   9.254 -2.7198 -1.3982  1.3859
 7469SOL     OW34039   2.649   1.004  13.738  0.0173 -0.8376 -0.1960
 7469SOL    HW134040   2.712   1.045  13.797 -0.7321  1.9004 -1.3165
 7469SOL    HW234041   2.654   0.912  13.763  1.0947 -0.7524 -0.1245
 7470SOL     OW34042   1.827   0.769   5.071 -0.5030 -0.4735  0.3334
 7470SOL    HW134043   1.868   0.841   5.023  1.9520 -1.8762  0.3241
 7470SOL    HW234044   1.732   0.779   5.070 -0.4067  0.2920 -1.1728
 7471SOL     OW34045   2.173   3.675   5.170 -0.1844 -1.2094 -0.7434
 7471SOL    HW134046   2.092   3.650   5.214  0.7021  0.0730  1.6511
 7471SOL    HW234047   2.236   3.618   5.213  0.4087 -0.3347 -0.4608
 7472SOL     OW34048   2.518   0.920   7.462  0.1100 -0.0959  0.1827
 7472SOL    HW134049   2.528   0.882   7.375 -2.4282  1.1075 -0.6375
 7472SOL    HW234050   2.612   0.918   7.480  0.5615  0.0434 -2.1832
 7473SOL     OW34051   2.282   0.598   4.087  0.0250 -0.0641  0.2330
 7473SOL    HW134052   2.299   0.678   4.036  1.8748  0.4290  1.6459
 7473SOL    HW234053   2.329   0.618   4.167 -1.0408 -0.4958  0.9664
 7474SOL     OW34054   4.132   0.356   8.026 -0.2414 -0.1762  0.1412
 7474SOL    HW134055   4.105   0.265   8.033  1.5755 -0.8396 -1.5753
 7474SOL    HW234056   4.228   0.363   8.029 -0.0245 -3.5142  0.6387
 7475SOL     OW34057   0.288   4.072   8.088 -0.3020  0.2286  0.0511
 7475SOL    HW134058   0.327   4.155   8.063  0.3837 -0.3908 -0.9416
 7475SOL    HW234059   0.367   4.018   8.097 -1.5443 -1.7119 -0.5340
 7476SOL     OW34060   3.148   1.010   3.035  0.2740  0.3013 -0.5369
 7476SOL    HW134061   3.172   1.052   2.953  0.2989  1.7098  0.2016
 7476SOL    HW234062   3.057   0.983   3.018 -0.8259  1.7048  2.9834
 7477SOL     OW34063   2.590   2.668   2.796 -0.3103 -0.7126 -0.3448
 7477SOL    HW134064   2.523   2.617   2.751  0.0279 -0.2800 -1.3490
 7477SOL    HW234065   2.671   2.617   2.791 -2.0661 -3.5148 -0.3554
 7478SOL     OW34066   3.290   2.588   1.594  0.5432  0.1596  0.1297
 7478SOL    HW134067   3.373   2.584   1.641  2.3007  0.4881 -2.9240
 7478SOL    HW234068   3.337   2.572   1.512  1.3649  1.1262  0.4191
 7479SOL     OW34069   0.628   1.550  10.417  0.1673 -0.2534 -0.2773
 7479SOL    HW134070   0.544   1.506  10.410 -0.6117  1.1623  0.2295
 7479SOL    HW234071   0.632   1.565  10.512  1.0667 -2.2097  0.0077
 7480SOL     OW34072   3.096   4.111   7.995  0.0211 -0.9393 -0.3175
 7480SOL    HW134073   3.145   4.137   8.073  1.0509 -0.4055 -1.1356
 7480SOL    HW234074   3.155   4.045   7.958 -0.0074 -0.2157 -1.6453
 7481SOL     OW34075   0.333   2.079   5.616 -0.1389  0.2408 -0.1378
 7481SOL    HW134076   0.307   2.161   5.573 -1.7968 -0.1915  0.0261
 7481SOL    HW234077   0.394   2.044   5.550  0.5268  2.9391 -0.9697
 7482SOL     OW34078   0.865   0.402   7.814  0.1348 -0.3528 -0.3639
 7482SOL    HW134079   0.811   0.402   7.892 -0.3764  0.3874 -0.7147
 7482SOL    HW234080   0.874   0.308   7.795  2.5429  0.1351 -1.6950
 7483SOL     OW34081   3.702   3.364   9.606 -0.5190 -0.2883 -0.2907
 7483SOL    HW134082   3.707   3.418   9.685 -0.3691 -1.5154  0.5258
 7483SOL    HW234083   3.616   3.322   9.614 -0.2461 -0.8035 -0.0884
 7484SOL     OW34084   3.076   1.543   7.594 -0.1381 -0.1417 -0.0339
 7484SOL    HW134085   3.145   1.477   7.600  0.5603  0.6312  0.4543
 7484SOL    HW234086   3.103   1.587   7.514 -0.9895  0.6422  0.1120
 7485SOL     OW34087   3.808   2.490   5.385 -0.2444 -0.1259 -0.4317
 7485SOL    HW134088   3.896   2.476   5.350  0.0418  2.2658 -0.6315
 7485SOL    HW234089   3.815   2.560   5.449 -0.3355 -0.3226 -0.2054
 7486SOL     OW34090   0.932   1.390  13.007 -0.5684  0.0514 -0.5361
 7486SOL    HW134091   1.012   1.415  13.054 -0.6025 -2.8588  1.0730
 7486SOL    HW234092   0.874   1.420  13.077  0.4451 -0.7641  0.6516
 7487SOL     OW34093   2.505   0.370   2.384  0.2314  0.1209  0.1765
 7487SOL    HW134094   2.587   0.347   2.341  1.2128  0.9545  1.6107
 7487SOL    HW234095   2.475   0.280   2.399 -1.1237  0.9561  2.4983
 7488SOL     OW34096   1.360   4.359   3.311  0.2280  0.1596  0.0263
 7488SOL    HW134097   1.334   4.267   3.299 -1.4987  0.9038 -1.8766
 7488SOL    HW234098   1.429   4.348   3.377  0.0805  0.0992  0.1705
 7489SOL     OW34099   4.236   3.349  12.540 -0.1329  0.3701 -0.2097
 7489SOL    HW134100   4.215   3.280  12.602  1.2857  0.3212  0.2119
 7489SOL    HW234101   4.308   3.328  12.480 -0.5327 -2.8973  0.4817
 7490SOL     OW34102   1.183   2.284   6.096 -0.1960  0.5140 -0.3158
 7490SOL    HW134103   1.268   2.242   6.084  1.2034  2.2776  3.2370
 7490SOL    HW234104   1.184   2.276   6.192  2.2319 -1.9413 -0.5671
 7491SOL     OW34105   3.265   3.205  14.974 -0.4387 -0.1031 -0.4415
 7491SOL    HW134106   3.226   3.118  14.981 -0.3084 -0.0598  0.7952
 7491SOL    HW234107   3.184   3.252  14.990  0.3587  0.5996  1.5170
 7492SOL     OW34108   0.911   2.673  14.507  0.2916 -0.0694  0.2661
 7492SOL    HW134109   0.844   2.739  14.493  0.2032  0.0176  1.1309
 7492SOL    HW234110   0.911   2.666  14.602  0.1468 -1.9218  0.1370
 7493SOL     OW34111   0.458   1.231   7.532 -0.3486  0.3339  0.6035
 7493SOL    HW134112   0.547   1.203   7.512 -0.6567 -0.6764  0.6404
 7493SOL    HW234113   0.420   1.170   7.469  1.4525  0.0479 -0.2096
 7494SOL     OW34114   4.057   0.722  10.441 -0.2035 -0.0226 -0.1903
 7494SOL    HW134115   4.016   0.799  10.479  1.0850  0.1924  0.7842
 7494SOL    HW234116   4.126   0.768  10.394  0.4973 -0.6552  0.2032
 7495SOL     OW34117   3.846   1.978   0.904  0.4147 -0.2732  0.6967
 7495SOL    HW134118   3.883   1.932   0.829  1.4298 -2.1180  2.3188
 7495SOL    HW234119   3.870   1.910   0.966 -0.2417 -1.3329 -0.2200
 7496SOL     OW34120   4.209   0.603  12.648 -0.2402 -0.0189 -0.4032
 7496SOL    HW134121   4.171   0.533  12.595 -0.2481  0.1951 -0.6816
 7496SOL    HW234122   4.202   0.683  12.596 -1.4504 -0.4473 -0.9056
 7497SOL     OW34123   1.940   1.840  17.547 -0.2992  0.0280 -0.0575
 7497SOL    HW134124   1.962   1.833  17.455 -1.2195 -2.7815 -0.0582
 7497SOL    HW234125   1.878   1.913  17.549 -0.0286  0.2814 -0.9707
 7498SOL     OW34126   3.640   0.154   8.343 -0.4944  0.2131  0.8292
 7498SOL    HW134127   3.695   0.214   8.292  0.6738 -2.1476 -0.7065
 7498SOL    HW234128   3.671   0.072   8.305  0.1944  1.8032 -2.0846
 7499SOL     OW34129   3.756   0.365   1.454 -0.3369 -0.3141  0.4829
 7499SOL    HW134130   3.810   0.301   1.408  1.7445  1.6437  0.1919
 7499SOL    HW234131   3.681   0.372   1.395  1.9142  1.8953 -2.1001
 7500SOL     OW34132   2.503   1.425   9.417  0.4551 -0.0133 -0.3562
 7500SOL    HW134133   2.559   1.454   9.345  0.1433  0.9255 -0.2261
 7500SOL    HW234134   2.517   1.331   9.410  0.1672  0.0530 -1.7478
 7501SOL     OW34135   2.212   3.414  13.282 -0.3096  0.1858  0.2845
 7501SOL    HW134136   2.128   3.426  13.238  0.2888  0.8649 -0.6798
 7501SOL    HW234137   2.229   3.320  13.289  0.4725  0.3491  0.5539
 7502SOL     OW34138   0.014   0.413   4.051 -0.9251 -0.0664  0.0176
 7502SOL    HW134139   4.691   0.488   4.056  1.1885  1.6885 -1.2566
 7502SOL    HW234140   0.068   0.445   3.979 -1.3474 -1.4541 -0.9229
 7503SOL     OW34141   2.314   3.828   7.686  0.3305 -0.8302 -0.1283
 7503SOL    HW134142   2.263   3.864   7.759  0.3006 -1.0167 -0.0571
 7503SOL    HW234143   2.330   3.891   7.616  0.3834  0.5252  1.0997
 7504SOL     OW34144   2.450   1.192   8.997 -0.0690 -0.0489 -0.1490
 7504SOL    HW134145   2.365   1.209   9.040  0.6977  1.4813  0.7754
 7504SOL    HW234146   2.439   1.102   8.969  1.3867 -0.4693  0.6523
 7505SOL     OW34147   3.536   4.340  11.619 -0.4629  0.4754  0.1491
 7505SOL    HW134148   3.474   4.278  11.656  2.2529 -2.0383  0.5303
 7505SOL    HW234149   3.572   4.377  11.700 -1.2140 -0.2103  0.7956
 7506SOL     OW34150   1.581   2.120   4.826 -0.6857  0.3509  0.3693
 7506SOL    HW134151   1.486   2.125   4.828 -0.6223  2.7623 -2.4880
 7506SOL    HW234152   1.609   2.105   4.916  0.6265  3.5369  0.4985
 7507SOL     OW34153   4.380   3.146   5.813  0.6014 -0.2080  0.0300
 7507SOL    HW134154   4.460   3.110   5.850  1.7372  1.0956 -1.1365
 7507SOL    HW234155   4.335   3.065   5.791 -1.1471  0.8643 -0.4251
 7508SOL     OW34156   2.041   1.932   5.410  0.4661 -0.3947 -0.2418
 7508SOL    HW134157   2.089   2.000   5.457  0.8239 -0.6675 -0.2106
 7508SOL    HW234158   1.953   1.925   5.448  0.2875  3.7581  0.0951
 7509SOL     OW34159   1.721   3.325  16.695 -0.0846 -0.0479 -0.2844
 7509SOL    HW134160   1.637   3.333  16.739  0.6151  1.4445  0.7777
 7509SOL    HW234161   1.735   3.231  16.698  1.0697  0.1536  0.3191
 7510SOL     OW34162   0.616   4.295  14.571 -0.1361 -0.3709  0.0488
 7510SOL    HW134163   0.564   4.375  14.566  1.3928  0.4651 -2.4461
 7510SOL    HW234164   0.646   4.287  14.481  0.3741  0.1510  0.1721
 7511SOL     OW34165   2.336   0.287   2.048  0.4970  0.2289  0.7971
 7511SOL    HW134166   2.249   0.307   2.012  0.3438 -2.3346 -0.2586
 7511SOL    HW234167   2.318   0.236   2.127 -0.4482 -2.0397 -0.8763
 7512SOL     OW34168   3.883   0.774   5.320 -0.4031  0.0750 -0.0348
 7512SOL    HW134169   3.950   0.829   5.280  0.3543 -1.0095 -0.2606
 7512SOL    HW234170   3.815   0.841   5.322 -0.3943  0.1548 -1.7297
 7513SOL     OW34171   1.690   2.360   8.525  0.2327  0.4541 -0.0627
 7513SOL    HW134172   1.684   2.449   8.561 -0.6226  0.1972  0.4324
 7513SOL    HW234173   1.675   2.306   8.602  1.4923  0.0908 -0.0787
 7514SOL     OW34174   4.585   4.075   2.166  0.1514  0.6175 -0.0914
 7514SOL    HW134175   4.525   4.027   2.108 -0.9841  0.8782  0.8617
 7514SOL    HW234176   4.531   4.073   2.245 -2.1188 -1.3210 -1.6902
 7515SOL     OW34177   0.258   0.127  15.619 -0.2711 -0.2419 -0.3424
 7515SOL    HW134178   0.303   0.145  15.701  0.3267  2.9482 -1.3672
 7515SOL    HW234179   0.284   0.036  15.602  0.7938  0.1008 -0.5086
 7516SOL     OW34180   4.656   0.263   8.488  0.2166  0.2628 -0.1741
 7516SOL    HW134181   4.697   0.185   8.452  1.8245  0.0253  2.1235
 7516SOL    HW234182   4.723   0.322   8.453  0.4769 -0.6445 -1.1698
 7517SOL     OW34183   1.992   0.852   2.413 -0.4964  0.3888 -0.1405
 7517SOL    HW134184   1.979   0.769   2.367 -2.3330  0.7457 -0.2649
 7517SOL    HW234185   2.087   0.861   2.419 -0.7937  2.8922  1.0223
 7518SOL     OW34186   1.972   2.157   1.850 -0.3406 -0.4454  0.4350
 7518SOL    HW134187   1.895   2.184   1.900 -0.0496  2.5945 -0.7790
 7518SOL    HW234188   1.940   2.180   1.763 -1.4560  2.7734  1.7024
 7519SOL     OW34189   0.148   0.034  11.079  0.5642 -0.6213 -0.2981
 7519SOL    HW134190   0.157   4.676  11.062  1.9995 -0.4846 -0.3596
 7519SOL    HW234191   0.054   0.049  11.071  0.6451 -0.1691 -0.4214
 7520SOL     OW34192   4.005   3.701   0.945  0.3236 -0.5613 -0.4494
 7520SOL    HW134193   4.097   3.715   0.928 -0.2841  3.1585 -0.5507
 7520SOL    HW234194   3.952   3.716   0.867  0.3492  0.0956 -0.3397
 7521SOL     OW34195   0.943   2.927   1.437  0.3466 -0.5471 -0.4735
 7521SOL    HW134196   1.020   2.915   1.492  0.5175  1.8758 -0.1785
 7521SOL    HW234197   0.964   2.886   1.353 -1.4403 -1.6339 -0.3901
 7522SOL     OW34198   4.668   1.351   9.107  0.1713  0.3723  0.8370
 7522SOL    HW134199   0.027   1.349   9.127  0.4996  2.3538 -0.6265
 7522SOL    HW234200   4.640   1.401   9.184  0.8049  3.5186 -0.9993
 7523SOL     OW34201   0.014   3.595   7.641  0.3798 -0.3631 -0.4957
 7523SOL    HW134202   0.051   3.683   7.645  3.8989 -1.7584 -1.9964
 7523SOL    HW234203   0.022   3.560   7.730 -0.0332 -0.6528 -0.5734
 7524SOL     OW34204   2.775   1.649   3.703 -0.3120 -0.3681 -0.5740
 7524SOL    HW134205   2.769   1.731   3.753 -0.6794 -0.7799  0.0641
 7524SOL    HW234206   2.806   1.675   3.617  3.4790 -0.4944  0.7387
 7525SOL     OW34207   2.959   0.529   4.278 -0.1992  0.3599  0.2066
 7525SOL    HW134208   3.028   0.545   4.342 -0.5938 -1.2138  1.0408
 7525SOL    HW234209   2.993   0.456   4.226 -0.1104  0.3794  0.2380
 7526SOL     OW34210   3.568   1.630   3.260  0.7406  0.1155 -0.0982
 7526SOL    HW134211   3.543   1.582   3.181 -1.2635 -0.1038  0.6534
 7526SOL    HW234212   3.596   1.713   3.221 -0.6966 -0.9665 -3.4620
 7527SOL     OW34213   4.515   2.603   3.856  0.1003  0.1132 -0.4333
 7527SOL    HW134214   4.516   2.600   3.761 -2.4296 -0.8714 -0.4170
 7527SOL    HW234215   4.610   2.615   3.864  0.3838 -1.6272 -1.1821
 7528SOL     OW34216   3.369   2.746  16.896 -0.4612 -0.2838  0.0694
 7528SOL    HW134217   3.366   2.692  16.817  1.2826 -1.6674  0.9299
 7528SOL    HW234218   3.277   2.742  16.923  0.5553 -0.2147  3.5068
 7529SOL     OW34219   2.835   3.665   5.636  0.1266 -0.0866 -0.3914
 7529SOL    HW134220   2.809   3.752   5.608 -0.3128 -0.0775  0.0523
 7529SOL    HW234221   2.873   3.681   5.723  0.1597 -1.3923 -0.1631
 7530SOL     OW34222   3.402   3.521   0.336 -0.1563 -0.0406 -0.0690
 7530SOL    HW134223   3.405   3.477   0.421 -0.0379 -1.0061 -0.5744
 7530SOL    HW234224   3.418   3.446   0.279 -0.9761 -0.6582  0.5135
 7531SOL     OW34225   3.993   0.411   2.768 -0.6900 -0.2009 -0.4874
 7531SOL    HW134226   4.088   0.420   2.775 -0.8554  0.5779  0.5541
 7531SOL    HW234227   3.970   0.483   2.710  0.0679  2.1784  2.2040
 7532SOL     OW34228   2.287   0.993   8.327  0.0890 -0.0206  0.6630
 7532SOL    HW134229   2.379   1.011   8.343  0.2712 -0.4931  0.1610
 7532SOL    HW234230   2.285   0.936   8.249 -3.2495 -0.7623  1.2950
 7533SOL     OW34231   0.795   1.613   9.783  0.1470 -0.0634  0.0291
 7533SOL    HW134232   0.865   1.615   9.717  0.6335 -1.0128  0.5205
 7533SOL    HW234233   0.841   1.627   9.866  1.9056  2.8702 -1.4369
 7534SOL     OW34234   1.872   0.264  10.418  0.3015  0.0814  0.4257
 7534SOL    HW134235   1.839   0.311  10.342  0.5327  0.7264  0.7180
 7534SOL    HW234236   1.838   0.176  10.408 -0.6043  0.2130  2.2827
 7535SOL     OW34237   2.352   1.487   3.339 -0.2623 -0.5920 -0.3814
 7535SOL    HW134238   2.323   1.540   3.265 -1.0357 -0.3334  0.1043
 7535SOL    HW234239   2.384   1.555   3.399  4.0369 -2.5516 -0.4642
 7536SOL     OW34240   4.366   3.658   5.021 -0.3388 -0.6366  0.2334
 7536SOL    HW134241   4.306   3.706   5.079  0.1537  0.3636 -0.0854
 7536SOL    HW234242   4.302   3.629   4.955 -1.9599  1.6366  0.7996
 7537SOL     OW34243   2.315   1.111  13.697  0.0192  0.0510 -0.1264
 7537SOL    HW134244   2.240   1.136  13.751 -1.1502 -4.1876  0.2403
 7537SOL    HW234245   2.370   1.046  13.742 -0.6227 -0.1811  0.3234
 7538SOL     OW34246   2.271   4.350   8.890  0.1590  0.3306  0.2057
 7538SOL    HW134247   2.179   4.327   8.886 -0.2313  1.8650  0.4489
 7538SOL    HW234248   2.270   4.429   8.945 -0.8993  0.5362 -0.1076
 7539SOL     OW34249   0.188   1.903   4.309  0.5518 -0.8272  0.3054
 7539SOL    HW134250   0.233   1.984   4.284 -0.5441 -0.3345 -0.0585
 7539SOL    HW234251   0.095   1.918   4.294  0.5211 -0.0485  1.2535
 7540SOL     OW34252   3.021   3.328  11.095 -0.2893 -0.6617  0.9557
 7540SOL    HW134253   3.037   3.354  11.004  1.2969 -0.3338  1.3375
 7540SOL    HW234254   2.943   3.272  11.087  0.4713 -1.9508  2.5732
 7541SOL     OW34255   0.232   2.520   8.668 -0.2694  0.0086 -0.2272
 7541SOL    HW134256   0.152   2.563   8.699 -0.4109 -0.0264 -0.5447
 7541SOL    HW234257   0.296   2.591   8.658 -0.9034  0.5648 -0.3489
 7542SOL     OW34258   3.740   3.205   7.581 -0.0807  0.0769  0.1499
 7542SOL    HW134259   3.784   3.258   7.515 -2.1372  3.0330  1.1634
 7542SOL    HW234260   3.804   3.191   7.650 -0.7366  0.1560  0.7706
 7543SOL     OW34261   4.511   3.112   4.548 -0.5537 -0.0611  0.2376
 7543SOL    HW134262   4.571   3.186   4.542  0.4540 -0.9038 -0.2527
 7543SOL    HW234263   4.574   3.041   4.533  0.9819  1.5803 -1.0332
 7544SOL     OW34264   3.396   3.681   8.600  0.3078 -0.0696 -0.0149
 7544SOL    HW134265   3.429   3.596   8.629 -0.2404  0.3554  1.8789
 7544SOL    HW234266   3.303   3.659   8.596  0.7433 -2.0070  0.4491
 7545SOL     OW34267   0.921   2.749   7.214 -0.8761 -0.2577 -0.4316
 7545SOL    HW134268   0.921   2.656   7.191  0.8372 -0.5134  0.6371
 7545SOL    HW234269   0.911   2.737   7.308 -0.6871  1.0944 -0.2480
 7546SOL     OW34270   4.071   0.851   7.751  0.3331  0.0886  0.5033
 7546SOL    HW134271   4.105   0.929   7.794  1.3315 -1.1376  1.9473
 7546SOL    HW234272   4.057   0.899   7.670  2.2075 -1.5755 -0.7932
 7547SOL     OW34273   1.510   3.234   8.652  0.3057 -1.0821  0.1717
 7547SOL    HW134274   1.457   3.274   8.583  0.5804 -1.4872 -0.2759
 7547SOL    HW234275   1.512   3.305   8.716 -1.0261 -1.7024  0.8971
 7548SOL     OW34276   1.095   1.332  16.922  0.6150 -0.2314 -0.1841
 7548SOL    HW134277   1.178   1.375  16.902  0.0749  1.4555  1.1670
 7548SOL    HW234278   1.083   1.365  17.011 -2.2353 -1.2829 -0.1581
 7549SOL     OW34279   0.594   1.909   1.161  0.8987 -0.5456 -0.4805
 7549SOL    HW134280   0.552   1.977   1.108  1.0783  1.0680  1.4741
 7549SOL    HW234281   0.647   1.963   1.218  0.6882  1.4904 -2.1999
 7550SOL     OW34282   1.024   0.362   4.975  0.2818 -0.2392  0.6308
 7550SOL    HW134283   0.940   0.342   4.935 -0.6968 -1.9931  3.4961
 7550SOL    HW234284   1.040   0.284   5.029 -1.7400 -0.0413  1.5163
 7551SOL     OW34285   3.745   2.202   2.378 -0.8677  0.1739 -0.4030
 7551SOL    HW134286   3.730   2.115   2.414 -3.7940  0.6312 -0.5307
 7551SOL    HW234287   3.767   2.261   2.450 -1.1240  1.8140 -1.6758
 7552SOL     OW34288   0.733   3.718   6.287 -0.0777  1.0839  0.2263
 7552SOL    HW134289   0.776   3.639   6.319  0.2470  2.2137  2.5886
 7552SOL    HW234290   0.652   3.727   6.338  0.8454 -1.7851  2.2111
 7553SOL     OW34291   2.282   0.193   3.731 -0.5630 -0.5238  0.1412
 7553SOL    HW134292   2.282   0.272   3.785  2.0331  0.0268 -0.6839
 7553SOL    HW234293   2.272   0.119   3.791 -2.5757  1.2896  2.0820
 7554SOL     OW34294   4.447   2.982   7.575  0.1003 -0.9635 -0.2861
 7554SOL    HW134295   4.358   2.947   7.570 -0.9896  1.5849  0.8363
 7554SOL    HW234296   4.438   3.046   7.504  2.6656  0.6745  0.8590
 7555SOL     OW34297   1.665   0.761   8.066  0.1043 -0.3292  0.4710
 7555SOL    HW134298   1.677   0.682   8.119 -1.2340 -1.6895 -1.2630
 7555SOL    HW234299   1.738   0.810   8.104 -0.0339  0.5366 -0.4060
 7556SOL     OW34300   1.902   2.979   6.049 -0.7154  0.4278  0.4681
 7556SOL    HW134301   1.809   2.965   6.034 -0.4601 -0.2402 -0.4548
 7556SOL    HW234302   1.926   2.922   6.122 -0.8781 -0.8055 -0.4448
 7557SOL     OW34303   3.085   0.610  10.963  0.1332  0.4285 -0.3753
 7557SOL    HW134304   3.098   0.561  10.882 -2.0118 -0.5153 -0.1764
 7557SOL    HW234305   3.111   0.699  10.941  1.7903 -0.7956 -3.3486
 7558SOL     OW34306   2.583   1.673   2.806 -0.9257 -0.3214 -0.2033
 7558SOL    HW134307   2.594   1.685   2.712 -0.4324  0.6036 -0.0220
 7558SOL    HW234308   2.578   1.759   2.847  1.7148 -0.1143 -0.3084
 7559SOL     OW34309   0.857   3.149  17.629 -0.1368 -0.0606  0.0631
 7559SOL    HW134310   0.829   3.098  17.553  2.1471  0.2377 -0.9803
 7559SOL    HW234311   0.938   3.101  17.645  0.8916  1.7890  0.4416
 7560SOL     OW34312   1.873   0.620  12.513 -1.0430 -0.2704 -0.2978
 7560SOL    HW134313   1.935   0.679  12.555  0.4079  0.3623 -3.3124
 7560SOL    HW234314   1.785   0.658  12.519 -0.8959 -0.0931  0.6686
 7561SOL     OW34315   2.100   2.963   8.286  0.2617 -0.2039 -0.2436
 7561SOL    HW134316   2.156   3.011   8.225 -0.9792  2.6993  0.9024
 7561SOL    HW234317   2.035   2.908   8.242 -0.6976  0.7354 -0.0026
 7562SOL     OW34318   3.569   4.637  14.330 -0.1161  0.0676  0.2165
 7562SOL    HW134319   3.609   4.723  14.341 -0.0251  0.0981 -0.3484
 7562SOL    HW234320   3.539   4.639  14.239 -1.4769 -2.2129  0.6101
 7563SOL     OW34321   4.384   1.989   6.727 -0.8384 -0.0432  0.5170
 7563SOL    HW134322   4.446   1.919   6.747 -1.0609  0.1459  1.8809
 7563SOL    HW234323   4.315   1.938   6.684 -0.7987  0.3198  0.0237
 7564SOL     OW34324   2.159   0.367   4.602  0.4400 -0.3459  0.5456
 7564SOL    HW134325   2.162   0.280   4.564  0.3839  0.2823 -0.8963
 7564SOL    HW234326   2.228   0.411   4.553 -1.5619  2.9003  0.5888
 7565SOL     OW34327   0.778   3.978   4.278  0.4284 -0.3264 -0.4293
 7565SOL    HW134328   0.713   4.047   4.273  0.2724 -0.3725  0.9773
 7565SOL    HW234329   0.760   3.932   4.196  1.1008  0.5295 -1.0643
 7566SOL     OW34330   2.798   3.205   6.144  0.5008 -0.0483  0.1323
 7566SOL    HW134331   2.709   3.182   6.172  0.3826 -0.5902 -0.6780
 7566SOL    HW234332   2.785   3.198   6.049 -0.1719  0.0731  0.2125
 7567SOL     OW34333   0.328   4.516   0.515  0.1908  0.5654 -0.1206
 7567SOL    HW134334   0.349   4.489   0.426 -0.9911 -3.1166  0.7206
 7567SOL    HW234335   0.412   4.488   0.552 -0.7694 -0.6008  1.1852
 7568SOL     OW34336   4.203   2.899   8.747 -0.1407  0.2766 -0.0078
 7568SOL    HW134337   4.109   2.883   8.734 -0.3025  2.4325 -1.4876
 7568SOL    HW234338   4.233   2.818   8.789  0.7188 -0.3032 -1.7480
 7569SOL     OW34339   1.390   1.678   9.596 -0.9138  0.0547  0.1018
 7569SOL    HW134340   1.331   1.736   9.644  0.0552 -0.4351  1.8606
 7569SOL    HW234341   1.476   1.714   9.619 -2.0861  2.5636  0.5206
 7570SOL     OW34342   2.872   2.072   5.155  0.5979  0.2529  0.0949
 7570SOL    HW134343   2.841   2.077   5.064 -1.4668  0.4830  0.8169
 7570SOL    HW234344   2.965   2.072   5.136  0.9009 -0.5084  1.6416
 7571SOL     OW34345   3.104   1.680   7.330 -0.4413 -0.5626  0.0050
 7571SOL    HW134346   3.193   1.703   7.356 -0.1024 -1.5383 -0.2773
 7571SOL    HW234347   3.073   1.760   7.288  1.3171 -0.7813 -1.6829
 7572SOL     OW34348   4.217   4.663   1.706 -0.6357  0.2261  0.8950
 7572SOL    HW134349   4.230   4.651   1.800 -0.1099 -0.5750  0.7185
 7572SOL    HW234350   4.219   0.023   1.707  0.8498  0.1826  2.5206
 7573SOL     OW34351   0.894   0.142  10.501 -0.0886 -0.2515  0.4141
 7573SOL    HW134352   0.850   0.133  10.416 -1.3794  1.2443  0.9140
 7573SOL    HW234353   0.821   0.184  10.546  0.3770 -0.0718  0.9980
 7574SOL     OW34354   2.712   2.343  16.811  1.1525 -0.5399  0.0648
 7574SOL    HW134355   2.716   2.411  16.744 -0.7345 -0.2714  0.2442
 7574SOL    HW234356   2.804   2.327  16.833  0.9232  1.0930  2.2292
 7575SOL     OW34357   4.246   2.373   4.273  0.4200  0.4431  0.4379
 7575SOL    HW134358   4.256   2.328   4.189 -3.0064  1.7143 -0.6699
 7575SOL    HW234359   4.288   2.456   4.248 -0.7486  0.4448 -1.5606
 7576SOL     OW34360   3.566   0.369   9.316  0.0148 -0.3665  0.1507
 7576SOL    HW134361   3.568   0.455   9.358 -0.3688 -0.3164  0.0686
 7576SOL    HW234362   3.539   0.313   9.388 -3.0592  0.4817 -0.3487
 7577SOL     OW34363   3.656   3.938  11.860 -0.0372 -0.0487 -0.5527
 7577SOL    HW134364   3.604   4.009  11.898  1.8533 -0.3131  2.5327
 7577SOL    HW234365   3.737   3.941  11.910 -0.3409  1.4817 -0.1521
 7578SOL     OW34366   4.269   2.987   9.359 -0.0743  0.8622 -0.0484
 7578SOL    HW134367   4.229   2.952   9.280 -0.3699 -0.5173  0.7094
 7578SOL    HW234368   4.190   2.996   9.413  0.6559 -1.2050  1.3766
 7579SOL     OW34369   1.082   1.350  11.860  0.4891  0.1513 -0.2768
 7579SOL    HW134370   1.058   1.268  11.903  1.8649  0.0313  0.2500
 7579SOL    HW234371   1.176   1.340  11.848  0.5726 -0.7479  1.0703
 7580SOL     OW34372   1.728   3.035   1.186 -0.4978  0.0320 -0.4745
 7580SOL    HW134373   1.640   3.021   1.220 -1.1953  2.4425 -1.3152
 7580SOL    HW234374   1.737   3.127   1.211  3.2402 -0.3906 -0.2988
 7581SOL     OW34375   2.622   3.893   2.819  0.6417 -0.0295 -0.2869
 7581SOL    HW134376   2.666   3.826   2.767  0.2728 -0.2536 -0.3154
 7581SOL    HW234377   2.642   3.970   2.766  0.2364 -1.2015 -2.1614
 7582SOL     OW34378   3.873   4.222  10.819 -0.0253 -0.0942 -0.1271
 7582SOL    HW134379   3.806   4.163  10.784 -0.3843  0.0377  0.3426
 7582SOL    HW234380   3.916   4.162  10.880 -1.4081 -0.7549  0.1859
 7583SOL     OW34381   3.306   3.567   7.934  0.1535 -0.1081 -0.3658
 7583SOL    HW134382   3.393   3.566   7.974 -0.5650  2.4377  1.2740
 7583SOL    HW234383   3.268   3.480   7.949  1.1292 -0.6978 -1.2893
 7584SOL     OW34384   0.133   4.407   0.100 -0.2031 -0.1134 -0.2139
 7584SOL    HW134385   0.062   4.343   0.109 -0.7833  0.3653 -1.3120
 7584SOL    HW234386   0.212   4.354   0.092 -0.1204 -0.0110 -0.0803
 7585SOL     OW34387   2.272   4.594   2.582 -0.0793 -0.5357  0.7742
 7585SOL    HW134388   2.182   4.615   2.608 -0.4830  1.6164 -2.3721
 7585SOL    HW234389   2.307   4.676   2.547 -0.2136 -1.1355 -0.7624
 7586SOL     OW34390   2.090   2.059   0.192  0.2557 -0.1706  0.1132
 7586SOL    HW134391   2.047   1.996   0.250  2.6875 -1.2697  0.7138
 7586SOL    HW234392   2.054   2.143   0.222  0.3571  0.0568 -0.4047
 7587SOL     OW34393   0.383   0.919   9.118  0.6288 -0.0121 -0.2600
 7587SOL    HW134394   0.419   0.833   9.094  1.4906  0.1597  0.4241
 7587SOL    HW234395   0.406   0.931   9.210 -2.3333 -1.9184  0.7214
 7588SOL     OW34396   2.284   4.560   9.077 -0.2013 -0.1471  0.2738
 7588SOL    HW134397   2.288   4.654   9.058  1.5755 -0.4229 -0.7303
 7588SOL    HW234398   2.341   4.557   9.153 -2.5469 -1.3555  1.9590
 7589SOL     OW34399   1.839   2.857   3.663  0.0885 -0.5694  0.3904
 7589SOL    HW134400   1.827   2.773   3.618 -0.5680  0.6457 -1.7223
 7589SOL    HW234401   1.824   2.824   3.751  1.5335 -0.1550  0.7788
 7590SOL     OW34402   4.262   4.094   8.896  0.0201  0.3129 -0.3566
 7590SOL    HW134403   4.323   4.088   8.969 -0.4987  0.9491  0.1236
 7590SOL    HW234404   4.237   4.004   8.873  0.3769  0.1641 -0.1556
 7591SOL     OW34405   2.700   1.835  14.796 -0.0861  0.3674 -0.4233
 7591SOL    HW134406   2.780   1.858  14.748 -1.7081  2.7615 -1.9222
 7591SOL    HW234407   2.711   1.741  14.781 -2.0487  0.2410 -1.0294
 7592SOL     OW34408   2.760   0.306  11.617 -0.1630  0.0733  0.5410
 7592SOL    HW134409   2.836   0.280  11.566  0.2601  0.9356  0.7469
 7592SOL    HW234410   2.805   0.320  11.700  1.0289 -1.1609  0.1017
 7593SOL     OW34411   4.573   2.921   4.918  0.0805 -0.7258  0.3282
 7593SOL    HW134412   4.500   2.976   4.890  0.4134  0.4877  1.8431
 7593SOL    HW234413   4.611   2.974   4.988  0.0850 -0.4047  0.0811
 7594SOL     OW34414   0.632   1.228   6.483  0.1214  0.1195 -0.2997
 7594SOL    HW134415   0.653   1.135   6.494  1.8422  0.5994  0.4539
 7594SOL    HW234416   0.650   1.258   6.572 -2.7978 -0.0142  0.3362
 7595SOL     OW34417   3.025   0.732  16.511 -0.0038  0.3191 -0.5395
 7595SOL    HW134418   3.091   0.664  16.495  0.5385  0.5677  0.6430
 7595SOL    HW234419   3.023   0.766  16.422 -2.4209 -1.8266 -1.3160
 7596SOL     OW34420   4.546   2.083   3.869 -0.3604 -0.2451  0.6043
 7596SOL    HW134421   4.458   2.121   3.864 -0.8861 -1.1929  2.7157
 7596SOL    HW234422   4.604   2.148   3.829  1.5538 -0.8769  2.3579
 7597SOL     OW34423   2.255   4.030   5.616  0.2264  0.4164 -0.1770
 7597SOL    HW134424   2.310   3.977   5.559  0.3287  0.9628 -0.5949
 7597SOL    HW234425   2.172   4.008   5.573  0.8677  1.0280 -1.7520
 7598SOL     OW34426   0.355   3.678   7.010  0.0768 -0.7386 -0.1044
 7598SOL    HW134427   0.363   3.738   7.084 -0.0643 -0.4142 -0.3560
 7598SOL    HW234428   0.284   3.721   6.963  2.6897 -0.4442 -3.7414
 7599SOL     OW34429   1.363   0.446   3.148  0.3073  0.2632  0.0868
 7599SOL    HW134430   1.363   0.353   3.126  1.9394  0.9745 -2.9801
 7599SOL    HW234431   1.381   0.502   3.072 -1.5423  0.1794 -0.4156
 7600SOL     OW34432   4.204   1.534   5.815 -0.3671  0.0079 -0.6417
 7600SOL    HW134433   4.273   1.523   5.749  0.3340  2.9911 -0.4034
 7600SOL    HW234434   4.164   1.616   5.786 -0.3339 -0.8223 -3.0658
 7601SOL     OW34435   1.853   3.124   8.048 -0.7155 -0.4984 -0.1780
 7601SOL    HW134436   1.852   3.182   7.972 -1.6171  0.3848  0.5055
 7601SOL    HW234437   1.839   3.183   8.122  2.5325  0.8580 -0.6295
 7602SOL     OW34438   0.796   4.012  13.118  0.3820 -0.0306  0.2144
 7602SOL    HW134439   0.811   4.075  13.189  0.8139  1.0069 -0.8050
 7602SOL    HW234440   0.851   4.048  13.049  2.1966  0.5299  1.9711
 7603SOL     OW34441   3.734   0.025   7.586 -0.5629  0.3341 -0.5573
 7603SOL    HW134442   3.811   0.036   7.529 -0.1986 -0.1007 -0.1483
 7603SOL    HW234443   3.742   0.098   7.647 -2.6728 -0.7067  0.9550
 7604SOL     OW34444   4.219   2.300  16.347  0.5255  0.2662 -0.0567
 7604SOL    HW134445   4.183   2.221  16.308  0.0186  0.3975  0.1484
 7604SOL    HW234446   4.301   2.268  16.385 -0.8428 -1.0450  1.7378
 7605SOL     OW34447   0.357   0.103  15.882 -0.2922  0.1344 -0.0025
 7605SOL    HW134448   0.435   0.109  15.828  0.3420 -1.1839  0.7712
 7605SOL    HW234449   0.379   0.171  15.946 -2.3631  0.7314  0.0740
 7606SOL     OW34450   4.517   0.918   4.844 -0.3156 -1.1519  0.0071
 7606SOL    HW134451   4.444   0.964   4.803  0.1627  1.0003  1.5781
 7606SOL    HW234452   4.477   0.839   4.882  0.2530 -0.7334  1.5003
 7607SOL     OW34453   2.289   4.362   4.823  0.3409  0.3620  0.1690
 7607SOL    HW134454   2.288   4.268   4.805  0.2448  0.5657 -0.9141
 7607SOL    HW234455   2.260   4.361   4.914  2.6697 -1.8854  0.8925
 7608SOL     OW34456   2.935   3.533   3.813 -0.3755 -0.3388 -0.4454
 7608SOL    HW134457   2.865   3.469   3.823  0.4449 -1.3462 -1.1778
 7608SOL    HW234458   3.010   3.484   3.848 -0.1585  0.9273  0.8820
 7609SOL     OW34459   0.428   1.319   8.928 -0.6684  0.1306 -0.3088
 7609SOL    HW134460   0.477   1.300   9.008 -2.0597 -1.5931  0.1330
 7609SOL    HW234461   0.478   1.270   8.861  1.2399  1.5145  0.0992
 7610SOL     OW34462   3.338   2.261  15.261  0.0326  0.5114 -0.0702
 7610SOL    HW134463   3.311   2.353  15.262 -0.0321  0.4686  2.9296
 7610SOL    HW234464   3.433   2.277  15.258 -0.0836  1.0812 -0.6669
 7611SOL     OW34465   0.245   0.528   2.387  0.2461 -0.2701 -0.5603
 7611SOL    HW134466   0.250   0.435   2.407 -1.7311 -0.1707  0.4305
 7611SOL    HW234467   0.271   0.570   2.469  0.0143  0.4444 -0.8475
 7612SOL     OW34468   1.546   4.111   7.201 -0.0782 -0.4173  0.2031
 7612SOL    HW134469   1.551   4.150   7.114 -1.3474 -1.7471 -0.4659
 7612SOL    HW234470   1.627   4.150   7.234 -0.7630  1.7276 -0.6344
 7613SOL     OW34471   4.597   4.329  12.774  0.7111 -0.0847  0.1007
 7613SOL    HW134472   4.622   4.404  12.720 -0.3137  0.0186 -0.2187
 7613SOL    HW234473   4.583   4.369  12.859  2.7896  0.6376  0.0985
 7614SOL     OW34474   3.105   0.505  14.075  0.0011  0.1834 -0.1803
 7614SOL    HW134475   3.135   0.415  14.059  0.0355  0.2462 -0.4698
 7614SOL    HW234476   3.166   0.546  14.015  0.8348  2.4778  2.2569
 7615SOL     OW34477   4.352   3.157  11.218  0.1324 -0.5240 -0.2365
 7615SOL    HW134478   4.342   3.247  11.251  1.6299 -0.3598 -0.2303
 7615SOL    HW234479   4.274   3.168  11.163 -0.2910 -1.4141  0.1905
 7616SOL     OW34480   3.088   1.551   3.982  0.3294  0.3463  0.1827
 7616SOL    HW134481   3.168   1.548   3.930  0.8720  0.9070  0.9877
 7616SOL    HW234482   3.016   1.532   3.922 -0.2663  0.2737  0.9252
 7617SOL     OW34483   2.780   1.809   4.955  0.3053  0.1462  0.0971
 7617SOL    HW134484   2.812   1.724   4.927 -0.9177  0.1289 -1.2558
 7617SOL    HW234485   2.834   1.869   4.904 -1.2727  1.8058  0.3660
 7618SOL     OW34486   2.445   4.666   4.437  0.3951  0.2984  0.2656
 7618SOL    HW134487   2.421   4.623   4.520 -2.3225 -0.2290 -0.8145
 7618SOL    HW234488   2.541   4.660   4.436  0.4569  0.9200  1.9652
 7619SOL     OW34489   1.943   4.038   6.361 -0.0225  0.2278 -0.0289
 7619SOL    HW134490   1.978   4.073   6.279  1.0535 -0.7753 -0.0023
 7619SOL    HW234491   1.867   3.987   6.333  0.6967 -2.1486  2.3241
 7620SOL     OW34492   1.198   4.447   3.507  0.4796  0.5068 -0.1599
 7620SOL    HW134493   1.244   4.452   3.423  0.0366  2.2897 -0.3060
 7620SOL    HW234494   1.106   4.431   3.490  0.1424  1.8258  0.3952
 7621SOL     OW34495   1.474   4.298   2.728  0.3479  0.3903  0.0797
 7621SOL    HW134496   1.557   4.256   2.750  0.5758  1.3509  1.0584
 7621SOL    HW234497   1.481   4.295   2.633 -1.2897  0.2502 -0.0442
 7622SOL     OW34498   3.605   0.177  14.349 -0.0754 -0.0492 -0.2402
 7622SOL    HW134499   3.607   0.206  14.258 -0.9243 -0.3372 -0.3466
 7622SOL    HW234500   3.510   0.182  14.362  0.2748 -0.5489  2.5417
 7623SOL     OW34501   1.217   0.965   8.455 -0.2873 -0.3483  0.5166
 7623SOL    HW134502   1.181   0.959   8.543  2.0818  1.5194  1.6135
 7623SOL    HW234503   1.291   1.021   8.477  0.7121 -0.9675 -1.1842
 7624SOL     OW34504   4.432   0.792   5.467  0.1837 -0.0601 -0.0081
 7624SOL    HW134505   4.433   0.856   5.538 -2.5839 -1.0175  0.8920
 7624SOL    HW234506   4.343   0.760   5.482  1.2031 -2.0455  1.8873
 7625SOL     OW34507   1.184   4.124   8.346  0.5689 -0.0485 -0.1464
 7625SOL    HW134508   1.166   4.096   8.436  0.2676  0.3552 -0.0827
 7625SOL    HW234509   1.096   4.140   8.312  0.5671 -1.3465 -0.7652
 7626SOL     OW34510   4.081   1.453   3.533  0.5474  0.0950  0.0477
 7626SOL    HW134511   4.044   1.540   3.516 -1.7841 -1.0643 -0.7908
 7626SOL    HW234512   4.020   1.411   3.594  1.7973 -1.9175 -0.1026
 7627SOL     OW34513   0.929   3.676   1.839 -0.5280  0.2262  0.1159
 7627SOL    HW134514   1.000   3.647   1.781 -0.9403 -1.3220  0.3742
 7627SOL    HW234515   0.951   3.768   1.852 -0.2062  0.1064  0.4373
 7628SOL     OW34516   3.034   0.765  15.402  0.0474  0.4478  0.4615
 7628SOL    HW134517   3.100   0.834  15.400  2.1029 -1.5999 -1.7116
 7628SOL    HW234518   3.005   0.780  15.312  1.5053 -0.6851 -0.1981
 7629SOL     OW34519   3.991   3.827   5.574  0.5542 -0.3254  0.2778
 7629SOL    HW134520   3.936   3.888   5.622  0.6858 -0.4002  0.5242
 7629SOL    HW234521   4.034   3.885   5.510 -1.2052 -1.2456 -1.7486
 7630SOL     OW34522   2.981   2.474   7.653 -0.0824  0.2063  0.1104
 7630SOL    HW134523   3.057   2.427   7.618  0.9346  0.3375  2.1823
 7630SOL    HW234524   2.918   2.462   7.581 -0.1544  1.9173 -0.1126
 7631SOL     OW34525   3.299   1.655   4.916  0.0660  0.3571  0.4588
 7631SOL    HW134526   3.323   1.562   4.920 -1.4656 -0.0378  0.4690
 7631SOL    HW234527   3.265   1.663   5.005 -0.0257 -2.6929  0.7193
 7632SOL     OW34528   2.446   2.596   3.804 -0.0627 -0.0754 -0.2095
 7632SOL    HW134529   2.429   2.545   3.724 -0.6028 -2.1195  1.1990
 7632SOL    HW234530   2.425   2.683   3.770 -1.5746  0.1257  1.2295
 7633SOL     OW34531   3.454   4.016   2.933  0.2007 -0.2035  0.4858
 7633SOL    HW134532   3.544   4.036   2.906  0.2656 -0.0360  0.8284
 7633SOL    HW234533   3.412   4.089   2.888 -0.1060 -0.0730  0.9810
 7634SOL     OW34534   3.006   0.573   1.728  0.7723 -0.6929 -0.2101
 7634SOL    HW134535   2.927   0.627   1.738 -0.1115 -1.8609 -0.8267
 7634SOL    HW234536   3.035   0.593   1.639  1.3902  0.5370  0.2689
 7635SOL     OW34537   4.077   3.036   2.149 -0.0073  1.0079 -0.2118
 7635SOL    HW134538   4.103   2.964   2.091 -0.7186 -0.1419  0.9222
 7635SOL    HW234539   4.149   3.097   2.130  2.9400 -1.8260  1.9568
 7636SOL     OW34540   4.218   0.190   3.145 -0.2492  0.0650 -0.0792
 7636SOL    HW134541   4.281   0.262   3.155 -1.4902  1.2143 -0.5295
 7636SOL    HW234542   4.220   0.193   3.049 -0.8670 -1.4443 -0.1308
 7637SOL     OW34543   4.363   4.571   9.283 -0.3182  0.5139  0.0011
 7637SOL    HW134544   4.331   4.654   9.248 -0.3432  0.6310  0.2999
 7637SOL    HW234545   4.404   4.591   9.367 -1.3322  2.3808  0.0409
 7638SOL     OW34546   0.932   2.820   0.115 -0.1422  0.7537  0.4819
 7638SOL    HW134547   0.964   2.910   0.105 -0.4971  0.8852  0.5122
 7638SOL    HW234548   1.000   2.791   0.176 -1.4120  2.5459  2.7636
 7639SOL     OW34549   3.139   1.702   2.205 -0.1599 -0.0248  0.2617
 7639SOL    HW134550   3.090   1.778   2.172 -1.4260 -0.8620  0.2314
 7639SOL    HW234551   3.080   1.659   2.267 -1.0289  1.0733  0.2024
 7640SOL     OW34552   4.616   1.539   9.273  0.4018 -0.0009 -0.0846
 7640SOL    HW134553   4.560   1.610   9.304  0.6930  0.1308  0.1437
 7640SOL    HW234554   4.704   1.571   9.293 -0.1021  0.3737  1.5369
 7641SOL     OW34555   1.510   2.674   3.478  0.3226 -0.1676  0.1850
 7641SOL    HW134556   1.452   2.673   3.554  2.2056  2.4153  1.6532
 7641SOL    HW234557   1.593   2.677   3.527 -0.7897 -1.0069  2.1129
 7642SOL     OW34558   1.984   2.516  17.314  0.1545 -0.1613  0.0886
 7642SOL    HW134559   1.994   2.441  17.373  0.9287 -0.3871 -0.3161
 7642SOL    HW234560   2.042   2.491  17.242  0.2334  0.6973 -0.1415
 7643SOL     OW34561   4.113   3.165   4.428  0.4692 -0.3047  0.0786
 7643SOL    HW134562   4.117   3.074   4.456 -2.0831 -0.0694  1.1984
 7643SOL    HW234563   4.048   3.200   4.489 -0.4921 -1.5893 -0.2005
 7644SOL     OW34564   4.287   3.456  11.303 -0.1551 -0.2967 -0.1224
 7644SOL    HW134565   4.362   3.448  11.245  0.3360 -0.6254  0.5551
 7644SOL    HW234566   4.310   3.535  11.353 -0.2452  0.8819 -1.9376
 7645SOL     OW34567   3.701   1.014   3.227 -0.5962 -0.1080 -0.0000
 7645SOL    HW134568   3.695   1.037   3.320  0.9824  0.5719 -0.0549
 7645SOL    HW234569   3.649   0.934   3.230  1.4704 -1.5039 -1.4037
 7646SOL     OW34570   2.422   1.611   3.799 -0.5730 -0.1577  0.0369
 7646SOL    HW134571   2.347   1.671   3.804  0.9788  1.6225  2.3062
 7646SOL    HW234572   2.485   1.645   3.862  0.9051 -2.4721 -0.2011
 7647SOL     OW34573   1.169   0.844   0.779 -0.1631  0.1626  0.2488
 7647SOL    HW134574   1.202   0.928   0.748  1.0548 -0.0949  0.8819
 7647SOL    HW234575   1.248   0.791   0.770 -0.2667 -0.0424  0.5449
 7648SOL     OW34576   3.786   4.005   5.316 -0.3147  0.0141 -0.4712
 7648SOL    HW134577   3.806   3.916   5.342 -0.5199  0.1448  0.1370
 7648SOL    HW234578   3.690   4.006   5.321 -0.4283 -0.9592 -2.6754
 7649SOL     OW34579   1.313   3.104   7.101 -0.6905  0.3047  0.0481
 7649SOL    HW134580   1.249   3.041   7.134 -1.5423  1.5177  0.7032
 7649SOL    HW234581   1.356   3.129   7.182  1.6160 -1.1118 -0.7174
 7650SOL     OW34582   3.229   0.161   2.073 -0.2299  0.0098  0.1701
 7650SOL    HW134583   3.139   0.151   2.043  0.0193 -1.2109 -0.1780
 7650SOL    HW234584   3.281   0.086   2.042  0.2574  0.1134  0.7358
 7651SOL     OW34585   0.042   3.592  12.462 -0.1364 -0.8961  0.3017
 7651SOL    HW134586   0.074   3.566  12.375  1.1614 -0.8447  0.7556
 7651SOL    HW234587   0.085   3.528  12.519  1.4590  0.9157  1.1297
 7652SOL     OW34588   0.700   0.249   0.053  0.3473  0.0299  0.1812
 7652SOL    HW134589   0.783   0.272   0.096  1.1246 -1.2329 -0.6501
 7652SOL    HW234590   0.684   0.157   0.070 -2.6884  0.6248  0.5749
 7653SOL     OW34591   0.356   0.547   4.961  0.6037 -0.0822  0.6538
 7653SOL    HW134592   0.286   0.591   5.009  0.6750 -2.2892  2.7538
 7653SOL    HW234593   0.430   0.589   5.006  0.6893  0.0614  0.3776
 7654SOL     OW34594   4.483   4.081  10.421  0.8982  0.5922  0.0974
 7654SOL    HW134595   4.431   4.004  10.398  0.3958  1.2965 -1.1317
 7654SOL    HW234596   4.449   4.141  10.354  0.7052  0.2425 -0.1142
 7655SOL     OW34597   2.339   1.494   4.881 -0.6864  0.2903  0.4130
 7655SOL    HW134598   2.388   1.532   4.954  1.9469 -0.1684 -1.1236
 7655SOL    HW234599   2.390   1.420   4.850 -0.4695  0.7902 -0.4477
 7656SOL     OW34600   0.227   1.505   6.741 -0.2517 -0.1517 -0.0911
 7656SOL    HW134601   0.257   1.436   6.682  1.1422  0.2988  0.0773
 7656SOL    HW234602   0.299   1.508   6.804  1.2268 -1.6467 -1.7104
 7657SOL     OW34603   0.803   2.106   6.712  0.3067 -0.1592  0.1207
 7657SOL    HW134604   0.880   2.129   6.659  1.3802  0.5458  1.9842
 7657SOL    HW234605   0.756   2.046   6.655  0.7171  1.1760 -1.6346
 7658SOL     OW34606   2.825   1.321   5.250 -0.8917 -0.1864  0.3590
 7658SOL    HW134607   2.847   1.414   5.247 -0.0405 -0.5118 -3.0182
 7658SOL    HW234608   2.849   1.294   5.162 -1.8794 -1.6928  0.5538
 7659SOL     OW34609   4.662   1.701   3.961  0.1785  0.4327 -0.0659
 7659SOL    HW134610   4.720   1.657   3.898 -1.1096 -1.6725  0.1970
 7659SOL    HW234611   4.713   1.717   4.041 -1.3853  1.0682  0.7910
 7660SOL     OW34612   2.809   4.203   4.137 -0.1828  0.1177  0.4515
 7660SOL    HW134613   2.751   4.155   4.078 -0.1239  0.0931  0.4135
 7660SOL    HW234614   2.747   4.256   4.187  0.0167  1.0592 -0.3258
 7661SOL     OW34615   1.790   2.356   3.011  0.3651  0.6614 -0.1768
 7661SOL    HW134616   1.699   2.336   2.993  0.1567  0.4947  1.0556
 7661SOL    HW234617   1.785   2.374   3.105 -0.0279 -0.4503  0.0144
 7662SOL     OW34618   3.753   3.883   6.371 -0.1415 -0.3631  0.2164
 7662SOL    HW134619   3.716   3.864   6.285 -0.4315  0.2736  0.2000
 7662SOL    HW234620   3.761   3.801   6.420 -1.3085  1.2092  3.0721
 7663SOL     OW34621   0.254   0.076   8.004 -0.0250  0.0636  0.1931
 7663SOL    HW134622   0.296   4.733   7.970  0.8584  1.4462 -1.9442
 7663SOL    HW234623   0.271   0.134   7.929  2.4877  0.8943  1.4062
 7664SOL     OW34624   3.514   0.301   3.167  0.5124  0.2929 -0.2430
 7664SOL    HW134625   3.503   0.225   3.224  0.1022  1.2407  0.9099
 7664SOL    HW234626   3.460   0.259   3.099  0.3709  1.2095 -0.6961
 7665SOL     OW34627   0.906   1.503   3.928  0.3784 -0.3887  0.4113
 7665SOL    HW134628   0.837   1.483   3.865 -0.6354 -1.0437  1.7375
 7665SOL    HW234629   0.968   1.544   3.869 -0.0934 -0.5018 -0.1614
 7666SOL     OW34630   4.335   3.766   9.372  0.6249  0.9151 -0.5564
 7666SOL    HW134631   4.418   3.806   9.398 -0.7493  3.0893  0.5009
 7666SOL    HW234632   4.327   3.782   9.278 -0.2504  0.0522 -0.6255
 7667SOL     OW34633   3.962   1.840   5.423 -0.3789 -0.4013  0.4874
 7667SOL    HW134634   3.987   1.931   5.435  0.1469 -0.7869  2.2525
 7667SOL    HW234635   3.879   1.859   5.379  0.3437  0.1967 -0.6242
 7668SOL     OW34636   4.131   4.210  14.371  0.1113 -0.2540 -0.0439
 7668SOL    HW134637   4.108   4.117  14.376  0.9846 -0.4626  0.2214
 7668SOL    HW234638   4.066   4.238  14.307 -1.3034  0.2859  1.6425
 7669SOL     OW34639   0.896   2.276   5.023 -0.3498  0.0917 -0.0105
 7669SOL    HW134640   0.846   2.225   4.960 -2.3428  2.6632 -0.5270
 7669SOL    HW234641   0.830   2.310   5.083 -1.2103 -0.1519 -0.8230
 7670SOL     OW34642   2.611   0.580   5.460  0.2743 -0.0177  0.4761
 7670SOL    HW134643   2.702   0.603   5.439  0.0529  0.6022  0.2017
 7670SOL    HW234644   2.587   0.514   5.395  2.3667 -0.5045  0.1934
 7671SOL     OW34645   2.361   3.757   8.492  0.1720 -0.1664  0.0725
 7671SOL    HW134646   2.388   3.834   8.542 -1.0162 -0.4730  1.1957
 7671SOL    HW234647   2.334   3.702   8.565 -1.4370  1.2024  0.5086
 7672SOL     OW34648   3.982   4.665   3.957  0.2930 -0.1176 -0.5030
 7672SOL    HW134649   4.014   4.646   3.869 -1.1993 -1.0638 -0.8335
 7672SOL    HW234650   3.941   4.581   3.976  0.1959  0.1845  0.6578
 7673SOL     OW34651   1.053   0.220   6.575  0.4718 -0.0053 -0.0465
 7673SOL    HW134652   1.009   0.202   6.657  0.4510  0.8226  0.1234
 7673SOL    HW234653   1.068   0.133   6.538 -1.5408 -0.3683  0.0107
 7674SOL     OW34654   1.968   1.478   3.808 -0.2938  0.4815 -0.0321
 7674SOL    HW134655   1.896   1.504   3.751  0.0748  0.7457 -0.3746
 7674SOL    HW234656   2.039   1.513   3.755  0.7658 -1.6078  0.0117
 7675SOL     OW34657   1.520   3.880   9.038 -0.4220 -0.2965 -0.9422
 7675SOL    HW134658   1.554   3.791   9.046 -2.0109 -0.8994 -0.8287
 7675SOL    HW234659   1.530   3.914   9.127  1.2096 -2.9884 -0.1081
 7676SOL     OW34660   4.732   1.970   9.781  0.5641 -0.2809  0.1848
 7676SOL    HW134661   4.692   1.902   9.835 -1.8728  0.2434 -0.9672
 7676SOL    HW234662   0.011   2.042   9.841 -0.6416  1.2580 -1.3818
 7677SOL     OW34663   2.678   3.202   5.242 -0.1061 -0.0591 -0.1661
 7677SOL    HW134664   2.648   3.279   5.192  0.4368 -0.8127 -1.6542
 7677SOL    HW234665   2.658   3.223   5.333  0.0538  0.5649 -0.2699
 7678SOL     OW34666   1.438   1.630   5.807 -0.1877 -0.0476 -0.0386
 7678SOL    HW134667   1.353   1.633   5.764  0.3618  1.0371 -1.0669
 7678SOL    HW234668   1.452   1.536   5.807 -2.5950 -0.3846 -1.6924
 7679SOL     OW34669   4.500   2.868   1.135  0.3142 -0.3218  0.1356
 7679SOL    HW134670   4.544   2.867   1.050  1.4445 -0.0051  0.7175
 7679SOL    HW234671   4.505   2.776   1.163  0.6905 -0.3882 -0.1298
 7680SOL     OW34672   3.785   1.854  11.327  0.4548 -0.0141 -0.2765
 7680SOL    HW134673   3.712   1.843  11.266 -1.5766  0.9096  1.9827
 7680SOL    HW234674   3.790   1.946  11.304  2.2698  0.2723  1.2669
 7681SOL     OW34675   1.191   2.420   9.001  0.1152  0.2873  0.4941
 7681SOL    HW134676   1.184   2.332   8.962  1.3060  0.5948 -0.4486
 7681SOL    HW234677   1.285   2.441   9.005  0.4186 -1.0234  0.5002
 7682SOL     OW34678   4.235   1.632   0.696 -0.1189  0.4876  0.0931
 7682SOL    HW134679   4.274   1.719   0.691  0.3056  0.1983 -1.7311
 7682SOL    HW234680   4.283   1.597   0.621 -1.2997 -1.8218  0.4138
 7683SOL     OW34681   4.268   0.593  17.636 -0.5113  0.1160  0.2223
 7683SOL    HW134682   4.193   0.651  17.626 -0.7223 -0.2921 -0.5929
 7683SOL    HW234683   4.316   0.622  17.559  0.1594 -2.0526 -0.1895
 7684SOL     OW34684   3.191   4.019  12.127  0.0790 -0.4923  0.0205
 7684SOL    HW134685   3.227   3.971  12.201  1.8527 -0.3049 -0.7210
 7684SOL    HW234686   3.111   4.063  12.156 -0.9280 -1.1403 -1.7658
 7685SOL     OW34687   4.627   4.595   2.645  0.9381 -0.4848 -0.0857
 7685SOL    HW134688   4.568   4.668   2.663  1.0958 -0.2936 -0.3495
 7685SOL    HW234689   4.703   4.615   2.700  0.8033  1.4583 -0.6030
 7686SOL     OW34690   3.999   1.524  12.143 -0.0511  0.3399  0.2535
 7686SOL    HW134691   4.086   1.488  12.158 -0.9617 -1.7294  0.5959
 7686SOL    HW234692   3.955   1.508  12.226  1.2057 -0.2043  0.8136
 7687SOL     OW34693   1.040   1.948   3.795 -0.7984 -0.4714  0.1726
 7687SOL    HW134694   1.078   2.034   3.807 -1.8805 -0.2291  1.8255
 7687SOL    HW234695   1.002   1.941   3.882 -3.9452 -0.4920 -1.1973
 7688SOL     OW34696   1.469   3.007  13.960 -0.4126 -0.3599  0.1475
 7688SOL    HW134697   1.438   3.091  13.994  1.5601 -0.2540  1.6504
 7688SOL    HW234698   1.546   2.995  14.015 -0.4204 -1.3421 -0.0609
 7689SOL     OW34699   0.511   3.060   9.406  0.1465  0.4388 -0.3080
 7689SOL    HW134700   0.594   3.014   9.423  0.0154  0.6242  0.7737
 7689SOL    HW234701   0.460   3.018   9.475  0.3274 -0.6766 -0.8338
 7690SOL     OW34702   3.569   3.657  10.168  0.4358 -0.1041 -0.2856
 7690SOL    HW134703   3.571   3.742  10.123 -0.7134  0.1397  0.1187
 7690SOL    HW234704   3.541   3.605  10.092 -0.4954 -0.9012  0.6150
 7691SOL     OW34705   0.172   2.121   0.272  0.1147  0.2887 -0.0090
 7691SOL    HW134706   0.206   2.117   0.183  1.1318  1.0906  0.3403
 7691SOL    HW234707   0.168   2.028   0.295 -1.1234  0.2565 -0.3412
 7692SOL     OW34708   3.222   2.026   7.240 -0.2420  0.0194  0.3082
 7692SOL    HW134709   3.285   2.058   7.305  0.2193 -1.6252  0.6612
 7692SOL    HW234710   3.161   2.100   7.231  1.6744  1.5293 -0.1465
 7693SOL     OW34711   4.665   1.033  12.629  0.8059 -0.0371  0.2213
 7693SOL    HW134712   4.673   0.986  12.712 -0.0973  0.1646  0.4172
 7693SOL    HW234713   4.653   1.123  12.659 -1.0441  0.4364 -1.9303
 7694SOL     OW34714   4.367   2.524   2.673  0.5251 -0.0079 -0.1868
 7694SOL    HW134715   4.406   2.608   2.699 -0.2918  1.5289 -3.9365
 7694SOL    HW234716   4.349   2.551   2.583  1.4367  0.1899 -0.3122
 7695SOL     OW34717   2.399   2.060   8.742  0.8938 -0.2022  0.0028
 7695SOL    HW134718   2.457   2.049   8.817  0.3363  1.0401  0.6023
 7695SOL    HW234719   2.377   2.153   8.741  1.3987 -0.0802  0.1164
 7696SOL     OW34720   3.484   1.532   5.888  0.6223  0.5335  0.7978
 7696SOL    HW134721   3.459   1.624   5.876  2.0587  0.6788 -0.9482
 7696SOL    HW234722   3.567   1.537   5.842  0.2502 -0.2915  0.0430
 7697SOL     OW34723   3.756   3.879   9.153 -0.2461 -0.1754 -0.1994
 7697SOL    HW134724   3.803   3.872   9.070 -0.5126 -0.0174 -0.3626
 7697SOL    HW234725   3.708   3.798   9.133 -0.1802  0.2662 -2.1889
 7698SOL     OW34726   1.259   4.332  13.334 -0.2486  0.0502 -0.5730
 7698SOL    HW134727   1.184   4.353  13.279 -0.7349  2.1728  0.8881
 7698SOL    HW234728   1.214   4.307  13.414  0.2300  0.6959 -0.0935
 7699SOL     OW34729   2.883   2.145   6.291  0.3341 -0.5048 -0.4634
 7699SOL    HW134730   2.977   2.153   6.308 -0.3009 -0.6811  3.1090
 7699SOL    HW234731   2.888   2.112   6.201  1.5118 -0.2137 -0.5038
 7700SOL     OW34732   1.349   1.513   4.539 -0.4456 -0.5362 -0.3243
 7700SOL    HW134733   1.364   1.556   4.455  0.3747 -1.9942 -0.9180
 7700SOL    HW234734   1.434   1.533   4.579 -1.1355  1.5252  0.1399
 7701SOL     OW34735   2.422   0.789   2.197  0.0588 -0.5353  0.3282
 7701SOL    HW134736   2.394   0.698   2.208 -1.1804 -0.3728 -1.5671
 7701SOL    HW234737   2.367   0.812   2.122  0.5329 -1.4255 -0.2907
 7702SOL     OW34738   3.096   3.186   5.149 -0.1018 -0.0597  0.7868
 7702SOL    HW134739   3.066   3.270   5.114  0.0149 -0.5480 -0.4982
 7702SOL    HW234740   3.015   3.154   5.188  0.1084 -0.6654  0.7268
 7703SOL     OW34741   0.566   4.634  11.458  0.1919 -0.1910 -0.2601
 7703SOL    HW134742   0.656   4.651  11.431 -0.0266  0.5813 -0.4991
 7703SOL    HW234743   0.550   4.717  11.503  1.7916 -0.0950  0.1223
 7704SOL     OW34744   4.238   2.674   2.411 -0.1110 -0.0626 -0.0220
 7704SOL    HW134745   4.288   2.602   2.373 -1.4000 -0.7728 -0.3907
 7704SOL    HW234746   4.146   2.647   2.401 -0.9711  2.6830  0.4359
 7705SOL     OW34747   1.105   4.526   0.311 -0.7743  0.1125  0.5835
 7705SOL    HW134748   1.115   4.491   0.399 -0.3221  0.4791  0.6796
 7705SOL    HW234749   1.148   4.611   0.319 -0.0571 -0.2380  0.4095
 7706SOL     OW34750   0.167   3.953   1.981  0.0072  0.1364 -0.4924
 7706SOL    HW134751   0.245   3.975   1.930 -0.7916  0.9150 -1.3864
 7706SOL    HW234752   0.101   3.928   1.916  0.5238 -0.3268 -0.8414
 7707SOL     OW34753   2.270   3.903  10.528  0.2021  0.4951  0.4744
 7707SOL    HW134754   2.188   3.855  10.518 -1.2312  2.4983  2.4127
 7707SOL    HW234755   2.246   3.983  10.482  0.0252 -0.4654 -1.0779
 7708SOL     OW34756   0.499   1.126   7.764  0.6872  0.8659 -0.4044
 7708SOL    HW134757   0.583   1.165   7.787  0.0673  2.0333 -0.1260
 7708SOL    HW234758   0.490   1.157   7.673  0.4530  0.5706 -0.4819
 7709SOL     OW34759   4.692   2.326   3.074 -0.4072 -0.1419 -0.2565
 7709SOL    HW134760   4.676   2.408   3.122 -2.5801 -1.7336  1.7175
 7709SOL    HW234761   4.652   2.256   3.126 -2.6408  2.1438  1.1112
 7710SOL     OW34762   3.104   4.299   5.755  0.4227  0.6522  0.5695
 7710SOL    HW134763   3.039   4.273   5.690  1.3759 -0.0201 -0.1192
 7710SOL    HW234764   3.089   4.231   5.821  0.7737 -0.1724 -0.2024
 7711SOL     OW34765   2.078   3.908   7.343 -0.1184 -0.2445 -0.4479
 7711SOL    HW134766   2.098   3.822   7.380 -2.6666 -0.5304  0.2745
 7711SOL    HW234767   2.160   3.955   7.354 -0.2582 -0.6476  2.3454
 7712SOL     OW34768   1.706   2.113  11.047  0.2528 -0.2670  0.4287
 7712SOL    HW134769   1.743   2.111  10.959  0.6933 -1.3528  0.6387
 7712SOL    HW234770   1.700   2.207  11.062  0.3352 -0.4962  1.9571
 7713SOL     OW34771   3.438   1.161   6.838  0.6153  1.0622 -0.1086
 7713SOL    HW134772   3.400   1.076   6.816  2.4500  0.3521 -0.5298
 7713SOL    HW234773   3.355   1.189   6.875  0.3000  0.1410 -0.1234
 7714SOL     OW34774   1.437   2.858   4.514 -0.6457 -0.0919 -0.3453
 7714SOL    HW134775   1.470   2.928   4.570 -0.7042 -1.3100  1.1984
 7714SOL    HW234776   1.362   2.832   4.568 -2.3598  0.8777 -2.2377
 7715SOL     OW34777   4.518   0.707   1.556  0.1966 -0.4153 -0.5761
 7715SOL    HW134778   4.593   0.652   1.576 -0.9374 -0.4765  3.5508
 7715SOL    HW234779   4.439   0.680   1.605  0.2913  0.9872  0.3553
 7716SOL     OW34780   2.730   3.602  16.099  0.1010  0.3632 -0.1142
 7716SOL    HW134781   2.813   3.623  16.143  0.1215  1.5139 -0.7198
 7716SOL    HW234782   2.751   3.617  16.007  0.0003  0.0499 -0.1888
 7717SOL     OW34783   0.519   0.346   2.921  0.6929 -0.3227  0.6874
 7717SOL    HW134784   0.501   0.314   2.833 -0.3501  1.3632  0.2945
 7717SOL    HW234785   0.506   0.263   2.967 -0.9066 -1.0587 -1.0811
 7718SOL     OW34786   4.510   1.582   2.894  0.0326  0.1252  0.4762
 7718SOL    HW134787   4.458   1.554   2.819 -0.6694  0.6878  0.7545
 7718SOL    HW234788   4.473   1.524   2.960  0.8964  0.3652  1.1790
 7719SOL     OW34789   0.888   2.247   9.323  0.2476 -0.1960 -0.0753
 7719SOL    HW134790   0.838   2.283   9.249  0.5393  2.2513  0.9149
 7719SOL    HW234791   0.870   2.154   9.309 -0.7035 -0.4936  3.1644
 7720SOL     OW34792   0.465   1.123   7.166  0.6842  0.1111  0.1240
 7720SOL    HW134793   0.393   1.165   7.119  0.4206 -0.5527 -0.0646
 7720SOL    HW234794   0.436   1.121   7.257 -0.2547  2.8367 -0.1211
 7721SOL     OW34795   2.390   0.604   5.206 -0.0025  0.3639 -0.0479
 7721SOL    HW134796   2.477   0.591   5.168  0.4673  2.6371  0.2800
 7721SOL    HW234797   2.338   0.564   5.136 -0.6323 -2.2170  1.8852
 7722SOL     OW34798   0.508   0.952   8.257 -0.1235  0.2500  0.3480
 7722SOL    HW134799   0.561   0.940   8.336  1.6934 -0.6992 -0.9997
 7722SOL    HW234800   0.421   0.962   8.295  0.5913  2.8359  1.3222
 7723SOL     OW34801   3.666   4.127   3.554 -0.3509 -0.1022  0.4490
 7723SOL    HW134802   3.642   4.111   3.463  3.6598 -1.0062 -0.4054
 7723SOL    HW234803   3.608   4.063   3.595 -1.3308  0.9090  0.6658
 7724SOL     OW34804   1.667   1.886   1.244  0.2274  0.2408 -0.1124
 7724SOL    HW134805   1.677   1.849   1.157  1.4091  0.8559 -0.2335
 7724SOL    HW234806   1.599   1.953   1.238  1.3357  1.1823 -2.1553
 7725SOL     OW34807   3.249   2.365   0.512 -0.1577 -0.3348  0.2233
 7725SOL    HW134808   3.187   2.298   0.484  1.1400 -1.5395  0.2253
 7725SOL    HW234809   3.200   2.427   0.566 -1.1801 -0.7232 -0.2735
 7726SOL     OW34810   1.611   2.581  16.102  0.7233 -0.3375 -0.0118
 7726SOL    HW134811   1.666   2.514  16.061 -0.4737 -2.0219  1.1500
 7726SOL    HW234812   1.599   2.540  16.187  0.2127 -0.3471 -0.0884
 7727SOL     OW34813   0.604   1.128   3.398  0.1392  0.2113  0.2178
 7727SOL    HW134814   0.582   1.057   3.337  1.7642 -2.6636  2.9934
 7727SOL    HW234815   0.700   1.124   3.402  0.0898 -0.0965  1.1104
 7728SOL     OW34816   4.193   3.558  17.624  0.2379 -0.4052 -0.0363
 7728SOL    HW134817   4.208   3.638  17.572 -0.1431 -0.4338 -0.1936
 7728SOL    HW234818   4.108   3.527  17.593  0.6805 -0.7125 -0.9699
 7729SOL     OW34819   4.260   0.509   1.217  0.0766  0.4322  0.0942
 7729SOL    HW134820   4.351   0.518   1.188  0.0756 -1.2060 -0.4391
 7729SOL    HW234821   4.254   0.551   1.303 -0.1099  0.9346 -0.1651
 7730SOL     OW34822   3.400   2.282   9.290  0.0823  0.0451  0.2471
 7730SOL    HW134823   3.483   2.329   9.301  0.1426 -0.0591  0.2405
 7730SOL    HW234824   3.430   2.195   9.318 -0.4895 -0.6025 -1.1734
 7731SOL     OW34825   0.523   3.366   6.247  0.6819 -0.6436  0.1148
 7731SOL    HW134826   0.574   3.428   6.300 -0.0248 -0.5217  0.6640
 7731SOL    HW234827   0.581   3.293   6.226  2.2250  0.3756  0.8415
 7732SOL     OW34828   2.105   0.046  10.464  0.2022 -0.0450 -0.7693
 7732SOL    HW134829   2.015   0.077  10.460 -0.0172 -0.8858 -2.3018
 7732SOL    HW234830   2.096   4.707  10.404 -2.6036 -0.4523  0.1248
 7733SOL     OW34831   1.156   2.134   8.848  0.3134  0.2122 -0.2448
 7733SOL    HW134832   1.196   2.178   8.773 -0.8475  0.5994 -0.6315
 7733SOL    HW234833   1.165   2.045   8.813  0.1023 -0.0116  0.2699
 7734SOL     OW34834   3.545   4.263   9.688 -0.1717  0.3359 -0.2637
 7734SOL    HW134835   3.542   4.190   9.626 -1.2541  1.4704 -1.5617
 7734SOL    HW234836   3.632   4.251   9.725 -0.1762 -0.1552 -0.4163
 7735SOL     OW34837   1.112   2.357  11.225 -0.0365  0.2666 -0.2180
 7735SOL    HW134838   1.053   2.284  11.206  0.2418  0.2832 -1.1101
 7735SOL    HW234839   1.108   2.402  11.141 -0.1350  0.5142 -0.0839
 7736SOL     OW34840   0.171   1.144  15.425  0.1172 -0.1952 -0.4788
 7736SOL    HW134841   0.260   1.115  15.443  0.4436  0.7774 -0.5227
 7736SOL    HW234842   0.137   1.055  15.417 -0.6449 -0.0335  1.0354
 7737SOL     OW34843   4.112   0.905   5.291  0.4024  0.6008  0.1718
 7737SOL    HW134844   4.067   0.977   5.245 -1.4298  0.4726  1.7580
 7737SOL    HW234845   4.137   0.944   5.375  1.3568 -2.3255  1.2491
 7738SOL     OW34846   0.840   0.680   4.044 -0.1252 -0.1161 -0.5191
 7738SOL    HW134847   0.933   0.672   4.064 -0.5364 -0.0670  1.3998
 7738SOL    HW234848   0.836   0.766   4.002 -0.0852  1.0689  1.9305
 7739SOL     OW34849   3.539   1.445   0.800  0.2147 -0.1332  0.7110
 7739SOL    HW134850   3.615   1.393   0.777 -0.2497 -1.2121  1.6383
 7739SOL    HW234851   3.579   1.509   0.860 -1.9329  2.3630 -0.5019
 7740SOL     OW34852   1.091   3.816   9.391  0.1979 -0.2297  0.2250
 7740SOL    HW134853   1.120   3.885   9.451 -0.7942  2.6812 -2.6991
 7740SOL    HW234854   1.029   3.859   9.333 -0.2965  1.3414  1.9251
 7741SOL     OW34855   1.799   2.560   5.201  0.5405  0.3178  0.0086
 7741SOL    HW134856   1.876   2.536   5.150  0.0693 -0.4155 -0.3451
 7741SOL    HW234857   1.796   2.656   5.209  0.6489  0.1939  1.7216
 7742SOL     OW34858   0.889   1.237  16.761 -0.1778  0.3329  0.1013
 7742SOL    HW134859   0.919   1.290  16.687 -0.9972  0.5473 -0.0890
 7742SOL    HW234860   0.948   1.274  16.826  3.2648 -1.3877 -2.0405
 7743SOL     OW34861   2.908   0.153  12.742 -0.8068 -0.1707  0.3775
 7743SOL    HW134862   2.946   0.080  12.693  0.6889  0.5494  0.4390
 7743SOL    HW234863   2.983   0.182  12.795 -1.1960 -1.3625  1.5817
 7744SOL     OW34864   0.310   2.014  11.181 -0.2328 -0.1448 -0.0037
 7744SOL    HW134865   0.326   2.082  11.115 -0.8203 -0.9214 -0.9581
 7744SOL    HW234866   0.274   1.953  11.117 -1.0699 -0.2524  0.5771
 7745SOL     OW34867   3.080   1.957   2.124  0.3230  0.0986  0.0306
 7745SOL    HW134868   3.034   1.952   2.208  0.6257 -1.0098  0.1327
 7745SOL    HW234869   3.167   1.983   2.154  0.7868 -1.2427 -0.1597
 7746SOL     OW34870   4.200   1.792  13.654  0.4118 -0.5611  0.3379
 7746SOL    HW134871   4.216   1.796  13.748  1.0590  3.7179  0.0534
 7746SOL    HW234872   4.242   1.875  13.630  0.9910 -0.9801 -0.0922
 7747SOL     OW34873   2.507   0.463   6.044  0.0231 -0.2020 -0.2746
 7747SOL    HW134874   2.424   0.483   6.000 -1.3850 -1.3694  1.8176
 7747SOL    HW234875   2.534   0.554   6.061 -1.5172 -0.2311  2.3633
 7748SOL     OW34876   3.144   4.594   5.831  0.1615 -0.2388 -0.0197
 7748SOL    HW134877   3.076   4.609   5.765 -1.4287 -2.1915  1.1610
 7748SOL    HW234878   3.143   4.499   5.828  1.5183 -0.2038 -1.5094
 7749SOL     OW34879   3.868   2.513   6.184  0.4331 -0.2968  0.3059
 7749SOL    HW134880   3.780   2.546   6.202  0.0749 -1.2750  0.3735
 7749SOL    HW234881   3.908   2.519   6.271  0.7171  0.6133  0.1083
 7750SOL     OW34882   0.506   2.820   4.883  0.1759 -0.0646 -0.4201
 7750SOL    HW134883   0.452   2.843   4.959  1.1089 -1.6493  0.7118
 7750SOL    HW234884   0.560   2.753   4.924 -1.3122 -0.8961  0.1828
 7751SOL     OW34885   3.918   3.804   3.887  0.0775  0.0143  0.6190
 7751SOL    HW134886   3.824   3.791   3.889  0.1964 -0.8762  0.3135
 7751SOL    HW234887   3.932   3.857   3.808  1.0883 -0.9749  0.1370
 7752SOL     OW34888   2.006   3.458   4.999 -0.2532  0.2359 -0.3035
 7752SOL    HW134889   2.097   3.487   4.989 -1.1763  2.6757 -1.6676
 7752SOL    HW234890   1.964   3.531   4.954 -0.1930  0.6278  0.2772
 7753SOL     OW34891   3.389   4.095  11.951 -0.4184  0.0198  1.1619
 7753SOL    HW134892   3.344   4.038  12.015 -2.9894  1.3244  0.5182
 7753SOL    HW234893   3.370   4.183  11.983 -0.5019 -0.2943  1.9964
 7754SOL     OW34894   0.064   0.678   1.681 -0.3514 -0.2253  0.3064
 7754SOL    HW134895   4.716   0.676   1.728  0.1801 -0.8134  1.2300
 7754SOL    HW234896   0.037   0.716   1.598  0.7418  0.0657  0.0786
 7755SOL     OW34897   4.076   1.965   3.135  0.6886  0.5270  0.1350
 7755SOL    HW134898   4.006   1.963   3.069 -0.8966 -0.5667  1.8504
 7755SOL    HW234899   4.121   1.881   3.135 -0.5165 -0.1488 -2.5643
 7756SOL     OW34900   4.438   2.360   6.849  0.8711  0.1805  0.2807
 7756SOL    HW134901   4.373   2.428   6.867  1.3729  0.4101  1.2065
 7756SOL    HW234902   4.507   2.417   6.817  1.5453 -1.1029 -0.5559
 7757SOL     OW34903   3.205   2.356  14.789 -0.5848 -0.6987  0.1667
 7757SOL    HW134904   3.153   2.379  14.866  0.7690 -0.6874  1.0835
 7757SOL    HW234905   3.160   2.407  14.722 -0.4534  1.0356  1.4002
 7758SOL     OW34906   2.606   2.685   6.735  0.2794 -0.0358  0.6494
 7758SOL    HW134907   2.548   2.645   6.800 -0.3257 -1.6350 -0.8647
 7758SOL    HW234908   2.632   2.602   6.694  1.6172  1.3635 -1.3064
 7759SOL     OW34909   4.665   1.470   7.191 -0.0054  0.1692 -0.6288
 7759SOL    HW134910   4.646   1.430   7.277 -2.3618  2.9904  0.1434
 7759SOL    HW234911   4.652   1.395   7.133 -0.2781 -0.5826  0.3969
 7760SOL     OW34912   0.859   3.761   2.737  0.6384  0.5685 -0.4255
 7760SOL    HW134913   0.937   3.706   2.734 -0.3059 -0.7655 -0.8535
 7760SOL    HW234914   0.894   3.843   2.702 -0.0571  0.4750 -1.3579
 7761SOL     OW34915   0.557   3.337   1.695 -0.3089  0.4774 -0.7211
 7761SOL    HW134916   0.592   3.424   1.712 -0.5887  0.0216  2.0468
 7761SOL    HW234917   0.529   3.310   1.782  0.1768  1.2469 -0.3334
 7762SOL     OW34918   2.340   2.513   6.103 -0.3832  0.3476  0.1764
 7762SOL    HW134919   2.343   2.542   6.194  0.3370  1.0314 -0.0638
 7762SOL    HW234920   2.278   2.440   6.107 -0.0504 -0.0087 -1.3430
 7763SOL     OW34921   3.515   1.400   3.599  0.1007  0.6845  0.0974
 7763SOL    HW134922   3.609   1.395   3.586  0.2372  0.8526  1.0598
 7763SOL    HW234923   3.490   1.386   3.507  1.8734 -2.3252  0.0886
 7764SOL     OW34924   2.406   4.671   6.055 -0.6526 -0.0972 -0.0017
 7764SOL    HW134925   2.463   4.663   5.978 -2.8106 -0.0879 -1.6064
 7764SOL    HW234926   2.335   4.729   6.028 -1.6502 -1.3960 -0.1626
 7765SOL     OW34927   3.721   0.806   2.216 -0.2832  1.0874 -0.4828
 7765SOL    HW134928   3.756   0.832   2.131  1.7711  0.7695  0.2678
 7765SOL    HW234929   3.699   0.891   2.256 -0.9437 -0.4943  2.4913
 7766SOL     OW34930   1.073   1.950   2.329 -0.3396  0.1315  0.0663
 7766SOL    HW134931   1.061   2.025   2.271 -0.7545 -0.4705 -0.6334
 7766SOL    HW234932   1.063   1.873   2.273 -0.2717 -1.7915  2.7045
 7767SOL     OW34933   2.097   1.046   3.071  0.0903  0.4239  0.0192
 7767SOL    HW134934   2.169   0.984   3.079 -0.1209  0.0449 -1.0749
 7767SOL    HW234935   2.119   1.088   2.988  0.0980 -0.4769 -0.4292
 7768SOL     OW34936   1.097   2.203   7.292 -0.9219  0.8412 -0.4525
 7768SOL    HW134937   1.029   2.270   7.286  0.0774  2.0340  1.4621
 7768SOL    HW234938   1.050   2.136   7.340  0.3326 -0.0207 -0.4210
 7769SOL     OW34939   2.112   0.375   4.246  0.2636  0.0310  0.6567
 7769SOL    HW134940   2.141   0.437   4.313 -0.3400  1.5556 -0.4872
 7769SOL    HW234941   2.045   0.427   4.200 -1.2522 -2.4045  0.1294
 7770SOL     OW34942   2.002   3.386  14.701 -0.2917 -0.3755  0.3416
 7770SOL    HW134943   2.037   3.475  14.700  2.3148 -1.3663  1.8608
 7770SOL    HW234944   2.080   3.331  14.689 -0.4271 -0.4116 -0.3764
 7771SOL     OW34945   2.822   0.705   3.599  0.1410  0.1694 -0.9325
 7771SOL    HW134946   2.737   0.663   3.616  0.9095 -1.1388 -0.4025
 7771SOL    HW234947   2.816   0.790   3.643 -1.6457 -0.9162  0.9164
 7772SOL     OW34948   3.988   2.291   7.162  0.5998  0.7091 -0.0099
 7772SOL    HW134949   4.051   2.339   7.217  1.7079  0.5205 -1.1156
 7772SOL    HW234950   3.911   2.286   7.220 -0.3935  2.7806 -1.1442
 7773SOL     OW34951   2.628   2.812   6.067  0.2811 -0.4721  0.2221
 7773SOL    HW134952   2.705   2.849   6.111 -1.3570  0.5028  2.2608
 7773SOL    HW234953   2.601   2.876   6.001  0.1541  0.6851  1.3872
 7774SOL     OW34954   2.047   2.254   4.689 -0.1264 -0.2095  0.3976
 7774SOL    HW134955   2.040   2.160   4.707  0.6564 -0.4490 -0.5607
 7774SOL    HW234956   1.980   2.293   4.746  0.5034  0.2869  0.7966
 7775SOL     OW34957   1.311   1.605   5.308 -0.5151  0.2485  0.4002
 7775SOL    HW134958   1.284   1.681   5.359  0.6534  1.1417 -0.2971
 7775SOL    HW234959   1.384   1.556   5.348  0.3082 -0.6860 -2.2289
 7776SOL     OW34960   1.971   4.266   4.840 -0.9860  0.4328  0.1126
 7776SOL    HW134961   1.878   4.289   4.852 -1.2437  0.3020 -1.6229
 7776SOL    HW234962   1.988   4.305   4.754 -1.4657 -1.3048 -0.7625
 7777SOL     OW34963   0.821   2.317   5.943 -0.9649  0.0787  0.5382
 7777SOL    HW134964   0.906   2.300   5.902 -2.0983 -2.2321 -0.8675
 7777SOL    HW234965   0.829   2.287   6.034  1.5859  1.0696  0.6404
 7778SOL     OW34966   1.017   0.998  11.796 -0.1772  0.3672  0.4690
 7778SOL    HW134967   1.101   1.009  11.840  0.9172  1.2697 -1.8287
 7778SOL    HW234968   0.956   0.977  11.866  0.4454 -0.7509  0.6729
 7779SOL     OW34969   1.069   3.487   7.173 -0.1043  0.0705 -0.0406
 7779SOL    HW134970   1.153   3.530   7.190 -0.5982  0.0956  2.4329
 7779SOL    HW234971   1.011   3.517   7.244  0.1204 -1.0988  0.6566
 7780SOL     OW34972   4.355   0.629   8.026 -0.3354  0.3589  0.1761
 7780SOL    HW134973   4.430   0.599   8.078 -1.0798 -0.9575  0.4871
 7780SOL    HW234974   4.399   0.685   7.963 -2.8288 -0.4355 -2.2592
 7781SOL     OW34975   4.333   1.743  12.177  0.0272  0.1580  0.1341
 7781SOL    HW134976   4.253   1.740  12.125 -0.6762 -1.4083  1.3218
 7781SOL    HW234977   4.358   1.835  12.178 -1.0363  0.4605 -0.8244
 7782SOL     OW34978   3.533   0.874   6.046  0.0626 -0.3023 -0.0299
 7782SOL    HW134979   3.528   0.956   5.996 -1.9462  1.0210  2.3364
 7782SOL    HW234980   3.587   0.901   6.120 -0.5370  1.2418 -0.1455
 7783SOL     OW34981   2.507   2.550   5.642  0.2183  0.0613 -0.7751
 7783SOL    HW134982   2.422   2.590   5.660  0.6422  0.6982 -0.2168
 7783SOL    HW234983   2.565   2.621   5.669  0.7552 -0.4587 -0.5710
 7784SOL     OW34984   2.797   3.094  14.665 -0.4892  0.0035  0.1403
 7784SOL    HW134985   2.795   3.104  14.569 -1.2499 -0.3389  0.1234
 7784SOL    HW234986   2.887   3.069  14.686 -0.6956 -3.2741 -2.7646
 7785SOL     OW34987   3.993   2.065  10.256 -0.7604 -0.5459 -0.4054
 7785SOL    HW134988   4.050   2.017  10.316  0.7340 -0.6595 -1.9047
 7785SOL    HW234989   3.923   2.092  10.316 -1.2250  0.4845 -1.4183
 7786SOL     OW34990   2.945   4.270   6.290 -0.3811 -0.0161  0.2327
 7786SOL    HW134991   2.983   4.186   6.317 -0.0100 -0.3569 -1.3334
 7786SOL    HW234992   3.004   4.328   6.337 -0.3024  0.5618 -0.5695
 7787SOL     OW34993   2.689   0.851   6.941  0.5724  0.1258  0.3375
 7787SOL    HW134994   2.696   0.926   6.882  1.7738 -1.2129 -1.2289
 7787SOL    HW234995   2.674   0.900   7.022  1.5313  2.4672 -0.8926
 7788SOL     OW34996   4.638   0.280  14.486 -0.1155 -0.1498  0.3412
 7788SOL    HW134997   4.597   0.197  14.509 -3.1440  0.9070 -1.1678
 7788SOL    HW234998   4.689   0.295  14.565  0.1606  0.1871  0.0993
 7789SOL     OW34999   1.417   1.274   5.233 -0.2744 -0.1316  0.4143
 7789SOL    HW135000   1.363   1.201   5.203  1.4255 -1.4527  0.5678
 7789SOL    HW235001   1.417   1.325   5.152 -0.0268 -2.1943 -0.9048
 7790SOL     OW35002   0.689   2.579   6.075 -0.5286  0.1216 -0.2373
 7790SOL    HW135003   0.686   2.536   6.160 -2.9920  0.1087 -0.3205
 7790SOL    HW235004   0.735   2.509   6.029  0.5227 -1.0305  2.5827
 7791SOL     OW35005   3.082   0.326   7.730 -0.1959 -0.2876  0.0694
 7791SOL    HW135006   3.084   0.257   7.797 -0.1209  1.4451  1.8330
 7791SOL    HW235007   3.136   0.277   7.668  0.1049 -0.3004  0.3404
 7792SOL     OW35008   1.804   1.768   6.637  0.0485  0.1546 -0.3327
 7792SOL    HW135009   1.777   1.789   6.727 -0.6815  0.7429 -0.6897
 7792SOL    HW235010   1.732   1.801   6.583 -0.5162  0.9870  0.9292
 7793SOL     OW35011   3.553   0.608   9.482  0.1283  0.2664 -0.5606
 7793SOL    HW135012   3.632   0.565   9.514 -1.4005 -0.9200  1.6589
 7793SOL    HW235013   3.576   0.699   9.500  0.5298 -0.2672  1.7010
 7794SOL     OW35014   2.969   1.899   7.254 -0.0648 -0.4945  0.9412
 7794SOL    HW135015   3.040   1.961   7.272 -0.9264  1.0544 -1.0034
 7794SOL    HW235016   2.914   1.956   7.200 -1.1790 -1.4429  1.0772
 7795SOL     OW35017   2.999   0.863  15.945 -0.2175  0.4417  0.1516
 7795SOL    HW135018   2.914   0.852  15.987  0.1347  0.3303  0.8305
 7795SOL    HW235019   3.050   0.784  15.963 -1.9176 -0.9667 -1.2180
 7796SOL     OW35020   1.708   1.411   5.718 -0.0535 -0.4588 -0.3780
 7796SOL    HW135021   1.716   1.322   5.683 -1.5772 -0.3864 -0.8935
 7796SOL    HW235022   1.640   1.390   5.783  0.1749 -0.2213 -0.0564
 7797SOL     OW35023   0.680   0.422  14.385  0.0206  0.0204 -0.2277
 7797SOL    HW135024   0.757   0.404  14.330  0.9909 -1.8908  1.7734
 7797SOL    HW235025   0.602   0.402  14.333 -0.5257 -0.0157  0.6101
 7798SOL     OW35026   1.780   3.455   0.430 -0.4233 -0.2731 -0.3117
 7798SOL    HW135027   1.819   3.382   0.381 -1.2166 -2.2863  2.0331
 7798SOL    HW235028   1.809   3.446   0.521  1.4537 -3.7374 -1.2586
 7799SOL     OW35029   3.549   3.171  17.068 -0.3120  0.3215  0.0964
 7799SOL    HW135030   3.563   3.078  17.051  1.1735  0.4316  0.7181
 7799SOL    HW235031   3.461   3.186  17.032  0.1935  0.8658 -0.9232
 7800SOL     OW35032   2.800   2.483   6.185  0.0827  0.3270  0.5631
 7800SOL    HW135033   2.733   2.498   6.118 -1.5075  0.4438  2.1931
 7800SOL    HW235034   2.870   2.543   6.161 -0.1799  0.4111 -0.0035
 7801SOL     OW35035   3.937   1.326   6.863 -0.0580  0.2562  0.1391
 7801SOL    HW135036   3.949   1.396   6.928 -0.0696  0.7470 -0.3821
 7801SOL    HW235037   3.842   1.337   6.858 -0.2825 -2.5385 -1.8397
 7802SOL     OW35038   4.456   3.555   8.087  0.8134 -0.1830 -0.0355
 7802SOL    HW135039   4.447   3.541   7.993  0.2206  0.2873 -0.0511
 7802SOL    HW235040   4.525   3.622   8.081 -0.5628  1.3559  1.1391
 7803SOL     OW35041   2.025   4.098   7.020  0.0502 -0.5160  0.1712
 7803SOL    HW135042   2.089   4.045   7.067 -0.8810 -2.5515 -0.8197
 7803SOL    HW235043   2.046   4.189   7.038 -1.8111  0.0004 -0.3072
 7804SOL     OW35044   0.106   0.968   3.686  0.0684  0.2114  0.4557
 7804SOL    HW135045   0.154   0.895   3.644  0.8142  1.1109 -0.2538
 7804SOL    HW235046   0.140   0.960   3.775  0.8023 -0.7369  0.0913
 7805SOL     OW35047   3.233   4.571   7.102 -0.3276 -0.6552 -0.1578
 7805SOL    HW135048   3.240   4.478   7.125  0.2323 -0.7897 -0.8877
 7805SOL    HW235049   3.322   4.602   7.121 -0.4355 -1.4341  1.6074
 7806SOL     OW35050   2.098   1.609  13.989  0.4351 -0.3358 -0.2419
 7806SOL    HW135051   2.151   1.534  14.016  1.8217  0.8273  0.2308
 7806SOL    HW235052   2.079   1.646  14.075 -0.0977 -0.3184 -0.3657
 7807SOL     OW35053   2.094   3.686   4.263 -0.2142 -0.2424 -0.3806
 7807SOL    HW135054   2.173   3.683   4.209  0.5244  0.7469  0.6497
 7807SOL    HW235055   2.131   3.652   4.345  1.3020  2.6804  0.1525
 7808SOL     OW35056   1.872   0.774  14.493  0.0463  0.4152 -0.6112
 7808SOL    HW135057   1.933   0.701  14.494  0.4248  0.7331 -0.6330
 7808SOL    HW235058   1.835   0.759  14.405  2.3192 -2.3920 -1.0861
 7809SOL     OW35059   1.543   2.951   3.976 -0.4752 -0.4912  0.2957
 7809SOL    HW135060   1.581   3.033   3.946 -0.3773 -0.7774 -0.3592
 7809SOL    HW235061   1.520   2.970   4.067 -2.2380  0.9642 -0.4680
 7810SOL     OW35062   1.403   4.459  14.130 -0.0859  0.1652 -0.0072
 7810SOL    HW135063   1.339   4.458  14.201 -1.4344  0.5906 -1.2006
 7810SOL    HW235064   1.353   4.479  14.050 -0.1538  1.3562  0.3469
 7811SOL     OW35065   0.478   3.757   9.247 -0.1865 -0.0425  0.2976
 7811SOL    HW135066   0.548   3.697   9.223 -0.1726 -0.5444  1.5869
 7811SOL    HW235067   0.516   3.783   9.331 -1.1693 -1.8717  1.3046
 7812SOL     OW35068   4.326   3.427  13.248 -0.2979  0.1767  0.0851
 7812SOL    HW135069   4.355   3.517  13.264  0.3491 -0.0692  0.2921
 7812SOL    HW235070   4.232   3.444  13.243  0.0466  0.8086 -4.7443
 7813SOL     OW35071   3.257   3.938   3.613 -0.0834  0.1922  0.1046
 7813SOL    HW135072   3.348   3.959   3.631 -0.4562  3.0095 -1.1439
 7813SOL    HW235073   3.273   3.872   3.546 -1.1276 -1.1156  1.1515
 7814SOL     OW35074   1.984   0.063  15.001  0.5613  0.1059 -0.4530
 7814SOL    HW135075   1.995   0.127  14.931 -0.0372  1.4005  0.6428
 7814SOL    HW235076   2.041   0.084  15.074 -0.7070 -0.5497  0.7229
 7815SOL     OW35077   0.537   1.911   2.103 -0.0171 -0.2846  0.0496
 7815SOL    HW135078   0.476   1.985   2.098 -3.1449 -2.8471 -0.1285
 7815SOL    HW235079   0.576   1.920   2.016 -0.3292 -0.6338 -0.1248
 7816SOL     OW35080   0.509   0.134   3.060 -0.2113 -0.5647 -0.3785
 7816SOL    HW135081   0.604   0.140   3.070 -0.2305 -0.5074 -0.2283
 7816SOL    HW235082   0.477   0.064   3.117  0.2738  1.1063  1.9434
 7817SOL     OW35083   4.115   3.941   3.709  0.3086  0.0698  0.0732
 7817SOL    HW135084   4.135   3.939   3.802 -2.1305  0.1278  0.5948
 7817SOL    HW235085   4.182   4.006   3.690 -0.5783  0.8328 -0.3875
 7818SOL     OW35086   1.559   4.069   8.664 -0.3703  0.4110 -0.2206
 7818SOL    HW135087   1.649   4.062   8.632 -0.1572 -0.3756  0.5577
 7818SOL    HW235088   1.531   4.134   8.600 -1.3454  0.5755  0.3677
 7819SOL     OW35089   0.456   1.964   8.586 -0.0054  0.0135  0.3779
 7819SOL    HW135090   0.499   1.878   8.583  2.2255  1.2343 -2.3810
 7819SOL    HW235091   0.496   2.011   8.513 -1.1353 -0.5291 -0.6012
 7820SOL     OW35092   3.186   3.016   5.761  0.1076  0.0245 -0.3308
 7820SOL    HW135093   3.189   2.934   5.712 -1.2060  0.7849 -1.6891
 7820SOL    HW235094   3.272   3.024   5.801 -0.7130  0.4715  1.3072
 7821SOL     OW35095   1.172   4.519  13.964 -0.1602 -0.4476  0.0045
 7821SOL    HW135096   1.164   4.613  13.952  2.0855  0.0763  2.3433
 7821SOL    HW235097   1.100   4.512  14.027 -0.8054  0.9276 -0.5912
 7822SOL     OW35098   2.698   0.920   9.003  0.0485 -0.5740  0.2047
 7822SOL    HW135099   2.734   1.003   9.035  0.1674 -0.1056 -1.1305
 7822SOL    HW235100   2.781   0.876   8.985 -0.6246 -1.2591 -1.2382
 7823SOL     OW35101   4.120   2.105  16.138 -0.3945  0.0352  0.0419
 7823SOL    HW135102   4.067   2.050  16.195 -4.0140  2.4200 -1.0095
 7823SOL    HW235103   4.070   2.109  16.056  0.8714  0.7225 -0.7037
 7824SOL     OW35104   4.550   4.537   4.468  0.1956 -0.2215 -0.0825
 7824SOL    HW135105   4.476   4.593   4.491 -0.9149 -1.4827 -0.6231
 7824SOL    HW235106   4.620   4.577   4.519  0.3930 -0.1211 -0.4260
 7825SOL     OW35107   0.336   0.110   4.939  0.2342  0.3526  0.0337
 7825SOL    HW135108   0.428   0.088   4.927 -0.1629 -1.7582  0.8225
 7825SOL    HW235109   0.314   0.184   4.883 -1.1339 -1.2110 -1.4817
 7826SOL     OW35110   3.824   4.461   4.037 -0.0099  0.5216 -0.7094
 7826SOL    HW135111   3.749   4.506   3.999  1.0146  2.4982 -0.3694
 7826SOL    HW235112   3.784   4.448   4.123 -2.0734 -0.6976 -1.8635
 7827SOL     OW35113   4.429   3.796   1.168  0.6048  0.1302 -0.2435
 7827SOL    HW135114   4.396   3.830   1.251  1.0514 -1.4999  0.6117
 7827SOL    HW235115   4.401   3.868   1.112  1.0215  0.2504 -0.2962
 7828SOL     OW35116   2.281   3.435   3.793  0.0806 -0.6883  0.1025
 7828SOL    HW135117   2.331   3.356   3.769  0.2753 -0.4334 -0.3261
 7828SOL    HW235118   2.310   3.484   3.716  1.0935 -1.6659 -0.1360
 7829SOL     OW35119   1.507   0.001   7.717  0.4033  0.7717 -0.2198
 7829SOL    HW135120   1.416   4.709   7.729  0.2668  1.2213 -0.2199
 7829SOL    HW235121   1.511   0.017   7.623  0.1278 -1.3197 -0.5958
 7830SOL     OW35122   4.436   4.089  12.722 -0.8504  0.0984  0.4707
 7830SOL    HW135123   4.481   4.173  12.726 -1.1207  0.3106 -0.8737
 7830SOL    HW235124   4.502   4.020  12.727  0.1351  0.8353 -2.4350
 7831SOL     OW35125   1.799   3.136   5.565  0.3791  0.2189 -0.4392
 7831SOL    HW135126   1.707   3.162   5.575  0.2994 -0.4138  0.5299
 7831SOL    HW235127   1.809   3.156   5.472 -0.1106  0.0759 -0.5219
 7832SOL     OW35128   2.913   0.773   9.182 -0.3257  0.1089  0.4145
 7832SOL    HW135129   2.932   0.827   9.105 -0.1918 -1.3432 -0.5801
 7832SOL    HW235130   2.893   0.696   9.128  1.1313 -0.8003  1.1756
 7833SOL     OW35131   1.122   3.767  16.630  0.9323 -0.2819 -0.9266
 7833SOL    HW135132   1.071   3.771  16.549 -0.5534 -1.0596 -0.0527
 7833SOL    HW235133   1.194   3.830  16.626 -0.1956  0.9016 -2.5136
 7834SOL     OW35134   3.032   4.436  14.499 -0.0214 -0.7722  0.4730
 7834SOL    HW135135   2.940   4.459  14.512 -0.7886 -2.7367 -1.3276
 7834SOL    HW235136   3.066   4.434  14.588  2.5229 -0.0214 -0.4955
 7835SOL     OW35137   3.701   2.978  15.839  0.4141  0.5417  1.1137
 7835SOL    HW135138   3.762   2.931  15.783  1.2940  0.9679  1.7027
 7835SOL    HW235139   3.646   2.909  15.877  0.8663 -0.2830  0.2743
 7836SOL     OW35140   2.883   4.083  14.109  0.1241 -0.3601 -0.6801
 7836SOL    HW135141   2.908   4.092  14.202 -2.6586 -1.8443  0.1962
 7836SOL    HW235142   2.889   4.174  14.078 -1.0357  0.0002  0.1476
 7837SOL     OW35143   3.648   0.102   7.181 -0.4441  0.0214  0.5466
 7837SOL    HW135144   3.739   0.072   7.183 -0.1171  0.6832 -3.3579
 7837SOL    HW235145   3.650   0.148   7.097  1.3129  1.1183  1.1944
 7838SOL     OW35146   0.291   4.679   5.512  0.7240  0.3619 -0.7026
 7838SOL    HW135147   0.299   0.029   5.470 -0.0003  0.4884 -0.5787
 7838SOL    HW235148   0.259   4.699   5.600  0.5341 -0.2846 -0.6287
 7839SOL     OW35149   1.495   4.277  16.747 -0.0912  0.2844  0.0896
 7839SOL    HW135150   1.501   4.197  16.798 -0.1841  0.0523 -0.2626
 7839SOL    HW235151   1.586   4.306  16.746  0.4289 -1.2823  2.9958
 7840SOL     OW35152   2.321   1.568   2.014  0.1932  0.1888 -0.0116
 7840SOL    HW135153   2.280   1.612   1.939 -1.7770  1.0476  1.5713
 7840SOL    HW235154   2.283   1.482   1.993  0.3744 -0.1835  1.1964
 7841SOL     OW35155   2.607   3.636   6.612 -0.0280 -0.0328 -0.6887
 7841SOL    HW135156   2.675   3.569   6.612 -0.7755 -0.7931 -0.6014
 7841SOL    HW235157   2.548   3.594   6.674 -1.0745  0.0732 -1.6121
 7842SOL     OW35158   1.388   0.656   2.959  0.2824  0.1691 -0.0349
 7842SOL    HW135159   1.313   0.716   2.956  0.3072  0.2214  0.4327
 7842SOL    HW235160   1.432   0.693   2.883 -0.3461  4.1820  1.5324
 7843SOL     OW35161   4.717   4.449   0.439 -0.7018 -0.2454  0.3399
 7843SOL    HW135162   0.059   4.500   0.416 -1.2392 -0.4328 -1.8736
 7843SOL    HW235163   0.015   4.360   0.457  0.6143  0.4779  1.5113
 7844SOL     OW35164   1.393   2.279  11.208 -0.4846 -0.5786  0.1541
 7844SOL    HW135165   1.388   2.184  11.218 -1.2565 -0.7092 -1.4401
 7844SOL    HW235166   1.303   2.312  11.207 -0.4107 -0.3906 -0.3376
 7845SOL     OW35167   0.729   2.459   6.688  0.2711 -0.6586  0.6619
 7845SOL    HW135168   0.732   2.509   6.770  2.5386 -2.6180  1.7587
 7845SOL    HW235169   0.766   2.372   6.702 -0.1315 -0.9094  0.1827
 7846SOL     OW35170   4.700   3.808  13.783  0.2451  0.5615  0.4861
 7846SOL    HW135171   4.624   3.861  13.758  0.0786  1.1933  2.3069
 7846SOL    HW235172   0.031   3.840  13.723 -1.1989  1.5407 -0.5938
 7847SOL     OW35173   3.443   0.728  14.127  0.2408  0.1117 -0.0646
 7847SOL    HW135174   3.457   0.634  14.137 -2.7531 -0.4727 -1.3825
 7847SOL    HW235175   3.522   0.776  14.154  0.8326 -0.1888 -1.2721
 7848SOL     OW35176   4.217   4.126   7.513  0.4220  0.0258  0.3907
 7848SOL    HW135177   4.216   4.154   7.604 -1.0365  0.1573  0.3311
 7848SOL    HW235178   4.303   4.083   7.513 -0.0152 -0.8437  2.8208
 7849SOL     OW35179   2.637   2.197   5.164  0.1938 -0.4093 -0.2494
 7849SOL    HW135180   2.716   2.142   5.164 -0.3447 -1.1851 -0.0464
 7849SOL    HW235181   2.623   2.202   5.258 -0.9004 -0.9326 -0.3792
 7850SOL     OW35182   2.829   0.886  16.400  0.0995  0.0702  0.0825
 7850SOL    HW135183   2.869   0.875  16.487  0.2887  2.1487  0.2790
 7850SOL    HW235184   2.906   0.857  16.351 -0.4599  0.0711 -0.7888
 7851SOL     OW35185   4.622   4.023   6.381 -0.2667  1.0218  0.3224
 7851SOL    HW135186   4.650   4.114   6.387  0.7217  0.6894  0.8624
 7851SOL    HW235187   4.527   4.036   6.380 -0.2181  1.2311 -1.4838
 7852SOL     OW35188   2.389   0.721   1.465  0.4623 -0.8539 -0.2263
 7852SOL    HW135189   2.380   0.681   1.378  0.5344 -0.9415 -0.1941
 7852SOL    HW235190   2.458   0.782   1.440 -0.7129  0.4854 -0.2055
 7853SOL     OW35191   1.546   2.021   5.337  0.4157 -0.0247 -0.3804
 7853SOL    HW135192   1.608   2.072   5.389 -0.5676  1.7230 -0.9106
 7853SOL    HW235193   1.578   1.933   5.356  0.8617  0.0422 -0.8376
 7854SOL     OW35194   2.032   4.044   8.522 -0.2400 -0.3319 -0.0320
 7854SOL    HW135195   2.087   4.123   8.526 -1.2568  0.3667  0.0746
 7854SOL    HW235196   2.053   4.011   8.609 -0.8764  0.9992  0.6362
 7855SOL     OW35197   4.072   3.959   7.367 -0.2736 -0.2393 -0.4178
 7855SOL    HW135198   4.064   3.892   7.434 -0.7614 -0.0778 -0.3070
 7855SOL    HW235199   4.135   4.019   7.406 -1.8818  1.7459 -0.8435
 7856SOL     OW35200   0.990   3.295   4.825 -0.0201 -0.0817 -0.2098
 7856SOL    HW135201   0.975   3.209   4.785  0.4990  0.7199 -2.1578
 7856SOL    HW235202   0.977   3.277   4.918  0.6012  2.7373  0.4304
 7857SOL     OW35203   0.007   1.518   3.061  0.0350  0.2683  0.3057
 7857SOL    HW135204   0.028   1.556   2.976  0.9329  1.9329  1.2762
 7857SOL    HW235205   4.730   1.429   3.026  0.0906  1.2951 -2.3364
 7858SOL     OW35206   3.185   0.089   2.604  0.2529  0.4017  0.0426
 7858SOL    HW135207   3.184   0.184   2.598 -0.9888  0.5011  1.9175
 7858SOL    HW235208   3.167   0.063   2.695 -3.0471 -0.2491 -0.7830
 7859SOL     OW35209   4.524   1.623   7.557 -0.3932 -0.5606  0.6323
 7859SOL    HW135210   4.609   1.590   7.528  0.0568 -0.7573  2.1209
 7859SOL    HW235211   4.469   1.545   7.557  0.5571 -1.2274  0.0212
 7860SOL     OW35212   4.447   0.314  14.271 -0.1075 -1.1949  0.6272
 7860SOL    HW135213   4.458   0.394  14.219 -1.9912 -0.6606  1.0350
 7860SOL    HW235214   4.512   0.323  14.341  2.2862  1.8542 -1.9737
 7861SOL     OW35215   2.929   2.314   8.816  0.3500 -0.0365  0.9195
 7861SOL    HW135216   2.864   2.352   8.875 -0.1614  0.3770  0.0771
 7861SOL    HW235217   2.978   2.259   8.878 -1.8411 -0.4994  2.2279
 7862SOL     OW35218   3.958   3.120   2.680 -0.7055  0.6350 -0.1768
 7862SOL    HW135219   3.963   3.100   2.586 -1.8260  0.9605 -0.3141
 7862SOL    HW235220   3.940   3.032   2.713 -0.0450  0.4510 -0.3194
 7863SOL     OW35221   0.105   0.540  10.471  0.4599  0.0481 -0.0775
 7863SOL    HW135222   0.066   0.620  10.434  1.1425 -0.6332 -2.2689
 7863SOL    HW235223   0.028   0.483  10.471  0.6679 -0.2178 -1.5339
 7864SOL     OW35224   3.807   4.677   4.785 -0.5529 -0.1022  0.2482
 7864SOL    HW135225   3.840   4.592   4.814 -0.1868  0.2322  0.8245
 7864SOL    HW235226   3.881   4.714   4.737 -1.0392 -1.1690 -1.3049
 7865SOL     OW35227   0.770   0.096  15.572 -0.1241 -0.2215  0.5489
 7865SOL    HW135228   0.757   0.124  15.481 -1.0207 -2.3072  0.0362
 7865SOL    HW235229   0.805   0.008  15.555  1.9197  1.0484 -1.8033
 7866SOL     OW35230   2.029   4.009   3.495 -0.5402  0.4864 -0.1120
 7866SOL    HW135231   2.068   4.097   3.489  1.8552 -0.5627 -0.1585
 7866SOL    HW235232   1.952   4.041   3.541  1.0170  0.0346  2.7686
 7867SOL     OW35233   4.460   0.889  12.421  0.1672 -0.4099 -0.2939
 7867SOL    HW135234   4.487   0.856  12.507  1.1596 -0.0585 -0.4749
 7867SOL    HW235235   4.456   0.981  12.448 -2.3655 -0.7929  0.7349
 7868SOL     OW35236   3.483   0.138   6.549  0.2373 -0.0454 -0.0150
 7868SOL    HW135237   3.410   0.150   6.490  1.1012 -1.7977 -1.4192
 7868SOL    HW235238   3.452   0.094   6.629 -0.1036 -0.6730 -0.4974
 7869SOL     OW35239   2.234   3.927   6.058 -0.4746  0.4423 -0.7408
 7869SOL    HW135240   2.154   3.979   6.048 -0.6635  0.2941  0.0488
 7869SOL    HW235241   2.243   3.948   6.151  0.8314 -1.8710 -0.3360
 7870SOL     OW35242   4.246   3.790  10.079  0.4638 -0.3691  1.0045
 7870SOL    HW135243   4.244   3.783   9.983  0.8230 -0.1915  0.9835
 7870SOL    HW235244   4.160   3.753  10.099  0.0440  0.0799  0.0730
 7871SOL     OW35245   1.585   2.272   1.146  0.0087  0.2738  0.0824
 7871SOL    HW135246   1.504   2.289   1.098  0.3285 -0.3663 -0.6859
 7871SOL    HW235247   1.642   2.253   1.071 -0.4727  1.1303 -0.5020
 7872SOL     OW35248   2.526   1.137   1.731  0.1839  0.2720  0.6486
 7872SOL    HW135249   2.544   1.224   1.767 -0.3443 -0.3221  2.3029
 7872SOL    HW235250   2.615   1.108   1.710  0.3780  2.0263 -0.9649
 7873SOL     OW35251   0.416   0.523   2.633 -0.2032  0.3486 -0.9467
 7873SOL    HW135252   0.434   0.472   2.554  0.6137  1.9614 -1.8012
 7873SOL    HW235253   0.485   0.493   2.692 -0.3841 -0.6461 -1.2360
 7874SOL     OW35254   0.752   3.552   8.347  0.0133  0.3257  0.3479
 7874SOL    HW135255   0.708   3.637   8.360 -1.4751 -0.5648  1.1696
 7874SOL    HW235256   0.676   3.505   8.314 -1.5372  2.8697  0.3042
 7875SOL     OW35257   4.450   1.810  15.623  0.4011 -0.2844 -0.5016
 7875SOL    HW135258   4.356   1.830  15.612  0.1744 -1.4333 -0.5996
 7875SOL    HW235259   4.440   1.717  15.643  0.4692 -0.3699 -0.8682
 7876SOL     OW35260   3.177   3.689   3.193  0.5045 -0.0849  0.3472
 7876SOL    HW135261   3.190   3.739   3.113 -1.2368 -0.8557 -0.4136
 7876SOL    HW235262   3.193   3.602   3.159  1.2640  0.3204 -0.3214
 7877SOL     OW35263   3.623   3.396   5.962 -0.1353 -0.4876 -0.5471
 7877SOL    HW135264   3.629   3.427   6.053  0.4202 -2.6670  0.1462
 7877SOL    HW235265   3.583   3.310   5.969  0.3741 -0.6846 -0.0206
 7878SOL     OW35266   4.718   3.342   5.816 -0.6481  0.0868 -0.4393
 7878SOL    HW135267   4.631   3.382   5.809 -0.5749  0.5204  1.1160
 7878SOL    HW235268   4.723   3.325   5.722 -0.4784 -0.2456 -0.3702
 7879SOL     OW35269   1.307   1.311   4.322 -0.3437 -0.0868  0.3031
 7879SOL    HW135270   1.310   1.390   4.269  2.0566  0.8620  1.8400
 7879SOL    HW235271   1.246   1.339   4.391 -0.9155 -0.1017 -0.1983
 7880SOL     OW35272   1.628   1.235  15.145  0.9658 -0.3116 -0.1404
 7880SOL    HW135273   1.566   1.290  15.193 -0.0185  0.2442 -2.0296
 7880SOL    HW235274   1.620   1.278  15.060  0.0293 -1.2377 -0.5185
 7881SOL     OW35275   4.428   2.061   4.215 -0.2942  0.4456 -0.3116
 7881SOL    HW135276   4.349   2.020   4.249 -0.5797  1.9841  0.9254
 7881SOL    HW235277   4.422   2.037   4.123  0.2969 -1.8410  0.2451
 7882SOL     OW35278   4.138   1.910   8.378 -0.3472  0.1944  0.1858
 7882SOL    HW135279   4.217   1.868   8.344 -0.2859 -0.7824  1.5532
 7882SOL    HW235280   4.137   1.864   8.462 -2.6392  0.4034  0.2859
 7883SOL     OW35281   4.478   1.282   6.922  0.0932 -0.3962  0.2465
 7883SOL    HW135282   4.451   1.204   6.972  0.3549 -2.0382 -2.1850
 7883SOL    HW235283   4.393   1.326   6.917  0.5427  0.2930 -1.3382
 7884SOL     OW35284   4.657   0.468  15.577  0.3154  0.1174 -0.1783
 7884SOL    HW135285   4.602   0.526  15.524  0.8811  0.0154 -0.8736
 7884SOL    HW235286   0.003   0.518  15.586  0.8241 -0.2352 -2.9681
 7885SOL     OW35287   0.851   2.299  10.027 -0.7555  0.1130  0.6912
 7885SOL    HW135288   0.794   2.370   9.997 -1.4303 -1.0303 -0.7774
 7885SOL    HW235289   0.858   2.258   9.941 -2.0133 -0.1292  0.7021
 7886SOL     OW35290   3.899   1.741   1.769  0.7081  0.7140 -0.1940
 7886SOL    HW135291   3.898   1.646   1.765 -2.1944  0.6878  0.7648
 7886SOL    HW235292   3.871   1.755   1.859  3.2167  1.6928  0.4282
 7887SOL     OW35293   4.002   1.636   6.078 -0.3720  0.3768 -0.6303
 7887SOL    HW135294   3.941   1.565   6.098 -1.0625  0.3330 -2.9363
 7887SOL    HW235295   3.991   1.642   5.983  1.0848 -0.8419 -0.8845
 7888SOL     OW35296   0.652   2.192   1.841  0.3516  0.5289  0.3734
 7888SOL    HW135297   0.569   2.210   1.797  1.2575 -0.8948 -1.8957
 7888SOL    HW235298   0.663   2.245   1.920 -0.1269  0.8595  0.2195
 7889SOL     OW35299   0.063   3.912   5.989 -0.7155  0.2685  0.2739
 7889SOL    HW135300   0.015   3.867   6.059  0.6248  0.6491  1.4462
 7889SOL    HW235301   0.074   3.841   5.925 -3.1173 -0.2493  0.4441
 7890SOL     OW35302   3.364   2.099   3.605  0.6425 -0.5270  0.1088
 7890SOL    HW135303   3.297   2.033   3.584  1.2102 -1.0616 -0.0250
 7890SOL    HW235304   3.397   2.102   3.515  0.4764 -0.4622  0.0503
 7891SOL     OW35305   3.025   4.202   5.376 -0.3026  0.2693  0.1019
 7891SOL    HW135306   2.954   4.175   5.434  0.9778  0.6714  1.8473
 7891SOL    HW235307   3.100   4.146   5.394 -0.7356 -0.8863 -1.6707
 7892SOL     OW35308   3.317   0.663  12.634  0.3206  0.1488  0.7723
 7892SOL    HW135309   3.289   0.652  12.543  0.2034 -2.5476  1.1245
 7892SOL    HW235310   3.411   0.681  12.626  0.1732  0.3046 -0.5829
 7893SOL     OW35311   3.791   0.167  15.490  0.6029  0.0316  0.1364
 7893SOL    HW135312   3.886   0.157  15.492  0.3687 -1.4933  3.5278
 7893SOL    HW235313   3.765   0.089  15.442  2.3663 -0.1185 -0.5738
 7894SOL     OW35314   2.831   2.907   3.029  0.2903  0.7252  0.1031
 7894SOL    HW135315   2.851   2.824   2.987 -0.2217 -0.8376  2.9254
 7894SOL    HW235316   2.873   2.977   2.979  2.6741 -1.1957 -0.6101
 7895SOL     OW35317   1.459   4.501   5.040 -0.1967  0.4659  0.0221
 7895SOL    HW135318   1.457   4.513   5.135  2.0061 -0.0930  0.1517
 7895SOL    HW235319   1.516   4.424   5.042 -0.1702  0.4557 -0.9908
 7896SOL     OW35320   3.743   3.566   9.811  0.1594 -0.1207 -0.4897
 7896SOL    HW135321   3.773   3.638   9.756 -2.0184 -0.0225 -1.5244
 7896SOL    HW235322   3.670   3.608   9.857  0.7369  1.3710 -0.9247
 7897SOL     OW35323   1.797   1.603   3.620 -0.1122 -0.4263  0.3287
 7897SOL    HW135324   1.862   1.664   3.586 -0.2106  0.3691  1.5379
 7897SOL    HW235325   1.718   1.657   3.627  0.2510  0.3247 -1.6050
 7898SOL     OW35326   1.430   0.205  10.352 -0.0675 -0.1785 -0.2673
 7898SOL    HW135327   1.400   0.177  10.439 -2.9729 -3.6395 -2.4213
 7898SOL    HW235328   1.403   0.297  10.354  1.2372  0.2621 -2.9537
 7899SOL     OW35329   0.911   0.473  15.121  0.3521 -0.4758 -0.3480
 7899SOL    HW135330   0.940   0.436  15.204  1.3269  1.4039  0.1378
 7899SOL    HW235331   0.860   0.404  15.078 -1.3487 -0.2182  1.2901
 7900SOL     OW35332   3.045   2.715   8.598 -0.1032 -0.2013 -0.3536
 7900SOL    HW135333   2.972   2.706   8.660  1.0800  0.2405  1.1051
 7900SOL    HW235334   3.006   2.667   8.525  0.8715  0.1444 -1.0933
 7901SOL     OW35335   0.543   3.347   9.961 -0.7262  0.0093  0.8223
 7901SOL    HW135336   0.594   3.335   9.881  0.0972  1.5927  1.1110
 7901SOL    HW235337   0.471   3.288   9.940  0.0286 -0.7062  0.2799
 7902SOL     OW35338   2.144   4.606   7.754  0.1004 -0.2180 -0.2890
 7902SOL    HW135339   2.127   4.528   7.701  0.2910  0.0017 -0.6704
 7902SOL    HW235340   2.200   4.562   7.819  1.1144  0.0024 -1.0288
 7903SOL     OW35341   0.772   0.893   3.255  0.5486 -0.1444 -0.6175
 7903SOL    HW135342   0.839   0.954   3.224  1.6280 -0.6196  0.7418
 7903SOL    HW235343   0.774   0.829   3.184  1.3180 -0.7201 -0.0913
 7904SOL     OW35344   0.870   0.569  15.556  0.1130 -0.2499 -0.0163
 7904SOL    HW135345   0.802   0.622  15.516  0.1344 -0.0736  0.1856
 7904SOL    HW235346   0.924   0.542  15.482  1.5968  1.9504  0.2627
 7905SOL     OW35347   2.934   0.478  11.306  0.5666  0.0845 -0.1431
 7905SOL    HW135348   2.864   0.544  11.302 -1.1546 -1.6980  1.2117
 7905SOL    HW235349   2.888   0.396  11.319 -2.1008  1.3176 -1.7475
 7906SOL     OW35350   4.713   4.174   0.143 -0.4629  0.7587  0.5931
 7906SOL    HW135351   4.734   4.152   0.052 -1.7833 -0.4684  0.5992
 7906SOL    HW235352   4.622   4.203   0.132 -0.1733  1.5697  0.3008
 7907SOL     OW35353   3.146   2.347   1.664 -0.3429  0.5865 -0.2086
 7907SOL    HW135354   3.169   2.430   1.623  1.6791  0.3160  0.3756
 7907SOL    HW235355   3.120   2.301   1.584  0.5374 -2.0280  0.9959
 7908SOL     OW35356   4.493   0.656  15.459  0.4142  0.2530  0.2482
 7908SOL    HW135357   4.477   0.751  15.457  0.8686  0.3429  1.0964
 7908SOL    HW235358   4.467   0.647  15.367  0.3368 -2.9912  0.6212
 7909SOL     OW35359   2.901   0.220  13.381  0.6570  0.0825  0.0106
 7909SOL    HW135360   2.826   0.202  13.324  0.7845  0.3776 -0.2515
 7909SOL    HW235361   2.925   0.307  13.350 -0.7683  0.8621  1.1311
 7910SOL     OW35362   1.666   3.479   2.505  0.0082  0.0462 -0.2093
 7910SOL    HW135363   1.573   3.476   2.525 -0.2831 -0.8840 -1.6756
 7910SOL    HW235364   1.699   3.539   2.572 -1.6079 -2.1457  2.5082
 7911SOL     OW35365   3.334   2.343   6.970  0.3676  0.1040 -0.3545
 7911SOL    HW135366   3.427   2.331   6.989 -0.1477 -0.7203  1.6033
 7911SOL    HW235367   3.331   2.439   6.966  0.2954 -0.0010 -2.9935
 7912SOL     OW35368   3.241   0.365   2.625  0.4393  0.5083  0.1363
 7912SOL    HW135369   3.302   0.381   2.553 -0.0776  0.6699 -0.2661
 7912SOL    HW235370   3.158   0.406   2.601 -0.0991 -0.7119 -0.1085
 7913SOL     OW35371   2.811   3.429   4.174  0.5633 -0.1453  0.4293
 7913SOL    HW135372   2.896   3.386   4.178  0.2709 -0.5308  2.5331
 7913SOL    HW235373   2.756   3.355   4.148 -2.1626  1.2023  2.3307
 7914SOL     OW35374   2.899   4.161   5.620  0.4379 -0.0669 -0.2401
 7914SOL    HW135375   2.829   4.199   5.567  2.4246  0.2896 -2.5734
 7914SOL    HW235376   2.840   4.119   5.684  1.2556 -0.4391  0.2780
 7915SOL     OW35377   0.417   1.791  10.708 -0.5915 -0.0389  0.4524
 7915SOL    HW135378   0.498   1.742  10.724 -0.2861 -0.2089 -1.5448
 7915SOL    HW235379   0.439   1.836  10.627 -0.6611 -0.4413  0.2088
 7916SOL     OW35380   1.616   0.033   4.195  0.2559  0.3467 -0.4398
 7916SOL    HW135381   1.658   4.688   4.165  1.9850  1.0680  0.0359
 7916SOL    HW235382   1.642   0.083   4.118  2.0003 -1.2139 -0.8608
 7917SOL     OW35383   0.571   0.319   3.914  0.1121  0.7524  0.1137
 7917SOL    HW135384   0.621   0.238   3.916  1.0581  1.2984 -0.9286
 7917SOL    HW235385   0.624   0.373   3.973  3.3912 -0.9247 -1.2859
 7918SOL     OW35386   1.171   1.810  11.579  0.0229  0.5588 -0.1990
 7918SOL    HW135387   1.254   1.802  11.532  0.8632 -0.2391  1.4464
 7918SOL    HW235388   1.185   1.765  11.662  1.3957  0.3340 -0.5504
 7919SOL     OW35389   1.978   0.922   8.799  0.4535  0.2034  0.1685
 7919SOL    HW135390   1.937   1.008   8.809  1.0442  0.5096 -0.0296
 7919SOL    HW235391   1.922   0.891   8.727  0.0554 -0.4133  0.7446
 7920SOL     OW35392   1.750   1.044  10.629 -0.3011  0.6923  0.5880
 7920SOL    HW135393   1.671   0.996  10.605  0.6610  0.1616 -1.4773
 7920SOL    HW235394   1.815   1.012  10.566 -1.2053 -2.3198  1.2016
 7921SOL     OW35395   0.820   0.530  13.880  0.1084 -0.2872 -0.2413
 7921SOL    HW135396   0.833   0.444  13.919  0.5294  0.6853  1.7442
 7921SOL    HW235397   0.805   0.575  13.963  2.7102  2.0181 -1.0195
 7922SOL     OW35398   0.407   1.351  17.499 -0.2876 -0.0429  0.4702
 7922SOL    HW135399   0.320   1.317  17.523 -0.2869 -0.1615  0.3056
 7922SOL    HW235400   0.462   1.302  17.560 -0.7670 -0.4139  0.6074
 7923SOL     OW35401   0.818   3.210  13.850 -0.2334  1.0703 -0.5572
 7923SOL    HW135402   0.769   3.128  13.839  0.1671  0.7826 -0.2185
 7923SOL    HW235403   0.908   3.177  13.860 -0.7648 -0.3132 -0.2620
 7924SOL     OW35404   1.828   0.580   2.794 -0.5006  0.4428  0.5857
 7924SOL    HW135405   1.737   0.607   2.782 -0.4006  0.3920 -0.2662
 7924SOL    HW235406   1.812   0.543   2.880  4.3449 -0.8713  0.9621
 7925SOL     OW35407   2.231   1.791   0.650 -0.2622 -0.7301 -0.3882
 7925SOL    HW135408   2.214   1.806   0.557  0.6456 -1.0033 -0.6038
 7925SOL    HW235409   2.303   1.850   0.670 -0.0127 -0.9621 -0.5925
 7926SOL     OW35410   2.049   2.364   8.660 -0.0069  0.4778 -0.5474
 7926SOL    HW135411   2.135   2.393   8.689 -0.7084  1.3343  0.6911
 7926SOL    HW235412   2.021   2.322   8.741  0.3395  1.4571  0.0724
 7927SOL     OW35413   0.901   0.706   5.914  0.3729  0.0964  0.5366
 7927SOL    HW135414   0.952   0.753   5.848 -0.5187  2.2289  1.3455
 7927SOL    HW235415   0.951   0.719   5.995  2.1334  0.1374 -0.5500
 7928SOL     OW35416   2.375   0.151   2.750  1.0755 -0.6188  1.1074
 7928SOL    HW135417   2.441   0.088   2.720  0.7739  0.3683 -1.6431
 7928SOL    HW235418   2.410   0.165   2.839 -0.6873  2.7294  1.2623
 7929SOL     OW35419   2.082   3.072  15.792  0.3589  0.1677  0.4779
 7929SOL    HW135420   2.120   3.064  15.704 -1.7016  0.8581 -0.4524
 7929SOL    HW235421   2.000   3.023  15.787  0.2565  0.1416  2.4030
 7930SOL     OW35422   3.873   0.571   6.284  0.2444  0.1692 -0.0441
 7930SOL    HW135423   3.875   0.635   6.213 -0.7103 -2.5177 -2.4931
 7930SOL    HW235424   3.887   0.631   6.357 -1.1844 -0.4294  0.7153
 7931SOL     OW35425   2.338   1.462   6.764 -0.1707 -0.3582  0.0981
 7931SOL    HW135426   2.295   1.386   6.725 -1.6184  1.7886 -2.4809
 7931SOL    HW235427   2.358   1.427   6.851 -0.2067 -1.3452 -0.2974
 7932SOL     OW35428   4.602   2.707   6.030 -0.2370  0.6781  0.4278
 7932SOL    HW135429   4.551   2.643   5.981  1.5880 -1.4537  1.3168
 7932SOL    HW235430   4.666   2.730   5.963 -0.8759  0.7571 -0.1610
 7933SOL     OW35431   1.688   0.611   6.779  0.2930  0.3011 -0.5440
 7933SOL    HW135432   1.655   0.653   6.858 -1.8622 -0.0477 -1.2565
 7933SOL    HW235433   1.746   0.539   6.804 -0.6545  0.1449  1.1673
 7934SOL     OW35434   4.212   1.567   7.657 -0.1348  0.3753 -0.1957
 7934SOL    HW135435   4.211   1.479   7.695 -3.1651  0.7984  0.6472
 7934SOL    HW235436   4.168   1.551   7.573  0.4482  0.0987 -0.4527
 7935SOL     OW35437   0.256   0.515   4.558 -0.0813  0.3661 -0.9555
 7935SOL    HW135438   0.298   0.531   4.474  1.5794  0.6957 -0.0486
 7935SOL    HW235439   0.225   0.603   4.581 -1.5951 -0.5092  0.3867
 7936SOL     OW35440   4.371   0.531   4.589 -0.0225  0.3665 -0.1401
 7936SOL    HW135441   4.402   0.601   4.648  1.3246 -2.0803  2.0456
 7936SOL    HW235442   4.449   0.493   4.547  0.3340  0.1367  0.7182
 7937SOL     OW35443   1.459   4.034   7.769  0.5886  1.0215  0.2532
 7937SOL    HW135444   1.525   3.984   7.721 -1.9272 -1.8351 -0.1838
 7937SOL    HW235445   1.413   3.968   7.821  1.1982  0.1421 -0.3205
 7938SOL     OW35446   3.032   2.866  10.407 -0.4533 -0.2709 -0.7783
 7938SOL    HW135447   3.033   2.948  10.358  1.4598 -0.8949 -1.7923
 7938SOL    HW235448   2.964   2.887  10.471 -1.2807 -2.7188 -0.8622
 7939SOL     OW35449   4.022   0.526   8.611  0.4799 -0.2671  0.2088
 7939SOL    HW135450   3.962   0.582   8.662  0.7897 -0.4311  0.7504
 7939SOL    HW235451   4.101   0.579   8.623  0.8976 -0.7484 -0.4475
 7940SOL     OW35452   4.632   0.833   5.838 -0.0101  0.6508  0.4014
 7940SOL    HW135453   4.622   0.738   5.843 -1.1612  0.7606  0.1163
 7940SOL    HW235454   4.708   0.836   5.780  0.0099 -2.1304  0.2782
 7941SOL     OW35455   0.134   0.738   2.924  0.0169  0.7168 -0.3282
 7941SOL    HW135456   0.176   0.759   3.008  0.9586  1.3736 -0.9544
 7941SOL    HW235457   0.149   0.820   2.877 -1.9288  1.3724  0.2024
 7942SOL     OW35458   1.330   2.180   5.245  0.1176 -0.3873  0.3410
 7942SOL    HW135459   1.278   2.192   5.324  1.6826 -1.4793  1.5443
 7942SOL    HW235460   1.393   2.114   5.274 -0.7222 -1.1489  0.4346
 7943SOL     OW35461   1.420   2.739   1.742  0.3889  0.0162  0.6516
 7943SOL    HW135462   1.469   2.699   1.670  0.9756 -0.2437  1.1886
 7943SOL    HW235463   1.390   2.660   1.787  0.7052 -0.3083  0.3083
 7944SOL     OW35464   1.200   0.565  11.922  0.4568 -0.4317 -0.5623
 7944SOL    HW135465   1.144   0.582  11.998  0.5610 -0.8613 -0.3899
 7944SOL    HW235466   1.137   0.566  11.849 -1.1913  0.0744  0.8553
 7945SOL     OW35467   3.494   2.475  11.937 -0.2504 -0.4848  0.0333
 7945SOL    HW135468   3.527   2.529  12.009 -0.1990 -0.0377 -0.3271
 7945SOL    HW235469   3.515   2.392  11.978 -0.0987 -0.1905  0.5555
 7946SOL     OW35470   2.276   2.109   2.191 -0.2314 -0.0865  0.1169
 7946SOL    HW135471   2.278   2.140   2.101 -2.5299  0.7487  0.3535
 7946SOL    HW235472   2.206   2.164   2.227 -0.6155 -1.5041  1.5305
 7947SOL     OW35473   3.476   4.307  11.033  0.5312 -0.5415  0.1252
 7947SOL    HW135474   3.496   4.255  11.111  2.3334 -0.7461 -0.4704
 7947SOL    HW235475   3.557   4.356  11.018 -1.0826  2.1439  0.2084
 7948SOL     OW35476   0.834   0.299   9.723 -0.3545  0.3756  0.0088
 7948SOL    HW135477   0.750   0.346   9.724 -1.2857 -1.3160  0.3241
 7948SOL    HW235478   0.820   0.252   9.805 -0.3366 -0.6496 -0.5829
 7949SOL     OW35479   4.238   1.031  14.678  0.3130 -0.1501  0.3543
 7949SOL    HW135480   4.318   1.083  14.681  0.0040  0.3165  0.4130
 7949SOL    HW235481   4.175   1.088  14.633 -0.4100  0.2029  1.7965
 7950SOL     OW35482   0.852   1.693   7.665 -0.2795  0.4337  0.6413
 7950SOL    HW135483   0.892   1.758   7.608 -0.1346  0.0446  0.3014
 7950SOL    HW235484   0.926   1.632   7.674 -2.2156 -1.7682  1.6208
 7951SOL     OW35485   2.628   1.155  15.195  0.3288  0.7400  0.2742
 7951SOL    HW135486   2.548   1.144  15.145  0.6858  0.7737 -0.3092
 7951SOL    HW235487   2.605   1.228  15.253  1.2888 -1.7525  3.7953
 7952SOL     OW35488   1.189   0.096   6.814 -0.0718  0.4791 -0.1371
 7952SOL    HW135489   1.215   0.006   6.836  0.7466  0.9016  0.6156
 7952SOL    HW235490   1.094   0.095   6.820 -0.0777  1.3650 -0.0650
 7953SOL     OW35491   3.146   2.624   6.254  0.1530  0.3861  0.1074
 7953SOL    HW135492   3.075   2.661   6.308  0.3773 -0.2291  0.8259
 7953SOL    HW235493   3.111   2.638   6.166 -1.2282  0.2201  0.6349
 7954SOL     OW35494   3.930   1.874   6.879 -0.1146 -0.1582 -0.2217
 7954SOL    HW135495   3.864   1.932   6.840 -2.7462 -0.7861  3.2541
 7954SOL    HW235496   3.873   1.826   6.939  0.5297 -2.2243 -1.2526
 7955SOL     OW35497   1.807   4.359  17.465  0.3390  0.2759 -0.1462
 7955SOL    HW135498   1.783   4.385  17.376  1.1487 -0.2080 -0.5030
 7955SOL    HW235499   1.770   4.429  17.520 -0.7296 -1.9427  1.9617
 7956SOL     OW35500   2.631   1.850  15.525 -0.9116 -0.1763  0.1156
 7956SOL    HW135501   2.655   1.846  15.618  0.3775 -3.5705 -0.3452
 7956SOL    HW235502   2.572   1.924  15.518  0.9880  1.2251 -0.9393
 7957SOL     OW35503   4.097   3.217  10.744 -0.5187  0.2525  0.3381
 7957SOL    HW135504   4.121   3.309  10.755 -1.0069  0.1951  1.7913
 7957SOL    HW235505   4.044   3.196  10.821 -0.2249  0.4075  0.5811
 7958SOL     OW35506   2.002   3.706   2.808 -0.3926  0.4895  0.1076
 7958SOL    HW135507   2.036   3.720   2.897 -1.0445 -0.9736  0.5935
 7958SOL    HW235508   1.979   3.797   2.788  2.6385  1.1714 -0.3768
 7959SOL     OW35509   0.123   2.205  15.067 -0.4182  0.0511  0.1080
 7959SOL    HW135510   0.187   2.214  14.996  0.0508 -2.2266  0.2571
 7959SOL    HW235511   0.126   2.115  15.099  2.0316  0.1843  0.2406
 7960SOL     OW35512   1.118   0.615   3.735  0.5317  0.7808 -0.0774
 7960SOL    HW135513   1.140   0.529   3.697 -1.6412 -0.6112  1.8359
 7960SOL    HW235514   1.150   0.680   3.672  0.0519  0.7072 -0.3929
 7961SOL     OW35515   4.442   0.338   3.088  0.1399  0.2711 -0.1927
 7961SOL    HW135516   4.488   0.418   3.115 -0.2640  0.0035  1.2768
 7961SOL    HW235517   4.514   0.301   3.038 -1.0361 -1.2769 -0.7215
 7962SOL     OW35518   3.337   3.116  14.705 -0.1373 -0.0858 -0.0602
 7962SOL    HW135519   3.354   3.157  14.790  2.7233 -1.8984  0.2357
 7962SOL    HW235520   3.408   3.151  14.651  0.6133 -1.0977  0.2596
 7963SOL     OW35521   1.245   2.719   4.669 -0.0288  0.4042  0.3722
 7963SOL    HW135522   1.223   2.771   4.746 -0.5416  0.5572  0.1237
 7963SOL    HW235523   1.296   2.643   4.698  0.2671  1.2001  1.8902
 7964SOL     OW35524   4.056   2.362  15.535  0.0764 -0.3290 -0.1969
 7964SOL    HW135525   4.136   2.362  15.587 -0.7712  0.6824  1.1301
 7964SOL    HW235526   4.043   2.455  15.551  1.5047  0.1139 -1.7507
 7965SOL     OW35527   0.893   3.346   3.243  0.4031  0.2276  0.4139
 7965SOL    HW135528   0.837   3.315   3.173 -1.3503  3.0649  0.5603
 7965SOL    HW235529   0.938   3.267   3.273 -0.3848 -0.4827 -0.2862
 7966SOL     OW35530   0.549   1.387  15.026 -0.3458  0.2098 -0.0467
 7966SOL    HW135531   0.631   1.381  14.978 -1.1636 -0.4904 -1.3625
 7966SOL    HW235532   0.572   1.386  15.119 -0.2972  1.9900 -0.0410
 7967SOL     OW35533   0.636   0.077   1.242  0.5302 -0.0664  0.3041
 7967SOL    HW135534   0.624   0.163   1.203 -1.5690  0.2582  1.6472
 7967SOL    HW235535   0.664   0.087   1.333 -0.4845  1.8403  0.3947
 7968SOL     OW35536   1.564   2.463   2.671  0.2541 -0.1471 -0.0624
 7968SOL    HW135537   1.565   2.467   2.767  1.6725  0.2546 -0.0905
 7968SOL    HW235538   1.546   2.554   2.651  2.8312  0.4639  0.4050
 7969SOL     OW35539   2.054   4.701   4.132  0.3228 -0.3634 -0.0906
 7969SOL    HW135540   1.994   0.038   4.114  0.5129 -0.1943 -0.0416
 7969SOL    HW235541   2.033   4.692   4.225  1.3507 -2.6752 -0.0974
 7970SOL     OW35542   2.461   0.263   9.238 -0.4136 -0.1548 -0.3261
 7970SOL    HW135543   2.541   0.266   9.291  1.1268 -2.4665 -2.5018
 7970SOL    HW235544   2.402   0.306   9.299  3.4426  0.1071  3.2534
 7971SOL     OW35545   2.431   0.136   3.143  0.2040 -0.4124  0.0143
 7971SOL    HW135546   2.498   0.123   3.076 -0.5128 -1.3321 -0.5133
 7971SOL    HW235547   2.429   0.051   3.187 -0.4041  0.0242  0.8298
 7972SOL     OW35548   3.989   4.180   5.349 -0.2098  0.3607 -0.3753
 7972SOL    HW135549   3.918   4.117   5.334 -0.5746  0.8751 -0.8178
 7972SOL    HW235550   4.027   4.170   5.262  1.7465 -0.3331  0.5615
 7973SOL     OW35551   1.163   3.157   3.568 -0.4634  0.6879 -0.8825
 7973SOL    HW135552   1.143   3.204   3.649 -2.2498  1.6378 -1.8662
 7973SOL    HW235553   1.248   3.120   3.592  0.8007  1.9513 -3.3583
 7974SOL     OW35554   3.870   0.575   7.242 -0.2151 -0.4663 -0.1896
 7974SOL    HW135555   3.778   0.590   7.263  0.4403  0.5204  1.9420
 7974SOL    HW235556   3.909   0.621   7.316  1.7831  1.3945 -2.3902
 7975SOL     OW35557   3.492   4.321   4.233 -0.0251 -0.1577 -0.2810
 7975SOL    HW135558   3.466   4.391   4.172  2.8035  0.0185 -1.2549
 7975SOL    HW235559   3.411   4.287   4.272 -0.3684 -0.4761 -1.2699
 7976SOL     OW35560   3.338   4.288   3.648  0.4944  0.6728 -0.0300
 7976SOL    HW135561   3.309   4.237   3.724  0.4740 -0.4608 -0.7934
 7976SOL    HW235562   3.257   4.338   3.635  0.0760  0.1041  0.3673
 7977SOL     OW35563   1.436   0.033   4.638 -0.3330 -0.5310 -0.9792
 7977SOL    HW135564   1.460   0.002   4.551  0.5127  1.1259 -1.3485
 7977SOL    HW235565   1.341   0.036   4.640 -0.2071  2.0931  0.8326
 7978SOL     OW35566   2.537   3.164  11.169 -0.5408  0.1808 -0.1831
 7978SOL    HW135567   2.445   3.135  11.170 -0.4145 -0.3009 -3.2231
 7978SOL    HW235568   2.585   3.095  11.214  0.2083 -0.3451 -1.7829
 7979SOL     OW35569   1.623   2.678   1.406  0.0407  0.2168 -0.3761
 7979SOL    HW135570   1.636   2.772   1.416  0.9205  0.2943 -2.2119
 7979SOL    HW235571   1.628   2.652   1.498 -0.4595  1.1448 -0.0927
 7980SOL     OW35572   0.048   2.511   4.388  0.2234 -0.3752 -0.0814
 7980SOL    HW135573   0.009   2.551   4.466 -0.0020 -0.5160 -0.1218
 7980SOL    HW235574   0.063   2.421   4.415 -0.8578 -1.6321 -3.6005
 7981SOL     OW35575   2.052   3.453  13.546 -0.1912 -0.1710 -0.4262
 7981SOL    HW135576   2.000   3.526  13.511 -0.9073  1.0525  3.1716
 7981SOL    HW235577   2.139   3.493  13.541 -0.8641  1.2501 -0.7574
 7982SOL     OW35578   2.835   4.025   5.147 -0.2560  0.1642 -0.1240
 7982SOL    HW135579   2.769   4.041   5.080 -0.9527  2.3720  1.0675
 7982SOL    HW235580   2.911   4.070   5.110  0.4607  0.8609  2.2029
 7983SOL     OW35581   2.044   3.143   4.172 -0.5720 -1.1446  0.3173
 7983SOL    HW135582   2.033   3.238   4.164 -0.5859 -1.1080  0.7551
 7983SOL    HW235583   2.074   3.142   4.263 -1.4794  0.8204  0.6308
 7984SOL     OW35584   2.906   4.383   8.388  0.2113  0.0134 -0.2120
 7984SOL    HW135585   2.955   4.417   8.313 -0.7614 -1.0234 -1.3232
 7984SOL    HW235586   2.874   4.467   8.421  1.7490 -0.0233  1.3656
 7985SOL     OW35587   0.599   2.595   3.582  0.5197  0.2991 -0.4264
 7985SOL    HW135588   0.549   2.649   3.521  2.6551  2.1614 -0.5488
 7985SOL    HW235589   0.657   2.555   3.518  1.4641  1.2852 -0.1945
 7986SOL     OW35590   2.739   1.786  13.943  0.0239  0.6428 -0.1000
 7986SOL    HW135591   2.676   1.809  13.874  1.9528  1.6669 -1.5237
 7986SOL    HW235592   2.695   1.709  13.979  1.4041  1.7486  3.8805
 7987SOL     OW35593   2.352   1.760  10.854 -0.4200  0.5054 -0.1671
 7987SOL    HW135594   2.428   1.733  10.905 -0.4327  3.0156  1.1529
 7987SOL    HW235595   2.343   1.853  10.875  1.5840  0.9668 -1.2969
 7988SOL     OW35596   3.698   3.793   8.754 -0.5121  0.5397  0.4522
 7988SOL    HW135597   3.778   3.814   8.803 -0.5654  1.1707  0.2699
 7988SOL    HW235598   3.662   3.877   8.726 -2.3970 -0.1037  0.9581
 7989SOL     OW35599   0.669   3.544   7.821  0.3160  0.3125 -0.1909
 7989SOL    HW135600   0.599   3.598   7.857  0.1495  2.5805 -3.9966
 7989SOL    HW235601   0.618   3.464   7.806  1.8026 -0.6666 -0.0831
 7990SOL     OW35602   3.534   2.961   2.606 -0.2865 -0.4026  0.0552
 7990SOL    HW135603   3.450   2.955   2.562  1.3393  0.6191 -3.2000
 7990SOL    HW235604   3.592   2.995   2.537 -0.4895 -0.8771 -0.3438
 7991SOL     OW35605   1.658   3.303  16.403 -0.3368 -0.0302 -0.3165
 7991SOL    HW135606   1.682   3.379  16.456 -3.1002  0.7756 -0.2124
 7991SOL    HW235607   1.632   3.236  16.466  3.2648 -0.4253  0.7054
 7992SOL     OW35608   0.424   0.090   1.958 -0.3718 -0.2425 -0.0519
 7992SOL    HW135609   0.345   0.096   2.012  1.2772 -1.5863  2.5090
 7992SOL    HW235610   0.465   0.010   1.990 -0.5528 -0.4336 -0.2985
 7993SOL     OW35611   2.348   3.661   5.707  0.4286 -0.4793 -0.3081
 7993SOL    HW135612   2.374   3.692   5.620  1.7228 -0.3734  0.1150
 7993SOL    HW235613   2.379   3.737   5.757 -0.5107 -0.2833 -0.0284
 7994SOL     OW35614   3.724   0.939   7.509  0.3943  0.1813  0.2380
 7994SOL    HW135615   3.735   0.855   7.465  1.0309  0.1944  0.3779
 7994SOL    HW235616   3.674   0.910   7.585  0.4068  0.9740  0.5476
 7995SOL     OW35617   1.967   2.643   8.778 -0.0080  0.2298  0.6239
 7995SOL    HW135618   1.877   2.649   8.810 -1.3618 -2.7835 -2.5827
 7995SOL    HW235619   1.954   2.563   8.726  0.1359  2.2550 -2.5263
 7996SOL     OW35620   3.325   4.514   2.566  0.0553  0.4999  0.5567
 7996SOL    HW135621   3.405   4.462   2.557  0.5045  1.3846 -0.5797
 7996SOL    HW235622   3.356   4.589   2.617 -0.5975 -0.2298  2.0170
 7997SOL     OW35623   1.307   1.215   7.807 -0.2793  0.0980  0.0250
 7997SOL    HW135624   1.236   1.260   7.763 -0.1035  0.1537 -0.2003
 7997SOL    HW235625   1.268   1.213   7.895  1.7343 -2.9717  0.8681
 7998SOL     OW35626   0.026   3.813   2.623  0.6761 -0.1614 -0.5050
 7998SOL    HW135627   0.057   3.892   2.579 -1.9209  0.7249 -0.7744
 7998SOL    HW235628   0.066   3.742   2.574 -0.6490  0.3043 -2.2584
 7999SOL     OW35629   1.674   1.579  13.230 -0.4993  0.2718 -0.1818
 7999SOL    HW135630   1.583   1.564  13.257 -0.7938 -0.0056 -1.3143
 7999SOL    HW235631   1.701   1.488  13.213 -2.2475 -0.3144  0.1073
 8000SOL     OW35632   0.693   3.583   1.711  0.2614 -0.3485 -0.3204
 8000SOL    HW135633   0.759   3.551   1.649 -0.6892 -0.2907 -1.3611
 8000SOL    HW235634   0.761   3.623   1.764  1.5497 -1.5887 -1.0419
 8001SOL     OW35635   1.469   2.911   8.016  0.2807 -0.0176  0.8122
 8001SOL    HW135636   1.387   2.960   8.023 -0.0983 -0.6122  0.6232
 8001SOL    HW235637   1.447   2.818   8.023 -0.6480  0.0200 -1.6365
 8002SOL     OW35638   1.973   2.644  11.517  0.1518 -0.5558  0.1256
 8002SOL    HW135639   1.892   2.628  11.470  0.2008  1.4194 -0.6125
 8002SOL    HW235640   2.015   2.568  11.477  1.3456 -0.0778  0.4430
 8003SOL     OW35641   4.273   1.547   2.108 -0.1214  0.1306 -0.1137
 8003SOL    HW135642   4.364   1.565   2.131 -0.7421 -0.4774  2.9169
 8003SOL    HW235643   4.279   1.457   2.140 -1.1822  0.5739  1.3370
 8004SOL     OW35644   0.914   1.288   2.596 -0.3565 -0.2326 -0.3757
 8004SOL    HW135645   0.908   1.270   2.690  1.0767 -3.0329 -0.8272
 8004SOL    HW235646   0.829   1.255   2.569 -0.4746  0.0735 -0.3767
 8005SOL     OW35647   4.227   1.306   7.806  0.5760 -0.1353 -0.1876
 8005SOL    HW135648   4.260   1.241   7.743 -3.3750 -0.1462 -2.2048
 8005SOL    HW235649   4.293   1.298   7.875  0.1648 -0.7805  0.1356
 8006SOL     OW35650   0.040   3.595  14.267 -0.4938 -0.9665 -0.1133
 8006SOL    HW135651   0.134   3.582  14.279 -0.0173  0.5575 -2.1894
 8006SOL    HW235652   0.018   3.660  14.200 -1.8365 -0.1614  1.1019
 8007SOL     OW35653   1.164   1.220   2.240  0.1497 -0.0350 -0.7391
 8007SOL    HW135654   1.233   1.287   2.246 -0.3840  0.3844  0.5639
 8007SOL    HW235655   1.099   1.265   2.186 -0.9715  0.4302  1.0260
 8008SOL     OW35656   4.187   0.829   9.219  0.2580 -0.5158 -0.1551
 8008SOL    HW135657   4.245   0.863   9.287  1.1213 -1.9196 -0.1924
 8008SOL    HW235658   4.129   0.901   9.194  2.9510  2.7809  2.9742
 8009SOL     OW35659   4.163   1.546   2.947 -0.4112 -0.2502  0.2091
 8009SOL    HW135660   4.084   1.501   2.978 -1.2814 -0.7451 -2.7259
 8009SOL    HW235661   4.154   1.540   2.852 -1.2050 -2.1256  0.3940
 8010SOL     OW35662   0.095   0.324   6.330  0.1368  0.2250  0.4802
 8010SOL    HW135663   0.129   0.378   6.259  1.3026 -0.9424  0.1540
 8010SOL    HW235664   0.128   0.234   6.329  0.2375  0.2572  1.5061
 8011SOL     OW35665   1.255   0.482   4.893 -0.1377 -0.2286  0.8920
 8011SOL    HW135666   1.168   0.458   4.925 -0.4578 -1.8445 -1.1626
 8011SOL    HW235667   1.292   0.393   4.889 -2.0611 -0.9831  0.0344
 8012SOL     OW35668   0.406   0.052   6.997  0.2143 -0.7586 -0.5923
 8012SOL    HW135669   0.321   0.009   7.003 -0.2424  0.1834 -0.3253
 8012SOL    HW235670   0.397   0.079   6.905 -2.2761  2.2044  0.5454
 8013SOL     OW35671   0.835   3.553   0.136 -0.2117  0.3396  0.1008
 8013SOL    HW135672   0.824   3.459   0.152  1.8607  0.1420  0.3599
 8013SOL    HW235673   0.851   3.557   0.042  0.8702 -0.2001  0.2706
 8014SOL     OW35674   4.198   0.934   4.854  0.3593 -0.0134  0.9183
 8014SOL    HW135675   4.238   0.938   4.767 -1.0404  0.8815  0.3141
 8014SOL    HW235676   4.209   0.844   4.883 -2.1794 -0.7937 -0.5167
 8015SOL     OW35677   2.144   3.558  12.789 -0.4815  0.2243 -0.3305
 8015SOL    HW135678   2.084   3.488  12.764  3.2487 -2.5699 -1.2828
 8015SOL    HW235679   2.209   3.507  12.836  0.5016  0.7519 -1.1260
 8016SOL     OW35680   3.195   3.021   6.852 -0.0607  0.3749  0.0663
 8016SOL    HW135681   3.144   2.949   6.887 -0.6177  0.6387 -0.2182
 8016SOL    HW235682   3.144   3.091   6.811 -0.2796 -0.2181 -0.6538
 8017SOL     OW35683   0.609   2.839   6.480 -0.3011 -0.4040 -0.2825
 8017SOL    HW135684   0.648   2.751   6.488  2.1773  0.7850  0.8142
 8017SOL    HW235685   0.550   2.833   6.405  1.3640 -2.0788 -1.5025
 8018SOL     OW35686   4.499   1.312   8.894 -0.0127 -0.2934  0.2421
 8018SOL    HW135687   4.558   1.375   8.854  1.9951 -1.8989  0.7211
 8018SOL    HW235688   4.530   1.314   8.985 -2.5810  1.3645  1.0869
 8019SOL     OW35689   3.659   3.158   4.638  0.5240 -0.2057 -0.1155
 8019SOL    HW135690   3.616   3.240   4.614 -0.8332 -1.2051 -1.0990
 8019SOL    HW235691   3.585   3.122   4.687 -0.1799  0.2367 -0.8571
 8020SOL     OW35692   0.955   0.794   8.077  0.0894  0.2794 -0.0461
 8020SOL    HW135693   0.998   0.713   8.050 -0.0242  1.1707 -2.9572
 8020SOL    HW235694   0.947   0.794   8.172  0.7664  2.5784 -0.0049
 8021SOL     OW35695   3.311   3.832  12.301 -0.1586  0.3610 -0.2249
 8021SOL    HW135696   3.322   3.760  12.240 -1.3672 -1.2579  1.4719
 8021SOL    HW235697   3.389   3.843  12.355  0.7519  0.6477 -1.6185
 8022SOL     OW35698   3.935   0.476   2.058 -0.4898  0.0445  0.3122
 8022SOL    HW135699   3.894   0.506   2.140 -1.8352  0.6377 -0.5749
 8022SOL    HW235700   4.023   0.510   2.072  0.3226 -0.8954 -2.5369
 8023SOL     OW35701   3.967   1.469  13.498  0.5710  0.1715 -0.3021
 8023SOL    HW135702   3.944   1.477  13.590  1.8705  1.4301 -0.0961
 8023SOL    HW235703   3.909   1.529  13.451  0.2480  0.9371  1.1056
 8024SOL     OW35704   0.850   0.994  11.586 -0.7209 -0.0731 -0.1980
 8024SOL    HW135705   0.800   1.074  11.598  0.5001  0.3136  2.3215
 8024SOL    HW235706   0.910   0.994  11.660  1.5153 -1.7133 -1.9799
 8025SOL     OW35707   1.363   0.355   6.323  0.3691 -0.0276 -0.5065
 8025SOL    HW135708   1.392   0.264   6.318  0.6080 -0.0399  1.0993
 8025SOL    HW235709   1.429   0.400   6.271 -0.2104  0.3586 -0.9157
 8026SOL     OW35710   3.850   4.553  14.166 -0.1931 -0.2548 -0.5247
 8026SOL    HW135711   3.893   4.592  14.242  1.0615 -2.7029  0.0173
 8026SOL    HW235712   3.832   4.628  14.109  4.1285  0.9308 -0.2847
 8027SOL     OW35713   0.279   1.566   0.811 -0.1315  0.3065 -0.3997
 8027SOL    HW135714   0.278   1.569   0.906 -1.3559 -2.9258 -0.2952
 8027SOL    HW235715   0.279   1.658   0.787 -1.1470  0.5024  0.3486
 8028SOL     OW35716   2.800   3.028   5.837  0.5120 -0.2750  0.3792
 8028SOL    HW135717   2.839   3.108   5.804 -0.1905  0.3427  1.0307
 8028SOL    HW235718   2.715   3.030   5.792  0.5071 -0.9080  0.3605
 8029SOL     OW35719   3.597   4.694   9.684  0.2299  0.6214 -0.0465
 8029SOL    HW135720   3.603   4.635   9.609  0.0641  0.5058  0.0323
 8029SOL    HW235721   3.546   4.644   9.748 -1.2744  2.2005 -0.0065
 8030SOL     OW35722   0.332   2.027  12.155 -0.6338 -0.0117 -0.6390
 8030SOL    HW135723   0.353   1.934  12.152  0.5979  0.2569 -0.4355
 8030SOL    HW235724   0.295   2.039  12.243  1.2174  1.0383 -0.0007
 8031SOL     OW35725   4.662   2.926  14.998 -0.2379 -0.2218 -0.3839
 8031SOL    HW135726   4.713   2.980  15.058  1.9232 -0.3109 -2.1422
 8031SOL    HW235727   4.636   3.002  14.946 -0.8273 -0.2852 -0.1779
 8032SOL     OW35728   0.999   3.773   5.152  0.3869  0.5463  0.5005
 8032SOL    HW135729   1.029   3.862   5.134 -1.1326  1.2611  1.4733
 8032SOL    HW235730   0.919   3.783   5.101  0.7273  0.6562 -0.0073
 8033SOL     OW35731   4.461   4.718   8.655  0.2730  0.6478 -0.3120
 8033SOL    HW135732   4.472   4.696   8.747 -2.3291 -0.1255 -0.1871
 8033SOL    HW235733   4.368   4.701   8.635  0.0099  0.3781  1.1714
 8034SOL     OW35734   3.249   0.651   7.941 -0.2510  0.0163 -0.7024
 8034SOL    HW135735   3.184   0.630   7.873 -0.1708 -1.7895 -0.2219
 8034SOL    HW235736   3.244   0.577   8.001 -2.1360  0.7663  0.0711
 8035SOL     OW35737   0.354   2.975   6.939  0.3468  0.2249  0.0115
 8035SOL    HW135738   0.351   2.952   6.846 -0.8311 -0.4902  0.2204
 8035SOL    HW235739   0.258   2.986   6.939  0.1661 -1.4080  0.9885
 8036SOL     OW35740   3.947   3.847   8.886 -0.1743  0.3898  0.2828
 8036SOL    HW135741   3.966   3.922   8.830 -0.4736  0.3145  0.0807
 8036SOL    HW235742   4.026   3.793   8.884  0.5344  1.5040 -1.5838
 8037SOL     OW35743   4.462   3.521   5.755 -0.1870  0.3223  0.2921
 8037SOL    HW135744   4.413   3.599   5.780  0.9519  0.2665  2.6809
 8037SOL    HW235745   4.548   3.556   5.730 -0.9401  1.1057 -1.1661
 8038SOL     OW35746   2.953   1.055  17.099 -0.0919  0.3349  0.0778
 8038SOL    HW135747   2.945   1.031  17.191 -2.2072 -2.5795 -0.8832
 8038SOL    HW235748   3.033   1.107  17.109 -0.0143 -0.0160  1.1676
 8039SOL     OW35749   4.398   1.966  12.767 -0.3884  0.1939  0.1020
 8039SOL    HW135750   4.419   1.947  12.676 -0.5918 -4.5091  1.0234
 8039SOL    HW235751   4.306   1.984  12.749 -0.0091  0.2840 -1.6630
 8040SOL     OW35752   3.632   0.907   5.653 -0.6758 -0.1343  0.2642
 8040SOL    HW135753   3.550   0.941   5.617 -0.3132 -1.1337 -1.5338
 8040SOL    HW235754   3.662   0.863   5.573  0.4063  1.2666 -0.0906
 8041SOL     OW35755   2.274   0.157   6.786  0.1048 -0.0207 -0.2065
 8041SOL    HW135756   2.287   0.183   6.695  1.6074  1.2796  0.3738
 8041SOL    HW235757   2.179   0.149   6.795 -0.1461  3.8026  0.7432
 8042SOL     OW35758   3.707   3.380   8.284 -0.7810  0.0812  0.2450
 8042SOL    HW135759   3.701   3.459   8.337 -2.0728  0.0153  0.1971
 8042SOL    HW235760   3.801   3.372   8.298 -0.4676  1.2955 -1.1037
 8043SOL     OW35761   1.034   2.511  10.009 -0.1357  0.5629 -0.2382
 8043SOL    HW135762   1.045   2.506   9.914 -0.9457  1.8730 -0.3959
 8043SOL    HW235763   0.969   2.441  10.018  1.2828 -0.4462  2.1719
 8044SOL     OW35764   2.675   1.538   4.216  0.5102 -0.3186  0.2977
 8044SOL    HW135765   2.703   1.615   4.266  0.1530  0.2708 -0.4028
 8044SOL    HW235766   2.727   1.469   4.257  1.1431 -0.0662 -0.0808
 8045SOL     OW35767   1.694   1.256   7.367 -0.5124  0.3276  0.3166
 8045SOL    HW135768   1.733   1.267   7.454  0.8044 -1.4478 -0.0345
 8045SOL    HW235769   1.655   1.170   7.383  1.2487 -0.5016  0.1949
 8046SOL     OW35770   1.772   0.832   1.555 -0.1015  0.1252 -0.6364
 8046SOL    HW135771   1.783   0.774   1.480 -0.6457  0.5826 -1.0583
 8046SOL    HW235772   1.820   0.778   1.618  3.6417  3.5743 -0.5530
 8047SOL     OW35773   4.473   4.690   9.962 -0.6688  0.3126  0.0472
 8047SOL    HW135774   4.432   0.022   9.908 -0.9528  0.8168  0.8855
 8047SOL    HW235775   4.407   4.622   9.977  0.2952 -1.0121 -1.7563
 8048SOL     OW35776   4.034   0.464   3.666  0.4147  0.1156 -0.1620
 8048SOL    HW135777   4.038   0.372   3.692  2.3808  0.6548  1.4831
 8048SOL    HW235778   4.080   0.500   3.741 -0.8052  0.7300  0.2845
 8049SOL     OW35779   0.776   0.222   3.463 -0.2371  0.2995 -0.0300
 8049SOL    HW135780   0.816   0.283   3.401  1.9329 -0.1648  0.9033
 8049SOL    HW235781   0.696   0.271   3.479  0.0914  0.1807  1.9889
 8050SOL     OW35782   0.813   3.093   6.446  0.7419  0.1829  0.1555
 8050SOL    HW135783   0.761   3.108   6.525  0.8300 -0.2920  0.3032
 8050SOL    HW235784   0.828   2.998   6.452 -0.5018  0.0057  0.3655
 8051SOL     OW35785   3.709   0.176   6.922 -0.7241  0.4445  0.1207
 8051SOL    HW135786   3.735   0.109   6.858 -0.8495 -0.8702  1.4430
 8051SOL    HW235787   3.749   0.257   6.891  1.2996  0.2279  2.1035
 8052SOL     OW35788   3.780   3.284   1.150  0.3826  0.0021  0.0929
 8052SOL    HW135789   3.722   3.343   1.198 -0.7398 -0.2184 -1.0213
 8052SOL    HW235790   3.738   3.260   1.068  0.5442  1.5274 -0.4194
 8053SOL     OW35791   2.114   3.892   5.417  0.3876 -0.0994 -0.2216
 8053SOL    HW135792   2.050   3.921   5.353 -2.2801 -0.2489  2.3733
 8053SOL    HW235793   2.172   3.830   5.373  1.2817 -1.3115  2.6256
 8054SOL     OW35794   1.558   3.353   6.992  0.2777  0.0408 -0.0365
 8054SOL    HW135795   1.647   3.319   6.992 -0.4829 -1.9226 -0.1395
 8054SOL    HW235796   1.519   3.267   6.978  1.4198 -0.3922 -0.5256
 8055SOL     OW35797   0.467   4.441   4.532  0.1839  0.5231  0.0746
 8055SOL    HW135798   0.414   4.375   4.578  3.1938 -1.2111  1.0242
 8055SOL    HW235799   0.535   4.385   4.496 -0.0667 -0.2737  0.8219
 8056SOL     OW35800   0.852   1.941   8.632  0.0276  0.5286 -0.0372
 8056SOL    HW135801   0.942   1.913   8.648 -0.6399 -1.2853  0.6193
 8056SOL    HW235802   0.794   1.868   8.654 -0.1470  1.2253  1.8086
 8057SOL     OW35803   0.742   0.703  11.532  0.0671  0.0011  0.7871
 8057SOL    HW135804   0.810   0.684  11.468 -0.5347 -1.1890  0.4943
 8057SOL    HW235805   0.732   0.798  11.534 -1.5851 -0.1864  1.5665
 8058SOL     OW35806   3.998   0.034   7.531 -0.2469  0.2114  0.3192
 8058SOL    HW135807   3.984   0.037   7.625 -6.5900 -0.5060 -0.6050
 8058SOL    HW235808   4.087   0.067   7.523 -0.0332 -0.0360  1.6616
 8059SOL     OW35809   1.864   2.945   4.081  1.2402  0.3786  0.0577
 8059SOL    HW135810   1.940   2.993   4.111  1.1609  1.7938 -2.0546
 8059SOL    HW235811   1.806   3.019   4.061  0.2560 -0.8615 -1.7173
 8060SOL     OW35812   3.195   3.164  12.272  0.8345  0.1993  0.2932
 8060SOL    HW135813   3.191   3.260  12.277  0.7256  0.2368 -0.5409
 8060SOL    HW235814   3.176   3.159  12.179  1.2515  3.1407  0.0576
 8061SOL     OW35815   2.935   4.191   9.685 -0.8351 -0.3142 -0.4817
 8061SOL    HW135816   2.920   4.283   9.661 -2.5542 -0.3165  0.5998
 8061SOL    HW235817   3.012   4.175   9.631 -1.1312  1.4868 -1.4508
 8062SOL     OW35818   4.096   3.694   9.103  0.4887  0.2473 -0.5552
 8062SOL    HW135819   4.075   3.786   9.118 -0.5517  0.1186 -1.2030
 8062SOL    HW235820   4.037   3.648   9.162 -0.2369 -1.2805 -2.4691
 8063SOL     OW35821   2.699   2.029   7.108 -0.1954 -0.5620  0.1049
 8063SOL    HW135822   2.704   2.058   7.017  0.6953  1.2275  0.7244
 8063SOL    HW235823   2.646   1.949   7.100  0.5533 -1.3130  2.5230
 8064SOL     OW35824   3.266   1.824   4.324  0.0408  0.8153  0.1089
 8064SOL    HW135825   3.325   1.764   4.370 -0.2895  0.3704 -0.0534
 8064SOL    HW235826   3.191   1.769   4.303  1.4053 -0.7093 -0.7963
 8065SOL     OW35827   2.479   2.234   1.385  0.5585 -0.3031 -0.2301
 8065SOL    HW135828   2.519   2.162   1.434  0.6406 -0.2222 -0.1767
 8065SOL    HW235829   2.446   2.295   1.450 -1.3145 -1.5474 -0.0147
 8066SOL     OW35830   1.248   0.456   2.539  0.1142 -0.9789 -0.2413
 8066SOL    HW135831   1.236   0.551   2.531 -0.7346 -1.0130  0.6148
 8066SOL    HW235832   1.314   0.461   2.609 -0.6692  1.5551  0.3208
 8067SOL     OW35833   4.438   1.204  15.977  0.7515 -0.2084  0.1731
 8067SOL    HW135834   4.515   1.158  16.007  0.4188 -0.3080  0.8720
 8067SOL    HW235835   4.465   1.290  16.008 -2.8393  1.4363 -1.1465
 8068SOL     OW35836   3.140   2.873  16.120 -0.3020  0.1234 -0.4407
 8068SOL    HW135837   3.118   2.951  16.172  0.1102 -0.2590  0.3107
 8068SOL    HW235838   3.053   2.832  16.119 -0.4539  0.4117  0.6702
 8069SOL     OW35839   3.494   3.451   6.453 -0.2292  0.4214 -0.4062
 8069SOL    HW135840   3.548   3.373   6.461 -0.4940  0.3082  0.2437
 8069SOL    HW235841   3.422   3.426   6.511 -0.5140 -2.5130 -2.0449
 8070SOL     OW35842   1.813   3.344   8.225 -0.0651  0.1250  0.0516
 8070SOL    HW135843   1.822   3.349   8.320 -1.5161  1.4569  0.1264
 8070SOL    HW235844   1.748   3.414   8.215  0.0112  0.2088  0.1457
 8071SOL     OW35845   4.156   1.722   8.576 -0.1982  0.4045 -0.3622
 8071SOL    HW135846   4.190   1.648   8.526  0.3275 -1.5498  2.9052
 8071SOL    HW235847   4.067   1.687   8.578 -0.9753  2.5040  2.5523
 8072SOL     OW35848   2.958   2.600   5.398  0.0301 -0.0484 -0.1339
 8072SOL    HW135849   2.932   2.600   5.306  2.3493 -1.1413 -0.7763
 8072SOL    HW235850   2.875   2.576   5.440 -0.5558  1.8906 -0.1418
 8073SOL     OW35851   4.573   1.024   4.055 -0.2793 -0.3143  0.1531
 8073SOL    HW135852   4.553   1.066   3.972 -1.1803  0.8873  0.9909
 8073SOL    HW235853   4.527   0.940   4.047 -0.2949 -0.2725 -0.1904
 8074SOL     OW35854   3.884   4.176   7.483 -0.4252  0.5833  0.0620
 8074SOL    HW135855   3.952   4.127   7.436  0.2621 -0.2229  1.9078
 8074SOL    HW235856   3.906   4.266   7.460  1.7769  0.6125  2.3050
 8075SOL     OW35857   1.870   3.665  15.529 -0.4816 -0.3670  0.2266
 8075SOL    HW135858   1.931   3.592  15.520 -1.8086 -1.3457 -0.9724
 8075SOL    HW235859   1.786   3.622  15.515 -1.0820 -0.0256  2.7357
 8076SOL     OW35860   0.667   2.742   9.067 -0.3019 -0.1520 -0.1634
 8076SOL    HW135861   0.673   2.819   9.010 -0.3613 -0.6964 -0.8936
 8076SOL    HW235862   0.720   2.769   9.142  2.0962 -1.9666 -1.2229
 8077SOL     OW35863   2.318   1.481   5.236  0.2391 -0.0085 -0.1974
 8077SOL    HW135864   2.371   1.555   5.207 -1.7994  1.6569  0.3617
 8077SOL    HW235865   2.387   1.420   5.265 -0.8799  0.0439  2.5476
 8078SOL     OW35866   3.627   1.590   2.041 -0.2876 -0.5721 -0.1761
 8078SOL    HW135867   3.586   1.558   2.121 -2.1916 -1.3419 -1.4611
 8078SOL    HW235868   3.561   1.607   1.974 -0.7607  2.8337  1.1466
 8079SOL     OW35869   2.013   3.487   3.108  0.0055 -0.0442 -0.2377
 8079SOL    HW135870   2.084   3.515   3.050  2.8891 -2.1694  2.2702
 8079SOL    HW235871   2.027   3.392   3.110  0.4396 -0.0437 -2.7312
 8080SOL     OW35872   1.590   2.911  10.699  0.6423  0.1278 -0.1611
 8080SOL    HW135873   1.683   2.931  10.711  1.0999 -0.2761 -2.9391
 8080SOL    HW235874   1.543   2.985  10.736 -0.9038 -1.0980  0.3429
 8081SOL     OW35875   2.721   2.821   5.293 -0.3570  0.2134  0.2462
 8081SOL    HW135876   2.627   2.805   5.299  0.0082 -1.8198  0.5661
 8081SOL    HW235877   2.760   2.734   5.285  1.4963  1.0662 -0.0374
 8082SOL     OW35878   4.339   2.215   7.350 -0.3661 -0.0013 -0.2832
 8082SOL    HW135879   4.266   2.178   7.400 -0.5380  1.5394  0.6017
 8082SOL    HW235880   4.390   2.252   7.422 -0.6369 -0.1235 -0.0273
 8083SOL     OW35881   3.133   3.064   3.007  0.1934  0.7851  0.1361
 8083SOL    HW135882   3.190   3.114   3.065  2.9557 -1.5396 -0.6232
 8083SOL    HW235883   3.050   3.111   3.016 -0.6370 -0.7505  0.4903
 8084SOL     OW35884   0.617   1.118   5.500  0.4826 -0.2042 -0.2099
 8084SOL    HW135885   0.588   1.109   5.591  2.0829 -1.1856  0.1870
 8084SOL    HW235886   0.570   1.040   5.471 -0.4327  0.1757  0.2211
 8085SOL     OW35887   2.364   3.273  12.521  0.0665 -0.3918  0.1398
 8085SOL    HW135888   2.360   3.235  12.609 -1.5853 -0.2172  0.1366
 8085SOL    HW235889   2.447   3.236  12.491  0.6844  0.7085  0.4791
 8086SOL     OW35890   1.272   1.667   2.258  0.1632  0.1378 -0.6025
 8086SOL    HW135891   1.281   1.741   2.198 -0.9022  0.3054 -0.5459
 8086SOL    HW235892   1.318   1.701   2.335 -0.0136  0.9773 -0.8665
 8087SOL     OW35893   4.612   0.893  10.639 -0.0746  0.5240 -0.4498
 8087SOL    HW135894   4.639   0.979  10.606 -1.5493  1.3474  0.4818
 8087SOL    HW235895   4.611   0.845  10.556  1.2910 -1.1074  0.4812
 8088SOL     OW35896   0.310   1.836   0.885  0.1128 -0.0187  0.4927
 8088SOL    HW135897   0.274   1.844   0.974  1.6006  1.0923  0.9878
 8088SOL    HW235898   0.396   1.874   0.902  1.3060 -2.5060  0.1266
 8089SOL     OW35899   1.575   0.623   4.354 -0.2392  0.2891 -0.2896
 8089SOL    HW135900   1.520   0.702   4.360 -0.2933  0.2201  0.1486
 8089SOL    HW235901   1.570   0.628   4.259 -1.7706  1.4383 -0.1479
 8090SOL     OW35902   3.798   2.502  17.018 -0.4557  0.3487 -0.4052
 8090SOL    HW135903   3.810   2.419  16.971 -1.4705 -0.6868  1.1689
 8090SOL    HW235904   3.748   2.463  17.090  0.8953 -0.4379  0.1143
 8091SOL     OW35905   0.799   0.558  10.498 -0.1904 -1.0820 -0.5574
 8091SOL    HW135906   0.724   0.514  10.458 -0.7964 -0.9740  0.4514
 8091SOL    HW235907   0.865   0.536  10.433  1.0340  0.8892 -0.0068
 8092SOL     OW35908   2.475   0.216  15.390 -0.1439 -0.5432  0.5206
 8092SOL    HW135909   2.427   0.143  15.351  0.6923 -1.8652  1.9857
 8092SOL    HW235910   2.405   0.281  15.396  0.4338  0.1741 -0.4958
 8093SOL     OW35911   2.057   1.867   0.451 -0.4477 -0.1274  0.6024
 8093SOL    HW135912   1.986   1.849   0.513 -0.8692 -1.4052 -0.2472
 8093SOL    HW235913   2.049   1.796   0.388 -1.0089  0.9767 -0.5616
 8094SOL     OW35914   3.010   0.151   4.330 -0.1406 -0.4038  0.1646
 8094SOL    HW135915   3.039   0.060   4.317 -1.0227 -0.7061  0.3064
 8094SOL    HW235916   3.055   0.203   4.263  0.5049  0.3275  1.1662
 8095SOL     OW35917   3.047   3.559   6.640 -0.4269  0.0092 -1.0212
 8095SOL    HW135918   3.085   3.561   6.727 -0.5507  0.1387 -0.9700
 8095SOL    HW235919   3.089   3.622   6.581 -0.0370  1.0457  0.3750
 8096SOL     OW35920   2.749   4.023  12.136  0.0348 -0.3598  0.1080
 8096SOL    HW135921   2.736   4.116  12.119  0.2752 -0.1432  1.1339
 8096SOL    HW235922   2.722   3.996  12.048 -0.4609  0.3964  0.0251
 8097SOL     OW35923   0.023   3.471  12.860  0.0489 -0.8506  0.1052
 8097SOL    HW135924   4.709   3.545  12.823  1.4581  0.3022  0.5587
 8097SOL    HW235925   0.098   3.467  12.801 -0.6951 -2.1034 -0.7389
 8098SOL     OW35926   2.474   1.386   4.070  0.4019  0.1457  0.2064
 8098SOL    HW135927   2.539   1.453   4.091 -0.5400  1.2690 -0.4874
 8098SOL    HW235928   2.436   1.366   4.156  0.4693 -3.6790 -0.6755
 8099SOL     OW35929   2.841   3.803   3.456  0.1238 -0.4309 -0.8101
 8099SOL    HW135930   2.894   3.834   3.530  1.6476 -1.7812 -1.3589
 8099SOL    HW235931   2.763   3.783   3.508  0.6665  0.2607  0.2772
 8100SOL     OW35932   4.402   4.208  16.827 -0.2248 -0.0574  0.2490
 8100SOL    HW135933   4.453   4.257  16.763 -0.2385 -0.3443  0.0156
 8100SOL    HW235934   4.426   4.239  16.914  1.8642 -0.2657 -0.2576
 8101SOL     OW35935   1.898   0.209   4.149 -0.0724 -0.3205  0.3630
 8101SOL    HW135936   1.975   0.264   4.166 -1.2065  0.1311  4.0581
 8101SOL    HW235937   1.824   0.269   4.160 -2.0724 -2.9325  1.2395
 8102SOL     OW35938   1.115   4.083   8.903  0.3818 -0.3042  0.0795
 8102SOL    HW135939   1.112   4.032   8.983 -0.0491 -0.0584  0.2178
 8102SOL    HW235940   1.020   4.088   8.891  0.8648 -1.3370 -4.3785
 8103SOL     OW35941   4.108   0.538   6.734  0.3818 -0.2921  0.3433
 8103SOL    HW135942   4.175   0.589   6.688  1.7834 -1.8614  0.6414
 8103SOL    HW235943   4.026   0.571   6.699  0.5041 -1.7570 -1.2932
 8104SOL     OW35944   1.132   2.762   5.764  1.0062 -0.4024 -0.0808
 8104SOL    HW135945   1.105   2.852   5.783 -3.1030 -1.9327  1.2903
 8104SOL    HW235946   1.117   2.711   5.844  1.1059 -1.7148 -0.8958
 8105SOL     OW35947   2.510   2.148   2.381 -0.6072 -0.1084  0.3456
 8105SOL    HW135948   2.418   2.142   2.356 -0.0490 -0.1989 -1.7347
 8105SOL    HW235949   2.537   2.230   2.339 -1.0605  0.2175  0.6926
 8106SOL     OW35950   2.165   3.612  14.716 -0.4836 -0.1716  0.1901
 8106SOL    HW135951   2.184   3.667  14.792 -2.0753  1.1499 -0.3538
 8106SOL    HW235952   2.246   3.561  14.719  0.6740  1.7835  2.1098
 8107SOL     OW35953   0.812   1.164   1.943 -0.2100 -0.3558 -0.1021
 8107SOL    HW135954   0.872   1.209   2.002 -0.4176  0.0435 -0.1980
 8107SOL    HW235955   0.740   1.226   1.933 -0.6737 -1.1458 -1.6230
 8108SOL     OW35956   4.034   2.621  15.587 -0.4807  0.2712  0.2165
 8108SOL    HW135957   3.962   2.680  15.609 -0.0715  1.1315 -0.7404
 8108SOL    HW235958   4.091   2.611  15.663 -0.1364 -0.0433 -0.0848
 8109SOL     OW35959   1.664   3.024  14.160 -0.5892  0.5436  0.0817
 8109SOL    HW135960   1.754   2.993  14.152 -1.2614 -1.7332  1.0731
 8109SOL    HW235961   1.672   3.109  14.203  0.2689  0.2580  0.4748
 8110SOL     OW35962   3.445   3.045   3.786  0.2491  0.4988  0.3069
 8110SOL    HW135963   3.488   3.034   3.701  1.0789  1.8720  0.5523
 8110SOL    HW235964   3.356   3.013   3.768  0.2397  1.8638 -2.0868
 8111SOL     OW35965   3.620   3.130  10.829  0.2086 -0.2016 -0.0508
 8111SOL    HW135966   3.603   3.074  10.754  2.1480 -3.0468  1.6234
 8111SOL    HW235967   3.564   3.094  10.898 -0.9838  1.8637  0.0505
 8112SOL     OW35968   0.301   4.239   8.839  0.0234  0.6722  0.7740
 8112SOL    HW135969   0.355   4.316   8.855  1.8346 -0.5428  0.5646
 8112SOL    HW235970   0.348   4.168   8.882  0.5443  0.6744  0.2014
 8113SOL     OW35971   4.393   4.038   5.286  0.9968 -0.2187  0.6443
 8113SOL    HW135972   4.388   4.129   5.257  3.3027 -0.2748  0.0893
 8113SOL    HW235973   4.454   4.003   5.221  0.7022  1.7471 -0.7204
 8114SOL     OW35974   0.060   0.286   3.496 -0.0539  0.4958 -0.3611
 8114SOL    HW135975   0.144   0.254   3.526 -1.1160 -1.6464  0.3469
 8114SOL    HW235976   0.058   0.373   3.535 -1.7236  0.9919 -1.5026
 8115SOL     OW35977   3.946   0.831   4.021 -0.3498  0.0190  0.1100
 8115SOL    HW135978   3.989   0.856   3.940  0.2466 -0.2784  0.3335
 8115SOL    HW235979   3.861   0.872   4.008 -1.0267 -1.7582 -1.0943
 8116SOL     OW35980   1.960   4.494   5.152  0.0752 -0.2683 -0.3509
 8116SOL    HW135981   1.933   4.517   5.062 -1.2922 -1.8639 -0.3588
 8116SOL    HW235982   1.959   4.581   5.191 -3.4237 -0.8039  0.7646
 8117SOL     OW35983   4.634   3.404   4.474  0.4290  0.4042 -0.2546
 8117SOL    HW135984   4.605   3.410   4.383  0.1110 -0.1494 -0.1904
 8117SOL    HW235985   4.727   3.424   4.459 -0.0913  0.8263 -2.9417
 8118SOL     OW35986   0.570   4.310   5.440 -0.3093 -0.0730  0.1848
 8118SOL    HW135987   0.489   4.352   5.469 -0.1852 -0.1420  0.6425
 8118SOL    HW235988   0.625   4.318   5.518  2.1325 -0.2317 -1.5205
 8119SOL     OW35989   1.800   4.270   4.220 -0.4628  0.0082 -0.0535
 8119SOL    HW135990   1.821   4.351   4.266 -2.9047 -0.6565  2.2992
 8119SOL    HW235991   1.790   4.209   4.294 -2.2129 -0.1689 -0.4488
 8120SOL     OW35992   1.582   1.516  16.723  0.3762  0.2037 -0.0808
 8120SOL    HW135993   1.509   1.553  16.672  1.6280  1.3465 -1.0637
 8120SOL    HW235994   1.567   1.425  16.700  1.4888 -0.2336  0.9083
 8121SOL     OW35995   2.203   3.597   8.679  0.1054  0.0466 -0.0923
 8121SOL    HW135996   2.227   3.508   8.655 -0.6806 -0.6545  1.7062
 8121SOL    HW235997   2.243   3.607   8.766 -0.3317  0.9430  0.0077
 8122SOL     OW35998   0.986   0.836   5.664  0.1732  0.3295 -0.0778
 8122SOL    HW135999   1.076   0.868   5.675  0.6868 -2.1412  2.9120
 8122SOL    HW236000   0.954   0.911   5.614  2.5778  1.5941  0.2543
 8123SOL     OW36001   1.381   2.966   6.580 -0.6952 -0.0116 -0.3331
 8123SOL    HW136002   1.370   2.922   6.664  3.5921 -0.0022  0.2451
 8123SOL    HW236003   1.428   2.901   6.527  0.2661 -0.0896  0.6162
 8124SOL     OW36004   0.851   4.554   7.733 -0.3273  0.4538  0.0569
 8124SOL    HW136005   0.908   4.515   7.666 -0.9862  0.0698 -0.2779
 8124SOL    HW236006   0.903   4.540   7.812 -0.4244  0.2860  0.0910
 8125SOL     OW36007   2.277   2.274   1.170  0.0091  0.5077 -0.0971
 8125SOL    HW136008   2.345   2.256   1.235 -1.2442  0.8820  1.3305
 8125SOL    HW236009   2.260   2.364   1.200 -2.2074  0.1891 -0.4102
 8126SOL     OW36010   3.395   1.585   9.078  0.0917 -0.1534 -0.0462
 8126SOL    HW136011   3.390   1.508   9.134  0.7206 -1.2192 -1.4390
 8126SOL    HW236012   3.302   1.606   9.066  0.1307 -0.1407 -0.3409
 8127SOL     OW36013   3.358   0.187   5.451 -0.2773  0.4334  0.2865
 8127SOL    HW136014   3.305   0.165   5.374  0.7618  0.4772 -0.4303
 8127SOL    HW236015   3.355   0.280   5.428  0.9049  0.5627  0.7001
 8128SOL     OW36016   3.154   2.707  14.001 -0.7012  0.2516  0.2158
 8128SOL    HW136017   3.112   2.782  13.960 -0.9324  0.0495  0.0850
 8128SOL    HW236018   3.246   2.733  13.997 -0.2906 -1.2741 -0.2027
 8129SOL     OW36019   3.660   1.990   2.082  0.1343  0.6953 -0.5161
 8129SOL    HW136020   3.712   1.911   2.067  0.8519  1.0684  0.0015
 8129SOL    HW236021   3.611   1.957   2.158  1.0100 -0.4661 -0.4716
 8130SOL     OW36022   1.538   2.454   8.302 -0.3226  0.2007  0.5655
 8130SOL    HW136023   1.617   2.453   8.247 -2.1363 -0.5428 -2.0401
 8130SOL    HW236024   1.581   2.434   8.386  0.7721  2.5524  0.5640
 8131SOL     OW36025   1.077   3.371  14.615 -0.6281 -0.0369 -0.1278
 8131SOL    HW136026   1.113   3.380  14.527 -0.9475 -0.7645 -0.3329
 8131SOL    HW236027   1.088   3.461  14.647  0.6908 -0.8889  1.7561
 8132SOL     OW36028   4.672   3.683   1.092 -0.1954  0.4538  0.4149
 8132SOL    HW136029   4.595   3.730   1.125  0.1295  0.6335  0.9191
 8132SOL    HW236030   4.645   3.703   1.002  0.5040 -2.1217 -0.3477
 8133SOL     OW36031   3.789   3.031   5.874 -0.1056  0.2511  0.2797
 8133SOL    HW136032   3.848   3.022   5.949 -0.4822  2.2561  0.8041
 8133SOL    HW236033   3.830   2.968   5.815 -0.3897 -1.2060  1.6491
 8134SOL     OW36034   0.964   1.839  13.253 -0.0650  0.1718  0.2776
 8134SOL    HW136035   0.957   1.772  13.185  0.4014  2.1821 -1.7438
 8134SOL    HW236036   1.053   1.833  13.287 -0.3694 -2.5038  0.6626
 8135SOL     OW36037   3.511   0.316   6.814 -0.8327 -0.4623  0.4478
 8135SOL    HW136038   3.571   0.256   6.857  0.3075 -1.0438 -1.9256
 8135SOL    HW236039   3.573   0.385   6.791 -1.7160  0.2613  0.2194
 8136SOL     OW36040   3.797   0.156   8.998 -0.0113  0.3075 -0.3950
 8136SOL    HW136041   3.741   0.210   8.942 -1.4876 -0.7219  0.1192
 8136SOL    HW236042   3.776   0.069   8.965  1.4512 -0.0271 -0.4853
 8137SOL     OW36043   0.977   0.480   2.888 -0.3268 -0.1845 -0.2041
 8137SOL    HW136044   0.917   0.427   2.940 -2.3375  0.8296 -1.5057
 8137SOL    HW236045   0.990   0.418   2.816  0.0187 -0.0535 -0.2534
 8138SOL     OW36046   3.862   2.217   8.888  0.3818  0.8158 -0.5721
 8138SOL    HW136047   3.808   2.296   8.892 -0.1680  0.3984  0.4068
 8138SOL    HW236048   3.800   2.162   8.840 -0.2468  2.6954 -1.8854
 8139SOL     OW36049   2.944   4.638   5.019 -0.2958  0.2400  0.2400
 8139SOL    HW136050   2.924   4.562   4.965  1.5448 -1.8081  2.4338
 8139SOL    HW236051   3.022   4.672   4.975 -0.1976  0.4269  0.5522
 8140SOL     OW36052   2.926   1.750   0.229 -0.7762 -0.4875 -0.0178
 8140SOL    HW136053   2.844   1.747   0.181 -0.6414  2.6616 -0.4209
 8140SOL    HW236054   2.967   1.670   0.195  1.2851  1.3969 -2.0101
 8141SOL     OW36055   1.945   2.003   1.055 -0.5412 -0.1023  0.0660
 8141SOL    HW136056   1.968   2.054   0.977  0.0477 -0.9410 -0.3099
 8141SOL    HW236057   1.865   1.954   1.034 -0.9491  1.1169 -1.2192
 8142SOL     OW36058   2.541   2.628   7.876 -0.0277  0.6431 -0.4568
 8142SOL    HW136059   2.575   2.686   7.807 -0.1315 -0.7976 -1.7211
 8142SOL    HW236060   2.508   2.560   7.817 -1.9848  0.2401  1.1139
 8143SOL     OW36061   2.452   1.200   7.480 -0.4759  0.2281 -0.0093
 8143SOL    HW136062   2.480   1.109   7.488 -0.7759 -0.1786 -3.6655
 8143SOL    HW236063   2.505   1.243   7.548 -3.0987  0.2761  1.9897
 8144SOL     OW36064   4.687   3.655   5.665 -0.0924  0.6634 -0.3106
 8144SOL    HW136065   4.672   3.720   5.597 -0.6106 -0.2234 -1.0424
 8144SOL    HW236066   4.710   3.578   5.613 -1.1153  1.5053 -2.0119
 8145SOL     OW36067   2.633   4.395  16.700  0.2440  0.4474  0.0408
 8145SOL    HW136068   2.707   4.394  16.760  0.8436 -1.1085 -0.7342
 8145SOL    HW236069   2.659   4.462  16.636  0.3210  0.1864 -0.2047
 8146SOL     OW36070   3.452   0.827   6.420 -0.0605  0.4124 -0.3815
 8146SOL    HW136071   3.384   0.786   6.367  0.1599  2.1460 -2.0080
 8146SOL    HW236072   3.454   0.766   6.493 -0.2572  1.5854  0.6019
 8147SOL     OW36073   2.866   2.193   4.587 -0.3262 -0.0924  0.3696
 8147SOL    HW136074   2.780   2.227   4.610  0.0240  1.0188  0.0743
 8147SOL    HW236075   2.876   2.199   4.491 -0.2182  0.6369  0.4237
 8148SOL     OW36076   2.140   3.797   8.001  0.3904  0.4277  0.3229
 8148SOL    HW136077   2.167   3.792   8.093 -0.5856  2.1036  0.6887
 8148SOL    HW236078   2.160   3.706   7.976  0.5133  0.7887 -0.8833
 8149SOL     OW36079   3.940   3.851  10.850  0.3881  0.0192  0.9352
 8149SOL    HW136080   4.026   3.885  10.825  0.4490 -0.3604  0.6374
 8149SOL    HW236081   3.954   3.855  10.944 -1.8838 -3.4740  1.3874
 8150SOL     OW36082   1.431   4.366   5.542 -0.7874  0.0789  0.0342
 8150SOL    HW136083   1.360   4.320   5.585  0.8111 -1.6565  0.8161
 8150SOL    HW236084   1.492   4.292   5.532  0.2404  0.5190  2.9059
 8151SOL     OW36085   1.956   0.822  14.948 -0.1279 -0.1122 -0.1378
 8151SOL    HW136086   1.922   0.877  15.019  0.3750  0.0659 -0.0335
 8151SOL    HW236087   1.907   0.864  14.876 -3.8220 -2.6153  0.9149
 8152SOL     OW36088   2.645   4.311   1.756 -0.0329 -0.0254 -0.1838
 8152SOL    HW136089   2.674   4.237   1.702 -1.6949 -0.6150 -0.2511
 8152SOL    HW236090   2.712   4.312   1.824  1.9753  0.0871 -2.1647
 8153SOL     OW36091   3.813   3.832  10.612  0.4864  0.2004  0.0201
 8153SOL    HW136092   3.844   3.750  10.650 -0.2275  0.5034  1.2403
 8153SOL    HW236093   3.848   3.891  10.679  0.8308 -1.0952  0.9829
 8154SOL     OW36094   1.281   2.003   7.245  0.2426 -0.5897  0.1789
 8154SOL    HW136095   1.254   2.008   7.153 -2.4193 -2.2607  0.8639
 8154SOL    HW236096   1.259   2.092   7.271 -1.9846 -1.0247 -0.1917
 8155SOL     OW36097   0.605   1.063  14.921  0.5664  0.1920  0.2663
 8155SOL    HW136098   0.509   1.058  14.915  0.4918 -0.0534  1.6461
 8155SOL    HW236099   0.625   1.155  14.907  1.5976 -0.1810 -0.7340
 8156SOL     OW36100   4.269   2.374   3.781  0.0845  0.5087 -0.1351
 8156SOL    HW136101   4.212   2.449   3.797  0.8240  0.9844  0.2757
 8156SOL    HW236102   4.319   2.415   3.710  0.0365 -0.6102 -0.8193
 8157SOL     OW36103   0.115   0.492   5.801 -0.9479  0.1580  0.3302
 8157SOL    HW136104   0.126   0.406   5.760 -1.6605  0.5297 -0.6371
 8157SOL    HW236105   0.158   0.550   5.739 -1.9749  0.0247 -0.4917
 8158SOL     OW36106   4.583   1.071   2.703  0.6154 -0.0357  0.7499
 8158SOL    HW136107   4.570   1.112   2.789  1.1077 -0.6924  1.1424
 8158SOL    HW236108   4.626   1.146   2.662  0.5180 -0.6126 -0.4016
 8159SOL     OW36109   3.223   2.486   8.475  0.2339  0.8356 -0.0174
 8159SOL    HW136110   3.161   2.559   8.477 -0.8318 -0.0710 -0.4244
 8159SOL    HW236111   3.192   2.425   8.408 -3.2319  1.1268  1.3655
 8160SOL     OW36112   4.229   0.228   6.148 -0.2491  0.0380  0.0374
 8160SOL    HW136113   4.288   0.167   6.103  0.2132 -1.1243  2.2497
 8160SOL    HW236114   4.160   0.162   6.156  1.3839 -1.6175  0.3511
 8161SOL     OW36115   2.125   3.113   3.880 -0.6916  0.1973  0.4148
 8161SOL    HW136116   2.193   3.057   3.915  1.0950  0.3892 -2.6919
 8161SOL    HW236117   2.178   3.193   3.871 -1.2802  0.5607  0.1914
 8162SOL     OW36118   3.875   3.646   4.421 -0.5887 -0.2838 -0.2531
 8162SOL    HW136119   3.865   3.735   4.455  2.2505  0.8162 -2.3102
 8162SOL    HW236120   3.868   3.665   4.327 -2.7780  0.9652  0.1459
 8163SOL     OW36121   2.152   3.675   6.178  0.8320 -0.1270 -0.1893
 8163SOL    HW136122   2.173   3.756   6.132  1.6353 -1.5097 -2.2348
 8163SOL    HW236123   2.234   3.628   6.160 -0.9144 -3.0214 -0.6635
 8164SOL     OW36124   4.641   4.492   5.243 -0.6316  0.5126  0.1275
 8164SOL    HW136125   4.715   4.485   5.303  0.6672 -0.8226 -1.6368
 8164SOL    HW236126   4.586   4.560   5.283  1.2308  2.4618 -0.6526
 8165SOL     OW36127   2.303   2.567   9.301  0.1853 -0.0453  0.3239
 8165SOL    HW136128   2.374   2.565   9.236 -1.7036  0.8929 -1.7742
 8165SOL    HW236129   2.338   2.510   9.369 -1.4619  0.0044  1.2040
 8166SOL     OW36130   2.972   2.192   7.282 -0.0132  0.0021 -0.0548
 8166SOL    HW136131   2.906   2.199   7.213 -0.2623  0.7791  0.2619
 8166SOL    HW236132   3.035   2.261   7.261 -0.8032  0.7664  0.0937
 8167SOL     OW36133   1.666   3.680   0.246  0.1689 -0.2723 -0.0727
 8167SOL    HW136134   1.755   3.653   0.223 -0.5177 -1.4611 -1.3440
 8167SOL    HW236135   1.646   3.720   0.161 -0.5538 -1.3804 -0.4225
 8168SOL     OW36136   3.493   3.760   6.588  0.3160  0.0904 -1.0455
 8168SOL    HW136137   3.561   3.794   6.646  0.1027  0.4155 -0.9860
 8168SOL    HW236138   3.557   3.724   6.527  0.9814 -0.2699 -0.1373
 8169SOL     OW36139   0.146   4.522   4.272 -1.1040 -0.5762  0.4840
 8169SOL    HW136140   0.141   4.442   4.323 -0.5557 -1.6488 -1.1579
 8169SOL    HW236141   0.194   4.578   4.334 -1.3605  0.3174 -0.1296
 8170SOL     OW36142   0.800   1.367   8.045  0.2962  0.1508  0.4894
 8170SOL    HW136143   0.892   1.340   8.045  0.3205  0.2889 -1.4429
 8170SOL    HW236144   0.767   1.297   8.102 -0.7222 -1.5105 -2.1216
 8171SOL     OW36145   2.330   0.510   1.639 -0.3355 -0.1662 -0.3613
 8171SOL    HW136146   2.412   0.514   1.688 -1.1319  0.5263  0.9357
 8171SOL    HW236147   2.337   0.582   1.576 -0.2860  1.1497  1.1516
 8172SOL     OW36148   0.323   0.725  11.338  0.8848  0.4376  0.5030
 8172SOL    HW136149   0.239   0.769  11.332  0.7685 -0.4327 -3.9678
 8172SOL    HW236150   0.326   0.687  11.426 -0.5152 -1.0510 -0.0880
 8173SOL     OW36151   1.022   2.999   3.847  0.5061 -0.2959  0.6560
 8173SOL    HW136152   1.068   3.081   3.829 -0.1101 -0.2866 -0.9419
 8173SOL    HW236153   1.078   2.959   3.913  2.4021 -0.1781 -0.8627
 8174SOL     OW36154   1.640   4.465   7.882  0.4976  0.4603  0.3418
 8174SOL    HW136155   1.579   4.536   7.899  1.0216  0.7275  1.1433
 8174SOL    HW236156   1.635   4.411   7.962 -0.6640 -1.3738 -0.9758
 8175SOL     OW36157   4.486   2.150   1.701 -0.3155  0.2540 -0.6033
 8175SOL    HW136158   4.465   2.123   1.612 -0.0103 -0.3541 -0.4935
 8175SOL    HW236159   4.459   2.075   1.754 -0.0955  1.2160  0.8904
 8176SOL     OW36160   2.581   4.259   3.606 -0.3833 -0.2328 -0.1035
 8176SOL    HW136161   2.600   4.190   3.543 -2.0049 -1.7244  1.0435
 8176SOL    HW236162   2.612   4.333   3.555 -0.9371 -1.8708 -2.8349
 8177SOL     OW36163   0.813   4.704   1.910  0.3531 -0.9862  0.0656
 8177SOL    HW136164   0.731   4.667   1.943  1.2500 -1.4882  1.7600
 8177SOL    HW236165   0.787   0.040   1.852 -0.9202 -0.5352  1.2107
 8178SOL     OW36166   4.440   4.645   8.287 -0.2358 -0.1397  0.0526
 8178SOL    HW136167   4.422   4.560   8.328 -0.9050 -0.0417 -0.0497
 8178SOL    HW236168   4.357   4.657   8.242 -1.5269 -0.4101  2.3704
 8179SOL     OW36169   3.261   1.384   0.232 -0.1278  0.0826  0.4827
 8179SOL    HW136170   3.304   1.469   0.238 -2.2342  1.1509  0.6003
 8179SOL    HW236171   3.179   1.419   0.265 -0.9543 -0.8309 -0.5877
 8180SOL     OW36172   4.392   3.304  13.481 -0.3461 -0.5966 -0.1010
 8180SOL    HW136173   4.372   3.319  13.388  0.3023 -0.0842 -0.1648
 8180SOL    HW236174   4.387   3.394  13.514 -0.8179 -1.3099  1.7368
 8181SOL     OW36175   0.150   3.412   4.431  0.2164  0.1761  0.4745
 8181SOL    HW136176   0.202   3.400   4.351  1.5292 -0.8875  1.4853
 8181SOL    HW236177   0.222   3.443   4.486 -1.1796 -0.3804  2.6026
 8182SOL     OW36178   0.922   1.299  17.544 -0.1916 -0.2352  0.0197
 8182SOL    HW136179   0.934   1.314  17.638  1.3681 -0.3974 -0.1652
 8182SOL    HW236180   0.865   1.221  17.539  0.1968 -0.5266  0.1448
 8183SOL     OW36181   1.642   3.927   7.593 -0.2618  0.0663  0.4386
 8183SOL    HW136182   1.721   3.973   7.621 -0.4175  0.7081 -0.1675
 8183SOL    HW236183   1.628   3.964   7.506  0.0187  0.9806  0.7834
 8184SOL     OW36184   1.412   1.952  17.148  0.3292 -0.8219  0.1865
 8184SOL    HW136185   1.407   2.004  17.067 -0.0147  0.0448  0.7656
 8184SOL    HW236186   1.506   1.934  17.149  0.0026 -2.7119 -2.1197
 8185SOL     OW36187   1.800   2.122   3.858 -0.7162 -0.0273  0.6684
 8185SOL    HW136188   1.772   2.162   3.940 -0.2776  0.9010  0.3662
 8185SOL    HW236189   1.859   2.053   3.891  2.1054  2.9002  1.7362
 8186SOL     OW36190   2.990   2.695   1.007 -0.4119  0.5136 -0.4483
 8186SOL    HW136191   3.078   2.699   0.968 -1.0630  2.5867 -1.6918
 8186SOL    HW236192   3.012   2.638   1.081  0.0465 -0.1691 -1.1086
 8187SOL     OW36193   2.509   2.578   7.365  0.3569  0.5782 -0.3733
 8187SOL    HW136194   2.527   2.533   7.283 -1.7351  0.1401 -0.6084
 8187SOL    HW236195   2.593   2.621   7.379 -0.6110  2.2078  0.5312
 8188SOL     OW36196   2.712   0.265  13.120 -0.7274 -0.0255  0.1361
 8188SOL    HW136197   2.691   0.206  13.048  1.0541 -1.4493  0.7744
 8188SOL    HW236198   2.743   0.336  13.063 -0.8038  0.4657  0.7044
 8189SOL     OW36199   2.937   2.418  13.856  0.6751  0.0917  0.2057
 8189SOL    HW136200   2.913   2.341  13.804 -1.9109 -0.3287  2.0417
 8189SOL    HW236201   3.010   2.381  13.905  0.7980 -0.1667 -0.1694
 8190SOL     OW36202   4.692   0.696  10.843 -0.3833 -0.0669 -0.1432
 8190SOL    HW136203   4.638   0.622  10.815  0.1047  0.4494 -2.5264
 8190SOL    HW236204   4.657   0.763  10.783  2.6568  0.4778 -1.3432
 8191SOL     OW36205   3.874   2.079   0.082  0.0178 -0.2458 -0.1717
 8191SOL    HW136206   3.866   1.985   0.094  1.9563  0.0340  3.1809
 8191SOL    HW236207   3.870   2.084  17.726  0.0153 -3.8360 -0.3373
 8192SOL     OW36208   2.313   0.752   9.030  0.6676  0.1883  0.3247
 8192SOL    HW136209   2.350   0.710   8.952 -2.3152 -0.0899 -0.9288
 8192SOL    HW236210   2.218   0.740   9.025  1.0076 -2.3444 -0.1052
 8193SOL     OW36211   0.891   0.473   3.254 -0.1313  0.3542  0.4189
 8193SOL    HW136212   0.884   0.421   3.174 -1.2884 -0.2665  0.9211
 8193SOL    HW236213   0.804   0.512   3.260 -1.2433 -2.1527  0.8607
 8194SOL     OW36214   2.842   3.545   7.394  0.2937 -0.0854  0.0867
 8194SOL    HW136215   2.829   3.616   7.456  2.8507 -1.0743  1.7985
 8194SOL    HW236216   2.837   3.585   7.308 -0.3925  0.5344  0.4210
 8195SOL     OW36217   0.639   4.574   3.731 -0.1929 -0.3745 -0.4861
 8195SOL    HW136218   0.585   4.498   3.756 -1.8974  1.3508  1.0197
 8195SOL    HW236219   0.727   4.548   3.758  0.0175  1.0720  0.1773
 8196SOL     OW36220   1.519   3.491   8.879  0.0726  0.5203 -0.5055
 8196SOL    HW136221   1.489   3.422   8.938 -2.4512  0.9430 -1.2982
 8196SOL    HW236222   1.434   3.534   8.866  0.0458  0.0433 -1.8830
 8197SOL     OW36223   4.147   0.020   5.347 -0.1896 -0.1722  0.5662
 8197SOL    HW136224   4.131   0.114   5.335 -0.0668 -0.1649  0.4646
 8197SOL    HW236225   4.076   4.705   5.307  0.9240 -0.6801 -0.7709
 8198SOL     OW36226   3.755   3.116   8.094  0.1423 -0.6611 -0.1032
 8198SOL    HW136227   3.743   3.206   8.124 -1.4381 -0.4346 -1.3978
 8198SOL    HW236228   3.846   3.110   8.120  0.4723  1.2811 -0.8137
 8199SOL     OW36229   2.922   1.693   9.909  0.8015  0.7605 -0.4134
 8199SOL    HW136230   3.007   1.729   9.934  0.5956  0.8540  0.1698
 8199SOL    HW236231   2.862   1.702   9.984  1.2046  1.2349 -0.1482
 8200SOL     OW36232   1.222   3.311   1.625 -0.1484 -0.2756 -0.0846
 8200SOL    HW136233   1.258   3.270   1.547  0.5737  0.1277  0.0459
 8200SOL    HW236234   1.238   3.244   1.692 -1.6471 -1.2711 -0.7026
 8201SOL     OW36235   4.384   4.017   6.062 -0.2648 -0.4544 -0.4809
 8201SOL    HW136236   4.472   4.005   6.028 -0.9282 -2.5650 -1.4896
 8201SOL    HW236237   4.342   4.083   6.007  0.2276  0.7707  0.5954
 8202SOL     OW36238   4.704   0.312   5.465  0.1270  0.0662 -0.9641
 8202SOL    HW136239   0.013   0.322   5.381  1.0886  1.8213 -0.2542
 8202SOL    HW236240   4.664   0.399   5.471  1.1694  0.4804 -0.0591
 8203SOL     OW36241   0.371   0.518   5.344  0.2021  0.1292 -0.1104
 8203SOL    HW136242   0.319   0.508   5.264  1.7851  2.3467 -1.4216
 8203SOL    HW236243   0.449   0.466   5.329  0.7935  0.4830  1.7237
 8204SOL     OW36244   2.855   2.600  16.834  0.1020 -0.1960 -0.3353
 8204SOL    HW136245   2.770   2.644  16.827  0.0423 -0.1853  0.4482
 8204SOL    HW236246   2.846   2.572  16.925 -1.1639  0.4884 -0.2534
 8205SOL     OW36247   4.000   0.392   1.581  0.3671 -0.5489  0.3666
 8205SOL    HW136248   3.977   0.471   1.629  1.7093  1.1867 -1.8735
 8205SOL    HW236249   3.912   0.366   1.554 -0.2177  0.0981  1.6447
 8206SOL     OW36250   4.071   4.468   7.144  0.8711  0.1406  0.5736
 8206SOL    HW136251   4.085   4.451   7.237 -3.7677  0.5357  1.3484
 8206SOL    HW236252   4.076   4.375   7.122  2.2747  0.0687  1.2697
 8207SOL     OW36253   3.600   0.120   5.382  0.1677 -0.2463  0.0274
 8207SOL    HW136254   3.520   0.153   5.422  0.4974  2.3567 -1.4447
 8207SOL    HW236255   3.637   0.200   5.346  1.8139 -0.8020  0.4547
 8208SOL     OW36256   1.424   1.279  11.585  0.0737  0.1379 -0.0058
 8208SOL    HW136257   1.367   1.260  11.659  1.6773 -1.0100  0.9211
 8208SOL    HW236258   1.364   1.319  11.521 -0.9369 -0.1050  0.7835
 8209SOL     OW36259   0.549   4.651  12.562  0.0402  0.3725  0.3944
 8209SOL    HW136260   0.467   4.609  12.588 -1.0768  2.7913  0.8034
 8209SOL    HW236261   0.533   4.731  12.612 -1.2735  1.0368 -1.1169
 8210SOL     OW36262   2.556   0.431   0.449 -0.0859  0.0973  0.7282
 8210SOL    HW136263   2.599   0.356   0.407 -0.3751 -0.6273  1.7201
 8210SOL    HW236264   2.559   0.408   0.542  0.2132  1.0909  0.9611
 8211SOL     OW36265   0.448   4.573   5.299 -0.3103 -0.5030 -0.0595
 8211SOL    HW136266   0.387   4.594   5.370  0.5669 -0.7102  0.7507
 8211SOL    HW236267   0.384   4.535   5.239  0.3010 -0.5080 -0.7076
 8212SOL     OW36268   2.559   3.493  14.403 -0.2399 -0.4194 -0.1031
 8212SOL    HW136269   2.597   3.437  14.470 -1.9291 -2.4445 -0.8456
 8212SOL    HW236270   2.577   3.442  14.324 -0.2363  0.2742 -0.5543
 8213SOL     OW36271   1.359   1.137   3.830  0.3538  0.6524  0.2942
 8213SOL    HW136272   1.405   1.145   3.914  0.8469 -1.1868  0.1850
 8213SOL    HW236273   1.433   1.126   3.770 -0.2904 -1.5413 -0.0905
 8214SOL     OW36274   3.620   0.155   4.427  0.4913  0.9421 -0.0853
 8214SOL    HW136275   3.615   0.175   4.333  2.3407 -0.5675 -0.4933
 8214SOL    HW236276   3.531   0.130   4.453 -0.0077  2.8082  0.0383
 8215SOL     OW36277   1.463   4.119   8.932 -0.2332  0.2094 -0.3270
 8215SOL    HW136278   1.449   4.038   8.981 -1.4610  0.3458 -0.4578
 8215SOL    HW236279   1.471   4.090   8.841  2.0617 -0.5090  0.0910
 8216SOL     OW36280   4.237   1.344  16.623 -0.1961 -0.1316  0.3090
 8216SOL    HW136281   4.211   1.365  16.712  2.0388  1.8830  0.4913
 8216SOL    HW236282   4.174   1.382  16.561 -0.5058 -0.4425  0.4354
 8217SOL     OW36283   2.438   0.709   8.494 -0.6384  0.3737 -0.6329
 8217SOL    HW136284   2.504   0.764   8.453  1.3674 -1.1482  0.5884
 8217SOL    HW236285   2.479   0.625   8.472  3.5945  2.8013 -1.9811
 8218SOL     OW36286   2.645   2.690  16.432 -0.2818 -0.1740 -0.3336
 8218SOL    HW136287   2.741   2.683  16.430 -0.4290 -3.0421  2.7097
 8218SOL    HW236288   2.629   2.754  16.363 -1.8117 -0.5360 -0.3077
 8219SOL     OW36289   4.726   1.199   7.337 -0.4255  0.3824  0.7096
 8219SOL    HW136290   4.722   1.126   7.275  0.5486 -0.2012  1.3346
 8219SOL    HW236291   4.635   1.213   7.363 -0.9241 -0.8888 -0.3823
 8220SOL     OW36292   1.257   4.289  16.994 -0.1144  0.3938 -0.3333
 8220SOL    HW136293   1.203   4.313  16.918 -0.1503 -0.6154 -0.6280
 8220SOL    HW236294   1.193   4.275  17.065  1.1092  0.9979  0.9002
 8221SOL     OW36295   3.412   4.607   4.284  0.3251  0.0668 -0.4853
 8221SOL    HW136296   3.380   4.595   4.373  0.7686 -0.8335 -0.4503
 8221SOL    HW236297   3.331   4.642   4.247  0.1058  1.9518  1.7708
 8222SOL     OW36298   1.022   0.394   9.556 -0.1804  0.2065 -0.3291
 8222SOL    HW136299   0.956   0.374   9.623 -1.5950 -0.3538 -1.8864
 8222SOL    HW236300   1.056   0.307   9.535 -1.7878 -1.1352  2.5751
 8223SOL     OW36301   1.081   2.083   9.122 -0.1312 -0.5194  0.1883
 8223SOL    HW136302   1.090   2.087   9.027  0.9695 -1.5024  0.2598
 8223SOL    HW236303   0.987   2.065   9.129 -0.0843 -0.3402  1.3294
 8224SOL     OW36304   1.993   3.473  16.824 -0.0416 -0.3342 -0.6160
 8224SOL    HW136305   1.921   3.431  16.776 -0.1722 -0.4511 -0.3158
 8224SOL    HW236306   1.958   3.563  16.824 -0.1223 -0.3597 -1.7715
 8225SOL     OW36307   0.732   3.519   8.881 -0.1601 -0.4178  0.1367
 8225SOL    HW136308   0.765   3.522   8.791 -1.7456 -2.5684 -0.5177
 8225SOL    HW236309   0.808   3.472   8.916  0.1038 -0.5745 -0.6358
 8226SOL     OW36310   1.398   1.317  17.523 -0.1173 -0.3632  0.0868
 8226SOL    HW136311   1.321   1.300  17.470 -0.0432  1.0854 -0.4790
 8226SOL    HW236312   1.430   1.404  17.497 -1.9989  0.3813  0.2419
 8227SOL     OW36313   1.766   2.593  13.543 -0.3339  0.2645  0.2636
 8227SOL    HW136314   1.733   2.558  13.626  0.6167 -1.9341 -0.2999
 8227SOL    HW236315   1.710   2.548  13.480 -0.1929 -0.1720  0.4529
 8228SOL     OW36316   2.922   1.252   4.022  0.2648 -0.2059  0.0948
 8228SOL    HW136317   2.937   1.323   3.959  0.3484  0.1420  0.4999
 8228SOL    HW236318   2.995   1.194   4.002  0.1750 -0.4284  0.4117
 8229SOL     OW36319   1.591   0.901   5.227 -0.0458  0.0001 -0.5137
 8229SOL    HW136320   1.641   0.979   5.202 -0.5329  0.1316 -1.1021
 8229SOL    HW236321   1.659   0.842   5.259 -1.2738 -1.3030 -0.2920
 8230SOL     OW36322   4.296   3.148   3.771 -0.0847  0.1104 -0.1447
 8230SOL    HW136323   4.365   3.214   3.783  0.4012 -0.1688 -1.3722
 8230SOL    HW236324   4.283   3.156   3.677 -0.2322  1.0254 -0.0462
 8231SOL     OW36325   1.644   0.797   2.082  0.2138 -0.4408  0.0970
 8231SOL    HW136326   1.632   0.891   2.084  0.6027 -0.3689 -0.9024
 8231SOL    HW236327   1.578   0.777   2.148  0.2383 -0.9820 -0.0417
 8232SOL     OW36328   0.882   0.508  11.888  0.0261 -0.7135  0.0632
 8232SOL    HW136329   0.904   0.472  11.975  0.4325 -1.7895 -0.4809
 8232SOL    HW236330   0.829   0.437  11.853 -1.1744  1.2432 -2.0930
 8233SOL     OW36331   2.797   1.115  12.914 -0.2269  0.0140 -0.0016
 8233SOL    HW136332   2.733   1.077  12.854  0.1157 -0.2364 -0.2128
 8233SOL    HW236333   2.752   1.084  12.992  0.8682 -3.7262 -0.8418
 8234SOL     OW36334   1.663   2.289   8.802 -0.1459  0.2322  0.1071
 8234SOL    HW136335   1.738   2.233   8.783 -1.4759 -0.7087 -2.3522
 8234SOL    HW236336   1.673   2.271   8.895  0.2054  0.7397  0.1683
 8235SOL     OW36337   3.269   0.710   3.050 -0.1778  0.6081 -0.1391
 8235SOL    HW136338   3.276   0.745   2.962 -0.3398 -1.3230 -0.9273
 8235SOL    HW236339   3.192   0.653   3.044 -0.9819  1.9042 -2.0486
 8236SOL     OW36340   2.573   1.391   2.500 -0.3850  0.1832  0.1525
 8236SOL    HW136341   2.515   1.464   2.478 -0.8679 -0.9035 -2.1469
 8236SOL    HW236342   2.532   1.323   2.554 -0.7563  2.2316  2.4843
 8237SOL     OW36343   1.715   1.132   3.730  0.0683  0.4771 -0.3501
 8237SOL    HW136344   1.683   1.050   3.693  0.7751 -0.4440  1.0887
 8237SOL    HW236345   1.809   1.117   3.732  0.1842  1.3719  0.8329
 8238SOL     OW36346   3.727   2.055   7.255  0.1303  0.3689  0.0219
 8238SOL    HW136347   3.807   2.017   7.220  0.7631 -0.4301  2.4049
 8238SOL    HW236348   3.676   2.078   7.176 -1.0920 -1.2781  0.3368
 8239SOL     OW36349   4.382   1.859   5.366  0.1037 -0.2780 -0.2630
 8239SOL    HW136350   4.401   1.767   5.348  0.7304 -0.4719  1.4301
 8239SOL    HW236351   4.329   1.884   5.290  1.5474 -0.3727 -1.2989
 8240SOL     OW36352   2.597   2.506  17.287  0.1995 -0.0207 -0.1400
 8240SOL    HW136353   2.629   2.583  17.335 -1.3802  0.4438  0.1534
 8240SOL    HW236354   2.504   2.517  17.305  0.0024  0.7264 -1.6617
 8241SOL     OW36355   0.714   0.661   2.838 -0.2158 -0.1544  0.0639
 8241SOL    HW136356   0.782   0.616   2.888  0.8733  0.1372 -1.1532
 8241SOL    HW236357   0.701   0.597   2.769  0.1230  1.5880 -1.6242
 8242SOL     OW36358   2.681   4.392   7.490 -0.2724 -0.0029  0.2941
 8242SOL    HW136359   2.763   4.423   7.528  0.5100 -0.7058 -0.8143
 8242SOL    HW236360   2.657   4.467   7.436 -2.1395 -0.0871  0.9949
 8243SOL     OW36361   4.094   1.376   9.755  0.2358 -0.1048 -0.3461
 8243SOL    HW136362   4.112   1.443   9.820  0.2243 -0.5124  0.0706
 8243SOL    HW236363   4.124   1.418   9.674  1.4232 -1.4988 -0.6062
 8244SOL     OW36364   1.771   0.322   5.686  0.0147 -0.3709  0.1321
 8244SOL    HW136365   1.768   0.269   5.606  1.9478  1.1562 -0.9472
 8244SOL    HW236366   1.680   0.349   5.694 -0.6276 -2.9202  1.4944
 8245SOL     OW36367   4.701   4.185   9.090  0.5106 -0.4855 -0.5402
 8245SOL    HW136368   0.043   4.241   9.076  2.1535 -3.0344 -1.6885
 8245SOL    HW236369   0.012   4.130   9.153  0.8754  0.7194  0.2376
 8246SOL     OW36370   0.916   2.819  15.396 -0.1186  0.0397  0.0576
 8246SOL    HW136371   0.902   2.770  15.315 -0.8713  2.2041 -1.1291
 8246SOL    HW236372   0.829   2.852  15.419 -1.3076 -2.2852 -1.1117
 8247SOL     OW36373   0.370   1.887   1.756  0.3277  0.1171  0.6711
 8247SOL    HW136374   0.382   1.939   1.677  1.9368  1.6910  1.9529
 8247SOL    HW236375   0.458   1.878   1.792  0.0644  0.7926  1.4716
 8248SOL     OW36376   0.874   0.093   4.506 -0.0541  0.0401 -0.0134
 8248SOL    HW136377   0.899   0.098   4.414 -1.3151 -1.1488 -0.4217
 8248SOL    HW236378   0.828   0.176   4.523  0.6292  0.3639  0.2339
 8249SOL     OW36379   4.070   3.768  16.351 -0.2323 -0.1313 -0.0956
 8249SOL    HW136380   4.039   3.689  16.307  0.2136 -1.1634  1.4332
 8249SOL    HW236381   4.055   3.752  16.444  1.3046 -1.0193 -0.0134
 8250SOL     OW36382   2.497   2.968   5.857 -0.5324 -0.6483 -0.2924
 8250SOL    HW136383   2.469   3.055   5.830 -0.8178 -0.5616  0.2755
 8250SOL    HW236384   2.429   2.952   5.922 -1.3816  0.3780 -0.9214
 8251SOL     OW36385   2.150   2.523   1.797 -0.0276 -0.0420 -0.0147
 8251SOL    HW136386   2.156   2.600   1.854 -0.7221 -1.1648  1.5777
 8251SOL    HW236387   2.225   2.468   1.818  0.7099  0.8441 -0.3084
 8252SOL     OW36388   2.189   3.966   2.126  0.1519 -0.2372 -0.7727
 8252SOL    HW136389   2.195   3.877   2.091  0.3545 -0.0530 -1.2111
 8252SOL    HW236390   2.095   3.979   2.120  0.1142  0.3498  0.9646
 8253SOL     OW36391   3.856   2.929   7.523 -0.0000  0.9491 -0.0968
 8253SOL    HW136392   3.816   3.003   7.567 -0.5601  1.7258 -1.9268
 8253SOL    HW236393   3.880   2.971   7.441  0.2631  0.2673 -0.3663
 8254SOL     OW36394   3.955   1.166   6.118  0.0672 -0.1805  0.1402
 8254SOL    HW136395   4.003   1.187   6.037 -0.7325 -1.0673 -0.5681
 8254SOL    HW236396   4.014   1.099   6.152 -0.3277  0.3902  1.9134
 8255SOL     OW36397   4.664   2.206   6.913  0.2745 -0.4948  0.1567
 8255SOL    HW136398   4.656   2.113   6.932  0.0348 -0.2028  1.5041
 8255SOL    HW236399   4.579   2.226   6.873  0.5811  1.0058  0.2379
 8256SOL     OW36400   3.472   3.602   4.056 -0.3931  0.3734  0.0167
 8256SOL    HW136401   3.533   3.539   4.096 -1.8522 -0.7173  0.5309
 8256SOL    HW236402   3.396   3.605   4.113 -1.2093  0.8768 -1.0955
 8257SOL     OW36403   0.990   1.113  12.860 -0.3204 -0.3449 -0.1391
 8257SOL    HW136404   1.082   1.138  12.855 -1.1018  2.6622  0.2093
 8257SOL    HW236405   0.970   1.137  12.951 -1.8309 -1.7853 -0.0993
 8258SOL     OW36406   0.593   2.164   3.426 -0.3559  0.3746  0.1419
 8258SOL    HW136407   0.502   2.155   3.399  0.4979 -3.0468 -1.5933
 8258SOL    HW236408   0.632   2.170   3.339 -0.2842 -1.0147  0.0765
 8259SOL     OW36409   2.117   4.558  10.329  0.7508  0.9731  0.2989
 8259SOL    HW136410   2.182   4.526  10.392  0.6273 -0.1511 -0.1366
 8259SOL    HW236411   2.060   4.482  10.336  1.7665  0.2340  0.5708
 8260SOL     OW36412   0.478   4.436   9.285 -0.8599  0.0949  0.4904
 8260SOL    HW136413   0.536   4.504   9.250 -0.5166 -1.5847 -2.1956
 8260SOL    HW236414   0.402   4.494   9.290 -0.1199  1.1529 -0.3904
 8261SOL     OW36415   2.248   2.424  14.553  0.0610 -0.0607 -0.3166
 8261SOL    HW136416   2.300   2.499  14.522 -3.2012  2.0308 -0.7324
 8261SOL    HW236417   2.248   2.358  14.484  1.2303 -1.2991  0.8928
 8262SOL     OW36418   2.222   0.345   0.517 -0.3487  0.0194 -0.7945
 8262SOL    HW136419   2.156   0.309   0.576 -1.5868  1.4766 -1.2762
 8262SOL    HW236420   2.275   0.266   0.503  3.3267  2.5138 -1.0654
 8263SOL     OW36421   1.518   3.237  16.885  0.0912 -0.2161 -0.3455
 8263SOL    HW136422   1.575   3.193  16.948 -0.1504 -0.1617 -0.0885
 8263SOL    HW236423   1.428   3.222  16.914  0.5780  1.6875  2.2266
 8264SOL     OW36424   0.226   2.943  10.152  0.6971  0.5982  0.1833
 8264SOL    HW136425   0.142   2.987  10.140  1.1985  1.1597 -1.2436
 8264SOL    HW236426   0.273   2.995  10.087  1.8649  0.9506  1.3007
 8265SOL     OW36427   4.353   0.966   1.904  0.1497  0.0543 -0.4767
 8265SOL    HW136428   4.336   0.959   1.998  1.3405 -0.5435 -0.3099
 8265SOL    HW236429   4.299   0.892   1.877 -0.1552  0.0980  0.0146
 8266SOL     OW36430   3.955   1.625  11.347  0.6339  0.0037  0.0066
 8266SOL    HW136431   3.923   1.716  11.348 -0.5654 -0.4360  2.2918
 8266SOL    HW236432   4.048   1.638  11.331  0.6278 -0.2100 -0.2048
 8267SOL     OW36433   2.319   1.944   7.569 -0.6844  0.5148  0.0600
 8267SOL    HW136434   2.226   1.925   7.562 -0.5908 -0.5757  1.9074
 8267SOL    HW236435   2.340   1.885   7.641  0.0357 -0.3002 -0.8125
 8268SOL     OW36436   3.186   4.168   2.473 -0.5144  0.2203 -0.4241
 8268SOL    HW136437   3.277   4.139   2.480  0.0031  1.7528 -0.8453
 8268SOL    HW236438   3.185   4.241   2.535 -2.3743  0.2284 -0.4683
 8269SOL     OW36439   0.560   3.878   5.716 -0.2196 -0.1464 -0.5887
 8269SOL    HW136440   0.618   3.820   5.668 -0.6330  0.2908 -1.6203
 8269SOL    HW236441   0.585   3.848   5.804  1.0462 -1.6826 -1.4860
 8270SOL     OW36442   3.290   1.252   3.663  0.2308  0.2212 -0.2699
 8270SOL    HW136443   3.290   1.171   3.612  1.1312 -0.2717  0.5152
 8270SOL    HW236444   3.372   1.292   3.633  1.7700 -0.5653  2.9676
 8271SOL     OW36445   2.452   1.662  14.957  0.4636  0.0664  0.3196
 8271SOL    HW136446   2.531   1.688  15.004  0.1133  1.2782  0.2305
 8271SOL    HW236447   2.426   1.591  15.016 -1.6406  0.2133 -0.4239
 8272SOL     OW36448   1.711   0.717   3.050  0.2034  0.0526  0.0265
 8272SOL    HW136449   1.646   0.716   2.980  1.8481 -1.4729 -1.5105
 8272SOL    HW236450   1.734   0.624   3.060 -0.8362 -0.2081 -0.0280
 8273SOL     OW36451   0.364   4.487   2.645  0.5683  0.0964  0.0851
 8273SOL    HW136452   0.342   4.498   2.738  1.7831  1.1234  0.2507
 8273SOL    HW236453   0.378   4.392   2.636 -1.1524  0.0630 -2.0890
 8274SOL     OW36454   1.513   1.588  13.555 -0.0634 -0.3694 -0.2153
 8274SOL    HW136455   1.504   1.675  13.595  0.8287 -0.6773  0.6583
 8274SOL    HW236456   1.540   1.534  13.630  0.4218 -0.1617 -0.2413
 8275SOL     OW36457   1.164   3.725   5.974  0.1651  0.0658  0.0811
 8275SOL    HW136458   1.213   3.804   5.995  1.7134 -1.5175  2.3922
 8275SOL    HW236459   1.234   3.661   5.981 -0.2013 -0.4202 -0.6665
 8276SOL     OW36460   2.242   1.635   2.731  0.0564  0.1911 -0.6707
 8276SOL    HW136461   2.295   1.556   2.732 -1.7266 -1.0188 -0.8674
 8276SOL    HW236462   2.166   1.606   2.680 -0.0689 -0.8791  0.1256
 8277SOL     OW36463   4.029   2.709   9.002 -0.3403  0.1667 -0.4169
 8277SOL    HW136464   4.084   2.762   9.059 -0.8698  0.1695  0.0904
 8277SOL    HW236465   4.038   2.619   9.031 -0.5864 -0.4472 -2.2353
 8278SOL     OW36466   3.679   1.606  11.521 -0.2675  0.2618  0.1418
 8278SOL    HW136467   3.628   1.553  11.461  0.8627  0.2641 -0.8340
 8278SOL    HW236468   3.754   1.635  11.469 -0.0180 -0.1429  0.2732
 8279SOL     OW36469   1.333   3.330   5.404 -0.2327 -0.2599  0.7464
 8279SOL    HW136470   1.309   3.317   5.312 -1.6245  2.2489  0.7607
 8279SOL    HW236471   1.248   3.305   5.442 -1.1213  1.2367 -0.2867
 8280SOL     OW36472   2.854   1.146   9.136  0.1905 -0.5508 -0.6959
 8280SOL    HW136473   2.793   1.220   9.130 -0.7067 -1.1785  0.6607
 8280SOL    HW236474   2.916   1.164   9.065  1.9119  1.1437  1.2262
 8281SOL     OW36475   2.320   0.917  15.810 -0.1257  0.1720  0.4227
 8281SOL    HW136476   2.373   0.944  15.886  1.1546 -2.0908  0.3499
 8281SOL    HW236477   2.251   0.880  15.865 -0.4071  1.1313  0.7122
 8282SOL     OW36478   0.063   0.849   6.292 -0.3867 -0.0006 -0.0094
 8282SOL    HW136479   0.102   0.812   6.371  1.5012 -0.4608 -1.1667
 8282SOL    HW236480   0.116   0.810   6.223 -1.2708  1.1952 -1.3619
 8283SOL     OW36481   1.487   2.632   9.639  0.1653 -0.0845 -0.1475
 8283SOL    HW136482   1.398   2.667   9.643  0.5747  0.9547 -0.2901
 8283SOL    HW236483   1.540   2.699   9.680 -1.8084  1.0859  0.4794
 8284SOL     OW36484   3.604   1.794  11.131  0.3851  0.3853 -0.5359
 8284SOL    HW136485   3.622   1.700  11.127 -0.1032  0.3683 -2.3050
 8284SOL    HW236486   3.508   1.793  11.126  0.3584 -0.9891  0.2524
 8285SOL     OW36487   2.097   0.067   8.451  0.2664  0.5387  0.0942
 8285SOL    HW136488   2.159   0.131   8.417  1.4998  0.0138  1.3515
 8285SOL    HW236489   2.050   0.108   8.523  1.8357  1.1780  0.7556
 8286SOL     OW36490   3.266   2.677  16.624  0.1154  0.1983 -0.1077
 8286SOL    HW136491   3.178   2.650  16.649  0.3549  0.5117  1.0469
 8286SOL    HW236492   3.253   2.766  16.590 -1.1585 -0.9421 -2.6244
 8287SOL     OW36493   2.503   3.511  12.441 -0.1485 -0.1536  0.3939
 8287SOL    HW136494   2.452   3.432  12.455  0.0572 -0.4485 -0.4731
 8287SOL    HW236495   2.454   3.584  12.478  0.2990  1.0542 -1.3627
 8288SOL     OW36496   0.372   4.263   0.046 -0.2263 -0.8156 -0.1424
 8288SOL    HW136497   0.371   4.190   0.108  0.0312  1.3979  2.4542
 8288SOL    HW236498   0.462   4.258   0.013 -0.3527 -0.3435 -0.5640
 8289SOL     OW36499   3.240   0.973   1.926  0.1025 -0.0569 -0.3797
 8289SOL    HW136500   3.162   0.987   1.872  0.8450  0.4425 -1.3068
 8289SOL    HW236501   3.253   0.883   1.895  1.2751  0.4442 -1.3293
 8290SOL     OW36502   2.122   2.949   5.577 -0.4609 -0.1252 -0.3707
 8290SOL    HW136503   2.143   3.043   5.581  0.2359 -0.2026 -2.3170
 8290SOL    HW236504   2.046   2.948   5.519  0.6517 -1.5780 -1.7754
 8291SOL     OW36505   2.057   3.796  12.730  0.2978  0.3755 -0.5437
 8291SOL    HW136506   2.075   3.803  12.637 -2.3272  1.9957 -0.9175
 8291SOL    HW236507   2.090   3.709  12.754  0.5280  0.7151  0.3832
 8292SOL     OW36508   3.901   3.915  12.773  0.2774 -0.1499  0.3515
 8292SOL    HW136509   3.932   3.909  12.683 -0.9795 -0.7749 -0.0405
 8292SOL    HW236510   3.946   3.842  12.817 -0.7424  0.0787  1.7978
 8293SOL     OW36511   2.825   3.975   0.210  0.4233 -0.3674  0.3181
 8293SOL    HW136512   2.748   3.963   0.267  0.8312  0.5151  1.0711
 8293SOL    HW236513   2.860   3.887   0.225  0.2192 -0.2791  1.3163
 8294SOL     OW36514   0.423   4.302   7.983  0.3681 -0.8660  0.2264
 8294SOL    HW136515   0.433   4.299   7.887  0.0648  2.4596  0.0913
 8294SOL    HW236516   0.499   4.348   8.018  1.8340 -1.4980 -2.1044
 8295SOL     OW36517   3.772   1.287   8.785  0.3049 -0.2981  0.0512
 8295SOL    HW136518   3.750   1.241   8.704 -1.4456 -0.5802  0.6946
 8295SOL    HW236519   3.687   1.330   8.795  1.6865  2.5291 -0.2272
 8296SOL     OW36520   1.959   0.373  12.595 -0.4141  0.1696  0.0507
 8296SOL    HW136521   1.892   0.441  12.591  0.3410  1.0598  2.5633
 8296SOL    HW236522   1.930   0.320  12.521  2.3362  0.4787 -1.2431
 8297SOL     OW36523   1.053   2.778   2.541 -0.2281  0.1062 -0.6091
 8297SOL    HW136524   1.090   2.692   2.523  0.3724  0.4142 -0.8397
 8297SOL    HW236525   1.011   2.772   2.627 -0.6309 -1.6715 -0.9373
 8298SOL     OW36526   1.345   0.148  16.620  0.2429  0.1510 -0.4098
 8298SOL    HW136527   1.438   0.153  16.642 -0.7656  0.7129  3.6209
 8298SOL    HW236528   1.321   0.063  16.656  0.6835  0.2325  0.0765
 8299SOL     OW36529   2.851   2.731  11.933 -0.0581  0.2773 -0.0604
 8299SOL    HW136530   2.929   2.702  11.979 -0.3138  1.9755  1.4811
 8299SOL    HW236531   2.870   2.709  11.842 -1.2849 -0.8194 -0.0606
 8300SOL     OW36532   1.787   4.064   3.610  0.0871  0.3545  0.0030
 8300SOL    HW136533   1.730   4.128   3.653  1.6954  1.8595 -0.1225
 8300SOL    HW236534   1.728   4.016   3.552  1.3901 -0.2805 -0.7890
 8301SOL     OW36535   3.960   2.430   9.338  0.1773  0.3706  0.4913
 8301SOL    HW136536   4.003   2.424   9.252 -0.7253 -2.9811  0.2698
 8301SOL    HW236537   4.038   2.426   9.393  1.1076  2.0699 -0.6969
 8302SOL     OW36538   1.932   2.589  16.693 -0.0911 -0.4457 -0.1263
 8302SOL    HW136539   1.913   2.498  16.671 -1.6754 -0.4987  1.4083
 8302SOL    HW236540   2.024   2.572  16.711 -0.2062  2.7919  3.5120
 8303SOL     OW36541   2.055   3.336   3.479 -0.7937 -0.1429 -0.4474
 8303SOL    HW136542   2.034   3.271   3.411 -0.7190 -1.4366  0.7777
 8303SOL    HW236543   2.000   3.309   3.552  1.5760 -0.2591  1.2654
 8304SOL     OW36544   1.534   1.293   8.099 -0.0024 -0.4420 -0.2140
 8304SOL    HW136545   1.597   1.221   8.093  1.5284  1.0275 -1.5963
 8304SOL    HW236546   1.449   1.249   8.092 -0.0388 -0.1224 -1.6123
 8305SOL     OW36547   0.348   2.958   0.710  0.1049 -0.4955 -0.2361
 8305SOL    HW136548   0.421   2.998   0.758 -1.6001 -0.1893  2.1079
 8305SOL    HW236549   0.328   3.021   0.641  0.7400 -1.8334 -1.6365
 8306SOL     OW36550   3.151   2.208  16.091 -0.0106 -0.0674 -0.1531
 8306SOL    HW136551   3.182   2.168  16.172  0.5391 -1.1249 -0.8885
 8306SOL    HW236552   3.097   2.142  16.047  0.5856  0.7637 -2.1488
 8307SOL     OW36553   4.123   1.789   5.751  0.3255  0.2815  0.4529
 8307SOL    HW136554   4.103   1.767   5.659 -0.2655  3.2423 -0.1331
 8307SOL    HW236555   4.032   1.799   5.779  0.8765  1.5849  1.7646
 8308SOL     OW36556   3.096   1.138  12.806 -0.5969  0.7246 -0.1759
 8308SOL    HW136557   3.092   1.216  12.751 -1.1484 -0.7609 -2.2602
 8308SOL    HW236558   3.002   1.133  12.822 -0.5916  1.8907  0.1944
 8309SOL     OW36559   1.750   4.393   5.298  0.0594  0.5256 -0.2017
 8309SOL    HW136560   1.813   4.445   5.248  0.0717  1.0220  0.3357
 8309SOL    HW236561   1.756   4.307   5.257 -3.4320  0.3980 -0.4102
 8310SOL     OW36562   4.661   1.965   1.552 -0.0534  0.3800 -0.1964
 8310SOL    HW136563   4.576   1.951   1.510 -0.3789 -1.3038  1.0427
 8310SOL    HW236564   4.636   2.022   1.625  1.0042 -1.0337  1.2699
 8311SOL     OW36565   1.173   4.701   2.943  0.5493  0.0763  0.3708
 8311SOL    HW136566   1.215   4.618   2.921 -0.4987  0.5706 -3.5144
 8311SOL    HW236567   1.190   4.713   3.036  0.7519  0.2333  0.3135
 8312SOL     OW36568   4.053   1.901   4.512  0.1759 -0.5255 -0.4831
 8312SOL    HW136569   4.034   1.982   4.465 -0.1321  1.2440  2.7157
 8312SOL    HW236570   4.109   1.853   4.450  0.9479  0.6281 -0.6658
 8313SOL     OW36571   2.659   2.584   4.390  0.4724  0.0616  0.0337
 8313SOL    HW136572   2.709   2.627   4.321 -0.5674  2.6911  0.9455
 8313SOL    HW236573   2.670   2.654   4.454 -0.4856  1.3362 -1.2177
 8314SOL     OW36574   4.629   0.154   9.240 -0.0110  0.1787 -0.1474
 8314SOL    HW136575   4.564   0.188   9.302  1.1994  2.7574 -0.2687
 8314SOL    HW236576   4.622   0.209   9.162  1.0455  1.1072  0.3931
 8315SOL     OW36577   3.881   3.539  10.649  0.0993  0.3431  0.6197
 8315SOL    HW136578   3.813   3.487  10.691 -0.9220  1.4774  0.3506
 8315SOL    HW236579   3.955   3.514  10.705 -1.9006 -0.5228  2.9051
 8316SOL     OW36580   4.576   0.569   5.428  0.1821  0.2408  0.0439
 8316SOL    HW136581   4.561   0.663   5.442 -5.1673 -0.4113 -1.3301
 8316SOL    HW236582   4.492   0.534   5.398 -0.5032  1.7636  0.1731
 8317SOL     OW36583   4.729   3.537   3.114 -0.4092  0.3088 -0.4440
 8317SOL    HW136584   0.050   3.465   3.086  2.6487  2.3874  0.3086
 8317SOL    HW236585   4.700   3.563   3.027  0.5599  1.4029 -0.4454
 8318SOL     OW36586   2.119   1.413   7.156  0.2762 -0.3969  0.1515
 8318SOL    HW136587   2.074   1.359   7.091  0.3748  0.2772 -0.4811
 8318SOL    HW236588   2.176   1.344   7.192 -2.4006 -0.9107  3.4240
 8319SOL     OW36589   1.236   3.975  15.112 -0.6591 -0.5816 -0.5734
 8319SOL    HW136590   1.203   3.975  15.022  2.7249 -2.3204 -1.7964
 8319SOL    HW236591   1.217   4.067  15.132  3.2152  0.1785 -0.4027
 8320SOL     OW36592   0.087   1.973   2.132  0.1109  0.2716  0.0611
 8320SOL    HW136593   0.059   1.959   2.223 -0.8363  0.6801 -0.1616
 8320SOL    HW236594   0.003   2.004   2.098  0.6179  1.8241  0.1931
 8321SOL     OW36595   1.198   0.704   1.318 -0.1866 -0.5514  0.3473
 8321SOL    HW136596   1.135   0.763   1.359  0.0626 -1.4513  2.0628
 8321SOL    HW236597   1.159   0.687   1.233  0.0932  0.2219  0.0693
 8322SOL     OW36598   2.522   4.478   3.006 -0.5223  0.4077  0.2345
 8322SOL    HW136599   2.604   4.474   2.957 -0.6470  0.1763  0.0453
 8322SOL    HW236600   2.533   4.411   3.073  0.6336 -0.0082 -0.3780
 8323SOL     OW36601   3.101   4.365   2.031  0.4422 -0.1440 -0.5310
 8323SOL    HW136602   3.088   4.385   2.124 -1.5462  0.3054 -0.9032
 8323SOL    HW236603   3.194   4.388   2.026 -0.2984  3.1866  0.7615
 8324SOL     OW36604   0.606   0.841   3.907  0.5923  0.0240 -0.7903
 8324SOL    HW136605   0.601   0.822   4.001  0.1441  0.4172 -0.7315
 8324SOL    HW236606   0.697   0.832   3.879  0.7084 -1.4305  0.0480
 8325SOL     OW36607   1.695   1.717   0.488  0.2759 -0.3026 -0.4831
 8325SOL    HW136608   1.669   1.762   0.568  0.7068 -0.1890 -0.4091
 8325SOL    HW236609   1.716   1.790   0.430 -0.9666 -0.8074 -1.5832
 8326SOL     OW36610   0.314   2.318  11.969  0.2934  0.5734 -0.2202
 8326SOL    HW136611   0.319   2.288  12.060  1.2619 -2.5495 -1.2915
 8326SOL    HW236612   0.374   2.250  11.939  0.0018 -0.0662  0.6332
 8327SOL     OW36613   0.328   1.689   8.170  0.2040 -0.0412 -0.7460
 8327SOL    HW136614   0.241   1.682   8.209 -0.6412  1.5518 -2.3661
 8327SOL    HW236615   0.304   1.731   8.087 -2.5682  2.7642  1.4561
 8328SOL     OW36616   2.161   1.678   8.408  0.0732  0.0578  0.6257
 8328SOL    HW136617   2.219   1.683   8.484  2.1838  0.4476 -1.0108
 8328SOL    HW236618   2.081   1.664   8.458  0.8464 -1.3629  1.4499
 8329SOL     OW36619   2.353   3.609   4.722 -0.9603  0.5147  0.0873
 8329SOL    HW136620   2.328   3.701   4.708 -1.5860  0.1183 -1.3555
 8329SOL    HW236621   2.422   3.586   4.660 -0.1362  0.2331  1.1004
 8330SOL     OW36622   2.588   4.154   4.508  0.0064 -0.0861  0.6535
 8330SOL    HW136623   2.639   4.184   4.583 -0.8229  1.0554  0.7709
 8330SOL    HW236624   2.596   4.059   4.519 -1.3357 -0.1628  0.9292
 8331SOL     OW36625   2.849   2.157   3.774  0.8817  0.5512  0.4143
 8331SOL    HW136626   2.941   2.179   3.762  0.5382  0.5643 -2.1242
 8331SOL    HW236627   2.861   2.118   3.861  1.0199  0.9523  0.5766
 8332SOL     OW36628   2.627   3.741  12.647 -0.0519 -0.0107  0.0836
 8332SOL    HW136629   2.544   3.749  12.600 -0.1967  0.0080  0.3426
 8332SOL    HW236630   2.610   3.747  12.741  1.3670 -0.9222  0.3922
 8333SOL     OW36631   3.546   3.037   4.159  0.2994  0.3974  0.1967
 8333SOL    HW136632   3.548   3.102   4.089 -1.6793  1.2445  0.9428
 8333SOL    HW236633   3.628   2.989   4.144 -0.1990 -0.5718  0.5493
 8334SOL     OW36634   2.198   1.893   7.926 -0.1205 -0.1754 -0.2894
 8334SOL    HW136635   2.292   1.903   7.911 -0.0270 -0.4954  0.0715
 8334SOL    HW236636   2.187   1.911   8.020 -1.3707  0.6345 -0.5888
 8335SOL     OW36637   0.728   2.196   3.188  0.0733  0.0653 -0.0026
 8335SOL    HW136638   0.692   2.131   3.127 -1.2353  0.6835  0.0990
 8335SOL    HW236639   0.821   2.173   3.194  0.2915  0.8688 -0.3175
 8336SOL     OW36640   1.170   1.428   2.507 -0.0837  0.3700  0.1900
 8336SOL    HW136641   1.128   1.485   2.442 -0.1899  0.7485  0.5879
 8336SOL    HW236642   1.106   1.365   2.539 -0.2997  0.2660 -0.4343
 8337SOL     OW36643   0.798   1.504   4.761  0.3973 -0.4078 -0.1168
 8337SOL    HW136644   0.713   1.463   4.744  0.1295 -0.0519  0.3818
 8337SOL    HW236645   0.776   1.547   4.844  0.3463  2.0737 -1.4304
 8338SOL     OW36646   3.076   2.695   1.848 -0.0638 -0.4785 -0.5720
 8338SOL    HW136647   3.122   2.611   1.851 -1.2890 -1.0179  3.4596
 8338SOL    HW236648   3.153   2.752   1.851  0.9897 -1.9269  0.1473
 8339SOL     OW36649   1.598   1.452   1.503 -0.3542  0.0728  0.1404
 8339SOL    HW136650   1.578   1.541   1.472 -1.8421  0.6722  2.8717
 8339SOL    HW236651   1.610   1.452   1.598  2.6150 -1.1561 -0.2300
 8340SOL     OW36652   0.841   2.759   5.294 -0.4089 -1.1270 -0.2034
 8340SOL    HW136653   0.858   2.696   5.364  0.3766  0.8717  1.4049
 8340SOL    HW236654   0.929   2.789   5.269  0.1529 -2.2000  0.4939
 8341SOL     OW36655   1.552   0.350   4.354  0.4289 -0.0891 -0.6706
 8341SOL    HW136656   1.621   0.417   4.358  1.7957 -1.4706 -0.8603
 8341SOL    HW236657   1.494   0.395   4.293  1.6630  1.9103 -0.4046
 8342SOL     OW36658   4.536   4.012   3.656 -0.1470 -0.3440  0.4665
 8342SOL    HW136659   4.443   4.012   3.676  0.3265 -1.3680  2.6296
 8342SOL    HW236660   4.571   4.023   3.744  0.2544 -2.5222  0.5861
 8343SOL     OW36661   0.244   3.248  17.229 -0.2814 -0.1292 -0.1608
 8343SOL    HW136662   0.279   3.327  17.270 -0.5722 -0.4642  0.7494
 8343SOL    HW236663   0.289   3.235  17.146  1.7812 -1.5041  1.1630
 8344SOL     OW36664   0.623   2.586   4.306  0.7974  0.0777 -0.2620
 8344SOL    HW136665   0.558   2.643   4.348 -0.3527 -1.3696 -0.0653
 8344SOL    HW236666   0.630   2.632   4.223  0.6097  0.2557 -0.1815
 8345SOL     OW36667   0.405   2.178   3.661  0.1908  0.0308 -0.3942
 8345SOL    HW136668   0.416   2.232   3.584  0.7824  1.0469  0.4089
 8345SOL    HW236669   0.459   2.102   3.638  1.1432  0.4240  0.5733
 8346SOL     OW36670   3.145   2.391   2.577  0.1501 -0.2576 -0.1990
 8346SOL    HW136671   3.156   2.333   2.502  0.8828 -0.8014  0.3250
 8346SOL    HW236672   3.086   2.334   2.627  0.8696 -0.9888 -0.1807
 8347SOL     OW36673   0.415   0.530  13.020 -0.0962  0.1699  1.0431
 8347SOL    HW136674   0.381   0.488  12.941 -0.9354 -0.2617  1.6265
 8347SOL    HW236675   0.363   0.479  13.083 -1.9922  0.8421  0.0309
 8348SOL     OW36676   3.349   4.096   7.779 -0.6321 -0.4460  0.6593
 8348SOL    HW136677   3.263   4.120   7.746 -0.4535 -1.0820 -0.2852
 8348SOL    HW236678   3.314   4.031   7.840 -0.4389 -1.0426  0.1432
 8349SOL     OW36679   0.099   0.341  14.297 -0.2331  0.1469 -0.0329
 8349SOL    HW136680   0.023   0.285  14.313  0.1215  0.0880  1.4426
 8349SOL    HW236681   0.080   0.416  14.354 -1.6469 -1.8360  2.1326
 8350SOL     OW36682   2.826   2.116   4.883  0.5216  0.2711 -0.1835
 8350SOL    HW136683   2.871   2.117   4.799 -1.1472  0.5454 -1.0836
 8350SOL    HW236684   2.738   2.088   4.856  0.3333  1.4863 -0.8286
 8351SOL     OW36685   3.692   3.494   1.461 -0.1872 -0.6643 -0.0206
 8351SOL    HW136686   3.672   3.406   1.493  0.8534 -1.1226 -0.6258
 8351SOL    HW236687   3.787   3.509   1.466 -0.3624 -0.6257  2.9844
 8352SOL     OW36688   1.749   0.353   7.903 -0.1006  0.1501  0.2091
 8352SOL    HW136689   1.813   0.306   7.850  0.3115  2.2906 -1.2081
 8352SOL    HW236690   1.725   0.425   7.844 -2.6200 -0.6630  0.2407
 8353SOL     OW36691   1.536   3.600   4.814  0.1177  0.4807  0.2661
 8353SOL    HW136692   1.571   3.546   4.743  0.8427 -0.1789  1.1288
 8353SOL    HW236693   1.578   3.562   4.891 -0.9786  1.5081  1.3659
 8354SOL     OW36694   1.757   4.211   3.075 -0.4192 -0.0732  0.1031
 8354SOL    HW136695   1.768   4.124   3.114  2.3486 -0.3322 -1.3052
 8354SOL    HW236696   1.665   4.214   3.050 -0.2058  0.0459 -0.6593
 8355SOL     OW36697   2.654   3.279   5.489  0.1275 -0.0984 -0.2745
 8355SOL    HW136698   2.614   3.365   5.505 -1.1288 -0.5686 -0.9188
 8355SOL    HW236699   2.695   3.262   5.574  1.2847  0.3992 -0.7398
 8356SOL     OW36700   3.559   2.544  16.031 -1.1061  0.2069  0.7380
 8356SOL    HW136701   3.474   2.587  16.042 -0.5509  1.0099  1.9474
 8356SOL    HW236702   3.619   2.613  16.060 -0.3294 -0.8566  1.6509
 8357SOL     OW36703   1.285   1.475   6.902 -0.1339  0.2892  0.1180
 8357SOL    HW136704   1.268   1.431   6.986  2.0025 -0.6554  0.0326
 8357SOL    HW236705   1.376   1.501   6.911  0.0480  0.0101 -1.0130
 8358SOL     OW36706   2.562   4.623   4.953 -0.3614  0.1041  0.6721
 8358SOL    HW136707   2.649   4.649   4.983 -0.0769 -1.6266  1.3318
 8358SOL    HW236708   2.506   4.642   5.028 -1.1356  1.7073 -0.2989
 8359SOL     OW36709   2.083   3.241  15.996 -0.6907 -0.3763 -0.1932
 8359SOL    HW136710   2.098   3.177  15.927  1.3021  0.8631 -0.9260
 8359SOL    HW236711   2.057   3.321  15.952  0.2759 -0.0219 -0.1320
 8360SOL     OW36712   2.399   2.355   4.228  0.3369  0.2629 -0.4532
 8360SOL    HW136713   2.339   2.310   4.169 -0.1637  0.4925 -0.1187
 8360SOL    HW236714   2.397   2.443   4.190 -2.3408  0.4280  0.0741
 8361SOL     OW36715   2.094   3.538  17.651  0.1414 -0.1081 -0.3080
 8361SOL    HW136716   2.005   3.522  17.621 -0.9510  0.3015  2.6978
 8361SOL    HW236717   2.124   3.448  17.639  2.5807  0.7327 -0.6157
 8362SOL     OW36718   0.760   3.828   1.558  1.0465 -0.3433 -0.1175
 8362SOL    HW136719   0.822   3.762   1.527  0.5660 -1.0928  0.4991
 8362SOL    HW236720   0.727   3.774   1.630 -0.1773 -0.7995 -1.0058
 8363SOL     OW36721   1.122   4.090   7.264  0.1705  0.3645  0.0819
 8363SOL    HW136722   1.095   4.061   7.351 -0.4664 -0.5900 -0.4314
 8363SOL    HW236723   1.077   4.173   7.246 -1.0653 -0.1371  0.8376
 8364SOL     OW36724   2.648   2.798   7.676  0.3687  0.2941 -0.6118
 8364SOL    HW136725   2.690   2.804   7.590  1.5017  0.2090 -0.0636
 8364SOL    HW236726   2.654   2.888   7.705  2.5087  0.1434 -0.5858
 8365SOL     OW36727   4.687   2.221   9.561  0.4445  0.0170 -0.8296
 8365SOL    HW136728   4.601   2.234   9.603  0.3167 -0.4075 -0.9644
 8365SOL    HW236729   0.010   2.208   9.635 -0.3434  0.3088 -0.1592
 8366SOL     OW36730   1.407   1.281   4.667 -0.1785  0.0917 -0.4554
 8366SOL    HW136731   1.386   1.353   4.608  0.0767  1.0994  0.6837
 8366SOL    HW236732   1.405   1.327   4.751  3.3187 -0.8163  0.1264
 8367SOL     OW36733   2.289   1.217  16.119  0.0740  0.1267 -0.1249
 8367SOL    HW136734   2.251   1.275  16.185  0.0637  2.2557 -1.9630
 8367SOL    HW236735   2.350   1.277  16.075  0.4722  1.6092  2.4661
 8368SOL     OW36736   1.106   2.658   9.195 -0.5872  0.0817 -0.4942
 8368SOL    HW136737   1.045   2.691   9.129 -2.3351  0.5019  1.3771
 8368SOL    HW236738   1.141   2.580   9.149 -0.6729  0.2375 -0.8260
 8369SOL     OW36739   0.960   1.039  15.986 -0.2492  0.5153  0.1494
 8369SOL    HW136740   0.959   1.068  16.077  1.4814 -1.7302  0.9009
 8369SOL    HW236741   1.038   1.083  15.952  0.4461  0.2240  1.3618
 8370SOL     OW36742   1.687   2.325   7.921  0.5907  0.0024  0.0234
 8370SOL    HW136743   1.627   2.301   7.991  1.4962 -1.2339  0.3876
 8370SOL    HW236744   1.745   2.249   7.917  1.5218  0.6853  0.7851
 8371SOL     OW36745   0.154   2.732   9.213 -0.2600 -0.3065 -0.2326
 8371SOL    HW136746   0.159   2.824   9.238 -1.0192 -0.5015  0.6277
 8371SOL    HW236747   0.064   2.705   9.233  0.0566 -2.0041 -1.0474
 8372SOL     OW36748   4.361   1.874   0.667  0.0334  0.3587  0.2317
 8372SOL    HW136749   4.368   1.969   0.677 -0.6154  0.1892  2.3171
 8372SOL    HW236750   4.428   1.861   0.601 -1.6297 -0.7572 -1.2394
 8373SOL     OW36751   3.666   1.847   2.770 -0.0223 -0.3761 -0.3926
 8373SOL    HW136752   3.599   1.782   2.789  1.2544 -1.8627 -0.9321
 8373SOL    HW236753   3.624   1.932   2.784 -1.0971 -0.5575 -2.5996
 8374SOL     OW36754   2.247   2.141   1.904 -0.1735 -0.0379  0.0654
 8374SOL    HW136755   2.157   2.113   1.920 -0.6107  0.7068 -1.0375
 8374SOL    HW236756   2.256   2.094   1.821  0.0641  2.8827 -1.5656
 8375SOL     OW36757   2.227   3.051   2.703  1.0005 -0.0456 -0.1488
 8375SOL    HW136758   2.209   3.145   2.704 -1.3999 -0.5178  1.4971
 8375SOL    HW236759   2.301   3.044   2.642  1.1891  1.3900 -0.0799
 8376SOL     OW36760   2.452   0.237   7.909  0.0479 -0.0519  0.5737
 8376SOL    HW136761   2.531   0.261   7.957 -0.2352 -0.7275  1.3781
 8376SOL    HW236762   2.425   0.155   7.950  0.3453  0.3404  1.5448
 8377SOL     OW36763   1.076   0.110   6.224 -0.4088  0.2882  0.2208
 8377SOL    HW136764   1.145   0.044   6.234 -0.6996 -0.3786 -2.2339
 8377SOL    HW236765   1.037   0.109   6.311  0.3288 -0.4728  0.5529
 8378SOL     OW36766   0.486   3.250   6.887 -0.0238 -0.2184 -0.2800
 8378SOL    HW136767   0.566   3.244   6.940 -1.0365  0.8763  1.3533
 8378SOL    HW236768   0.427   3.185   6.925 -0.5042 -1.6654 -3.5175
 8379SOL     OW36769   4.468   4.203   7.164 -0.0941  0.3872  0.1469
 8379SOL    HW136770   4.387   4.183   7.211  0.5414 -3.0943 -0.2566
 8379SOL    HW236771   4.491   4.126   7.112 -0.6459  1.7692 -2.1397
 8380SOL     OW36772   1.006   2.099  17.647 -0.2239 -0.4140  0.0342
 8380SOL    HW136773   0.992   2.112   0.000  0.3654  1.5706 -0.1529
 8380SOL    HW236774   0.986   2.006  17.648 -0.7503 -0.3359 -3.2782
 8381SOL     OW36775   0.281   1.080   7.385  0.0391  0.6827  0.0937
 8381SOL    HW136776   0.246   0.997   7.417 -1.2522  0.7087 -1.2398
 8381SOL    HW236777   0.215   1.111   7.323 -1.4161 -0.1205  1.2228
 8382SOL     OW36778   3.805   1.887  12.959  0.7149 -0.6486 -0.0176
 8382SOL    HW136779   3.727   1.916  13.006 -0.5992 -0.0731 -2.5688
 8382SOL    HW236780   3.797   1.957  12.895 -1.0580  0.8694  1.8681
 8383SOL     OW36781   2.234   1.632  16.099  0.5780 -0.0579 -0.9605
 8383SOL    HW136782   2.313   1.674  16.066  1.2899 -0.8570 -0.2556
 8383SOL    HW236783   2.168   1.700  16.086 -0.1126 -0.5083  0.1567
 8384SOL     OW36784   1.351   1.412   2.177  0.6343  0.0392 -0.1441
 8384SOL    HW136785   1.437   1.376   2.198 -0.2465 -1.7215  0.4150
 8384SOL    HW236786   1.357   1.505   2.198 -0.7172  0.1558 -0.2759
 8385SOL     OW36787   0.229   2.769   7.962  0.4991  0.0501 -0.0075
 8385SOL    HW136788   0.225   2.835   7.893 -1.3346 -1.3177 -1.2147
 8385SOL    HW236789   0.210   2.685   7.920  1.4854 -0.5290  0.6952
 8386SOL     OW36790   4.241   0.859  10.311 -0.3159 -0.9016  0.0161
 8386SOL    HW136791   4.202   0.920  10.250  2.8721  2.4587  1.3157
 8386SOL    HW236792   4.327   0.853  10.270 -0.9469 -0.1466 -1.3890
 8387SOL     OW36793   2.305   0.779   8.706  0.2557  0.2259 -0.0175
 8387SOL    HW136794   2.353   0.757   8.626  0.9525 -0.8964  0.7013
 8387SOL    HW236795   2.239   0.833   8.662 -0.8961 -0.3837  0.9643
 8388SOL     OW36796   2.030   3.380   8.069 -0.6148  0.1891 -0.0858
 8388SOL    HW136797   1.958   3.338   8.116 -0.5539 -1.2905 -1.2942
 8388SOL    HW236798   1.979   3.449   8.027  2.6828  2.3488 -0.5714
 8389SOL     OW36799   3.999   1.059   6.521  0.6361  0.0261  0.5170
 8389SOL    HW136800   3.988   1.041   6.428  1.9792 -1.3401  0.6331
 8389SOL    HW236801   4.071   1.002   6.547  0.7827  0.1384  0.3576
 8390SOL     OW36802   4.692   1.928   8.660  0.0161  0.4891  0.1435
 8390SOL    HW136803   0.029   1.976   8.702 -0.3970  0.0754  1.3208
 8390SOL    HW236804   4.724   1.839   8.675  0.0722  0.6862  1.2107
 8391SOL     OW36805   3.946   4.131   5.629 -0.2023  0.4164  0.5281
 8391SOL    HW136806   3.857   4.159   5.608 -0.3062 -0.7431 -0.6134
 8391SOL    HW236807   3.982   4.197   5.570  2.2525 -1.1784  0.2605
 8392SOL     OW36808   1.903   0.542   5.595 -0.1096  0.3739 -0.0974
 8392SOL    HW136809   1.820   0.587   5.613 -2.0934 -1.4049 -4.7134
 8392SOL    HW236810   1.880   0.452   5.621 -0.5474  0.7101  0.6789
 8393SOL     OW36811   0.334   3.437   9.742 -0.3236  0.1979  0.0022
 8393SOL    HW136812   0.280   3.362   9.767  0.3827  0.1958  1.5366
 8393SOL    HW236813   0.385   3.411   9.666  0.5123  0.5986  0.4204
 8394SOL     OW36814   4.473   4.236   5.490 -0.1365 -0.4450 -0.0045
 8394SOL    HW136815   4.439   4.310   5.541 -0.4046 -1.2505  0.9947
 8394SOL    HW236816   4.444   4.260   5.402  1.0462  3.3330  0.6404
 8395SOL     OW36817   1.801   4.239   0.021  0.2110 -0.1368 -0.2739
 8395SOL    HW136818   1.727   4.290  17.727  0.6557  0.3590 -0.5020
 8395SOL    HW236819   1.871   4.300  17.735 -0.2934  1.4308  2.0300
 8396SOL     OW36820   4.017   1.530   7.445  0.3024 -1.1643  0.0573
 8396SOL    HW136821   4.007   1.456   7.385  1.7111 -0.3659 -1.1632
 8396SOL    HW236822   3.976   1.602   7.396  1.6394 -0.3634  0.1134
 8397SOL     OW36823   2.117   1.692   5.495 -0.2662 -1.0467  0.0500
 8397SOL    HW136824   2.081   1.780   5.481 -0.7317 -0.9927  1.5664
 8397SOL    HW236825   2.037   1.640   5.494 -0.7494 -0.3023 -0.3779
 8398SOL     OW36826   0.446   1.698   4.117 -0.6883  0.3582 -0.3291
 8398SOL    HW136827   0.451   1.788   4.086 -1.8128  0.0219 -1.5087
 8398SOL    HW236828   0.502   1.686   4.193  0.3980  0.7758 -1.0662
 8399SOL     OW36829   0.583   0.423  10.405  1.2937  0.4902 -0.9264
 8399SOL    HW136830   0.489   0.409  10.418  1.7175 -1.8216 -0.3087
 8399SOL    HW236831   0.607   0.367  10.479  0.2925  0.0471 -0.9399
 8400SOL     OW36832   4.478   3.893   6.680  0.0533 -0.8542 -0.4837
 8400SOL    HW136833   4.472   3.985   6.655 -1.5981 -0.7881  0.1708
 8400SOL    HW236834   4.543   3.855   6.621  2.1191  0.3032  1.0615
 8401SOL     OW36835   1.533   3.690   4.336  0.0938  0.0074 -0.5783
 8401SOL    HW136836   1.488   3.775   4.329  1.1506  0.4374 -2.0680
 8401SOL    HW236837   1.478   3.634   4.280  0.2946 -1.4055  0.6555
 8402SOL     OW36838   3.190   2.482   9.717 -0.3010 -0.2221  0.1438
 8402SOL    HW136839   3.138   2.536   9.777  0.3104 -0.3142  0.7642
 8402SOL    HW236840   3.257   2.449   9.777 -1.1842 -1.3593  0.5069
 8403SOL     OW36841   0.843   2.215   4.422 -0.1787  0.1433  0.3261
 8403SOL    HW136842   0.909   2.159   4.381 -0.2874  1.5568 -1.7698
 8403SOL    HW236843   0.858   2.210   4.516  1.4270  0.8268  0.0991
 8404SOL     OW36844   0.978   2.617  15.214  0.1477 -0.5153  0.3269
 8404SOL    HW136845   1.048   2.555  15.197  2.5591  1.8827  1.6037
 8404SOL    HW236846   0.904   2.563  15.242  0.0577 -0.3363  0.4368
 8405SOL     OW36847   4.528   0.121  10.159 -0.0357  0.4270 -0.3359
 8405SOL    HW136848   4.515   0.061  10.086  2.5525 -1.0685  0.4465
 8405SOL    HW236849   4.462   0.191  10.159 -0.4411  0.0099  3.0938
 8406SOL     OW36850   2.366   3.488  15.061 -0.3252  0.4096  0.4119
 8406SOL    HW136851   2.351   3.398  15.031  0.0568  1.3358 -2.5756
 8406SOL    HW236852   2.443   3.479  15.117 -1.0601  1.0745  1.5116
 8407SOL     OW36853   1.651   2.603   1.664 -0.1086 -0.7130 -0.6230
 8407SOL    HW136854   1.741   2.590   1.693 -0.1355 -0.9243 -0.6363
 8407SOL    HW236855   1.598   2.582   1.741  1.9070 -1.5151  0.5545
 8408SOL     OW36856   3.294   1.474  11.819 -0.5848  0.1534 -0.0959
 8408SOL    HW136857   3.279   1.566  11.798  1.3235  0.7118  0.9443
 8408SOL    HW236858   3.389   1.471  11.806 -0.7557 -2.2005 -0.8094
 8409SOL     OW36859   1.271   3.433   1.897  0.2317  0.3330 -0.0831
 8409SOL    HW136860   1.237   3.493   1.831  0.8849  1.8554  0.9859
 8409SOL    HW236861   1.203   3.366   1.909  0.0101  0.4696 -0.5692
 8410SOL     OW36862   2.605   2.511  16.080  0.1866  0.3100  0.8661
 8410SOL    HW136863   2.589   2.433  16.133 -1.4553  0.2964  0.3437
 8410SOL    HW236864   2.567   2.577  16.139 -0.0917 -0.5481  1.6561
 8411SOL     OW36865   3.025   3.127   8.794 -0.1114 -0.1965  0.2694
 8411SOL    HW136866   2.986   3.119   8.707 -1.1513  1.3394  0.5873
 8411SOL    HW236867   3.076   3.047   8.792  2.0795  1.1210  2.7340
 8412SOL     OW36868   2.899   2.840   1.992 -0.0948 -0.0927 -0.0938
 8412SOL    HW136869   2.829   2.784   1.960  0.0619 -0.9581  1.0802
 8412SOL    HW236870   2.975   2.786   1.972  0.6729  0.2955  1.8073
 8413SOL     OW36871   1.168   1.308   7.110 -0.4602  0.6941 -0.0664
 8413SOL    HW136872   1.089   1.311   7.165  0.2337  1.8231  0.8702
 8413SOL    HW236873   1.233   1.277   7.173 -0.3433  1.6565  0.2900
 8414SOL     OW36874   0.763   2.926   1.024  0.4545  0.1633 -0.2151
 8414SOL    HW136875   0.708   2.871   1.080 -0.2240  1.3595  0.2987
 8414SOL    HW236876   0.831   2.864   0.998 -0.1906 -0.1115 -1.2664
 8415SOL     OW36877   3.693   1.663   6.783 -0.7141  0.0961 -0.1241
 8415SOL    HW136878   3.662   1.573   6.778 -1.5780  0.2784  1.8563
 8415SOL    HW236879   3.780   1.664   6.744 -0.3808 -1.6265  0.5765
 8416SOL     OW36880   4.055   0.962   4.565  0.1403  0.0925 -1.2026
 8416SOL    HW136881   4.017   0.888   4.516 -1.3902 -0.3272  0.6445
 8416SOL    HW236882   4.145   0.966   4.531  0.4788 -1.7272 -0.5564
 8417SOL     OW36883   0.405   2.502   4.531 -0.0767  0.1672  0.1208
 8417SOL    HW136884   0.376   2.592   4.516  1.9995  0.4522 -2.0806
 8417SOL    HW236885   0.397   2.472   4.441 -0.2004 -0.7441  0.4355
 8418SOL     OW36886   2.574   3.507   6.337 -0.3010 -0.0363  0.3068
 8418SOL    HW136887   2.661   3.475   6.316 -0.7962 -1.4840  0.4637
 8418SOL    HW236888   2.585   3.567   6.411  1.8517  0.7501 -0.6522
 8419SOL     OW36889   0.708   2.874   7.534  0.4475  0.5178 -0.0486
 8419SOL    HW136890   0.635   2.860   7.473  0.0161 -1.5641  0.9332
 8419SOL    HW236891   0.665   2.928   7.599  0.5316  0.7517 -0.1874
 8420SOL     OW36892   1.826   0.229  11.249  0.5383 -0.2991 -0.0275
 8420SOL    HW136893   1.916   0.205  11.226  0.8297  0.6220  0.1437
 8420SOL    HW236894   1.846   0.294  11.317 -1.5909  0.4361 -0.0988
 8421SOL     OW36895   2.308   4.249   8.514  0.4832 -0.6056  0.3159
 8421SOL    HW136896   2.375   4.314   8.533 -1.3543  1.3348  0.1497
 8421SOL    HW236897   2.231   4.305   8.527  0.9836  0.1497  0.0207
 8422SOL     OW36898   4.364   4.572  17.250 -0.1889 -0.5942 -0.4202
 8422SOL    HW136899   4.362   4.477  17.258  0.7877 -0.5729  0.1146
 8422SOL    HW236900   4.376   4.596  17.342 -1.9159  2.3693 -0.9696
 8423SOL     OW36901   2.642   1.185   8.089  0.3457 -0.0576  0.3002
 8423SOL    HW136902   2.546   1.183   8.093  0.4133 -0.5965  1.6983
 8423SOL    HW236903   2.652   1.127   8.013  0.6472  1.1784 -0.6057
 8424SOL     OW36904   0.005   2.077   7.537 -0.6746 -0.8666 -0.7765
 8424SOL    HW136905   4.661   2.024   7.529 -1.3316 -0.4341  2.7945
 8424SOL    HW236906   0.079   2.016   7.542  1.0416  1.0594 -2.9450
 8425SOL     OW36907   1.507   0.097   8.309  0.3517 -0.3016  0.3943
 8425SOL    HW136908   1.496   0.136   8.223  0.2824  0.3143  0.6790
 8425SOL    HW236909   1.599   0.072   8.305 -0.0536 -1.7797  0.4756
 8426SOL     OW36910   1.507   1.562  17.395 -0.2590 -1.0968  0.1957
 8426SOL    HW136911   1.575   1.582  17.331 -1.1021  0.4400 -0.2341
 8426SOL    HW236912   1.427   1.579  17.345  0.8213 -1.1271 -1.5486
 8427SOL     OW36913   4.380   3.516   7.833  0.7920 -0.1118  0.2019
 8427SOL    HW136914   4.378   3.426   7.864 -0.7089  0.2076  1.0542
 8427SOL    HW236915   4.409   3.513   7.742 -0.3502 -1.6010 -0.1185
 8428SOL     OW36916   0.445   1.298   1.076 -0.1938 -0.1466  0.6101
 8428SOL    HW136917   0.351   1.302   1.058 -0.2943  0.8951  1.3581
 8428SOL    HW236918   0.440   1.296   1.172 -0.9834  1.0997  0.5945
 8429SOL     OW36919   4.319   1.203   3.614 -0.1691  0.5418  0.6218
 8429SOL    HW136920   4.338   1.130   3.554  0.8620  1.9096 -0.6962
 8429SOL    HW236921   4.396   1.255   3.590 -0.3888  0.0409 -1.1514
 8430SOL     OW36922   1.453   3.509  16.303 -0.5157  0.6788 -0.1062
 8430SOL    HW136923   1.531   3.458  16.325  1.2625  3.2328 -0.4394
 8430SOL    HW236924   1.409   3.497  16.387  2.5989 -2.8865  0.9882
 8431SOL     OW36925   2.070   2.308  15.685  0.0152 -0.0049  0.2739
 8431SOL    HW136926   2.109   2.393  15.663  1.8354 -0.7345  0.6543
 8431SOL    HW236927   1.999   2.341  15.740 -1.3017 -1.2600 -0.6650
 8432SOL     OW36928   4.302   0.351   2.342 -0.0328  0.4620  0.6287
 8432SOL    HW136929   4.221   0.370   2.391  0.7450 -0.6573  2.3526
 8432SOL    HW236930   4.361   0.320   2.411  0.0630  1.7933  1.1478
 8433SOL     OW36931   2.237   3.273  14.685  0.3557 -0.0527 -0.2723
 8433SOL    HW136932   2.272   3.280  14.596  0.1531  0.4629 -0.3058
 8433SOL    HW236933   2.319   3.299  14.727  2.1008 -3.1307 -1.7489
 8434SOL     OW36934   3.158   3.828   5.745  0.3930  0.4433 -0.3154
 8434SOL    HW136935   3.237   3.838   5.799  0.3191  0.1169 -0.1474
 8434SOL    HW236936   3.176   3.744   5.702  0.6673 -0.8978  2.3992
 8435SOL     OW36937   1.912   0.133   1.836  0.4864 -0.1229  0.2719
 8435SOL    HW136938   1.881   0.223   1.824 -2.2982 -1.2171 -0.8822
 8435SOL    HW236939   1.841   0.087   1.790  1.1481 -0.1544 -0.7083
 8436SOL     OW36940   1.896   1.841  14.449  0.3743 -0.1619  0.5020
 8436SOL    HW136941   1.869   1.786  14.376 -1.1538  0.2282  0.7777
 8436SOL    HW236942   1.985   1.813  14.470 -0.1140 -0.8776  1.5599
 8437SOL     OW36943   0.506   3.914   5.290  0.1206  0.4290  0.1053
 8437SOL    HW136944   0.479   3.947   5.376  1.3441  1.0109  0.2668
 8437SOL    HW236945   0.570   3.846   5.311 -0.7603 -0.0741  1.1802
 8438SOL     OW36946   1.446   3.222   3.973  0.1857 -0.3628 -0.2089
 8438SOL    HW136947   1.370   3.269   4.005  0.5316  1.3649 -1.9532
 8438SOL    HW236948   1.426   3.170   3.895 -0.3050  3.0392 -2.3661
 8439SOL     OW36949   2.228   0.334  11.889 -0.2088  0.0935  0.1067
 8439SOL    HW136950   2.232   0.271  11.817  0.0213  0.1791  0.0439
 8439SOL    HW236951   2.213   0.269  11.958 -1.6240 -1.2808 -1.4938
 8440SOL     OW36952   1.722   0.146  11.825  0.0649 -0.0614 -0.1129
 8440SOL    HW136953   1.628   0.137  11.807  0.0732 -1.4623  0.5157
 8440SOL    HW236954   1.730   0.081  11.895  1.1816 -0.1075 -0.2728
 8441SOL     OW36955   3.916   4.538   9.819  0.2890  0.4654  0.6462
 8441SOL    HW136956   3.969   4.458   9.815 -1.9972 -1.0604  0.6757
 8441SOL    HW236957   3.838   4.495   9.854 -0.3353 -0.4484 -1.8161
 8442SOL     OW36958   0.192   0.474   3.847  0.2257  0.0855 -0.0484
 8442SOL    HW136959   0.234   0.389   3.864  1.1971  1.3156  3.5742
 8442SOL    HW236960   0.266   0.534   3.850 -1.9780  2.8494 -0.4017
 8443SOL     OW36961   4.246   2.635   3.418  0.1506 -0.3264 -0.3419
 8443SOL    HW136962   4.224   2.636   3.511 -0.4014 -0.5195 -0.4714
 8443SOL    HW236963   4.174   2.591   3.374  0.4223 -0.3321 -0.7859
 8444SOL     OW36964   1.821   3.591   6.161  0.6139 -0.2795 -0.3866
 8444SOL    HW136965   1.874   3.533   6.217 -0.4083 -0.3324  0.5474
 8444SOL    HW236966   1.795   3.526   6.095  4.2105 -1.2000 -0.9091
 8445SOL     OW36967   2.126   4.043   1.421 -0.7050 -0.2727 -0.2419
 8445SOL    HW136968   2.031   4.046   1.433 -0.6741 -1.6937  0.4103
 8445SOL    HW236969   2.132   4.050   1.326  0.5203 -0.0420 -0.1573
 8446SOL     OW36970   0.066   1.584   9.994  0.1012  0.1991  0.3980
 8446SOL    HW136971   4.714   1.558  10.023  0.0443 -3.4410 -2.9544
 8446SOL    HW236972   0.057   1.678  10.003  1.9060  0.4167  0.0191
 8447SOL     OW36973   4.694   3.215   9.561  0.8797  0.7192  0.2624
 8447SOL    HW136974   0.004   3.266   9.493  1.3972 -0.3347 -0.1745
 8447SOL    HW236975   4.612   3.187   9.520  1.4297  0.0218 -0.3640
 8448SOL     OW36976   0.523   3.862   6.509 -0.1535  0.4045 -0.3087
 8448SOL    HW136977   0.500   3.942   6.462 -1.5967  0.7417  0.9860
 8448SOL    HW236978   0.563   3.895   6.589  0.2462 -0.4226 -0.1734
 8449SOL     OW36979   0.196   3.077   4.433  0.0022  0.4854  0.1560
 8449SOL    HW136980   0.164   3.126   4.358 -0.2351  0.2433  0.0990
 8449SOL    HW236981   0.290   3.085   4.416  0.0930 -1.2710 -0.1473
 8450SOL     OW36982   3.468   4.284   8.992  0.3612  0.4896 -0.5230
 8450SOL    HW136983   3.401   4.341   9.031 -1.3469 -0.8894 -1.4280
 8450SOL    HW236984   3.402   4.223   8.958 -1.0266  1.4277  0.4730
 8451SOL     OW36985   2.194   2.268   9.037 -0.2518 -0.3851 -0.2687
 8451SOL    HW136986   2.212   2.179   9.067  2.0234  0.0925 -0.2599
 8451SOL    HW236987   2.282   2.305   9.037 -0.4134  0.0099  0.2288
 8452SOL     OW36988   0.767   4.555   2.314 -0.0115  0.0266  0.3240
 8452SOL    HW136989   0.682   4.597   2.318 -0.9952 -1.8371 -0.6919
 8452SOL    HW236990   0.793   4.556   2.406  0.2356  0.6298  0.2426
 8453SOL     OW36991   2.108   1.258   1.639 -0.2596 -0.1751 -0.2056
 8453SOL    HW136992   2.172   1.329   1.635 -0.7724  0.3784  1.1476
 8453SOL    HW236993   2.097   1.240   1.546  2.4025 -0.3726 -0.4821
 8454SOL     OW36994   1.685   0.038   6.713 -0.2098 -0.5478  0.3395
 8454SOL    HW136995   1.642   0.123   6.715  2.6495  0.9254 -0.0786
 8454SOL    HW236996   1.660   0.007   6.800 -2.9294  0.2656 -0.1715
 8455SOL     OW36997   3.254   0.243   1.787  0.0822  0.1850 -0.8753
 8455SOL    HW136998   3.293   0.201   1.864  1.4811 -0.1857 -1.7904
 8455SOL    HW236999   3.204   0.175   1.743 -1.4065  0.0805  0.9722
 8456SOL     OW37000   3.070   2.293   6.795 -0.2201 -0.0381 -0.5009
 8456SOL    HW137001   3.044   2.366   6.740 -1.2272  1.3558  1.8260
 8456SOL    HW237002   3.153   2.332   6.823 -0.7028  1.9123 -1.7791
 8457SOL     OW37003   2.604   0.928   3.383  0.5390 -0.4731  0.0344
 8457SOL    HW137004   2.689   0.902   3.348  0.0395 -2.0501 -0.0093
 8457SOL    HW237005   2.617   1.016   3.417 -1.2028 -0.0667 -0.3325
 8458SOL     OW37006   0.636   1.940   2.551 -0.1445  1.1474 -0.2880
 8458SOL    HW137007   0.590   1.888   2.486  2.4917 -2.4386  0.7412
 8458SOL    HW237008   0.577   2.015   2.554 -1.9057 -0.3360  1.2547
 8459SOL     OW37009   2.476   2.438  15.868  0.0612 -0.3822 -0.1790
 8459SOL    HW137010   2.531   2.464  15.942 -1.2957  0.9612  0.3493
 8459SOL    HW237011   2.522   2.360  15.835 -0.7077 -0.7765 -0.3111
 8460SOL     OW37012   4.198   1.359   5.133 -0.1257 -0.3019  0.0034
 8460SOL    HW137013   4.222   1.452   5.133 -1.1621 -0.0391  0.2998
 8460SOL    HW237014   4.244   1.341   5.051 -1.7710  1.4878 -1.3286
 8461SOL     OW37015   3.241   0.946  11.567 -0.8351 -0.7129  0.3664
 8461SOL    HW137016   3.323   0.927  11.614 -1.7378  0.6828  2.5230
 8461SOL    HW237017   3.191   0.990  11.636 -1.2722 -0.1174 -0.3267
 8462SOL     OW37018   4.425   2.573   8.655 -0.4154  0.6023 -0.2538
 8462SOL    HW137019   4.340   2.571   8.698 -0.4702 -0.9974 -0.4523
 8462SOL    HW237020   4.420   2.484   8.621  1.0927 -0.7932  3.2145
 8463SOL     OW37021   3.439   0.039   2.235 -0.3412 -0.4613 -0.0908
 8463SOL    HW137022   3.350   0.073   2.220 -0.6390 -0.3979  1.8508
 8463SOL    HW237023   3.455   0.083   2.318 -0.5223  0.7570 -0.7087
 8464SOL     OW37024   3.358   4.105   1.866  0.1347 -0.0706  0.1316
 8464SOL    HW137025   3.413   4.030   1.840 -0.5434 -0.2613 -0.7525
 8464SOL    HW237026   3.352   4.160   1.787 -0.6909 -0.0171  0.2394
 8465SOL     OW37027   3.459   4.305   4.874 -0.9193 -0.1736  0.1996
 8465SOL    HW137028   3.408   4.382   4.848 -1.0364 -0.7414 -1.2403
 8465SOL    HW237029   3.407   4.275   4.949  0.9093  0.1068  1.5761
 8466SOL     OW37030   0.517   0.441  16.252 -0.0373 -0.4672 -0.0908
 8466SOL    HW137031   0.569   0.454  16.332 -3.1388  1.7269  1.5469
 8466SOL    HW237032   0.531   0.527  16.214 -0.4876 -0.0908  0.6076
 8467SOL     OW37033   3.770   0.353  12.179  0.1749  0.1532  0.1103
 8467SOL    HW137034   3.797   0.437  12.215 -0.8242  0.3270  0.4656
 8467SOL    HW237035   3.689   0.344  12.229  0.4723  0.6930  0.6919
 8468SOL     OW37036   2.313   4.113  17.050 -0.0089  0.3353  0.4152
 8468SOL    HW137037   2.343   4.069  17.129 -1.0341 -0.7822  0.1751
 8468SOL    HW237038   2.356   4.066  16.979 -2.2696  2.1582 -2.1969
 8469SOL     OW37039   2.933   0.680   9.590 -0.1720 -0.1635 -0.2773
 8469SOL    HW137040   2.993   0.739   9.636 -1.9874  2.1774 -0.9339
 8469SOL    HW237041   2.882   0.743   9.539 -0.6506  0.6812  1.2635
 8470SOL     OW37042   2.655   1.930   2.268  0.0103  0.8104  0.0755
 8470SOL    HW137043   2.606   1.899   2.192  2.2376 -0.5001 -0.8260
 8470SOL    HW237044   2.602   1.994   2.315  0.6138  0.7430  0.8503
 8471SOL     OW37045   2.904   2.896   1.331  0.3638 -0.3197  0.0555
 8471SOL    HW137046   2.999   2.883   1.340  0.6037  1.2522 -0.2376
 8471SOL    HW237047   2.889   2.948   1.409 -1.5590 -0.6513 -0.1061
 8472SOL     OW37048   4.382   4.075   9.255  0.7121 -0.0210 -0.3336
 8472SOL    HW137049   4.461   4.024   9.237  0.8733  0.1653 -0.1598
 8472SOL    HW237050   4.421   4.124   9.327  1.3600 -0.9360 -0.0579
 8473SOL     OW37051   3.985   0.972   7.524  0.0049  0.1519  0.3258
 8473SOL    HW137052   3.892   0.989   7.511 -0.0565 -0.0070  0.5454
 8473SOL    HW237053   4.014   0.990   7.435  0.3669  1.2380  0.6722
 8474SOL     OW37054   4.120   3.180   7.925  0.0477 -0.5972  0.7108
 8474SOL    HW137055   4.215   3.192   7.934  0.5907 -1.3622 -4.1835
 8474SOL    HW237056   4.095   3.267   7.954  1.2405 -0.0907  0.2313
 8475SOL     OW37057   2.755   2.908   5.543  0.2529 -0.0866 -0.3203
 8475SOL    HW137058   2.840   2.953   5.545  0.0739  0.2150  0.4869
 8475SOL    HW237059   2.755   2.893   5.448  0.0044 -1.2332 -0.1397
 8476SOL     OW37060   3.235   4.259   0.733 -0.2459 -0.0022  0.1058
 8476SOL    HW137061   3.190   4.208   0.801  1.0844 -0.2567  0.7941
 8476SOL    HW237062   3.257   4.187   0.674  0.9943 -0.4808  1.1489
 8477SOL     OW37063   3.676   0.669   7.435  0.0167 -0.0380  0.0429
 8477SOL    HW137064   3.606   0.661   7.369  0.7030 -2.8374 -0.3412
 8477SOL    HW237065   3.651   0.589   7.481  2.9193 -0.3713  0.9799
 8478SOL     OW37066   1.812   2.345   4.481 -0.1901 -0.5730 -0.1372
 8478SOL    HW137067   1.722   2.348   4.448  1.4409  0.3123 -4.5532
 8478SOL    HW237068   1.791   2.359   4.573 -1.3861  0.4487 -0.5609
 8479SOL     OW37069   2.060   0.716   8.017 -0.1802  0.0389  0.4041
 8479SOL    HW137070   2.022   0.631   8.036 -0.9017  0.5127  1.1177
 8479SOL    HW237071   2.020   0.747   7.935 -0.3869 -0.4529  0.3204
 8480SOL     OW37072   3.456   0.626   8.550 -0.7581  0.3790  0.5983
 8480SOL    HW137073   3.519   0.631   8.478 -1.5124  2.5416  0.0957
 8480SOL    HW237074   3.506   0.592   8.624  0.8456 -0.8860 -1.0741
 8481SOL     OW37075   1.580   1.457  10.876  0.9951 -0.0687  0.3144
 8481SOL    HW137076   1.544   1.396  10.940  0.6754  0.8360  0.9881
 8481SOL    HW237077   1.578   1.533  10.934  0.6494  0.7533 -0.7729
 8482SOL     OW37078   0.292   0.623   5.590  0.1681 -0.1750 -0.0018
 8482SOL    HW137079   0.307   0.564   5.516  1.3028 -1.5069  1.2705
 8482SOL    HW237080   0.378   0.628   5.633  1.3362 -1.4151 -2.2397
 8483SOL     OW37081   2.602   0.108   7.333  0.1019  0.3040  0.4350
 8483SOL    HW137082   2.637   0.020   7.322  0.8629  0.8506 -1.6497
 8483SOL    HW237083   2.578   0.118   7.241  1.6802  0.5704  0.0506
 8484SOL     OW37084   3.101   4.342  14.748 -0.7322 -0.5344  0.4457
 8484SOL    HW137085   3.159   4.267  14.746  0.9277  0.7550 -0.0354
 8484SOL    HW237086   3.033   4.310  14.808 -2.2748  0.2901 -0.8362
 8485SOL     OW37087   2.956   1.907   2.362 -0.1737  0.2483  0.3480
 8485SOL    HW137088   2.885   1.848   2.338 -0.4663  1.0314 -0.6846
 8485SOL    HW237089   2.922   1.938   2.446 -0.5540 -1.9632  1.0154
 8486SOL     OW37090   0.429   1.543   7.173 -0.1514 -0.2557  0.1529
 8486SOL    HW137091   0.512   1.520   7.214 -0.1226 -1.7229 -0.7703
 8486SOL    HW237092   0.399   1.619   7.224  0.9612  0.3610 -0.1253
 8487SOL     OW37093   2.478   2.793   5.442 -0.1532 -0.0748  0.8507
 8487SOL    HW137094   2.408   2.772   5.504 -1.9401 -1.1607 -1.5268
 8487SOL    HW237095   2.553   2.804   5.500 -0.5023  1.7290  0.9485
 8488SOL     OW37096   1.593   0.677   7.054  0.0550  0.0833 -0.3594
 8488SOL    HW137097   1.617   0.655   7.144 -0.0642 -0.6316 -0.5022
 8488SOL    HW237098   1.502   0.647   7.057 -0.1372  0.6394 -0.7286
 8489SOL     OW37099   1.198   1.434   4.047  0.1297 -0.1146  0.4912
 8489SOL    HW137100   1.288   1.403   4.035 -0.5234 -1.2813 -1.2495
 8489SOL    HW237101   1.143   1.368   4.005  1.8848 -0.5564 -1.0926
 8490SOL     OW37102   1.791   1.382  16.230  0.0040  0.3856  0.0242
 8490SOL    HW137103   1.795   1.477  16.240 -1.3287  0.6997 -2.4179
 8490SOL    HW237104   1.820   1.339  16.311 -1.0396  2.4768  1.4976
 8491SOL     OW37105   3.935   3.005   3.002 -0.0534 -0.2214  0.5364
 8491SOL    HW137106   3.993   3.081   2.994 -1.0623  0.8597  3.3791
 8491SOL    HW237107   3.955   2.964   2.918  2.8273 -2.9565  2.5636
 8492SOL     OW37108   3.906   2.767   8.311 -0.4422 -0.0912 -0.3565
 8492SOL    HW137109   3.994   2.732   8.301 -1.1413 -1.6323 -1.0796
 8492SOL    HW237110   3.876   2.803   8.227 -0.4247 -0.4835 -0.5304
 8493SOL     OW37111   1.536   0.592   8.551  0.0814  0.3387  0.2473
 8493SOL    HW137112   1.546   0.497   8.551  2.1110  0.5519 -1.6258
 8493SOL    HW237113   1.450   0.605   8.591  0.0829 -1.3899  0.8106
 8494SOL     OW37114   2.693   2.067   6.527  0.2716 -0.4333 -0.7991
 8494SOL    HW137115   2.747   2.068   6.447 -1.8578 -0.3537 -2.2349
 8494SOL    HW237116   2.619   2.011   6.504 -0.2094 -0.3395  0.5440
 8495SOL     OW37117   1.463   3.308  13.775 -0.0269  0.2564  0.1107
 8495SOL    HW137118   1.375   3.289  13.809  0.1032  0.1567  0.3875
 8495SOL    HW237119   1.507   3.328  13.857  1.4164 -0.3480 -0.5256
 8496SOL     OW37120   1.942   0.466   8.066 -0.1396 -0.0240 -0.0672
 8496SOL    HW137121   1.859   0.456   8.018  0.1856 -0.4897 -0.5285
 8496SOL    HW237122   2.006   0.407   8.027  1.6064  1.1768  0.9605
 8497SOL     OW37123   1.725   4.656   2.751  0.2025  0.3303 -0.0163
 8497SOL    HW137124   1.779   4.716   2.699 -0.7111  2.0400  1.0423
 8497SOL    HW237125   1.758   4.568   2.731 -2.4202 -0.5542 -0.3732
 8498SOL     OW37126   0.540   0.160  17.198 -0.4334  0.5404 -0.2651
 8498SOL    HW137127   0.577   0.245  17.220  1.0164  0.3586 -1.9332
 8498SOL    HW237128   0.464   0.156  17.255  0.6512 -0.0682  1.1275
 8499SOL     OW37129   2.546   3.309   3.029  0.1007 -0.1719  0.4761
 8499SOL    HW137130   2.471   3.349   3.073  0.5968 -0.9741  2.0467
 8499SOL    HW237131   2.514   3.292   2.940 -2.4011 -0.2137  1.3810
 8500SOL     OW37132   4.247   3.444   3.430 -0.3898  0.5975 -0.5181
 8500SOL    HW137133   4.300   3.516   3.462  3.7512 -2.1028 -1.2831
 8500SOL    HW237134   4.293   3.364   3.456 -0.7220  0.1663 -1.2306
 8501SOL     OW37135   1.917   0.834   5.471 -0.3873 -0.0292 -0.0329
 8501SOL    HW137136   1.847   0.840   5.537  1.1874  1.1527  1.5238
 8501SOL    HW237137   1.879   0.761   5.422 -0.1512 -0.3092  0.1976
 8502SOL     OW37138   0.276   0.256  16.524  0.0335  0.2415  0.7804
 8502SOL    HW137139   0.204   0.226  16.578 -0.4742  0.6136  0.3088
 8502SOL    HW237140   0.313   0.324  16.580  3.7432  0.0856 -1.4035
 8503SOL     OW37141   1.195   1.543   5.658  0.3430  0.2064 -0.0319
 8503SOL    HW137142   1.141   1.571   5.584 -0.7664 -1.8944 -0.0005
 8503SOL    HW237143   1.132   1.497   5.713 -3.4042  2.9799 -2.0109
 8504SOL     OW37144   2.616   0.068   9.752  1.1204  0.3136 -0.0801
 8504SOL    HW137145   2.658   0.111   9.827  1.3652  0.3911 -0.2629
 8504SOL    HW237146   2.530   0.109   9.755  1.0128  0.0494  0.4954
 8505SOL     OW37147   0.055   1.139   5.335 -0.3179  0.2591  0.0653
 8505SOL    HW137148   0.145   1.107   5.333  0.4428  2.2833  2.9417
 8505SOL    HW237149   0.006   1.060   5.312  2.4288 -2.0280  2.0312
 8506SOL     OW37150   2.543   1.636   7.534  0.5908 -0.0451  0.6153
 8506SOL    HW137151   2.484   1.666   7.466  0.6955 -0.9320  0.1399
 8506SOL    HW237152   2.623   1.671   7.494  0.3342 -0.4204 -0.2202
 8507SOL     OW37153   4.379   1.896  10.495  0.4025 -0.3571 -0.4738
 8507SOL    HW137154   4.292   1.904  10.456 -0.0001 -2.5029 -0.0574
 8507SOL    HW237155   4.365   1.882  10.589 -1.4804 -1.4611 -0.8957
 8508SOL     OW37156   2.305   1.229   6.633  0.4115 -0.5109  0.6615
 8508SOL    HW137157   2.306   1.140   6.668  2.1633 -0.6898  0.1705
 8508SOL    HW237158   2.393   1.226   6.595  0.5151  0.7768  0.7946
 8509SOL     OW37159   1.950   0.866   0.255 -0.4021  0.1482 -0.0240
 8509SOL    HW137160   2.045   0.876   0.256 -0.2893 -0.8362 -1.1195
 8509SOL    HW237161   1.932   0.825   0.339  1.7302  0.8838  0.7951
 8510SOL     OW37162   0.400   2.330   9.323 -0.3264 -0.0498 -0.5375
 8510SOL    HW137163   0.399   2.254   9.381  2.0029  0.1670 -0.2165
 8510SOL    HW237164   0.466   2.382   9.370  0.1538  0.2068 -1.4895
 8511SOL     OW37165   2.806   0.453  14.307  0.5445 -0.6187  0.1686
 8511SOL    HW137166   2.738   0.425  14.368 -1.8872  2.8581 -0.9392
 8511SOL    HW237167   2.871   0.386  14.330 -2.4477 -3.9057 -1.0848
 8512SOL     OW37168   0.620   2.213  14.696  0.3878 -0.1251  0.4639
 8512SOL    HW137169   0.613   2.298  14.653 -0.1816 -0.7151 -0.5829
 8512SOL    HW237170   0.707   2.181  14.672 -0.2957 -1.0870 -0.7136
 8513SOL     OW37171   1.017   1.158  12.033 -0.2640 -0.4954  0.7893
 8513SOL    HW137172   1.000   1.196  12.120  2.6034  0.3613  0.9684
 8513SOL    HW237173   0.934   1.111  12.026 -0.4359  0.0120 -0.6374
 8514SOL     OW37174   1.356   3.732   3.903 -0.1979 -0.5036 -0.5493
 8514SOL    HW137175   1.370   3.768   3.815  0.6469 -0.7934 -0.5337
 8514SOL    HW237176   1.291   3.793   3.938  0.4937 -0.1192  0.0562
 8515SOL     OW37177   0.271   0.967   8.388  0.6897  0.0874 -0.5849
 8515SOL    HW137178   0.244   0.931   8.472  0.4658  0.0218 -0.6871
 8515SOL    HW237179   0.190   0.990   8.343  1.9582 -0.2736 -3.0844
 8516SOL     OW37180   3.914   4.643   5.757 -0.3069 -0.0325  0.1702
 8516SOL    HW137181   3.866   4.703   5.700  0.4492 -0.0189 -0.4441
 8516SOL    HW237182   3.878   4.556   5.742  0.4236 -0.1928 -0.6566
 8517SOL     OW37183   0.343   1.394  16.806  0.5198 -0.6873  0.0666
 8517SOL    HW137184   0.254   1.359  16.810  1.6060 -3.3429  1.0002
 8517SOL    HW237185   0.360   1.391  16.712 -0.9434 -0.9169 -0.1920
 8518SOL     OW37186   0.863   4.079   8.920 -0.5988  0.6641  0.3606
 8518SOL    HW137187   0.802   4.055   8.850 -1.3098 -0.4874  1.3948
 8518SOL    HW237188   0.800   4.094   8.990 -0.0801 -0.5885  1.0903
 8519SOL     OW37189   4.345   1.733   3.332 -0.4914 -0.2955 -0.1368
 8519SOL    HW137190   4.325   1.765   3.244 -0.4255  0.7090  0.2164
 8519SOL    HW237191   4.404   1.659   3.316  3.2380  2.7565 -0.5408
 8520SOL     OW37192   0.805   2.976  14.835 -0.1567 -0.4018  0.3165
 8520SOL    HW137193   0.818   2.882  14.830  0.1955 -0.3524  0.3191
 8520SOL    HW237194   0.839   2.996  14.922 -0.8129 -2.6101  1.0815
 8521SOL     OW37195   3.453   3.324  17.316 -0.1187  0.4163  0.1746
 8521SOL    HW137196   3.452   3.254  17.250  0.6790 -0.4547  1.0936
 8521SOL    HW237197   3.401   3.391  17.272 -2.2469 -1.5938 -0.4146
 8522SOL     OW37198   2.971   1.267   8.497 -0.2832 -0.3637  0.6247
 8522SOL    HW137199   2.924   1.202   8.445 -0.8473  0.9392 -0.5067
 8522SOL    HW237200   3.061   1.239   8.514  0.7625  0.5647 -3.2044
 8523SOL     OW37201   0.932   4.003   8.568  0.0250  0.7799 -0.5016
 8523SOL    HW137202   0.853   4.056   8.574 -0.9905 -0.8407  0.5173
 8523SOL    HW237203   0.923   3.930   8.630 -0.9685 -0.2011 -1.8049
 8524SOL     OW37204   1.478   4.488   7.231  0.3532 -0.4690  0.7297
 8524SOL    HW137205   1.416   4.560   7.246  0.6518 -0.1861  0.6026
 8524SOL    HW237206   1.538   4.497   7.304  1.0216  0.8467  0.0022
 8525SOL     OW37207   2.420   1.162   1.025 -0.3488  0.2915 -0.4727
 8525SOL    HW137208   2.472   1.083   1.039  0.9446  0.8545 -2.0250
 8525SOL    HW237209   2.337   1.116   1.013  0.9156 -1.9691 -0.6804
 8526SOL     OW37210   0.520   0.145  10.242 -0.0530  0.1488 -0.6981
 8526SOL    HW137211   0.534   0.066  10.190 -3.3083 -0.7006 -0.2358
 8526SOL    HW237212   0.612   0.164  10.260 -0.2911  1.3672 -0.7422
 8527SOL     OW37213   1.784   0.470  13.965  0.4595 -0.0250  0.2434
 8527SOL    HW137214   1.776   0.563  13.944 -2.7969 -0.6861 -1.3426
 8527SOL    HW237215   1.808   0.479  14.058 -1.8425  1.1031  0.7194
 8528SOL     OW37216   4.003   3.764  14.041 -1.0173  0.8437 -0.0409
 8528SOL    HW137217   4.017   3.854  14.010  0.9395  1.3688  2.3193
 8528SOL    HW237218   3.953   3.786  14.120 -0.9764  0.6784  0.0309
 8529SOL     OW37219   0.961   0.055   5.713  0.5586 -0.1261  0.2779
 8529SOL    HW137220   0.994   0.080   5.799 -0.1250 -0.7070  0.7078
 8529SOL    HW237221   0.899   4.722   5.739 -0.5714 -0.1105 -2.3954
 8530SOL     OW37222   0.224   4.018  11.384 -0.3945  0.0653 -0.3174
 8530SOL    HW137223   0.186   3.985  11.303  2.4239 -0.3683 -1.4448
 8530SOL    HW237224   0.295   3.964  11.417 -1.1512 -0.5048  0.3902
 8531SOL     OW37225   2.065   0.563   5.369 -0.1091 -0.2356 -0.2963
 8531SOL    HW137226   2.133   0.617   5.410  0.1604 -0.3058 -0.6554
 8531SOL    HW237227   1.999   0.581   5.437 -0.2263 -0.0542 -0.4589
 8532SOL     OW37228   0.261   0.897   1.062  0.1302 -0.2275 -0.0121
 8532SOL    HW137229   0.312   0.906   0.981 -0.3876  0.0460 -0.3027
 8532SOL    HW237230   0.182   0.871   1.015  0.0698 -3.7382  2.0418
 8533SOL     OW37231   2.038   2.197   4.370  0.1523 -0.1907 -0.2720
 8533SOL    HW137232   1.991   2.232   4.446  2.5913 -1.4467  1.8181
 8533SOL    HW237233   2.075   2.272   4.325  1.2892 -1.5102 -1.5406
 8534SOL     OW37234   2.314   4.117   9.141  0.6859  0.9077  0.1726
 8534SOL    HW137235   2.314   4.024   9.118 -2.3919  0.3662  2.4043
 8534SOL    HW237236   2.405   4.121   9.170  1.5141  1.3473 -2.4703
 8535SOL     OW37237   2.485   0.070   1.517  0.4389 -1.4385 -0.4842
 8535SOL    HW137238   2.446   0.129   1.581 -0.6927 -0.7075 -1.8387
 8535SOL    HW237239   2.512   0.001   1.577 -1.1988 -4.6188 -3.4483
 8536SOL     OW37240   1.365   3.523   2.128  0.2168  0.4642 -0.0952
 8536SOL    HW137241   1.303   3.498   2.059  2.6848 -1.5140 -1.6178
 8536SOL    HW237242   1.437   3.464   2.105  0.5466  1.3840 -1.4456
 8537SOL     OW37243   2.531   3.112  17.126  0.4581 -0.1159  0.0640
 8537SOL    HW137244   2.545   3.079  17.037 -0.6551 -2.4060  0.7213
 8537SOL    HW237245   2.505   3.203  17.119 -1.8562 -0.9220 -1.7706
 8538SOL     OW37246   2.349   0.857   1.171 -0.1288  0.1258 -0.0640
 8538SOL    HW137247   2.442   0.869   1.148  0.5411 -1.3914  1.8483
 8538SOL    HW237248   2.315   0.889   1.088  0.5621 -0.7362 -0.6765
 8539SOL     OW37249   1.113   2.778   0.346  0.0031 -0.0690  0.1801
 8539SOL    HW137250   1.149   2.863   0.369  0.6579 -0.2652 -0.1409
 8539SOL    HW237251   1.048   2.768   0.417 -0.2982  1.2857  0.0868
 8540SOL     OW37252   4.390   1.607   9.670  0.4271 -0.4018 -0.3255
 8540SOL    HW137253   4.470   1.559   9.650  0.7125  0.2326 -0.6981
 8540SOL    HW237254   4.321   1.557   9.627 -0.5944 -0.3990  1.2826
 8541SOL     OW37255   3.302   1.371   8.255  0.0370  0.1544 -0.1223
 8541SOL    HW137256   3.319   1.363   8.162  2.4874 -1.4635  0.4653
 8541SOL    HW237257   3.267   1.459   8.244 -0.2821  0.0740  0.2130
 8542SOL     OW37258   3.367   3.371   6.885  0.2481 -0.4382 -0.6048
 8542SOL    HW137259   3.423   3.434   6.932 -0.7638  0.6835 -0.8963
 8542SOL    HW237260   3.289   3.425   6.878  0.8878  0.6723  0.6244
 8543SOL     OW37261   3.807   2.801   7.025  0.0696 -0.5749 -0.1198
 8543SOL    HW137262   3.862   2.879   7.011 -1.8540  0.9531  0.9409
 8543SOL    HW237263   3.766   2.829   7.107 -1.9689 -2.5150 -0.5155
 8544SOL     OW37264   0.557   4.375   0.601 -0.1247  0.3120 -0.0097
 8544SOL    HW137265   0.560   4.431   0.678  1.5418  0.3515 -0.1191
 8544SOL    HW237266   0.637   4.326   0.619 -0.8983 -1.2338 -0.7928
 8545SOL     OW37267   4.357   4.096   6.865  0.3677  0.6301 -0.4918
 8545SOL    HW137268   4.372   4.039   6.790 -1.0206  0.8378 -0.9433
 8545SOL    HW237269   4.384   4.042   6.939 -0.7195 -0.3816 -0.8421
 8546SOL     OW37270   3.898   4.434   8.804 -0.3362 -0.2312 -0.2170
 8546SOL    HW137271   3.895   4.341   8.826  0.7946  0.6262  3.7076
 8546SOL    HW237272   3.807   4.443   8.775 -0.1289 -0.7320 -1.0227
 8547SOL     OW37273   4.405   0.552   8.468  0.1858  0.2405 -0.2196
 8547SOL    HW137274   4.426   0.465   8.436  1.3340  0.0699  1.0017
 8547SOL    HW237275   4.396   0.538   8.562  1.1078 -1.8299 -0.4318
 8548SOL     OW37276   1.178   4.378   8.034  0.2185 -0.2936 -0.7033
 8548SOL    HW137277   1.128   4.322   8.094 -0.7192  0.4720 -0.7631
 8548SOL    HW237278   1.246   4.313   8.018  1.2863  0.4071  0.9757
 8549SOL     OW37279   1.575   1.590   4.695 -0.0613  0.3676  0.5857
 8549SOL    HW137280   1.634   1.661   4.668 -0.5403  1.3299  2.0238
 8549SOL    HW237281   1.647   1.543   4.738 -0.3511  1.7832  2.6614
 8550SOL     OW37282   4.707   3.797   7.861  0.3505 -0.2147  0.2933
 8550SOL    HW137283   0.067   3.800   7.874  0.5398  0.8730 -1.3144
 8550SOL    HW237284   4.693   3.735   7.933 -0.7811  0.2684  0.4855
 8551SOL     OW37285   2.263   3.224  10.985  0.4952  0.0349 -0.3439
 8551SOL    HW137286   2.338   3.176  10.949  0.9714 -0.1534  0.9059
 8551SOL    HW237287   2.277   3.227  11.079 -1.8222 -2.3709  0.0892
 8552SOL     OW37288   2.673   3.935  11.884 -0.4300  0.3042  0.1431
 8552SOL    HW137289   2.762   3.902  11.891  0.4942  2.5491 -0.9202
 8552SOL    HW237290   2.670   3.981  11.800  0.0351 -0.1363 -0.1112
 8553SOL     OW37291   4.149   2.277   5.021  0.4830  0.2337  0.2137
 8553SOL    HW137292   4.112   2.189   5.018 -0.8429  0.8361 -0.8083
 8553SOL    HW237293   4.199   2.279   4.939  2.3044  3.3334  1.3930
 8554SOL     OW37294   2.953   2.066   9.820  0.2177 -0.0316  0.1314
 8554SOL    HW137295   2.884   2.043   9.758 -2.3520  1.9030  2.2685
 8554SOL    HW237296   3.011   2.108   9.757  1.0027  0.0341  0.8994
 8555SOL     OW37297   3.006   4.274   8.782  0.2407 -0.1632 -0.5135
 8555SOL    HW137298   2.967   4.197   8.741 -0.7439  0.4228 -0.6918
 8555SOL    HW237299   2.929   4.309   8.826 -1.0321 -1.7177 -1.5036
 8556SOL     OW37300   2.263   0.775   3.867  0.3325  0.0827  0.2463
 8556SOL    HW137301   2.310   0.858   3.860  3.0498 -1.5362 -1.0153
 8556SOL    HW237302   2.174   0.808   3.854 -0.1519 -0.5514  1.9350
 8557SOL     OW37303   1.412   1.633   6.460  0.1549 -0.2831 -0.0638
 8557SOL    HW137304   1.420   1.682   6.542 -1.2037  2.2844 -1.4525
 8557SOL    HW237305   1.380   1.548   6.490 -0.4479 -0.0285  0.0133
 8558SOL     OW37306   1.771   4.364   5.928 -0.1927  0.3294 -0.5561
 8558SOL    HW137307   1.720   4.307   5.871  2.6421 -0.5944 -2.1326
 8558SOL    HW237308   1.801   4.424   5.860  1.1152  2.3615  1.8126
 8559SOL     OW37309   2.829   1.158   9.446  0.1713 -0.2450 -0.4103
 8559SOL    HW137310   2.805   1.178   9.356 -1.9722 -2.0123 -0.2244
 8559SOL    HW237311   2.785   1.225   9.498  1.1486 -1.8855  2.5626
 8560SOL     OW37312   1.279   1.874  17.665 -0.0283  0.1854  0.0430
 8560SOL    HW137313   1.282   1.901  17.574 -2.1784  1.0109  0.2196
 8560SOL    HW237314   1.233   1.790  17.663 -1.6091  1.0814 -0.7024
 8561SOL     OW37315   2.461   2.941  17.341 -0.3660 -0.4599  0.6544
 8561SOL    HW137316   2.516   2.862  17.341  0.2764 -0.0054 -0.6859
 8561SOL    HW237317   2.503   2.995  17.275  0.0809 -0.7692  0.6861
 8562SOL     OW37318   4.706   3.036   7.214 -0.3151  0.2371 -0.5414
 8562SOL    HW137319   4.711   2.978   7.137  1.7054  0.1598 -0.3723
 8562SOL    HW237320   0.010   3.117   7.181  0.8805  0.6636  1.9648
 8563SOL     OW37321   1.018   2.479   8.387  0.1943 -0.0451 -0.0289
 8563SOL    HW137322   1.040   2.565   8.352 -0.6106  0.2140  0.1049
 8563SOL    HW237323   1.104   2.438   8.396  0.3102  0.3912  0.9562
 8564SOL     OW37324   0.176   0.211  14.070 -0.2938 -0.2999 -0.3017
 8564SOL    HW137325   0.169   0.292  14.120 -0.6071 -0.7054  0.3168
 8564SOL    HW237326   0.090   0.171  14.083  0.0608 -1.0024 -0.0733
 8565SOL     OW37327   4.495   3.600   8.370  0.3072  0.5075  0.0999
 8565SOL    HW137328   4.470   3.691   8.360 -1.4199  0.1666  1.2317
 8565SOL    HW237329   4.476   3.572   8.281 -1.8207 -2.2033  1.3832
 8566SOL     OW37330   1.408   3.911   6.733 -0.3261  0.4827 -1.0081
 8566SOL    HW137331   1.379   4.001   6.719  0.6945  1.0268  0.3180
 8566SOL    HW237332   1.358   3.870   6.803 -1.9003  2.8458 -0.7560
 8567SOL     OW37333   1.614   3.811   1.968 -0.6311  0.1280  0.1340
 8567SOL    HW137334   1.576   3.773   2.047  0.9669 -0.8800  0.4097
 8567SOL    HW237335   1.633   3.729   1.922  0.6236  0.1003  0.7076
 8568SOL     OW37336   3.677   1.488  16.350  0.2439 -0.2563  0.1853
 8568SOL    HW137337   3.585   1.507  16.332 -0.2746 -1.4865  1.4584
 8568SOL    HW237338   3.718   1.561  16.304  1.2304 -0.7641  0.2600
 8569SOL     OW37339   1.356   4.303   4.001 -0.5366 -0.0415 -0.0457
 8569SOL    HW137340   1.448   4.318   4.023 -0.8691  1.3990  0.3598
 8569SOL    HW237341   1.366   4.248   3.924  0.4162  2.0753 -1.4097
 8570SOL     OW37342   3.085   4.407   2.588 -0.0480 -0.3804  0.0251
 8570SOL    HW137343   3.164   4.461   2.579 -0.2149 -0.4323 -1.8324
 8570SOL    HW237344   3.056   4.431   2.676  0.1688  0.9801 -0.2656
 8571SOL     OW37345   0.670   0.036   6.815 -0.8845  0.6558  0.1609
 8571SOL    HW137346   0.584   0.065   6.782 -0.6047  0.4646 -0.7416
 8571SOL    HW237347   0.648   4.692   6.864  0.4909  0.2503  0.1288
 8572SOL     OW37348   1.667   0.222   2.782  0.0266 -0.3167 -0.3248
 8572SOL    HW137349   1.705   0.164   2.717 -0.7702  1.0486 -2.0015
 8572SOL    HW237350   1.682   0.181   2.867 -0.9897 -1.1484 -0.5443
 8573SOL     OW37351   2.231   2.541   4.958 -0.1900  0.1652  0.0056
 8573SOL    HW137352   2.276   2.458   4.974 -1.2132 -0.5968 -1.1340
 8573SOL    HW237353   2.304   2.587   4.918 -0.0728 -0.5642 -0.5946
 8574SOL     OW37354   3.305   1.031   2.183  0.1658  0.2681 -0.4013
 8574SOL    HW137355   3.290   0.950   2.232  0.0018  0.0528 -0.8152
 8574SOL    HW237356   3.261   1.012   2.101 -0.3694  1.6981 -0.4626
 8575SOL     OW37357   3.032   3.319   0.479 -0.0069  0.1731  0.9888
 8575SOL    HW137358   2.951   3.302   0.431  1.8541  1.2875 -2.5480
 8575SOL    HW237359   2.994   3.379   0.544 -0.6436 -0.7541  1.4743
 8576SOL     OW37360   2.978   4.606   5.589 -0.3004 -0.1369  0.3527
 8576SOL    HW137361   2.898   4.556   5.604 -1.2839  1.1729 -0.6085
 8576SOL    HW237362   2.962   4.618   5.495 -2.4375  0.9168  0.8745
 8577SOL     OW37363   4.355   0.934  12.084 -0.0028  0.3051  0.1277
 8577SOL    HW137364   4.309   1.000  12.031  1.3620  1.0245 -0.1410
 8577SOL    HW237365   4.419   0.990  12.128 -0.5546  0.7364  0.3850
 8578SOL     OW37366   3.724   1.567   6.428 -0.2667 -0.0471  0.2260
 8578SOL    HW137367   3.775   1.646   6.411 -0.9589  0.4808  0.5897
 8578SOL    HW237368   3.749   1.514   6.353 -1.9898  2.6351 -2.2048
 8579SOL     OW37369   4.458   3.240  13.082 -0.1308  0.2054 -0.0318
 8579SOL    HW137370   4.547   3.228  13.114 -0.9373 -1.0628  1.7459
 8579SOL    HW237371   4.428   3.307  13.143  0.6780  2.5739 -2.2275
 8580SOL     OW37372   0.168   1.054  13.944 -1.1464 -0.3642  0.2232
 8580SOL    HW137373   0.216   1.060  14.026  3.1153 -0.1865 -2.2930
 8580SOL    HW237374   0.233   1.056  13.874 -2.0474  0.2376 -0.6074
 8581SOL     OW37375   2.354   3.229   6.321  0.1783  0.1429 -0.1100
 8581SOL    HW137376   2.364   3.271   6.406  0.3411 -1.2015  0.5356
 8581SOL    HW237377   2.309   3.147   6.343 -1.7028  1.0700 -0.5325
 8582SOL     OW37378   1.302   3.940  16.508 -0.0234 -0.3827  0.3867
 8582SOL    HW137379   1.395   3.963  16.503 -0.8549  2.2723 -3.4546
 8582SOL    HW237380   1.294   3.880  16.433 -0.7921  0.6316 -0.3459
 8583SOL     OW37381   2.945   3.718   7.200  0.5424  0.7546 -0.3166
 8583SOL    HW137382   2.868   3.775   7.205  0.9339  1.3106 -0.5963
 8583SOL    HW237383   3.015   3.783   7.200  0.0467  1.2925 -0.7086
 8584SOL     OW37384   1.270   3.643   4.877 -0.0765  0.3926 -0.1633
 8584SOL    HW137385   1.274   3.682   4.964 -0.2553 -1.8965  0.8665
 8584SOL    HW237386   1.361   3.642   4.848 -0.9484 -1.7958 -2.8513
 8585SOL     OW37387   1.499   4.355   4.313 -0.1162 -0.3665 -0.6807
 8585SOL    HW137388   1.554   4.352   4.391  0.7448 -0.1415 -1.2766
 8585SOL    HW237389   1.556   4.307   4.253  0.5909  0.6913 -0.8526
 8586SOL     OW37390   0.766   4.502   2.626 -0.4754 -0.2014  0.2540
 8586SOL    HW137391   0.683   4.526   2.585 -0.8242 -1.0790  0.4440
 8586SOL    HW237392   0.761   4.407   2.634  0.0421 -0.1926  0.6789
 8587SOL     OW37393   4.697   2.977   2.804 -0.5368  0.4620 -0.4688
 8587SOL    HW137394   0.037   2.918   2.796  0.4879  1.6230  0.7135
 8587SOL    HW237395   4.628   2.910   2.795 -0.7712  0.5021  0.9695
 8588SOL     OW37396   4.283   0.516  12.918 -0.1540  0.2934  0.1819
 8588SOL    HW137397   4.323   0.598  12.945  0.4193  0.1980 -0.3910
 8588SOL    HW237398   4.222   0.547  12.851 -1.5534  0.5148  1.5612
 8589SOL     OW37399   3.250   1.403   2.465  0.8649  0.2002  0.2207
 8589SOL    HW137400   3.178   1.347   2.435 -0.1986  2.7171 -1.8948
 8589SOL    HW237401   3.263   1.452   2.384  0.8508 -1.8520 -1.0159
 8590SOL     OW37402   4.108   1.617   8.164  0.1143 -0.2382 -0.7136
 8590SOL    HW137403   4.121   1.604   8.070  1.2308  0.2682 -0.6244
 8590SOL    HW237404   4.015   1.595   8.169  0.3290 -1.0469 -0.1013
 8591SOL     OW37405   2.767   2.762   9.040  0.1596 -0.2245  0.3662
 8591SOL    HW137406   2.710   2.837   9.052 -1.7853 -1.4196 -1.3621
 8591SOL    HW237407   2.792   2.749   9.132 -1.1968 -0.0935  0.7557
 8592SOL     OW37408   2.083   3.382  14.013 -0.5656 -0.2196 -0.0278
 8592SOL    HW137409   2.163   3.420  14.050  0.1107 -0.4340 -1.2579
 8592SOL    HW237410   2.059   3.456  13.957 -1.3747 -1.2948 -1.0815
 8593SOL     OW37411   3.895   4.690   7.165  0.4121 -0.1229  0.4540
 8593SOL    HW137412   3.930   4.692   7.076  2.4710  0.6890  1.2607
 8593SOL    HW237413   3.912   4.600   7.192  0.0705 -0.3699 -0.1675
 8594SOL     OW37414   1.219   2.513   5.410 -0.0172  0.1613 -0.2128
 8594SOL    HW137415   1.244   2.587   5.465 -0.5985 -0.0072  0.2849
 8594SOL    HW237416   1.248   2.545   5.325 -1.7599  0.0235 -0.8670
 8595SOL     OW37417   0.506   4.601  11.910 -0.5043  0.3392 -0.0299
 8595SOL    HW137418   0.467   4.584  11.824 -0.0994  2.2872 -0.5846
 8595SOL    HW237419   0.426   4.607  11.963 -1.7560 -3.4173 -1.4885
 8596SOL     OW37420   2.811   0.789  17.195  0.2429  0.4321 -0.9639
 8596SOL    HW137421   2.822   0.721  17.128 -0.2649  0.9235 -1.5410
 8596SOL    HW237422   2.721   0.814  17.172 -0.2710 -0.4969  0.0433
 8597SOL     OW37423   0.507   2.300  17.369  0.2139  0.1353 -0.3296
 8597SOL    HW137424   0.545   2.342  17.292 -1.7342  1.4568 -0.5469
 8597SOL    HW237425   0.579   2.237  17.382  0.2122 -0.3159 -2.5053
 8598SOL     OW37426   2.861   3.478  13.809  0.4394  0.3221 -0.5433
 8598SOL    HW137427   2.927   3.414  13.837  0.0486 -0.7098 -1.9719
 8598SOL    HW237428   2.849   3.446  13.719 -0.8152 -0.3667 -0.1323
 8599SOL     OW37429   0.867   1.071   5.568 -0.1726 -0.6069 -0.0100
 8599SOL    HW137430   0.788   1.091   5.517  1.1205  0.1321 -1.7230
 8599SOL    HW237431   0.864   1.140   5.635 -0.1226 -1.3601  0.7712
 8600SOL     OW37432   2.612   1.448  13.174  0.0002 -0.2245  0.5170
 8600SOL    HW137433   2.571   1.475  13.256 -1.9872  2.6314 -1.4147
 8600SOL    HW237434   2.665   1.386  13.223  0.1248 -0.8141 -0.3525
 8601SOL     OW37435   4.438   2.254   1.990  0.0549 -0.1308  0.1773
 8601SOL    HW137436   4.349   2.255   1.953  0.2164 -2.0181 -0.2648
 8601SOL    HW237437   4.432   2.337   2.038  0.5391 -1.0355  1.8098
 8602SOL     OW37438   3.377   4.661   5.568 -0.0206  0.0179  0.3423
 8602SOL    HW137439   3.337   4.705   5.643 -1.4632 -0.2221 -0.2977
 8602SOL    HW237440   3.401   0.004   5.518  0.8952  0.2970  1.2030
 8603SOL     OW37441   4.607   0.569   5.936 -0.0531 -0.1898 -0.1696
 8603SOL    HW137442   4.701   0.559   5.918 -0.1624 -1.3231 -0.1152
 8603SOL    HW237443   4.606   0.521   6.019 -0.1713  1.0282  0.5267
 8604SOL     OW37444   1.347   2.669   7.989  0.0003 -0.3499  0.1939
 8604SOL    HW137445   1.348   2.620   7.906  0.2869 -0.3841  0.2178
 8604SOL    HW237446   1.267   2.637   8.029 -0.0183  1.0949  1.3065
 8605SOL     OW37447   1.300   1.360   8.618  0.2063  0.1713  0.4231
 8605SOL    HW137448   1.336   1.274   8.600 -0.2223  0.5976 -2.5028
 8605SOL    HW237449   1.345   1.392   8.697  1.4689  0.2234 -0.3237
 8606SOL     OW37450   1.027   1.070   6.016 -0.1198 -0.0614 -0.1921
 8606SOL    HW137451   0.935   1.063   5.989 -0.3445  1.0395  0.2764
 8606SOL    HW237452   1.025   1.035   6.105  0.5912  1.7232  0.5191
 8607SOL     OW37453   2.740   2.061   8.771 -0.5260 -0.2427 -0.5051
 8607SOL    HW137454   2.682   2.010   8.829 -0.4599 -0.3377 -0.5227
 8607SOL    HW237455   2.812   2.080   8.830  0.0416 -1.9829 -0.6425
 8608SOL     OW37456   3.714   1.514   5.744  0.4480 -0.0177 -0.2578
 8608SOL    HW137457   3.749   1.429   5.770  0.7320  0.5769  1.2899
 8608SOL    HW237458   3.713   1.500   5.649  1.5650  0.9368 -0.4126
 8609SOL     OW37459   4.674   0.566   5.027  0.0899 -0.0915 -0.1458
 8609SOL    HW137460   4.640   0.653   5.048  3.4906  0.8359  1.5440
 8609SOL    HW237461   0.032   0.587   5.035  0.0813  0.6750 -2.1387
 8610SOL     OW37462   2.435   4.085   7.970  0.3185  0.1728  0.0170
 8610SOL    HW137463   2.490   4.137   8.028  2.4845 -0.5932 -1.3158
 8610SOL    HW237464   2.471   3.996   7.972  0.9411  0.4319  0.4615
 8611SOL     OW37465   3.287   2.653  16.120  0.3701 -0.4143 -0.2882
 8611SOL    HW137466   3.211   2.595  16.118 -0.4233  0.6537 -1.5533
 8611SOL    HW237467   3.250   2.741  16.129 -0.8096 -1.0329  1.0074
 8612SOL     OW37468   1.735   0.348   6.463  0.1487  0.4378  0.6703
 8612SOL    HW137469   1.681   0.280   6.423  0.9897  1.5502 -2.2962
 8612SOL    HW237470   1.818   0.302   6.473 -0.3312 -0.7435 -0.9483
 8613SOL     OW37471   4.363   1.099   7.696 -0.1059 -1.0264  0.4777
 8613SOL    HW137472   4.452   1.109   7.664 -0.6170  3.9414  0.6006
 8613SOL    HW237473   4.374   1.024   7.754  3.7443 -1.9539 -1.4879
 8614SOL     OW37474   4.672   3.835  13.387 -0.4046 -0.5229  0.4499
 8614SOL    HW137475   4.686   3.924  13.354  0.3801 -1.2243 -1.1235
 8614SOL    HW237476   4.735   3.833  13.458  1.2608  2.8945 -0.9109
 8615SOL     OW37477   1.460   3.580   6.565  0.0804 -0.4164  0.0277
 8615SOL    HW137478   1.526   3.619   6.624 -0.1805 -1.2399  0.8775
 8615SOL    HW237479   1.378   3.619   6.595 -0.3791  0.8701 -2.9284
 8616SOL     OW37480   1.433   2.333   7.061  0.1653 -0.0053  0.0403
 8616SOL    HW137481   1.466   2.252   7.022  0.1721  0.5934 -1.1989
 8616SOL    HW237482   1.494   2.351   7.133 -0.9813  0.7541  0.8358
 8617SOL     OW37483   2.383   4.529  14.363 -0.0527 -0.3655  0.3132
 8617SOL    HW137484   2.312   4.590  14.345 -0.5180 -1.1741 -0.6626
 8617SOL    HW237485   2.347   4.455  14.312  0.9525  0.1103 -1.0872
 8618SOL     OW37486   3.070   0.069   3.788 -0.1741  0.0581  0.6184
 8618SOL    HW137487   3.065   0.119   3.707 -0.7898  1.7058  1.6496
 8618SOL    HW237488   3.139   0.009   3.763  1.0374  2.2036 -1.1437
 8619SOL     OW37489   0.693   1.118  14.665 -0.3674  0.4751 -0.0980
 8619SOL    HW137490   0.739   1.189  14.709  1.8853  0.9892 -3.2522
 8619SOL    HW237491   0.715   1.035  14.708  0.8483  1.0653  0.4169
 8620SOL     OW37492   2.858   2.425   0.439 -0.0945  0.1723  0.4098
 8620SOL    HW137493   2.780   2.421   0.494 -0.5905  0.1120 -0.2965
 8620SOL    HW237494   2.836   2.359   0.373 -0.0877  0.7946 -0.2189
 8621SOL     OW37495   2.609   4.350   4.301  0.4554 -0.1179 -0.3955
 8621SOL    HW137496   2.520   4.376   4.281  0.3429  0.2288  0.5266
 8621SOL    HW237497   2.585   4.281   4.364  0.1184  0.6674  0.3329
 8622SOL     OW37498   4.193   1.779   9.420  0.3916  0.1222 -0.5095
 8622SOL    HW137499   4.180   1.706   9.481  0.3565  0.2543 -0.3584
 8622SOL    HW237500   4.104   1.803   9.397 -0.4675 -0.9548  1.7171
 8623SOL     OW37501   2.439   0.318   7.404  0.1226 -0.4691  0.0616
 8623SOL    HW137502   2.457   0.233   7.363 -1.6959  0.2605 -2.3061
 8623SOL    HW237503   2.411   0.296   7.492 -1.0967  1.9214  0.2740
 8624SOL     OW37504   3.973   0.124   3.267 -0.2065  0.0887  0.2428
 8624SOL    HW137505   3.923   0.204   3.279  1.1296  0.9136  0.2529
 8624SOL    HW237506   4.066   0.147   3.271  0.1693 -1.6601  1.5445
 8625SOL     OW37507   3.098   4.062   6.339 -0.2818 -0.0490  0.4634
 8625SOL    HW137508   3.111   4.022   6.425  1.1716 -1.5106 -0.4236
 8625SOL    HW237509   3.182   4.107   6.335 -0.1572 -0.3920 -0.8461
 8626SOL     OW37510   3.075   1.107  12.316  0.5222 -0.3269  0.1589
 8626SOL    HW137511   3.062   1.199  12.338 -0.1301  0.1360 -2.1738
 8626SOL    HW237512   3.170   1.099  12.305  0.3102 -0.8754 -1.2368
 8627SOL     OW37513   1.303   0.472   3.414 -0.7146  0.2857  0.1270
 8627SOL    HW137514   1.393   0.495   3.435  0.7232 -2.3829 -3.0440
 8627SOL    HW237515   1.310   0.487   3.319 -0.1603  0.2271  0.1615
 8628SOL     OW37516   1.625   0.164   3.964 -0.2743 -0.3215  0.7725
 8628SOL    HW137517   1.693   0.217   3.922 -1.5151  0.3345 -0.4247
 8628SOL    HW237518   1.548   0.214   3.935 -0.3788 -1.3611 -0.7845
 8629SOL     OW37519   0.281   2.977   4.757  0.4587  0.0572 -0.0743
 8629SOL    HW137520   0.199   2.929   4.745 -0.1506  1.7162 -2.7103
 8629SOL    HW237521   0.344   2.908   4.775  0.6266  0.3693  0.5150
 8630SOL     OW37522   2.781   0.399   3.468  0.4596  0.0037 -0.1679
 8630SOL    HW137523   2.689   0.374   3.459  1.0392 -1.4412 -2.1627
 8630SOL    HW237524   2.793   0.393   3.562 -1.2061  0.3619  0.0572
 8631SOL     OW37525   3.840   0.259   8.184 -0.1146 -0.0779 -0.0007
 8631SOL    HW137526   3.795   0.327   8.133  0.6348 -2.0774 -3.3349
 8631SOL    HW237527   3.846   0.189   8.119  0.7172  1.3735 -1.4833
 8632SOL     OW37528   1.063   3.634   4.157  0.2778  0.2612 -0.3978
 8632SOL    HW137529   0.984   3.590   4.188  0.0347  1.4975  0.7602
 8632SOL    HW237530   1.029   3.706   4.104  2.8625  2.0614  0.3744
 8633SOL     OW37531   4.156   3.812  11.054  0.3990 -0.0649  0.7439
 8633SOL    HW137532   4.136   3.883  10.993 -1.8000 -1.1297  0.2238
 8633SOL    HW237533   4.227   3.856  11.102  1.7087 -1.3765  0.0105
 8634SOL     OW37534   2.424   2.109  15.922 -0.0901  0.3770  0.5606
 8634SOL    HW137535   2.480   2.144  15.991  0.7116  1.6635 -0.7697
 8634SOL    HW237536   2.366   2.183  15.905  0.0210  0.2128 -0.5425
 8635SOL     OW37537   2.932   2.196  10.923  0.0174  0.1417  0.3781
 8635SOL    HW137538   2.944   2.187  11.018  1.8625 -1.9504 -0.0499
 8635SOL    HW237539   2.907   2.288  10.914 -2.3427 -0.4112  1.0803
 8636SOL     OW37540   0.484   0.130   4.469  0.5891  0.5025 -0.0830
 8636SOL    HW137541   0.545   0.146   4.396  1.5693 -0.9385  0.4174
 8636SOL    HW237542   0.536   0.169   4.540  1.4364 -1.6424  0.4629
 8637SOL     OW37543   0.298   1.231  15.160 -0.1249 -0.1562  0.7421
 8637SOL    HW137544   0.301   1.194  15.248 -1.4247  2.1811  1.7466
 8637SOL    HW237545   0.269   1.321  15.172 -0.3518  0.1857 -2.3293
 8638SOL     OW37546   0.261   2.117   8.979 -0.4992 -0.1531 -0.0808
 8638SOL    HW137547   0.265   2.101   8.885  1.3765 -1.0041  0.1421
 8638SOL    HW237548   0.285   2.033   9.017 -3.9213 -0.0350  2.3215
 8639SOL     OW37549   0.051   1.652   1.308 -0.5571  0.6554  0.2840
 8639SOL    HW137550   0.028   1.565   1.277 -1.2968  0.4907  1.3029
 8639SOL    HW237551   4.716   1.671   1.370 -1.2071  1.5868 -0.7438
 8640SOL     OW37552   0.416   0.674   8.397 -0.0718 -0.5788 -0.0617
 8640SOL    HW137553   0.485   0.726   8.438 -0.5494  0.0686 -0.0889
 8640SOL    HW237554   0.396   0.623   8.475 -0.3522 -0.8044 -0.2817
 8641SOL     OW37555   2.764   1.358   5.600  0.5833  0.4270 -0.3571
 8641SOL    HW137556   2.824   1.334   5.671  1.3173 -1.7994 -1.7502
 8641SOL    HW237557   2.717   1.432   5.638  0.1289  0.2575 -0.5971
 8642SOL     OW37558   3.732   2.534  12.613 -0.3770  0.4333  0.1906
 8642SOL    HW137559   3.827   2.534  12.627 -0.3488  0.3610 -0.0046
 8642SOL    HW237560   3.710   2.620  12.648 -0.5291  1.1461 -1.6676
 8643SOL     OW37561   2.720   4.011   5.769 -0.3285 -0.9281  0.3258
 8643SOL    HW137562   2.703   3.936   5.714  0.2927  2.1049 -4.0113
 8643SOL    HW237563   2.633   4.051   5.772  0.0599 -0.1083  0.9702
 8644SOL     OW37564   2.506   4.081  12.885  0.9947 -0.3638  0.5780
 8644SOL    HW137565   2.422   4.126  12.876  1.5805  0.7276  0.6433
 8644SOL    HW237566   2.474   4.000  12.844 -0.1778 -0.4024  1.5654
 8645SOL     OW37567   3.805   1.964   5.202 -0.3543 -0.1253 -0.2382
 8645SOL    HW137568   3.815   1.914   5.122  1.6761 -0.1746  0.0491
 8645SOL    HW237569   3.879   2.025   5.200  1.5366 -2.4777 -2.3448
 8646SOL     OW37570   2.708   3.531  15.443 -0.7561  0.3021 -0.0758
 8646SOL    HW137571   2.625   3.519  15.490 -0.6966 -0.8022 -0.2573
 8646SOL    HW237572   2.701   3.625  15.422 -0.4687 -0.0411 -1.7147
 8647SOL     OW37573   1.689   3.192   4.168 -0.1121 -0.1757 -0.5362
 8647SOL    HW137574   1.604   3.230   4.147 -0.2861  0.0711  0.5682
 8647SOL    HW237575   1.698   3.206   4.263  1.3420 -1.7046 -0.4562
 8648SOL     OW37576   2.736   1.506   2.980  0.4496 -0.0272  0.1411
 8648SOL    HW137577   2.762   1.582   3.031  2.6778  0.5434 -1.8576
 8648SOL    HW237578   2.675   1.550   2.921  0.8824 -0.3755 -0.5744
 8649SOL     OW37579   1.097   3.600   7.702 -0.0168  0.5887 -0.2262
 8649SOL    HW137580   1.034   3.530   7.691  0.6328 -0.2556  1.3142
 8649SOL    HW237581   1.178   3.563   7.667  1.0997 -1.1615  4.1435
 8650SOL     OW37582   3.838   2.076   6.451 -0.0902 -0.2006 -0.1911
 8650SOL    HW137583   3.762   2.124   6.484 -0.5957 -1.8602  1.0744
 8650SOL    HW237584   3.879   2.140   6.393  0.5342  0.0447  0.5318
 8651SOL     OW37585   4.590   2.919   5.786  0.2193 -0.2221 -0.3316
 8651SOL    HW137586   4.671   2.890   5.827 -0.2285 -0.6656  0.2348
 8651SOL    HW237587   4.624   2.945   5.701  2.6481  1.8331  1.2580
 8652SOL     OW37588   1.345   1.192   7.291 -0.0410  0.4245  0.2868
 8652SOL    HW137589   1.367   1.103   7.318  0.1097  0.4947  0.3943
 8652SOL    HW237590   1.437   1.215   7.281  0.1938  0.5875  2.9083
 8653SOL     OW37591   1.945   3.019  11.959  0.0163 -0.2488  0.3495
 8653SOL    HW137592   1.954   3.105  11.919 -0.3422 -1.6543 -2.7316
 8653SOL    HW237593   2.034   2.983  11.951  0.0496 -0.4685  1.6540
 8654SOL     OW37594   3.454   1.603   6.377  0.4339 -0.2126 -0.6067
 8654SOL    HW137595   3.541   1.590   6.416  0.7724 -0.3159 -1.3764
 8654SOL    HW237596   3.473   1.668   6.309  0.3904 -0.0343 -0.4474
 8655SOL     OW37597   3.966   2.379   1.956 -0.1965 -0.1365 -0.5841
 8655SOL    HW137598   3.917   2.342   2.029 -1.4313  1.0641 -0.8045
 8655SOL    HW237599   3.898   2.421   1.903 -0.0187  0.7685 -0.1026
 8656SOL     OW37600   3.794   3.194  14.427  0.2887  0.3163 -0.1790
 8656SOL    HW137601   3.835   3.216  14.344  2.5742 -0.9023  0.6140
 8656SOL    HW237602   3.860   3.136  14.465 -2.2398 -0.9091  2.3634
 8657SOL     OW37603   3.316   1.042   9.126 -0.4161 -0.0275  0.4294
 8657SOL    HW137604   3.321   0.957   9.169 -0.9883 -1.4698 -2.2925
 8657SOL    HW237605   3.401   1.077   9.149  0.7448 -2.4922 -0.0973
 8658SOL     OW37606   0.826   2.211   8.886  0.3913 -0.1156  0.2711
 8658SOL    HW137607   0.816   2.270   8.811  1.2456  3.3361  2.8565
 8658SOL    HW237608   0.861   2.129   8.854  1.1865 -0.7353  2.7426
 8659SOL     OW37609   0.948   2.532   5.421  0.0413 -0.2774 -0.3054
 8659SOL    HW137610   0.911   2.455   5.376  3.4218 -1.2110 -1.4888
 8659SOL    HW237611   1.042   2.530   5.404 -0.0613  0.6283 -0.9483
 8660SOL     OW37612   1.064   0.430  15.410 -0.4878  0.9786  0.3936
 8660SOL    HW137613   1.092   0.407  15.498  0.7130  1.0434  0.0302
 8660SOL    HW237614   1.144   0.449  15.361  1.3470 -1.7117  2.3341
 8661SOL     OW37615   2.829   1.600  13.394  0.2015  0.3099 -0.6134
 8661SOL    HW137616   2.830   1.514  13.352 -1.2266  0.4507 -0.9478
 8661SOL    HW237617   2.896   1.648  13.344  0.9055  0.2628  0.2929
 8662SOL     OW37618   4.410   3.452   8.601 -0.2515  0.0323  0.0451
 8662SOL    HW137619   4.459   3.495   8.531  0.2571  0.3102  0.5654
 8662SOL    HW237620   4.383   3.533   8.645 -0.1484 -1.1281  2.2552
 8663SOL     OW37621   4.129   3.168   3.235 -0.3070 -0.4351 -0.2564
 8663SOL    HW137622   4.086   3.216   3.165  0.7201  0.6492 -0.1400
 8663SOL    HW237623   4.224   3.172   3.226 -0.1724 -2.8416  0.1620
 8664SOL     OW37624   4.206   0.956   1.551 -0.2390 -0.1400  0.7480
 8664SOL    HW137625   4.182   0.867   1.525 -1.5854  0.4881 -0.1847
 8664SOL    HW237626   4.115   0.986   1.551 -0.2151 -0.0622 -0.7678
 8665SOL     OW37627   3.360   3.461  13.853  0.5122 -0.3712  0.4739
 8665SOL    HW137628   3.413   3.388  13.821  0.2774  1.0264 -3.0532
 8665SOL    HW237629   3.413   3.534  13.821  1.0589 -0.7242  0.5562
 8666SOL     OW37630   3.950   2.220   0.876 -0.1850  0.3314  0.1003
 8666SOL    HW137631   3.945   2.245   0.784 -1.4967 -2.0884 -0.5029
 8666SOL    HW237632   3.901   2.138   0.876  0.7392 -0.2287 -0.5509
 8667SOL     OW37633   3.733   1.135   8.490 -0.3200 -0.0064  0.0037
 8667SOL    HW137634   3.818   1.157   8.452  0.3748 -1.1427  0.9116
 8667SOL    HW237635   3.678   1.212   8.473 -1.0991 -0.6922 -0.5575
 8668SOL     OW37636   0.621   3.292   7.322 -0.6033 -0.1034 -0.0599
 8668SOL    HW137637   0.691   3.227   7.326 -1.5436 -0.9285  2.5828
 8668SOL    HW237638   0.552   3.252   7.268 -3.5739  2.8104  1.5778
 8669SOL     OW37639   0.418   0.363  15.030 -0.4170 -0.0770  0.0223
 8669SOL    HW137640   0.423   0.274  15.065 -0.3673 -0.1607 -0.1957
 8669SOL    HW237641   0.406   0.342  14.937 -1.0182  1.4428 -0.2488
 8670SOL     OW37642   1.792   3.354   4.417 -0.4419  0.5130  0.3601
 8670SOL    HW137643   1.846   3.381   4.491 -1.6418  2.3287  0.5835
 8670SOL    HW237644   1.855   3.351   4.344 -0.3891  2.2904  0.3270
 8671SOL     OW37645   3.099   3.268   2.662  0.6932 -0.0984 -0.2031
 8671SOL    HW137646   3.118   3.175   2.666 -1.1190 -0.5498 -1.7264
 8671SOL    HW237647   3.054   3.288   2.579 -0.2504 -1.5166 -0.0198
 8672SOL     OW37648   4.562   2.067   3.236  0.6013  0.1936 -0.2670
 8672SOL    HW137649   4.552   2.016   3.155  0.6910 -0.6910  0.2800
 8672SOL    HW237650   4.597   2.001   3.296 -0.7822  0.0130  0.3375
 8673SOL     OW37651   2.458   3.087  15.254 -0.0386 -0.6751 -0.3836
 8673SOL    HW137652   2.446   3.154  15.188  0.6234 -0.9458 -0.7791
 8673SOL    HW237653   2.383   3.029  15.240 -1.5201  0.8062  1.4169
 8674SOL     OW37654   0.674   1.245  15.501 -0.0091  0.2791  0.5662
 8674SOL    HW137655   0.670   1.324  15.555 -0.1708  1.1248 -0.7023
 8674SOL    HW237656   0.730   1.181  15.545 -0.4221 -0.5303 -0.1054
 8675SOL     OW37657   3.763   3.658   6.540  0.0305  0.9536 -0.6510
 8675SOL    HW137658   3.814   3.708   6.604  0.0251  1.7378 -1.2518
 8675SOL    HW237659   3.751   3.586   6.601 -0.2079  1.1384 -0.4796
 8676SOL     OW37660   0.185   0.916  15.013  0.2496 -0.4399  0.1870
 8676SOL    HW137661   0.091   0.920  15.029 -0.1190  1.3913 -2.4160
 8676SOL    HW237662   0.207   0.877  15.097  1.5677  0.3156  0.2024
 8677SOL     OW37663   1.938   1.841   1.736  0.2457  0.3512  0.4392
 8677SOL    HW137664   1.851   1.860   1.772  0.1435 -0.0269  0.3906
 8677SOL    HW237665   1.978   1.928   1.735 -1.2522  1.0687  1.9790
 8678SOL     OW37666   3.807   0.421   8.454 -0.0358  0.5607  0.2735
 8678SOL    HW137667   3.865   0.403   8.381  1.4355  1.6008  1.1882
 8678SOL    HW237668   3.872   0.450   8.518  0.5020 -2.5088  1.1081
 8679SOL     OW37669   1.886   4.326   1.666 -0.7029 -0.6617 -0.0288
 8679SOL    HW137670   1.874   4.278   1.584  1.1327 -1.2999  0.0611
 8679SOL    HW237671   1.843   4.408   1.644  0.3952 -0.5263 -1.6826
 8680SOL     OW37672   2.316   2.435   8.743 -0.2693 -0.5906 -0.1093
 8680SOL    HW137673   2.404   2.415   8.776 -1.0770 -2.4485  0.8760
 8680SOL    HW237674   2.344   2.512   8.693  2.1790 -2.0442 -0.9889
 8681SOL     OW37675   2.683   0.174  10.870 -0.1289 -0.1257 -0.4748
 8681SOL    HW137676   2.662   0.223  10.950  0.0294 -0.1760 -0.4034
 8681SOL    HW237677   2.603   0.185  10.818 -0.3902  1.5176  0.2773
 8682SOL     OW37678   3.951   3.757   6.701  0.0397  0.5286 -0.0332
 8682SOL    HW137679   4.009   3.685   6.726  0.0391 -0.0240 -1.6318
 8682SOL    HW237680   3.988   3.794   6.621  0.3895 -0.2039 -0.2092
 8683SOL     OW37681   0.986   0.167   5.155  0.4128  0.6657  0.5207
 8683SOL    HW137682   0.948   0.137   5.238  1.7370  3.1951  2.0727
 8683SOL    HW237683   0.970   0.086   5.107  2.1813  0.2006  0.7081
 8684SOL     OW37684   3.707   0.400   4.912 -0.2747  0.2088  0.0502
 8684SOL    HW137685   3.772   0.381   4.980 -0.4968  2.8348  1.0182
 8684SOL    HW237686   3.764   0.403   4.836 -0.8421 -1.0367 -0.4320
 8685SOL     OW37687   2.418   3.831   6.510  0.5356  0.2592 -0.5903
 8685SOL    HW137688   2.392   3.747   6.472 -0.7568  0.1512  0.5241
 8685SOL    HW237689   2.505   3.800   6.533  0.8198  0.0833 -1.9384
 8686SOL     OW37690   2.308   2.092   5.236  0.6602 -0.1155  0.3840
 8686SOL    HW137691   2.221   2.129   5.246  1.0101  0.8959 -0.3678
 8686SOL    HW237692   2.345   2.180   5.229 -1.2266  0.5680 -0.8657
 8687SOL     OW37693   0.508   1.926   4.560  0.3636 -0.3380  0.1853
 8687SOL    HW137694   0.490   1.833   4.543  1.3655 -0.6605  0.8910
 8687SOL    HW237695   0.591   1.923   4.608  0.9850  0.3085 -0.8569
 8688SOL     OW37696   2.135   2.745   1.100 -0.2688  0.6549  0.0079
 8688SOL    HW137697   2.039   2.752   1.102 -0.3110  0.3114 -0.8844
 8688SOL    HW237698   2.159   2.835   1.124 -0.4755  1.5478 -3.1224
 8689SOL     OW37699   1.258   1.677  17.352 -0.5499 -0.1108  0.0060
 8689SOL    HW137700   1.218   1.662  17.438  2.9350  0.8050  1.7677
 8689SOL    HW237701   1.263   1.772  17.360  2.0656 -0.4141  2.1051
 8690SOL     OW37702   2.444   2.773   6.533  0.0363 -0.2265 -0.2892
 8690SOL    HW137703   2.480   2.758   6.620  0.5368 -0.7964 -0.5922
 8690SOL    HW237704   2.503   2.721   6.479 -1.1858 -0.6036 -1.2624
 8691SOL     OW37705   3.235   3.663  14.803 -0.9427 -0.1759 -0.3497
 8691SOL    HW137706   3.282   3.681  14.721 -0.5817  0.3255 -0.0302
 8691SOL    HW237707   3.279   3.583  14.832 -3.2565 -1.2093  0.3460
 8692SOL     OW37708   1.644   1.829   3.618 -0.3239 -0.4170 -0.3102
 8692SOL    HW137709   1.564   1.836   3.565 -0.6179 -0.6322  0.1025
 8692SOL    HW237710   1.684   1.916   3.622 -1.5055  0.0421  1.5632
 8693SOL     OW37711   2.497   1.970  15.051  0.0149  0.2024 -0.5037
 8693SOL    HW137712   2.545   1.950  15.131 -0.0075  1.1347 -0.2533
 8693SOL    HW237713   2.550   1.933  14.981  1.3918  3.0804 -0.9881
 8694SOL     OW37714   3.540   3.392   7.724 -0.0184  0.3942  0.4270
 8694SOL    HW137715   3.496   3.313   7.694 -0.1130 -0.5695  3.0635
 8694SOL    HW237716   3.473   3.436   7.776  1.3662  2.6069  0.3208
 8695SOL     OW37717   0.047   2.814  13.694  0.5095  0.3522 -0.2857
 8695SOL    HW137718   0.093   2.753  13.751 -1.0996 -0.1692  0.4418
 8695SOL    HW237719   0.082   2.770  13.617 -0.0046  1.6055 -1.2353
 8696SOL     OW37720   2.838   0.284   1.687 -0.1428  0.1533  0.2570
 8696SOL    HW137721   2.769   0.347   1.666  0.3686  0.8001  0.4986
 8696SOL    HW237722   2.874   0.322   1.767  1.0944 -3.4749  1.4359
 8697SOL     OW37723   3.505   1.930   5.660 -0.1094 -0.3390  0.4156
 8697SOL    HW137724   3.502   1.951   5.753  0.7806  1.5002  0.0265
 8697SOL    HW237725   3.588   1.970   5.635 -1.3392 -0.1081 -3.3458
 8698SOL     OW37726   3.719   0.925  10.732  0.5285  0.2016  0.1164
 8698SOL    HW137727   3.705   0.830  10.731  1.3980  0.0769 -0.5632
 8698SOL    HW237728   3.782   0.934  10.660  3.6940 -0.2923  2.8066
 8699SOL     OW37729   2.337   2.414   3.144 -0.5981 -0.4606  0.5865
 8699SOL    HW137730   2.356   2.483   3.207  1.4263 -0.8819  0.4351
 8699SOL    HW237731   2.276   2.466   3.092  1.9950 -0.2429 -2.2463
 8700SOL     OW37732   1.787   1.961   5.746 -0.4124 -0.3629  0.2215
 8700SOL    HW137733   1.793   1.921   5.660  0.0653  0.8965 -0.3323
 8700SOL    HW237734   1.752   1.885   5.792 -0.3413 -1.9266 -2.3624
 8701SOL     OW37735   1.101   4.050   2.205 -0.4668  0.3310  1.1527
 8701SOL    HW137736   1.112   3.960   2.172  0.2984  0.4917  0.9860
 8701SOL    HW237737   1.181   4.087   2.168 -0.6916  0.3312  0.6625
 8702SOL     OW37738   4.480   3.938   4.347 -0.4739  0.4355 -0.5313
 8702SOL    HW137739   4.402   3.951   4.401 -1.2650  0.2088 -1.6148
 8702SOL    HW237740   4.469   3.843   4.343  1.0564  0.3013 -1.4662
 8703SOL     OW37741   2.904   4.441   3.184  0.4028 -0.1583  0.0127
 8703SOL    HW137742   2.953   4.465   3.263 -1.2682  0.5725  0.8369
 8703SOL    HW237743   2.925   4.349   3.171  1.5774  0.0479  0.4217
 8704SOL     OW37744   4.717   1.664   6.712  0.0785 -0.2174  0.4123
 8704SOL    HW137745   4.705   1.599   6.643  1.5371  0.3087 -0.3544
 8704SOL    HW237746   0.063   1.631   6.750  0.6102  1.3891  0.6827
 8705SOL     OW37747   1.282   0.026   0.330  0.5091  0.3852 -0.1088
 8705SOL    HW137748   1.259   0.110   0.368 -0.8603 -0.7542  1.5610
 8705SOL    HW237749   1.305   0.054   0.241  0.8130  0.3470 -0.0450
 8706SOL     OW37750   1.578   0.564   6.489  0.5617 -0.2423 -0.0133
 8706SOL    HW137751   1.569   0.551   6.583 -1.8449  2.1288  0.1051
 8706SOL    HW237752   1.622   0.481   6.472  1.2120  0.0767  0.1239
 8707SOL     OW37753   0.237   3.262   7.952 -0.3940  0.5672 -0.3775
 8707SOL    HW137754   0.190   3.253   7.869 -1.7432 -2.4275  0.7329
 8707SOL    HW237755   0.185   3.218   8.019 -0.0151  0.7707  0.0505
 8708SOL     OW37756   3.487   4.121  17.517 -0.4378 -0.4526  0.0189
 8708SOL    HW137757   3.484   4.208  17.476 -2.9251  0.0534  1.3107
 8708SOL    HW237758   3.450   4.072  17.443  2.0170  0.2672 -1.6917
 8709SOL     OW37759   1.615   0.972   3.130 -0.7173 -0.5380  0.1897
 8709SOL    HW137760   1.656   0.885   3.127  1.8999  0.5279  3.5098
 8709SOL    HW237761   1.653   1.001   3.213  0.8488  0.1069 -0.7439
 8710SOL     OW37762   3.467   2.283   8.298  0.2555 -0.3064  0.1717
 8710SOL    HW137763   3.488   2.370   8.331 -1.0935 -0.5572  1.7187
 8710SOL    HW237764   3.504   2.300   8.212 -4.0494  1.1532 -1.3821
 8711SOL     OW37765   2.685   1.026  10.916 -0.2128 -0.6991  0.2105
 8711SOL    HW137766   2.667   1.043  10.823  0.4477  1.2082  0.4383
 8711SOL    HW237767   2.687   1.116  10.946  2.0301 -1.2653  1.7453
 8712SOL     OW37768   4.539   0.476  16.694 -0.7640  0.5484  0.2932
 8712SOL    HW137769   4.510   0.409  16.756  0.3188  1.1808  1.4698
 8712SOL    HW237770   4.592   0.417  16.640 -0.3172  0.9035  0.3421
 8713SOL     OW37771   0.599   4.700   5.641  0.1407 -0.1335  0.2969
 8713SOL    HW137772   0.680   4.664   5.676  1.2161  3.2608  1.2248
 8713SOL    HW237773   0.547   4.623   5.619  0.3857 -0.3041  0.3150
 8714SOL     OW37774   3.380   4.555  12.771  0.2751 -0.2603  0.3856
 8714SOL    HW137775   3.308   4.503  12.807  0.2919  0.0663  0.8915
 8714SOL    HW237776   3.334   4.602  12.701  0.4953 -1.2261 -0.4070
 8715SOL     OW37777   2.570   3.363   7.129  0.8279 -0.8166 -0.2471
 8715SOL    HW137778   2.521   3.300   7.076  1.1199 -0.1509 -1.3061
 8715SOL    HW237779   2.497   3.414   7.163  0.8303 -0.5863 -0.5974
 8716SOL     OW37780   3.997   0.910   8.388 -0.1978  0.4463 -0.3947
 8716SOL    HW137781   4.073   0.852   8.389 -0.6707 -0.2320 -2.7496
 8716SOL    HW237782   3.927   0.853   8.355 -1.2299  0.1944  2.2807
 8717SOL     OW37783   1.733   2.815   0.083  0.2865 -0.2225 -0.6507
 8717SOL    HW137784   1.703   2.760   0.010  0.0503 -0.3346 -0.4710
 8717SOL    HW237785   1.714   2.752   0.153  0.2847  0.1775 -0.2939
 8718SOL     OW37786   3.341   1.820   3.844 -0.0251  0.0846 -0.6943
 8718SOL    HW137787   3.364   1.861   3.928  0.2899  0.5361 -0.9951
 8718SOL    HW237788   3.423   1.828   3.795  0.8433 -0.0870  0.7376
 8719SOL     OW37789   1.501   3.026   3.422  0.3990  0.3660  0.3126
 8719SOL    HW137790   1.447   3.047   3.345 -0.3517 -0.6826  0.5590
 8719SOL    HW237791   1.563   2.959   3.394 -0.7382  0.1411 -1.7249
 8720SOL     OW37792   1.115   0.743   2.964 -0.3233 -0.3188 -0.3766
 8720SOL    HW137793   1.064   0.663   2.978 -1.6179  0.8373  1.6068
 8720SOL    HW237794   1.077   0.768   2.880 -0.2208 -0.8794 -0.5884
 8721SOL     OW37795   0.598   2.850   7.846  0.1717  0.1284 -0.0447
 8721SOL    HW137796   0.513   2.892   7.833  1.4892  3.2835  1.3959
 8721SOL    HW237797   0.571   2.760   7.830 -0.9964  0.4777 -0.0590
 8722SOL     OW37798   2.087   1.811  16.619  0.5662  0.3011 -0.9976
 8722SOL    HW137799   2.093   1.830  16.526 -0.9906 -1.9859 -1.5565
 8722SOL    HW237800   2.157   1.871  16.648 -1.3030  3.4689 -3.0789
 8723SOL     OW37801   4.496   3.632   4.681  0.3799  0.3961 -0.0961
 8723SOL    HW137802   4.411   3.616   4.639  1.4509 -0.4411 -1.9462
 8723SOL    HW237803   4.560   3.586   4.626 -0.6769 -0.1024 -0.9181
 8724SOL     OW37804   1.574   1.691  14.532 -0.5615  0.3547 -0.1205
 8724SOL    HW137805   1.638   1.620  14.539  0.1878  0.8956 -1.5205
 8724SOL    HW237806   1.526   1.683  14.614  1.2761 -0.4884  0.8675
 8725SOL     OW37807   0.512   3.121   5.009  0.4697  0.3792  0.6202
 8725SOL    HW137808   0.470   3.077   5.083  2.5934 -1.5701  0.6537
 8725SOL    HW237809   0.568   3.053   4.973 -0.1012 -0.1769  0.7841
 8726SOL     OW37810   1.892   3.425   5.644 -0.5308  0.7054 -0.5628
 8726SOL    HW137811   1.867   3.340   5.679 -3.4833  1.6505 -0.3837
 8726SOL    HW237812   1.810   3.473   5.641 -1.3527 -0.8574 -3.1135
 8727SOL     OW37813   2.584   2.415   8.793 -0.2469 -0.3662  0.1469
 8727SOL    HW137814   2.639   2.386   8.720 -2.1867  0.7930 -1.7855
 8727SOL    HW237815   2.653   2.443   8.854  0.9646  0.5726 -1.6469
 8728SOL     OW37816   0.576   2.214   6.152  0.0361  0.6396 -0.1282
 8728SOL    HW137817   0.670   2.211   6.173 -0.0123  0.1273  0.0121
 8728SOL    HW237818   0.578   2.201   6.057  3.7937  1.0029 -0.1295
 8729SOL     OW37819   2.273   3.732   2.031 -0.0291 -0.1347 -0.3163
 8729SOL    HW137820   2.280   3.639   2.055  2.3368  0.0890 -0.1245
 8729SOL    HW237821   2.315   3.743   1.946  2.8312  0.7317  1.1867
 8730SOL     OW37822   1.119   0.205  15.807 -0.0288 -0.4777 -0.2936
 8730SOL    HW137823   1.028   0.200  15.837  0.8532 -0.3070  2.3591
 8730SOL    HW237824   1.156   0.209  15.895  0.2963  1.6458 -0.5372
 8731SOL     OW37825   1.796   3.687   5.801 -0.5696  0.0091 -0.5410
 8731SOL    HW137826   1.885   3.650   5.800 -0.0723  1.1921 -0.0571
 8731SOL    HW237827   1.740   3.613   5.779  0.3189 -0.9763  0.5369
 8732SOL     OW37828   1.114   1.086   3.249 -0.1965 -0.0515  0.0451
 8732SOL    HW137829   1.162   1.166   3.270 -3.5649  2.4293 -1.7626
 8732SOL    HW237830   1.179   1.016   3.248  0.3355  0.4082  1.9854
 8733SOL     OW37831   2.818   0.761   2.523 -0.4013 -0.0075 -0.1688
 8733SOL    HW137832   2.828   0.812   2.603 -0.8505  0.5699 -0.4873
 8733SOL    HW237833   2.747   0.702   2.548 -1.2461  0.7141 -0.8574
 8734SOL     OW37834   4.338   1.207  17.119 -0.3045  0.0397 -0.3490
 8734SOL    HW137835   4.256   1.179  17.077  0.5822 -2.2126 -0.6200
 8734SOL    HW237836   4.301   1.257  17.191 -0.4582  0.3797 -0.6678
 8735SOL     OW37837   2.018   2.948   7.825 -0.3187 -0.1183 -0.1438
 8735SOL    HW137838   2.032   3.030   7.872 -1.7862 -0.7608  1.3958
 8735SOL    HW237839   2.107   2.916   7.810 -0.7248 -0.3056 -2.1661
 8736SOL     OW37840   1.842   1.866   8.338  0.2561  0.1648  0.4227
 8736SOL    HW137841   1.801   1.786   8.305 -1.5972  0.4669  2.0120
 8736SOL    HW237842   1.861   1.846   8.429  1.7295 -1.5190 -0.2514
 8737SOL     OW37843   1.697   0.041  11.404 -0.0173  0.3297 -0.6489
 8737SOL    HW137844   1.701   4.728  11.322 -0.1782  0.6054 -0.8177
 8737SOL    HW237845   1.739   0.125  11.386 -1.2813  1.1942  0.4130
 8738SOL     OW37846   0.550   2.349   8.541 -0.4460 -0.1822  0.1390
 8738SOL    HW137847   0.587   2.387   8.621 -2.3940 -0.6193  1.2490
 8738SOL    HW237848   0.583   2.408   8.473  0.1753  0.8627  1.3483
 8739SOL     OW37849   0.120   0.612   9.107  0.0056  0.0352  0.8789
 8739SOL    HW137850   0.174   0.670   9.161 -1.3990  2.1884 -0.0289
 8739SOL    HW237851   0.101   0.535   9.161 -2.2410 -0.7130 -0.9943
 8740SOL     OW37852   0.642   1.716   5.897  0.7638  0.9238  0.1666
 8740SOL    HW137853   0.659   1.742   5.806 -1.8560 -2.5754 -1.2732
 8740SOL    HW237854   0.713   1.747   5.954  0.8209  0.8853  0.1166
 8741SOL     OW37855   4.474   0.393   7.369  0.0389  0.0343  0.1170
 8741SOL    HW137856   4.464   0.407   7.463  1.5279  0.8430  0.1481
 8741SOL    HW237857   4.387   0.361   7.344  0.4288 -1.4091  0.6091
 8742SOL     OW37858   3.653   2.968  16.467 -0.3212 -0.0294 -0.3218
 8742SOL    HW137859   3.742   2.940  16.489 -0.3941 -0.8994 -1.1302
 8742SOL    HW237860   3.616   2.965  16.555  1.2188  2.5891  0.4156
 8743SOL     OW37861   0.137   2.556   7.488 -0.3041  0.0752 -0.1218
 8743SOL    HW137862   0.069   2.616   7.518 -1.8711 -2.0944  0.6531
 8743SOL    HW237863   0.080   2.481   7.468 -0.4027  0.3852 -1.0398
 8744SOL     OW37864   0.913   0.172   6.816  0.0067 -0.2357  0.0243
 8744SOL    HW137865   0.835   0.135   6.775  0.4952 -1.2599  0.0133
 8744SOL    HW237866   0.885   0.193   6.905  1.1492  0.1867  0.2799
 8745SOL     OW37867   0.774   0.101   3.156  0.6590  0.1785 -0.7661
 8745SOL    HW137868   0.862   0.084   3.189  1.0551  1.9363 -0.9325
 8745SOL    HW237869   0.750   0.008   3.150  1.8574 -0.2088  0.3178
 8746SOL     OW37870   1.315   0.706   1.662 -0.4473 -0.1242  0.1669
 8746SOL    HW137871   1.360   0.681   1.742 -0.0303  2.5150  0.7656
 8746SOL    HW237872   1.382   0.763   1.624 -1.0537  0.1315 -0.5318
 8747SOL     OW37873   3.932   2.322   0.605  0.1846  0.1498  0.0516
 8747SOL    HW137874   3.934   2.407   0.561 -1.9841  0.9357  1.4936
 8747SOL    HW237875   4.024   2.295   0.612  0.2287  0.5580  1.0245
 8748SOL     OW37876   0.218   0.655   7.093  0.4027  0.4864 -0.1309
 8748SOL    HW137877   0.284   0.710   7.051  1.3104 -1.2761 -1.0056
 8748SOL    HW237878   0.169   0.626   7.016 -1.1784 -0.5039  1.2643
 8749SOL     OW37879   1.985   4.474   0.043  0.3166  0.4895  0.1398
 8749SOL    HW137880   2.068   4.499   0.083 -1.0071  1.0473  2.5345
 8749SOL    HW237881   1.960   4.562   0.017  0.5668  0.5565  0.1268
 8750SOL     OW37882   0.360   2.088  14.798  0.1725 -0.2622  0.4172
 8750SOL    HW137883   0.438   2.122  14.755  0.8846 -2.3613  0.0119
 8750SOL    HW237884   0.375   1.994  14.783 -0.1015  0.0082 -1.5351
 8751SOL     OW37885   1.144   3.562   1.659 -0.6497  0.3950  0.5898
 8751SOL    HW137886   1.172   3.472   1.641  0.2636  0.4452  1.7773
 8751SOL    HW237887   1.227   3.605   1.640 -0.8045  0.0179 -0.9230
 8752SOL     OW37888   4.168   4.291   6.818  0.1710 -0.0022 -0.1779
 8752SOL    HW137889   4.234   4.223   6.828  0.3739  0.3780  1.0066
 8752SOL    HW237890   4.126   4.277   6.903 -1.3438 -0.2698 -0.9687
 8753SOL     OW37891   4.474   1.429   2.653 -0.4199  0.1328  0.3787
 8753SOL    HW137892   4.445   1.459   2.566  0.5684 -1.3067 -0.4340
 8753SOL    HW237893   4.564   1.403   2.634 -0.7301 -0.3006 -0.4970
 8754SOL     OW37894   3.202   0.976  15.451  0.2486  0.6563 -0.0529
 8754SOL    HW137895   3.290   0.973  15.413  0.7375 -1.6865  1.2607
 8754SOL    HW237896   3.218   0.978  15.545 -2.3759  0.2046  0.4153
 8755SOL     OW37897   3.623   2.493   3.804 -0.1989 -0.3222 -0.1145
 8755SOL    HW137898   3.679   2.448   3.866  0.8935  1.9230  0.5547
 8755SOL    HW237899   3.578   2.422   3.759  0.5763 -0.2372 -1.0192
 8756SOL     OW37900   2.138   0.728   4.449 -0.0832 -0.0700 -0.2358
 8756SOL    HW137901   2.192   0.804   4.469  1.8075 -1.1505 -1.1852
 8756SOL    HW237902   2.199   0.665   4.409 -1.1454 -1.9690  1.1392
 8757SOL     OW37903   2.100   1.244   9.427  0.2669 -0.2228  0.0321
 8757SOL    HW137904   2.121   1.221   9.518  1.6767  1.5127  0.1631
 8757SOL    HW237905   2.144   1.330   9.426  1.5939 -0.9236 -0.8302
 8758SOL     OW37906   3.972   0.188   7.291  0.0534  0.1371  0.5886
 8758SOL    HW137907   3.946   0.097   7.279  0.8148  0.1869 -1.5574
 8758SOL    HW237908   3.946   0.212   7.380  2.1726  2.6549  0.5607
 8759SOL     OW37909   0.868   4.463   3.855 -0.2099  0.5129  0.7073
 8759SOL    HW137910   0.961   4.488   3.861 -0.0452  0.1641 -0.3405
 8759SOL    HW237911   0.848   4.414   3.934 -0.7582 -0.2724  0.0756
 8760SOL     OW37912   0.868   2.587   6.349  0.1469 -0.6493  0.0643
 8760SOL    HW137913   0.887   2.679   6.333  1.2104 -0.6797  1.1553
 8760SOL    HW237914   0.778   2.599   6.380 -0.3263 -1.0174 -1.1579
 8761SOL     OW37915   2.323   2.007   8.447  0.5033 -0.5809  0.0985
 8761SOL    HW137916   2.376   2.003   8.527  0.2980  1.2891  0.3216
 8761SOL    HW237917   2.238   2.029   8.484  0.6577  0.0001  0.1124
 8762SOL     OW37918   3.477   1.452   3.080  0.8419 -0.2727 -0.4612
 8762SOL    HW137919   3.495   1.372   3.030  1.0615 -1.0785  0.9000
 8762SOL    HW237920   3.382   1.445   3.091  1.2045 -2.1727  1.5964
 8763SOL     OW37921   0.208   0.130   3.230  0.4206 -0.0902  0.2220
 8763SOL    HW137922   0.181   0.145   3.320  0.4344  2.6882 -0.2356
 8763SOL    HW237923   0.265   0.053   3.239 -0.0154 -0.7193 -2.2876
 8764SOL     OW37924   0.159   0.158   4.469  0.3244 -0.5933 -1.1669
 8764SOL    HW137925   0.250   0.182   4.489 -0.5081  0.1189  1.7532
 8764SOL    HW237926   0.108   0.172   4.549  0.0435  0.5267 -1.5547
 8765SOL     OW37927   4.522   2.019   5.687  0.1179 -0.2435 -0.5997
 8765SOL    HW137928   4.616   2.029   5.703 -0.3511  1.0035  1.3360
 8765SOL    HW237929   4.499   1.936   5.729  1.9597  0.2183  1.3028
 8766SOL     OW37930   1.672   3.649   0.785 -0.6686 -0.3208 -0.0170
 8766SOL    HW137931   1.728   3.648   0.862 -1.0470  0.4863  0.2671
 8766SOL    HW237932   1.731   3.603   0.724  0.5472 -1.1506  1.7957
 8767SOL     OW37933   4.618   1.470   8.694  0.2339 -0.6448 -0.3449
 8767SOL    HW137934   4.681   1.398   8.686  0.5770 -0.2666 -1.0342
 8767SOL    HW237935   4.560   1.448   8.621 -3.3559  0.8892  2.0585
 8768SOL     OW37936   4.585   4.596   0.710  0.0341  0.1072  0.6845
 8768SOL    HW137937   4.667   4.602   0.662 -0.4945 -2.3304 -0.5736
 8768SOL    HW237938   4.544   4.677   0.679  0.6521  0.6384  1.2549
 8769SOL     OW37939   4.676   0.660   8.350 -0.1624  0.4169  0.0522
 8769SOL    HW137940   4.700   0.636   8.440  1.4036  1.5408 -0.0670
 8769SOL    HW237941   4.584   0.636   8.359 -0.2993  1.6127  1.9048
 8770SOL     OW37942   1.146   1.771   3.601 -0.0797 -0.2916  0.1706
 8770SOL    HW137943   1.206   1.816   3.541 -0.6929 -0.6358 -0.7020
 8770SOL    HW237944   1.116   1.838   3.662 -0.7993  0.0149 -0.5116
 8771SOL     OW37945   1.947   3.405  13.180 -0.2792 -0.1922 -0.4376
 8771SOL    HW137946   1.913   3.467  13.244 -0.8305 -0.8167 -0.1221
 8771SOL    HW237947   1.901   3.329  13.214 -0.4467 -0.6996 -1.8050
 8772SOL     OW37948   3.145   2.432   5.562  0.2285  0.5015  0.3057
 8772SOL    HW137949   3.079   2.462   5.500  0.0225 -0.5892 -0.0080
 8772SOL    HW237950   3.218   2.413   5.503 -0.7977  3.4362 -1.8744
 8773SOL     OW37951   2.461   0.682   4.288  0.1596  0.0659 -0.7129
 8773SOL    HW137952   2.539   0.668   4.342 -0.0100 -1.3137 -0.8389
 8773SOL    HW237953   2.482   0.765   4.245  0.9698  0.0510 -0.3493
 8774SOL     OW37954   3.061   2.468   4.975 -0.0713  0.1316 -0.0511
 8774SOL    HW137955   3.069   2.419   5.057 -1.1503 -0.3938 -0.2588
 8774SOL    HW237956   3.061   2.398   4.910 -1.3496 -0.1399  0.2503
 8775SOL     OW37957   2.173   1.880   8.835  0.7985  0.2963  0.0470
 8775SOL    HW137958   2.149   1.933   8.912  0.7893 -0.6941  0.7226
 8775SOL    HW237959   2.208   1.945   8.774 -0.0384  0.2858 -0.4390
 8776SOL     OW37960   3.580   4.730   6.304  0.2143  0.0864 -0.3289
 8776SOL    HW137961   3.552   4.655   6.357 -2.2802 -0.4245 -2.3724
 8776SOL    HW237962   3.506   0.055   6.310 -0.4153 -0.6290 -0.9339
 8777SOL     OW37963   3.304   2.974   2.484  0.3130  0.1225 -0.4592
 8777SOL    HW137964   3.219   3.010   2.458 -0.1733 -0.8457 -0.2174
 8777SOL    HW237965   3.361   3.014   2.419  2.4851 -0.0641  1.2944
 8778SOL     OW37966   3.145   2.218   9.664 -1.2227 -0.0012  0.3759
 8778SOL    HW137967   3.170   2.307   9.640 -0.8958 -0.1356  0.2137
 8778SOL    HW237968   3.226   2.166   9.670 -2.1888 -1.4259  1.0982
 8779SOL     OW37969   0.344   4.527   4.833 -0.2967  0.3383  0.5188
 8779SOL    HW137970   0.400   4.604   4.846  0.6622  0.1949 -2.8396
 8779SOL    HW237971   0.410   4.459   4.850  0.5640  1.5907  2.2241
 8780SOL     OW37972   0.855   2.669   7.803  0.4166 -0.6151 -0.6420
 8780SOL    HW137973   0.797   2.616   7.748 -0.2441  0.8469 -1.3543
 8780SOL    HW237974   0.792   2.739   7.820  2.0581  0.9659 -1.1337
 8781SOL     OW37975   1.551   1.463   0.804 -0.3043 -0.6686 -0.3733
 8781SOL    HW137976   1.538   1.430   0.892 -0.4305  1.0300  0.2418
 8781SOL    HW237977   1.647   1.464   0.804 -0.3297  3.0687  0.6874
 8782SOL     OW37978   4.363   2.486   8.995  0.0343 -0.5761  0.7677
 8782SOL    HW137979   4.427   2.500   8.925 -0.5121 -0.4195  0.2950
 8782SOL    HW237980   4.337   2.395   8.977  1.1231 -0.3316 -2.0885
 8783SOL     OW37981   3.260   4.654  17.143 -0.1700 -0.0647  0.1527
 8783SOL    HW137982   3.264   4.606  17.060 -1.0605 -0.5861  0.4191
 8783SOL    HW237983   3.216   4.731  17.108  0.3919  0.1858 -0.0005
 8784SOL     OW37984   3.177   3.460  11.265 -0.6665 -0.1345  0.3986
 8784SOL    HW137985   3.130   3.444  11.183 -0.0054 -0.1855  0.0280
 8784SOL    HW237986   3.125   3.408  11.326 -1.0968 -1.7639 -1.3699
 8785SOL     OW37987   2.728   0.769  13.808  0.3238 -0.6923  0.1322
 8785SOL    HW137988   2.691   0.681  13.806 -0.1223 -0.5524  1.9382
 8785SOL    HW237989   2.756   0.758  13.899 -2.4823  1.3928  1.2430
 8786SOL     OW37990   4.283   4.154   3.636  0.3754 -0.5504 -0.2954
 8786SOL    HW137991   4.219   4.202   3.583 -0.2868 -0.2728  0.7592
 8786SOL    HW237992   4.348   4.221   3.656 -0.0006 -0.2453 -0.0983
 8787SOL     OW37993   3.286   3.157  11.822 -0.8090 -0.0115 -0.0283
 8787SOL    HW137994   3.357   3.122  11.876 -0.2761 -0.7171 -1.1913
 8787SOL    HW237995   3.221   3.161  11.892 -0.1727  0.3363  0.5459
 8788SOL     OW37996   2.275   1.062   5.814  0.1885  0.2760  0.3525
 8788SOL    HW137997   2.307   1.127   5.752  0.0958 -1.6817 -1.7609
 8788SOL    HW237998   2.180   1.071   5.810 -0.0515 -1.5033  1.8086
 8789SOL     OW37999   2.943   2.143   7.559 -0.9446 -0.1484  0.2167
 8789SOL    HW138000   3.014   2.079   7.567 -1.2776 -0.4974  0.3865
 8789SOL    HW238001   2.952   2.171   7.468  1.1535 -0.4266  0.3486
 8790SOL     OW38002   4.040   0.730   1.474  0.7890  0.1434 -0.3198
 8790SOL    HW138003   3.968   0.678   1.439  0.2496 -0.1085  1.1743
 8790SOL    HW238004   3.985   0.805   1.497 -0.7388 -1.1182  0.1122
 8791SOL     OW38005   1.360   2.550   4.411  0.3128  0.0364 -0.2241
 8791SOL    HW138006   1.278   2.543   4.364 -0.3618  0.9806  0.7991
 8791SOL    HW238007   1.349   2.630   4.463 -2.6881 -1.6733  1.8085
 8792SOL     OW38008   0.807   0.885  15.233  0.5639 -0.3433 -0.5123
 8792SOL    HW138009   0.881   0.825  15.245  1.0892  0.5730  0.9299
 8792SOL    HW238010   0.861   0.963  15.248 -0.8044  0.6031 -0.5285
 8793SOL     OW38011   0.345   0.357   4.746 -0.3785  0.0600  0.4555
 8793SOL    HW138012   0.365   0.429   4.806  1.2055 -0.1073  0.1515
 8793SOL    HW238013   0.301   0.392   4.669  3.0051  0.5207 -1.2932
 8794SOL     OW38014   3.376   3.539   5.069  0.3341  0.3166  0.2616
 8794SOL    HW138015   3.434   3.588   5.127 -0.7364  1.1289  0.6430
 8794SOL    HW238016   3.336   3.479   5.133 -0.6339  0.7509  0.0710
 8795SOL     OW38017   3.115   0.310   6.449 -0.2436 -0.5868  0.3824
 8795SOL    HW138018   3.168   0.360   6.511  0.1076 -0.0978 -0.3103
 8795SOL    HW238019   3.142   0.349   6.366  1.0952  2.6060  2.3299
 8796SOL     OW38020   2.750   1.939   7.762  0.0498  0.0045  0.1143
 8796SOL    HW138021   2.713   1.904   7.843  0.9192 -3.3340 -0.9531
 8796SOL    HW238022   2.835   1.901   7.785  0.7658  2.4507  1.4844
 8797SOL     OW38023   2.934   3.374  12.089  0.2098  0.2690 -0.0455
 8797SOL    HW138024   2.916   3.468  12.080 -1.8881 -0.5256 -3.8641
 8797SOL    HW238025   2.976   3.377  12.175 -1.9354  3.0610  0.9406
 8798SOL     OW38026   2.903   3.196   3.000 -0.0513 -0.4198  0.8389
 8798SOL    HW138027   2.840   3.230   2.937  0.5418 -3.6530 -1.5384
 8798SOL    HW238028   2.847   3.215   3.075 -1.8967 -0.4254 -0.5321
 8799SOL     OW38029   3.383   0.298  17.650 -0.1075  0.6976  0.2933
 8799SOL    HW138030   3.477   0.293  17.670 -0.4941  0.7217  2.1456
 8799SOL    HW238031   3.354   0.342  17.730 -2.7246  0.2574 -0.4285
 8800SOL     OW38032   4.553   2.071   9.209  0.6095  0.0610  1.0474
 8800SOL    HW138033   4.549   1.979   9.232  0.4567 -0.3453 -0.5707
 8800SOL    HW238034   4.515   2.119   9.283  1.3924  0.0532  1.4536
 8801SOL     OW38035   3.852   0.667   3.535 -0.0492  0.1080  0.2772
 8801SOL    HW138036   3.870   0.648   3.443  0.2075 -1.6078  0.6734
 8801SOL    HW238037   3.914   0.610   3.580  1.0995  0.3263 -1.0446
 8802SOL     OW38038   1.540   3.429   7.264  0.3867  0.1542 -0.4637
 8802SOL    HW138039   1.493   3.351   7.292  0.9491 -0.2840 -0.7205
 8802SOL    HW238040   1.538   3.414   7.169  1.4519  1.5896 -0.7240
 8803SOL     OW38041   0.484   1.996   5.423 -0.0125  0.0610 -0.8482
 8803SOL    HW138042   0.490   1.902   5.435 -0.7240  0.1378  0.1255
 8803SOL    HW238043   0.494   2.019   5.330  2.4196  1.1859 -0.3233
 8804SOL     OW38044   3.318   1.319   5.852 -0.1039  0.1140  0.4078
 8804SOL    HW138045   3.252   1.333   5.920  0.1924  3.4407  0.0169
 8804SOL    HW238046   3.362   1.404   5.853  0.1578 -0.0221  0.2919
 8805SOL     OW38047   1.098   2.763   9.451 -0.0139  0.0925  0.2512
 8805SOL    HW138048   1.095   2.735   9.360  4.1573 -2.6474  0.9653
 8805SOL    HW238049   1.152   2.697   9.494  0.2942  2.0809  2.9358
 8806SOL     OW38050   3.496   3.618  12.793 -0.2173  0.2657 -0.4331
 8806SOL    HW138051   3.469   3.526  12.804 -0.3911  0.2829 -0.7071
 8806SOL    HW238052   3.410   3.653  12.772 -0.7376 -0.7560 -0.0268
 8807SOL     OW38053   1.071   3.296   5.475 -0.2845 -0.3602 -0.4604
 8807SOL    HW138054   0.993   3.242   5.477 -0.6722  0.2058 -0.2559
 8807SOL    HW238055   1.036   3.375   5.434  0.2868 -0.2031 -0.6542
 8808SOL     OW38056   2.969   0.120   1.948 -0.2602 -0.0293  0.1149
 8808SOL    HW138057   3.008   0.083   1.868  0.8594  1.0913  0.1492
 8808SOL    HW238058   2.951   0.211   1.925 -0.9646  0.0109  0.8335
 8809SOL     OW38059   2.306   1.881  15.818 -0.4855 -0.3402  0.7768
 8809SOL    HW138060   2.350   1.957  15.855 -1.2821  1.6868 -2.4497
 8809SOL    HW238061   2.228   1.923  15.782  0.8834  0.1281 -1.6123
 8810SOL     OW38062   1.188   1.321   3.370 -0.0081 -0.4626  0.1470
 8810SOL    HW138063   1.255   1.372   3.415 -0.6274 -1.3906  2.1531
 8810SOL    HW238064   1.122   1.389   3.386 -0.0643 -0.3374 -0.6294
 8811SOL     OW38065   4.291   2.813   2.145 -0.5242  0.0108  0.1239
 8811SOL    HW138066   4.262   2.762   2.220 -1.3385 -0.1998 -0.3344
 8811SOL    HW238067   4.349   2.875   2.189 -1.8065 -0.0456  1.8969
 8812SOL     OW38068   1.902   0.255   2.534  0.0093 -0.9115 -0.1489
 8812SOL    HW138069   1.988   0.244   2.574  0.5272  0.2827 -0.9385
 8812SOL    HW238070   1.885   0.171   2.493 -0.7729  0.1675 -2.0428
 8813SOL     OW38071   2.602   1.460   5.354 -0.1935  0.3496  0.2558
 8813SOL    HW138072   2.669   1.452   5.422 -0.7940  0.9133  0.9048
 8813SOL    HW238073   2.592   1.373   5.316  0.4319  0.2557  0.3066
 8814SOL     OW38074   3.284   1.746   5.625  0.0160  0.3025 -0.0398
 8814SOL    HW138075   3.357   1.800   5.594  0.5235 -0.3667 -0.0204
 8814SOL    HW238076   3.270   1.789   5.710 -1.3919 -1.4533  0.6230
 8815SOL     OW38077   4.097   0.924   5.940  0.2275  0.2774  0.3656
 8815SOL    HW138078   4.024   0.917   5.878 -0.5927  2.0930  1.1459
 8815SOL    HW238079   4.139   0.839   5.951 -0.8443 -0.0842  1.6831
 8816SOL     OW38080   4.198   2.262   1.885  0.5546  0.2997 -0.2440
 8816SOL    HW138081   4.115   2.309   1.899 -1.5327 -2.6169 -2.9035
 8816SOL    HW238082   4.203   2.255   1.790 -0.1632 -0.8598 -0.1885
 8817SOL     OW38083   0.863   3.773  10.665  1.5348 -0.1892 -0.3158
 8817SOL    HW138084   0.836   3.864  10.671  0.8595 -0.3169 -1.4913
 8817SOL    HW238085   0.939   3.765  10.723  0.9122  1.6834  0.7491
 8818SOL     OW38086   3.324   4.441   4.026 -0.3267  0.0811  0.7521
 8818SOL    HW138087   3.298   4.367   3.970 -0.0404  0.2876  0.3459
 8818SOL    HW238088   3.244   4.448   4.078 -1.1067 -0.5385 -0.3580
 8819SOL     OW38089   0.780   0.127   2.600  0.0189  0.7331  0.4096
 8819SOL    HW138090   0.792   0.082   2.683  0.0960 -1.8374 -1.0164
 8819SOL    HW238091   0.799   0.052   2.545  1.8077  0.9184  0.7760
 8820SOL     OW38092   3.411   3.122   8.611  0.1716  0.5392  0.3335
 8820SOL    HW138093   3.323   3.128   8.575 -0.2454  2.3520  1.6695
 8820SOL    HW238094   3.459   3.194   8.569 -0.0475  0.0331 -0.7790
 8821SOL     OW38095   2.727   1.430   9.193 -0.0438  0.2084 -0.2634
 8821SOL    HW138096   2.775   1.447   9.112  0.0134 -0.9237 -0.4781
 8821SOL    HW238097   2.783   1.465   9.262  1.2391 -0.0897 -1.1325
 8822SOL     OW38098   2.566   1.984  13.330  0.0895  0.1202  0.1154
 8822SOL    HW138099   2.518   1.929  13.392 -0.3358 -1.1317 -1.3191
 8822SOL    HW238100   2.508   2.051  13.295  1.5767 -0.7682 -4.0307
 8823SOL     OW38101   0.084   2.166   4.226 -0.0775  0.3191 -0.2436
 8823SOL    HW138102   4.727   2.193   4.224  0.0972  1.0695  1.6987
 8823SOL    HW238103   0.102   2.182   4.318 -1.5539  1.4005 -0.1361
 8824SOL     OW38104   0.693   2.647   5.583 -0.4545 -0.8103  0.2122
 8824SOL    HW138105   0.698   2.733   5.625  1.1805 -0.7303 -0.1578
 8824SOL    HW238106   0.785   2.621   5.580 -0.5426 -0.8336 -2.7753
 8825SOL     OW38107   0.403   0.002   3.769  0.6729  0.3603  0.0181
 8825SOL    HW138108   0.353   4.664   3.806 -1.2612  0.9916 -1.3458
 8825SOL    HW238109   0.481   4.699   3.730 -1.2619 -0.7634 -2.7752
 8826SOL     OW38110   2.588   2.131   4.772 -0.0030 -0.5669  0.0159
 8826SOL    HW138111   2.520   2.075   4.732  0.5446 -0.6311 -0.8217
 8826SOL    HW238112   2.564   2.207   4.718  0.5934 -0.6435 -0.3556
 8827SOL     OW38113   2.362   3.444  10.274 -0.2804  0.1591  0.6538
 8827SOL    HW138114   2.316   3.447  10.190 -0.0529  0.4862  0.5385
 8827SOL    HW238115   2.373   3.538  10.288  0.5207  0.4004 -1.5903
 8828SOL     OW38116   1.465   4.646   4.400 -0.5772 -0.0981 -0.0801
 8828SOL    HW138117   1.485   4.687   4.316  1.2910  1.0655  0.9297
 8828SOL    HW238118   1.497   4.559   4.376 -3.0615 -1.0490  0.0857
 8829SOL     OW38119   1.381   0.875   8.726 -0.4553 -0.3107 -0.1805
 8829SOL    HW138120   1.349   0.788   8.698 -0.9793 -0.5095  1.0439
 8829SOL    HW238121   1.316   0.898   8.792 -0.5170  1.4428 -0.8667
 8830SOL     OW38122   0.741   2.565  10.355 -0.1927  0.2817 -0.1214
 8830SOL    HW138123   0.821   2.577  10.405 -0.0203  2.1108 -0.8341
 8830SOL    HW238124   0.770   2.578  10.265  0.4225 -2.4374 -0.3040
 8831SOL     OW38125   2.221   3.489   1.103 -0.0267 -0.0237 -0.1672
 8831SOL    HW138126   2.313   3.497   1.127  0.5357  0.1849 -2.3951
 8831SOL    HW238127   2.190   3.538   1.180 -1.6420  0.1644 -0.9466
 8832SOL     OW38128   1.287   1.681  17.069 -0.0571 -0.4155  0.1509
 8832SOL    HW138129   1.248   1.664  17.155  0.0397 -0.3009  0.2176
 8832SOL    HW238130   1.326   1.767  17.083  1.7718 -1.3684  0.9156
 8833SOL     OW38131   0.017   4.111  12.617 -0.0922  0.2583  0.4354
 8833SOL    HW138132   4.733   4.018  12.627  0.3216  0.2504  1.1193
 8833SOL    HW238133   4.704   4.158  12.684  1.0866 -0.2397  1.6321
 8834SOL     OW38134   2.872   0.163   0.512  0.1940  0.3735 -0.0733
 8834SOL    HW138135   2.899   0.111   0.437 -2.5166 -1.4485  0.2050
 8834SOL    HW238136   2.806   0.216   0.467  0.3451  1.9504  1.5389
 8835SOL     OW38137   0.991   4.666   2.677 -0.6182  0.3380 -0.8839
 8835SOL    HW138138   1.014   4.669   2.770  2.9574  0.8971 -1.7778
 8835SOL    HW238139   0.920   4.603   2.665 -1.7659  1.2773  1.1018
 8836SOL     OW38140   4.001   1.612   2.167  0.7245 -0.4659 -0.4030
 8836SOL    HW138141   3.962   1.577   2.087 -0.0306  1.5354 -0.8975
 8836SOL    HW238142   4.084   1.566   2.175  2.6946  2.5827 -3.1027
 8837SOL     OW38143   3.723   1.609   7.488  0.1453 -0.0903 -0.3501
 8837SOL    HW138144   3.692   1.664   7.560  0.7395 -0.9177  0.5443
 8837SOL    HW238145   3.810   1.579   7.516  0.5282  1.1455 -0.2067
 8838SOL     OW38146   2.738   3.513   3.295 -0.0426 -0.3160 -0.5710
 8838SOL    HW138147   2.662   3.549   3.341  0.1869  0.2085 -0.6012
 8838SOL    HW238148   2.760   3.577   3.227 -0.3079  1.2005  0.7940
 8839SOL     OW38149   0.697   4.590   3.066 -0.2554  0.1891 -0.0839
 8839SOL    HW138150   0.653   4.510   3.036 -1.9629  0.9201  0.5100
 8839SOL    HW238151   0.780   4.547   3.089 -2.1887 -2.2954  2.2560
 8840SOL     OW38152   2.049   1.610   6.057 -0.6246 -0.1476 -0.6593
 8840SOL    HW138153   2.131   1.629   6.101 -0.0071 -0.4956 -1.6437
 8840SOL    HW238154   1.995   1.570   6.125  1.1503 -0.1931  0.7280
 8841SOL     OW38155   4.006   3.452   5.527 -0.3471  0.0017 -0.0501
 8841SOL    HW138156   3.967   3.376   5.571  1.1262 -0.6034  0.2152
 8841SOL    HW238157   4.096   3.450   5.561  0.2079  0.5585 -1.4939
 8842SOL     OW38158   0.257   2.039  13.465  0.2503  0.1631 -0.3028
 8842SOL    HW138159   0.288   2.034  13.374  1.9036 -0.5467  0.3040
 8842SOL    HW238160   0.167   2.071  13.460  0.2662  0.1041 -0.9118
 8843SOL     OW38161   3.324   1.402   7.250  0.1722 -0.4007 -0.2021
 8843SOL    HW138162   3.372   1.449   7.182 -1.3212  0.1319 -0.9076
 8843SOL    HW238163   3.371   1.413   7.333  0.9035  1.0996 -0.8087
 8844SOL     OW38164   1.018   1.541  11.587 -0.1170  0.0808 -0.1107
 8844SOL    HW138165   1.056   1.517  11.672  1.7289 -0.4864 -1.0853
 8844SOL    HW238166   1.043   1.634  11.585 -2.2058  0.6148 -0.8558
 8845SOL     OW38167   1.365   1.109  14.988 -0.5153 -0.0195  0.1631
 8845SOL    HW138168   1.410   1.142  14.910  0.3955  0.1658  0.7588
 8845SOL    HW238169   1.346   1.017  14.973  1.6645 -0.1365 -1.8324
 8846SOL     OW38170   1.114   0.609   7.348 -0.5747 -0.3430 -0.3777
 8846SOL    HW138171   1.075   0.694   7.368 -0.2998 -1.0317  3.0999
 8846SOL    HW238172   1.136   0.633   7.258  0.9275 -1.9532 -0.4518
 8847SOL     OW38173   1.646   3.106   3.150 -0.7440  0.6859 -0.3172
 8847SOL    HW138174   1.553   3.097   3.133 -0.8352 -1.4466  1.2888
 8847SOL    HW238175   1.665   3.042   3.219  1.1551  0.7183 -0.7941
 8848SOL     OW38176   4.372   3.279   7.956 -0.1304  0.2646 -0.0806
 8848SOL    HW138177   4.429   3.216   7.911  1.2194 -0.7173  3.0053
 8848SOL    HW238178   4.420   3.263   8.038 -0.4649 -2.8536 -0.4940
 8849SOL     OW38179   0.957   3.460   6.915 -0.2064 -0.5630 -0.2818
 8849SOL    HW138180   0.962   3.458   7.011 -2.2435  0.0484 -0.1504
 8849SOL    HW238181   0.864   3.442   6.900  0.2879 -1.7537 -1.9392
 8850SOL     OW38182   1.244   2.915   2.002 -0.2512 -0.7138 -0.6252
 8850SOL    HW138183   1.197   2.849   2.053 -0.5957  0.5899  0.7632
 8850SOL    HW238184   1.330   2.921   2.044 -0.2580  0.2855 -0.7532
 8851SOL     OW38185   3.784   4.388   9.393  0.2664 -0.0881  0.2732
 8851SOL    HW138186   3.768   4.326   9.465  1.3541  1.5394  1.9102
 8851SOL    HW238187   3.879   4.374   9.396  0.6294  2.3200 -0.4812
 8852SOL     OW38188   3.433   2.880   6.200  0.7511 -1.0370 -0.0267
 8852SOL    HW138189   3.454   2.796   6.160 -1.4545 -2.1884  1.3250
 8852SOL    HW238190   3.472   2.937   6.132 -0.1315 -0.5575 -0.1267
 8853SOL     OW38191   1.266   0.562  15.314 -0.1917  0.0911  0.1258
 8853SOL    HW138192   1.332   0.564  15.383 -1.2832 -2.0514  1.1959
 8853SOL    HW238193   1.328   0.557  15.240 -1.0235 -0.0916 -0.5563
 8854SOL     OW38194   2.512   2.491   6.927 -0.0817 -0.5058 -0.3171
 8854SOL    HW138195   2.439   2.429   6.936 -0.1653  0.0254  2.5671
 8854SOL    HW238196   2.553   2.429   6.866  0.1396  0.9038 -1.6020
 8855SOL     OW38197   3.860   1.639   2.639  0.1000 -0.0244  0.4094
 8855SOL    HW138198   3.823   1.717   2.681 -2.4718 -0.3427 -1.2465
 8855SOL    HW238199   3.856   1.660   2.546 -4.7774 -0.2614  0.5558
 8856SOL     OW38200   4.544   0.644   4.343  0.3886  0.2159  0.3105
 8856SOL    HW138201   4.586   0.582   4.402  1.8099  3.2849  2.5661
 8856SOL    HW238202   4.529   0.592   4.264 -0.4417  1.2871 -0.2497
 8857SOL     OW38203   0.229   1.887   9.565  0.3268  0.2112 -0.2807
 8857SOL    HW138204   0.284   1.910   9.640  2.1168 -1.8000 -0.9972
 8857SOL    HW238205   0.143   1.914   9.598 -0.6172 -0.1497 -2.4369
 8858SOL     OW38206   4.041   2.586   5.965  0.2957 -0.1277  0.0608
 8858SOL    HW138207   4.073   2.676   5.978  1.6279 -0.3368 -1.6829
 8858SOL    HW238208   3.967   2.587   6.026  0.3016  1.0713  0.0525
 8859SOL     OW38209   0.170   0.289   5.644  0.6168 -0.0303 -0.0418
 8859SOL    HW138210   0.096   0.272   5.585  0.7285 -1.0005  0.0931
 8859SOL    HW238211   0.249   0.259   5.600 -0.6906 -1.0807 -1.6796
 8860SOL     OW38212   4.290   3.146   1.100 -0.3934  0.0722 -0.3001
 8860SOL    HW138213   4.218   3.136   1.163  0.7742 -1.1983  0.8463
 8860SOL    HW238214   4.335   3.211   1.154 -0.8213  0.8770 -0.9082
 8861SOL     OW38215   3.370   3.706  10.960 -0.1318  0.2930 -0.6960
 8861SOL    HW138216   3.445   3.661  10.920 -0.3260 -0.1590 -0.5527
 8861SOL    HW238217   3.300   3.688  10.897 -1.3204 -2.2346  1.3496
 8862SOL     OW38218   1.499   1.227   6.973  0.1798  0.6177  0.4508
 8862SOL    HW138219   1.521   1.139   7.004  0.7870  1.0560  1.2679
 8862SOL    HW238220   1.437   1.198   6.906 -0.6716  1.4798  0.8692
 8863SOL     OW38221   4.266   3.929   4.523 -0.1574 -0.3738 -0.5428
 8863SOL    HW138222   4.245   3.846   4.566 -0.8985 -0.4916 -1.1242
 8863SOL    HW238223   4.274   3.984   4.601 -0.0250 -1.9220  0.5258
 8864SOL     OW38224   3.739   2.230   1.810 -0.4079 -0.8594  0.5795
 8864SOL    HW138225   3.780   2.282   1.740 -0.4868 -2.6578 -0.8118
 8864SOL    HW238226   3.762   2.271   1.893 -1.0829 -0.1150  0.3969
 8865SOL     OW38227   0.115   1.485   1.926 -0.6584 -0.2977 -0.1897
 8865SOL    HW138228   0.114   1.420   1.855  0.8612 -0.4286 -0.0898
 8865SOL    HW238229   0.139   1.563   1.875  1.2927 -0.6514  0.1880
 8866SOL     OW38230   3.153   1.368   6.075  0.3131  0.5198 -0.5134
 8866SOL    HW138231   3.232   1.346   6.124  0.0728  0.4396 -0.1666
 8866SOL    HW238232   3.133   1.452   6.116 -1.3691 -0.7740  1.2903
 8867SOL     OW38233   0.402   0.154   6.757 -0.2931 -0.1779  0.2364
 8867SOL    HW138234   0.350   0.106   6.691 -0.3718  0.1500  0.0624
 8867SOL    HW238235   0.429   0.232   6.709  1.8519 -1.9862 -1.4526
 8868SOL     OW38236   2.277   0.247   8.380 -0.0282  0.0953 -0.0245
 8868SOL    HW138237   2.257   0.336   8.408  0.9725  0.5702 -0.8365
 8868SOL    HW238238   2.354   0.218   8.430 -0.2078  1.3510  0.9710
 8869SOL     OW38239   4.677   1.362   1.299  0.6683  0.0473 -0.2925
 8869SOL    HW138240   4.585   1.357   1.273  0.8264 -0.9081 -0.6599
 8869SOL    HW238241   4.657   1.391   1.388 -1.2313  0.4402 -0.8348
 8870SOL     OW38242   0.085   3.464   9.497 -0.3846 -0.2724 -0.0136
 8870SOL    HW138243   0.157   3.413   9.460 -0.3318  0.6113 -1.1419
 8870SOL    HW238244   0.022   3.464   9.424 -1.5044  1.6173  0.9536
 8871SOL     OW38245   1.574   2.376   3.610  0.4031 -0.6162 -0.3134
 8871SOL    HW138246   1.624   2.454   3.586  0.5729 -0.3419  0.9185
 8871SOL    HW238247   1.492   2.402   3.653  0.4877  2.2272 -1.8645
 8872SOL     OW38248   0.056   2.452   9.329  0.0971  0.7342 -0.0690
 8872SOL    HW138249   0.098   2.392   9.269  1.4880 -0.4602  2.0965
 8872SOL    HW238250   4.713   2.481   9.282 -0.3507 -1.5051 -0.6806
 8873SOL     OW38251   0.692   4.618   9.935  0.3576 -0.4963 -0.1503
 8873SOL    HW138252   0.776   4.621   9.983 -0.7246 -1.6995  1.8420
 8873SOL    HW238253   0.625   4.624  10.003  0.7886 -0.7160  0.3025
 8874SOL     OW38254   1.848   2.781   0.839  0.0036  0.1639 -0.2202
 8874SOL    HW138255   1.862   2.871   0.866 -3.5236  0.7117 -0.2443
 8874SOL    HW238256   1.849   2.732   0.922 -0.8798 -0.0546 -0.3344
 8875SOL     OW38257   1.978   4.720   8.992  0.0575  0.1296 -0.0735
 8875SOL    HW138258   2.036   0.052   9.027 -0.3922  0.2545  0.4491
 8875SOL    HW238259   1.897   0.036   8.983  0.6875  1.4080  1.5981
 8876SOL     OW38260   3.146   2.335   1.923 -0.1116  0.1553 -0.1697
 8876SOL    HW138261   3.154   2.318   1.829 -0.2678  2.9162 -0.6864
 8876SOL    HW238262   3.237   2.357   1.939  0.3558 -2.0169  0.2504
 8877SOL     OW38263   2.628   0.736   1.993 -0.0769 -1.0471  0.4352
 8877SOL    HW138264   2.709   0.774   2.029  1.4521 -3.1975 -0.7007
 8877SOL    HW238265   2.564   0.760   2.060  0.3707  1.4650 -0.0137
 8878SOL     OW38266   2.313   0.467   4.410 -0.1346 -0.6566  0.0396
 8878SOL    HW138267   2.359   0.547   4.386  0.7723 -1.1986 -0.0130
 8878SOL    HW238268   2.378   0.401   4.387  1.8914  0.9839  1.0934
 8879SOL     OW38269   0.772   0.550   8.166  0.1949 -0.3970  0.2754
 8879SOL    HW138270   0.718   0.599   8.104  0.1846 -0.1100  0.5154
 8879SOL    HW238271   0.790   0.615   8.233 -3.1825  1.1652 -0.3492
 8880SOL     OW38272   1.633   1.168   4.647  0.3088  0.6087 -0.0505
 8880SOL    HW138273   1.543   1.190   4.670  0.7745  0.7014  1.7023
 8880SOL    HW238274   1.640   1.227   4.572  1.9784  0.9439  0.3794
 8881SOL     OW38275   1.505   0.304   7.071 -0.4251  0.5577  0.4003
 8881SOL    HW138276   1.521   0.248   7.146 -2.9348  1.2107  1.4327
 8881SOL    HW238277   1.591   0.343   7.058  0.7141 -0.9332  3.4021
 8882SOL     OW38278   2.925   1.109   2.176 -0.3282  0.3448  0.2365
 8882SOL    HW138279   3.013   1.146   2.174 -1.0014  2.1062  2.5903
 8882SOL    HW238280   2.883   1.166   2.240 -1.8488 -0.2682 -0.2111
 8883SOL     OW38281   0.213   3.666   5.062  0.1431 -0.0811 -0.3676
 8883SOL    HW138282   0.240   3.575   5.075 -1.1768 -0.0282  2.7693
 8883SOL    HW238283   0.118   3.656   5.073  0.2561  2.4906  2.8401
 8884SOL     OW38284   0.551   1.484   8.631  0.3853  0.3857 -0.1338
 8884SOL    HW138285   0.631   1.444   8.598 -0.1222 -2.5546  2.1020
 8884SOL    HW238286   0.499   1.456   8.556 -1.2958 -0.9088  1.4914
 8885SOL     OW38287   3.563   0.874   9.499  0.1795  0.0517 -0.3273
 8885SOL    HW138288   3.474   0.880   9.534  0.1145  0.0813 -0.4957
 8885SOL    HW238289   3.585   0.966   9.507 -1.6484  0.6991 -2.6659
 8886SOL     OW38290   3.484   2.524   7.610  0.3547 -0.0315  0.3891
 8886SOL    HW138291   3.572   2.487   7.618  0.4059 -0.3831 -1.8833
 8886SOL    HW238292   3.495   2.582   7.686 -0.1159  0.7393 -0.1288
 8887SOL     OW38293   4.095   0.049   6.970 -0.5224  0.4861 -0.3062
 8887SOL    HW138294   4.089   0.144   6.960 -0.3399  0.3771 -1.4501
 8887SOL    HW238295   4.084   0.017   6.881 -1.7602  0.3928 -0.1241
 8888SOL     OW38296   1.830   4.641   6.283 -0.1609 -0.4366  0.0824
 8888SOL    HW138297   1.892   4.636   6.211  1.7239  1.1738  1.6053
 8888SOL    HW238298   1.867   4.712   6.335  0.3612 -1.1069  0.6443
 8889SOL     OW38299   0.556   2.335  14.981 -0.3194  0.0924  0.7442
 8889SOL    HW138300   0.563   2.274  14.908 -0.8640  2.8052 -1.5922
 8889SOL    HW238301   0.648   2.360  14.991 -0.5019  0.6953  0.9291
 8890SOL     OW38302   3.830   1.411  11.208 -0.9531  0.0388 -0.4716
 8890SOL    HW138303   3.865   1.333  11.252 -1.4828 -0.2127 -0.5021
 8890SOL    HW238304   3.893   1.474  11.244  0.4666 -1.4314 -0.3493
 8891SOL     OW38305   0.547   2.372  10.366 -0.5173 -0.2271 -0.0762
 8891SOL    HW138306   0.505   2.420  10.438  2.8578 -2.2056  3.1838
 8891SOL    HW238307   0.638   2.400  10.378 -0.9117  0.8581  0.3814
 8892SOL     OW38308   0.147   0.811   8.586 -0.1944  0.0504  0.3585
 8892SOL    HW138309   0.101   0.875   8.640 -0.7146 -0.3097  0.3354
 8892SOL    HW238310   0.131   0.726   8.626  0.4451  1.3913  3.4107
 8893SOL     OW38311   1.893   2.594   8.001 -0.3128  0.4474 -0.7253
 8893SOL    HW138312   1.858   2.538   8.070  1.2977  0.7682  0.3383
 8893SOL    HW238313   1.813   2.604   7.949 -0.6554 -3.8527 -1.0291
 8894SOL     OW38314   2.567   1.762   9.311  0.4306  0.2765  0.0753
 8894SOL    HW138315   2.577   1.857   9.300  0.0664  0.2799 -0.2121
 8894SOL    HW238316   2.656   1.732   9.295  0.3029  0.6047 -1.2765
 8895SOL     OW38317   2.367   0.243   1.701 -0.3502  0.2771  0.0176
 8895SOL    HW138318   2.338   0.331   1.675 -2.1575 -1.5190 -4.1587
 8895SOL    HW238319   2.361   0.252   1.796 -2.5976 -2.8077  0.1816
 8896SOL     OW38320   4.391   4.591   7.871 -0.0380 -0.0361 -0.1410
 8896SOL    HW138321   4.452   4.523   7.844  1.0048 -0.4640  3.3009
 8896SOL    HW238322   4.309   4.543   7.857 -0.5382  1.1635 -1.3528
 8897SOL     OW38323   4.185   4.169   5.930 -0.5256  0.4569 -0.8530
 8897SOL    HW138324   4.144   4.223   5.862 -0.5511 -2.0679 -2.8475
 8897SOL    HW238325   4.185   4.084   5.885 -3.1235  0.8968 -1.6431
 8898SOL     OW38326   0.207   0.048   6.596  0.4311  0.0838 -0.0165
 8898SOL    HW138327   0.135   0.032   6.535 -1.7345 -2.9544  3.3559
 8898SOL    HW238328   0.145   0.064   6.667 -0.4449  0.2683 -0.8264
 8899SOL     OW38329   3.975   0.904   9.465  0.2051 -0.0357 -0.2411
 8899SOL    HW138330   3.969   0.961   9.542 -0.1475 -1.6069  0.9124
 8899SOL    HW238331   3.929   0.964   9.407  1.5059  0.6574 -0.5437
 8900SOL     OW38332   4.184   4.310   8.039 -0.0813 -0.3358 -0.1709
 8900SOL    HW138333   4.191   4.399   8.075 -0.1278  0.0236 -1.0518
 8900SOL    HW238334   4.184   4.252   8.115 -0.6627 -0.0031  0.0871
 8901SOL     OW38335   0.575   1.371  13.992  0.3978 -0.3002  0.3007
 8901SOL    HW138336   0.540   1.367  14.081 -1.2561  0.0631 -0.3424
 8901SOL    HW238337   0.608   1.284  13.972  0.6001  0.5374 -3.1245
 8902SOL     OW38338   3.085   0.973   7.001 -0.0821 -0.4190  0.0773
 8902SOL    HW138339   3.124   0.989   7.087 -0.1151 -0.3737  0.0840
 8902SOL    HW238340   3.129   1.043   6.952 -0.0532 -0.8420 -0.5051
 8903SOL     OW38341   4.211   0.413   9.840 -0.5379  0.2251 -0.0297
 8903SOL    HW138342   4.136   0.405   9.899 -2.5579 -1.1474 -2.7838
 8903SOL    HW238343   4.168   0.349   9.784  1.5319 -2.4732  1.5130
 8904SOL     OW38344   3.245   0.660   6.749 -0.1812 -0.0736  0.2429
 8904SOL    HW138345   3.232   0.609   6.829  2.0301  0.7844  1.1621
 8904SOL    HW238346   3.185   0.610   6.694  0.5974 -2.2866  1.4343
 8905SOL     OW38347   1.731   1.231   4.891 -0.1026  0.1338  0.6066
 8905SOL    HW138348   1.756   1.323   4.877  1.3308 -0.3385  0.0935
 8905SOL    HW238349   1.715   1.201   4.802  0.8675  1.5522 -0.0461
 8906SOL     OW38350   2.098   0.845   2.712  0.2943 -0.3871 -0.2952
 8906SOL    HW138351   2.032   0.883   2.770 -0.6171  0.1182 -1.6881
 8906SOL    HW238352   2.063   0.849   2.623  0.6332  3.4708 -0.2516
 8907SOL     OW38353   1.706   3.569  16.486  0.1019  0.1808  0.4842
 8907SOL    HW138354   1.758   3.637  16.528  0.2441  0.4276 -0.0892
 8907SOL    HW238355   1.775   3.552  16.422  1.7471 -0.0583  2.3355
 8908SOL     OW38356   3.757   2.502  13.222 -0.1175 -0.0112 -0.3428
 8908SOL    HW138357   3.845   2.512  13.185 -0.3788  0.1914 -0.9066
 8908SOL    HW238358   3.758   2.434  13.289 -0.1588  0.7231  0.4085
 8909SOL     OW38359   2.166   1.264   8.810 -0.3014 -0.3117  0.2527
 8909SOL    HW138360   2.209   1.200   8.866 -0.8110 -0.1266  0.8636
 8909SOL    HW238361   2.183   1.244   8.718 -1.0353  0.4808 -0.0595
 8910SOL     OW38362   0.135   1.970   2.885 -0.3298 -0.1384  0.2311
 8910SOL    HW138363   0.076   1.895   2.875 -1.4734  0.8315 -0.1714
 8910SOL    HW238364   0.216   1.942   2.841 -0.3793 -0.9739  0.6516
 8911SOL     OW38365   2.495   3.286  16.864  0.0213  0.3736  0.2154
 8911SOL    HW138366   2.481   3.369  16.818  0.3953  0.8631  0.9742
 8911SOL    HW238367   2.417   3.245  16.827  1.6897 -1.3041 -1.4232
 8912SOL     OW38368   1.558   0.965   7.322 -0.4652  0.2403 -0.6177
 8912SOL    HW138369   1.476   0.926   7.352  0.1858 -0.6478  0.0126
 8912SOL    HW238370   1.616   0.962   7.398 -0.4338  0.4222 -0.6350
 8913SOL     OW38371   2.150   4.209   0.425  0.1377 -0.5493  0.1326
 8913SOL    HW138372   2.169   4.135   0.483 -0.6760  0.5161  1.7850
 8913SOL    HW238373   2.214   4.201   0.355  0.5380  1.0838  0.3132
 8914SOL     OW38374   4.020   0.908  15.852 -0.2455 -0.7585  0.3450
 8914SOL    HW138375   4.089   0.944  15.908  0.0985 -1.2994  0.2724
 8914SOL    HW238376   4.059   0.853  15.783 -2.0986 -2.5672  0.7581
 8915SOL     OW38377   2.551   0.870  17.145  0.2601 -0.2881 -0.5061
 8915SOL    HW138378   2.491   0.807  17.185  2.0643 -2.2226 -0.8282
 8915SOL    HW238379   2.530   0.863  17.051 -1.8723  0.1512 -0.0643
 8916SOL     OW38380   0.389   3.231   4.803 -0.2621 -0.2320  0.4427
 8916SOL    HW138381   0.356   3.142   4.787  0.3140 -0.8797  2.7810
 8916SOL    HW238382   0.444   3.219   4.881 -1.0702 -1.4533  0.8436
 8917SOL     OW38383   1.915   2.701  10.617 -0.9954 -0.0239 -0.1928
 8917SOL    HW138384   1.905   2.755  10.695 -0.7068  1.6446 -1.3131
 8917SOL    HW238385   1.835   2.725  10.571 -0.3310  0.6675 -0.9868
 8918SOL     OW38386   0.591   0.210  16.077 -0.7776 -0.5080  0.6114
 8918SOL    HW138387   0.538   0.231  16.154  0.5998  0.2767  1.3547
 8918SOL    HW238388   0.640   0.293  16.078  0.4203 -1.2175  1.9379
 8919SOL     OW38389   4.208   2.824   8.455 -0.5553 -0.0220  0.0610
 8919SOL    HW138390   4.177   2.829   8.546 -1.6680  2.2138 -0.4461
 8919SOL    HW238391   4.181   2.737   8.427 -0.6916 -0.2358  0.8672
 8920SOL     OW38392   2.481   3.754   3.863 -0.0870  0.4026 -0.2253
 8920SOL    HW138393   2.442   3.704   3.791  2.5800 -0.0331 -1.3367
 8920SOL    HW238394   2.420   3.827   3.850 -1.4453 -0.5295  0.9931
 8921SOL     OW38395   3.527   0.940   8.852 -0.2657  0.7038  0.4063
 8921SOL    HW138396   3.454   0.988   8.813 -1.4483 -0.1643  1.5469
 8921SOL    HW238397   3.519   0.960   8.945  0.2328  1.0459  0.3777
 8922SOL     OW38398   1.648   1.069   4.266 -0.0529  0.2890  0.2064
 8922SOL    HW138399   1.705   1.026   4.202 -2.1132 -1.3525 -0.5281
 8922SOL    HW238400   1.565   1.037   4.230 -1.6541  3.6675  0.8902
 8923SOL     OW38401   2.428   2.498   3.543  0.5862 -0.3815 -0.2783
 8923SOL    HW138402   2.438   2.559   3.469  1.6047  0.9213  0.9195
 8923SOL    HW238403   2.336   2.504   3.569  0.3170  2.2677 -1.7946
 8924SOL     OW38404   3.455   1.290   7.962  0.4032  0.1199 -0.1697
 8924SOL    HW138405   3.485   1.219   8.018 -0.1552  0.4100  0.4943
 8924SOL    HW238406   3.366   1.273   7.931 -0.3880  0.9574  1.7008
 8925SOL     OW38407   1.279   4.406   9.516  0.1874 -1.1178 -0.2272
 8925SOL    HW138408   1.306   4.330   9.567 -0.2702  0.7327  2.7945
 8925SOL    HW238409   1.265   4.354   9.437 -0.8485  1.6007 -1.8291
 8926SOL     OW38410   4.310   0.674   4.878 -0.5842  0.3411 -0.5281
 8926SOL    HW138411   4.264   0.683   4.962  1.3427  3.4471  0.2226
 8926SOL    HW238412   4.288   0.584   4.855 -0.0643 -0.0548  0.5209
 8927SOL     OW38413   1.253   4.470  13.690  0.0798  0.1378 -0.2352
 8927SOL    HW138414   1.280   4.378  13.692 -4.2406 -1.1343 -2.2870
 8927SOL    HW238415   1.211   4.475  13.776 -0.4745 -0.8274 -0.4608
 8928SOL     OW38416   4.617   4.298   7.884  0.5573  0.1149 -0.0157
 8928SOL    HW138417   4.645   4.217   7.841  2.4561  0.8902 -0.2719
 8928SOL    HW238418   4.655   4.289   7.971 -2.1726  2.8006  1.4464
 8929SOL     OW38419   4.251   4.203   6.501  0.0029  0.1797  0.2403
 8929SOL    HW138420   4.330   4.212   6.554 -1.2206 -0.3143  2.1346
 8929SOL    HW238421   4.299   4.232   6.423 -1.0193  0.6939 -0.1889
 8930SOL     OW38422   0.429   4.062   6.377 -0.1734  0.0066 -0.3798
 8930SOL    HW138423   0.493   4.129   6.352  0.2436 -0.2812 -0.0777
 8930SOL    HW238424   0.355   4.084   6.320  1.2523 -0.1041 -2.2935
 8931SOL     OW38425   4.688   2.709   3.479 -0.5588  0.0402 -0.0741
 8931SOL    HW138426   4.632   2.780   3.512 -0.3920  0.5959 -0.9686
 8931SOL    HW238427   0.029   2.767   3.468 -2.0532  2.0024 -0.1047
 8932SOL     OW38428   3.266   2.698   5.106 -0.1451 -0.2723  0.2041
 8932SOL    HW138429   3.190   2.756   5.110 -0.7274 -1.1470  1.9699
 8932SOL    HW238430   3.224   2.618   5.072 -1.4834 -0.2308  1.7570
 8933SOL     OW38431   4.547   0.750   6.521  0.6478 -0.0866 -0.0348
 8933SOL    HW138432   4.514   0.831   6.483  0.6946 -0.9389 -1.8938
 8933SOL    HW238433   4.561   0.701   6.440  0.7476 -0.2524  0.0826
 8934SOL     OW38434   3.549   2.331   5.428 -0.0465 -0.1810  0.3216
 8934SOL    HW138435   3.559   2.275   5.506 -0.1028 -1.0744 -0.3108
 8934SOL    HW238436   3.629   2.383   5.429  0.0591 -0.3392  0.2252
 8935SOL     OW38437   3.942   2.839   8.776  0.0539 -0.5912  0.1450
 8935SOL    HW138438   3.850   2.812   8.773 -0.0717 -0.2555  1.0046
 8935SOL    HW238439   3.975   2.788   8.851 -3.8895 -1.4788  1.2870
 8936SOL     OW38440   2.013   3.482   4.573 -0.2144 -0.4260  0.1826
 8936SOL    HW138441   2.027   3.389   4.593 -2.7987 -0.6427  0.9774
 8936SOL    HW238442   2.086   3.496   4.513  0.6012 -1.2627  0.9776
 8937SOL     OW38443   0.473   1.587   1.875 -0.0105  1.2045 -0.0661
 8937SOL    HW138444   0.488   1.550   1.788 -1.6494 -1.7676  0.9133
 8937SOL    HW238445   0.385   1.620   1.856 -0.1136  1.1653  0.3408
 8938SOL     OW38446   1.755   3.860   2.887  0.1070 -0.6700  0.1487
 8938SOL    HW138447   1.778   3.896   2.973  1.1525 -0.6015 -0.1604
 8938SOL    HW238448   1.706   3.785   2.921  0.3001 -0.7980  0.1472
 8939SOL     OW38449   3.300   2.856   3.951  0.1183 -0.1562 -0.0529
 8939SOL    HW138450   3.305   2.763   3.932 -0.2973 -0.2746  0.4109
 8939SOL    HW238451   3.377   2.892   3.906  0.7359  2.2525  2.8678
 8940SOL     OW38452   3.973   4.678  14.414  0.2792 -0.3323  0.3963
 8940SOL    HW138453   4.009   4.599  14.453  0.9026 -0.5217 -0.5742
 8940SOL    HW238454   4.042   4.688  14.348  0.2136  1.2814  0.5666
 8941SOL     OW38455   4.449   1.091   1.555 -0.1095 -0.1351  0.3065
 8941SOL    HW138456   4.365   1.046   1.557 -1.3062  1.9991 -2.3047
 8941SOL    HW238457   4.425   1.177   1.520 -1.6043 -1.3584 -1.6297
 8942SOL     OW38458   3.627   0.241  15.118 -0.0304  0.2506  0.0857
 8942SOL    HW138459   3.540   0.219  15.085 -0.8234  1.2130  1.5399
 8942SOL    HW238460   3.643   0.177  15.188 -2.9918 -2.7653 -2.0206
 8943SOL     OW38461   2.874   4.252   1.930 -0.6451 -0.4140  0.1311
 8943SOL    HW138462   2.860   4.189   2.000 -1.6919  0.4956  0.7302
 8943SOL    HW238463   2.956   4.293   1.956 -1.0803  1.6253 -1.7174
 8944SOL     OW38464   0.407   1.720  15.425 -0.8337 -0.2454 -0.1589
 8944SOL    HW138465   0.387   1.633  15.391  0.5754  0.1711 -2.0846
 8944SOL    HW238466   0.321   1.761  15.418 -0.8461  0.0338  1.6123
 8945SOL     OW38467   4.224   0.712   5.796 -0.7232 -0.4281 -0.2142
 8945SOL    HW138468   4.306   0.666   5.775 -0.7847 -0.3256 -0.6896
 8945SOL    HW238469   4.235   0.792   5.744 -2.5726  1.3222  2.1072
 8946SOL     OW38470   0.213   2.723   9.497  0.0698  0.2502 -0.0906
 8946SOL    HW138471   0.160   2.650   9.530 -1.4967  1.4007 -0.0886
 8946SOL    HW238472   0.232   2.698   9.407  1.1251  1.0634 -0.1024
 8947SOL     OW38473   3.197   3.779  17.720 -0.5655  0.1055 -0.3294
 8947SOL    HW138474   3.135   3.708   0.001 -1.2796  1.2581  1.4198
 8947SOL    HW238475   3.273   3.755   0.033 -1.9655 -0.1680  1.5370
 8948SOL     OW38476   1.838   0.392  11.858 -0.0357 -0.8761  0.2046
 8948SOL    HW138477   1.787   0.311  11.859 -1.7459  0.1763 -1.1906
 8948SOL    HW238478   1.913   0.360  11.907  0.9858  0.1628 -0.6818
 8949SOL     OW38479   4.179   0.893   2.373  0.1419 -0.6243  0.0753
 8949SOL    HW138480   4.225   0.908   2.455 -0.6310  2.0083  0.0075
 8949SOL    HW238481   4.240   0.830   2.335 -0.8956 -1.1738 -0.6997
 8950SOL     OW38482   1.921   3.762   7.543 -0.2050 -0.3223 -0.1938
 8950SOL    HW138483   1.907   3.856   7.544  0.5121 -0.2146 -0.0844
 8950SOL    HW238484   1.876   3.734   7.463 -1.1977  1.5618 -0.2822
 8951SOL     OW38485   0.569   1.591  17.434  0.1049 -0.5089  0.3596
 8951SOL    HW138486   0.570   1.593  17.338  0.0299 -0.0320  0.3682
 8951SOL    HW238487   0.524   1.507  17.445  1.0891 -1.0885 -0.0397
 8952SOL     OW38488   2.881   4.401   4.378  0.1606 -0.1920 -0.2758
 8952SOL    HW138489   2.870   4.371   4.469 -1.5687  1.4425  0.0427
 8952SOL    HW238490   2.792   4.397   4.344 -0.1023  2.9998  0.0675
 8953SOL     OW38491   3.920   3.087   7.304 -0.3984 -0.4453 -0.0437
 8953SOL    HW138492   3.956   3.173   7.325  0.5385 -0.9640  0.4297
 8953SOL    HW238493   3.956   3.071   7.217  0.3008 -0.2377  0.2068
 8954SOL     OW38494   1.659   1.963   5.094 -0.0734 -0.3181  0.0850
 8954SOL    HW138495   1.608   2.008   5.162 -2.0324 -2.6690  0.1881
 8954SOL    HW238496   1.746   1.974   5.133 -1.5517 -1.0560  3.6232
 8955SOL     OW38497   0.640   1.673   6.685  0.1510 -0.1426  0.2514
 8955SOL    HW138498   0.555   1.702   6.718  0.4507  0.0522  0.8584
 8955SOL    HW238499   0.684   1.663   6.769  0.0349  2.0247  0.5877
 8956SOL     OW38500   4.498   4.287   3.790  0.2744  0.3023  0.0079
 8956SOL    HW138501   4.499   4.340   3.870  2.8270  0.4779 -0.1194
 8956SOL    HW238502   4.581   4.239   3.792 -0.5852 -1.0994  1.7529
 8957SOL     OW38503   1.547   1.190  12.746  0.0002 -0.3544 -0.1659
 8957SOL    HW138504   1.568   1.226  12.832  0.1879 -0.7761 -0.0325
 8957SOL    HW238505   1.627   1.188  12.694  0.0866  1.2819 -0.0931
 8958SOL     OW38506   0.437   0.909   4.380 -0.0466 -0.4127  0.1782
 8958SOL    HW138507   0.370   0.973   4.405 -0.2262 -0.6406  0.2814
 8958SOL    HW238508   0.451   0.865   4.464 -0.0132 -1.9315 -0.6246
 8959SOL     OW38509   3.130   0.733  12.844 -0.1923 -0.2220 -0.5643
 8959SOL    HW138510   3.200   0.726  12.778 -0.0447 -1.9121 -0.2328
 8959SOL    HW238511   3.051   0.707  12.796 -0.5390  2.4646 -1.4849
 8960SOL     OW38512   2.065   2.381  10.522 -0.5501 -0.2819  0.2487
 8960SOL    HW138513   2.053   2.411  10.432  2.3378 -1.0340 -0.3812
 8960SOL    HW238514   2.123   2.453  10.547 -3.3277  2.4488 -1.1432
 8961SOL     OW38515   1.519   3.890   6.284  0.2086  0.1359 -0.0471
 8961SOL    HW138516   1.501   3.972   6.238  0.9331  0.1112 -0.3668
 8961SOL    HW238517   1.612   3.886   6.262  0.2291  0.0931  0.0477
 8962SOL     OW38518   1.423   3.949   4.318  0.2806  0.0713  0.1485
 8962SOL    HW138519   1.466   4.003   4.385 -0.7632  2.3152 -1.0038
 8962SOL    HW238520   1.331   3.973   4.320 -0.1065 -1.4738  0.4979
 8963SOL     OW38521   3.363   3.501  15.130 -0.2838 -0.2698 -0.3024
 8963SOL    HW138522   3.306   3.469  15.201 -1.2594 -1.5464 -1.6487
 8963SOL    HW238523   3.416   3.576  15.156 -0.9901 -0.9420  3.2082
 8964SOL     OW38524   1.510   1.871  10.696 -0.5859 -0.1002  0.1811
 8964SOL    HW138525   1.556   1.852  10.778  1.1474 -2.7954 -1.3757
 8964SOL    HW238526   1.484   1.783  10.669  0.8095 -0.3586 -0.3505
 8965SOL     OW38527   4.251   3.155   3.504 -0.6627  0.4527  0.1713
 8965SOL    HW138528   4.161   3.130   3.527 -0.7996 -0.6027 -1.5441
 8965SOL    HW238529   4.233   3.206   3.425  4.5305  1.4593 -0.3876
 8966SOL     OW38530   3.386   0.325   3.880 -0.2437  0.2541 -0.2758
 8966SOL    HW138531   3.420   0.314   3.792 -0.8464  0.2889 -0.5144
 8966SOL    HW238532   3.331   0.400   3.857 -0.4889  0.0668 -0.3036
 8967SOL     OW38533   4.289   4.287   1.046 -0.1705 -0.3380  0.0678
 8967SOL    HW138534   4.300   4.286   0.951  1.9018 -2.0144  0.3450
 8967SOL    HW238535   4.240   4.369   1.053 -0.6844 -0.6045 -0.4201
 8968SOL     OW38536   0.774   4.440   8.620  0.0917 -0.5228 -0.9969
 8968SOL    HW138537   0.825   4.509   8.663 -0.1363  0.2617 -1.9691
 8968SOL    HW238538   0.707   4.491   8.573 -0.5488  1.3717  1.9603
 8969SOL     OW38539   2.752   0.379   3.773 -0.2001 -0.0862  0.8769
 8969SOL    HW138540   2.705   0.460   3.792 -0.1662 -0.2050  1.4786
 8969SOL    HW238541   2.684   0.314   3.753  0.5117 -0.2904 -0.8744
 8970SOL     OW38542   0.788   4.153  16.379  0.1631 -0.1332 -0.1301
 8970SOL    HW138543   0.814   4.245  16.381  3.6389 -1.1675  2.4234
 8970SOL    HW238544   0.758   4.136  16.290  0.9826  0.8638 -0.5788
 8971SOL     OW38545   3.301   1.853   3.270  0.0303  0.0552 -0.3962
 8971SOL    HW138546   3.376   1.900   3.306  0.5219 -1.3172  0.3886
 8971SOL    HW238547   3.310   1.860   3.175  2.5027  1.5180 -0.0458
 8972SOL     OW38548   1.647   0.638   5.646 -0.3134  0.0245 -0.4447
 8972SOL    HW138549   1.568   0.681   5.615  0.9172  1.0879 -2.1124
 8972SOL    HW238550   1.624   0.546   5.637 -1.3525  0.0716  1.6929
 8973SOL     OW38551   1.355   0.460   8.066 -0.3558 -0.0482  0.3673
 8973SOL    HW138552   1.284   0.505   8.113 -0.5017  1.8888 -1.7436
 8973SOL    HW238553   1.329   0.484   7.977  0.9752  3.7173  1.0364
 8974SOL     OW38554   4.437   4.587  14.780 -0.8042 -0.2402 -0.5901
 8974SOL    HW138555   4.398   4.667  14.813  1.6035  0.2883  0.9093
 8974SOL    HW238556   4.420   4.527  14.853  0.1270  0.8664  0.5185
 8975SOL     OW38557   2.251   2.282   7.403 -0.3941  0.3039  0.4488
 8975SOL    HW138558   2.163   2.252   7.423  0.1354 -2.4370 -1.3057
 8975SOL    HW238559   2.237   2.376   7.395  1.0981  0.5206  0.3844
 8976SOL     OW38560   1.512   2.488  11.816 -0.5780 -0.4514 -0.2042
 8976SOL    HW138561   1.508   2.484  11.720  1.1222  2.9878 -0.4548
 8976SOL    HW238562   1.517   2.395  11.837  1.4067 -0.1153  0.8330
 8977SOL     OW38563   0.217   1.006   2.033 -0.0286 -0.5544  0.0575
 8977SOL    HW138564   0.312   1.005   2.019 -0.1111  1.8713 -0.5965
 8977SOL    HW238565   0.210   0.925   2.084  0.5181  0.0186  1.0407
 8978SOL     OW38566   1.754   3.493  13.606 -0.2163 -0.4152  0.0005
 8978SOL    HW138567   1.757   3.525  13.697  0.4933 -0.0491 -0.1518
 8978SOL    HW238568   1.817   3.422  13.618  1.2680  0.7933 -0.6462
 8979SOL     OW38569   2.098   3.432   6.571 -0.7031 -0.2211 -0.4900
 8979SOL    HW138570   2.149   3.503   6.609 -0.5431 -0.1285 -0.8781
 8979SOL    HW238571   2.018   3.439   6.622  0.2410 -1.6784  1.1934
 8980SOL     OW38572   0.466   4.309   6.118  0.2454 -0.5481  0.2565
 8980SOL    HW138573   0.516   4.237   6.079 -2.1931 -2.3414  0.4069
 8980SOL    HW238574   0.492   4.312   6.210  0.7186 -1.6103  0.1582
 8981SOL     OW38575   1.157   0.398  16.716 -0.4973 -0.2869  0.1211
 8981SOL    HW138576   1.138   0.311  16.681 -1.1275 -0.2991  0.4749
 8981SOL    HW238577   1.251   0.399  16.701 -0.1166  0.0675  2.4706
 8982SOL     OW38578   2.496   1.492  15.751 -0.2327  0.2039 -0.4771
 8982SOL    HW138579   2.569   1.465  15.695  1.0770  2.5428  0.1020
 8982SOL    HW238580   2.427   1.435  15.717 -2.0414  1.8615  0.4543
 8983SOL     OW38581   0.041   1.881   4.743  0.1393 -0.1582 -0.0550
 8983SOL    HW138582   0.034   1.844   4.831  0.3853 -1.8256 -0.7431
 8983SOL    HW238583   0.097   1.815   4.703  1.3921  0.7743  0.1657
 8984SOL     OW38584   2.835   3.152   0.402  0.2277  0.2603  0.1002
 8984SOL    HW138585   2.765   3.161   0.338  0.4028  1.3256  0.0544
 8984SOL    HW238586   2.795   3.088   0.461  0.2639 -0.9016 -1.1564
 8985SOL     OW38587   2.421   2.614  12.242  0.7793 -0.0538 -0.1152
 8985SOL    HW138588   2.442   2.636  12.151 -2.7226  3.5056  0.0020
 8985SOL    HW238589   2.342   2.666  12.253  2.4283  2.4670 -0.2885
 8986SOL     OW38590   3.740   0.633  13.872 -0.1014  0.1517 -0.5145
 8986SOL    HW138591   3.825   0.648  13.915  0.6042  2.7861 -2.8332
 8986SOL    HW238592   3.692   0.584  13.939  0.8372  0.6661  0.5350
 8987SOL     OW38593   3.744   4.031   3.166  0.2563  0.1439  0.3830
 8987SOL    HW138594   3.667   4.029   3.222 -2.1128 -0.3593 -2.8687
 8987SOL    HW238595   3.763   3.938   3.173 -0.8671 -0.1957 -0.9223
 8988SOL     OW38596   2.478   3.437   1.156  0.5021  0.3770 -0.0585
 8988SOL    HW138597   2.517   3.410   1.239 -1.2965  0.4976  0.8360
 8988SOL    HW238598   2.551   3.482   1.114  1.2509 -2.0131 -1.3694
 8989SOL     OW38599   2.687   0.607   1.219 -0.0994  0.6947  0.3359
 8989SOL    HW138600   2.595   0.583   1.231  0.2337 -0.7585 -0.0826
 8989SOL    HW238601   2.681   0.693   1.178 -1.2655  1.1404  1.4254
 8990SOL     OW38602   4.618   3.134   3.353 -0.0923 -0.0312  0.7034
 8990SOL    HW138603   4.657   3.145   3.440 -0.6604  1.4117  0.7603
 8990SOL    HW238604   4.579   3.220   3.340 -0.6381 -0.4987 -0.7639
 8991SOL     OW38605   2.486   0.473   9.745  0.3767 -0.4885  0.0232
 8991SOL    HW138606   2.461   0.381   9.755  0.2721 -0.2458  1.8735
 8991SOL    HW238607   2.547   0.467   9.671 -0.8151 -2.7595 -0.7688
 8992SOL     OW38608   0.363   0.538  11.553 -0.1010 -0.0166 -0.5584
 8992SOL    HW138609   0.440   0.539  11.609 -0.1471  1.6580 -0.5312
 8992SOL    HW238610   0.324   0.452  11.572  0.6507 -0.6871 -1.9860
 8993SOL     OW38611   3.632   4.681  16.584  0.0955 -0.2292  0.6604
 8993SOL    HW138612   3.586   0.021  16.548  3.3486  1.5656  0.2514
 8993SOL    HW238613   3.680   4.716  16.659 -1.5118  0.5992  1.3039
 8994SOL     OW38614   4.119   2.177   4.445  0.8091  0.3262  0.2518
 8994SOL    HW138615   4.191   2.115   4.449 -0.7479 -1.5638 -0.8066
 8994SOL    HW238616   4.143   2.231   4.370 -0.2786 -0.7610 -0.8867
 8995SOL     OW38617   0.070   1.605   8.224 -0.0464  0.6152 -0.1543
 8995SOL    HW138618   0.016   1.536   8.263  0.0605  1.3417  1.2881
 8995SOL    HW238619   4.734   1.669   8.217  0.6056  1.4624  0.9332
 8996SOL     OW38620   0.606   3.971   8.319  0.1449  0.2308  0.5491
 8996SOL    HW138621   0.554   4.049   8.338 -0.5395 -0.4436  1.4723
 8996SOL    HW238622   0.575   3.917   8.391  1.5676  0.0917  1.0459
 8997SOL     OW38623   3.345   2.482  13.700  0.4981 -0.4934  0.0153
 8997SOL    HW138624   3.314   2.442  13.618  1.4115  0.9154 -1.0134
 8997SOL    HW238625   3.331   2.575  13.680  0.4198 -0.8773 -1.7047
 8998SOL     OW38626   1.169   1.048  11.560 -0.1021 -0.2246  0.1772
 8998SOL    HW138627   1.145   1.042  11.652 -2.2561  2.7360 -0.1867
 8998SOL    HW238628   1.254   1.004  11.556  0.3551  0.5478  1.4795
 8999SOL     OW38629   4.216   0.205   1.710  0.7961 -0.1205  0.0970
 8999SOL    HW138630   4.253   0.233   1.794 -0.1346  0.5543  0.2893
 8999SOL    HW238631   4.267   0.255   1.646  0.1107  1.0592  0.4676
 9000SOL     OW38632   4.719   0.118   2.309 -0.3186  0.0556 -0.2720
 9000SOL    HW138633   4.690   0.057   2.241 -1.3502  0.1063  0.1072
 9000SOL    HW238634   4.733   0.051   2.376 -1.1738 -2.0928 -2.2596
 9001SOL     OW38635   2.099   3.060   7.185 -0.2058  0.0033  0.1051
 9001SOL    HW138636   2.008   3.031   7.190  0.3454 -1.3943  2.1584
 9001SOL    HW238637   2.140   2.997   7.244  1.7999  0.7226 -0.5438
 9002SOL     OW38638   0.481   1.902   7.090 -0.9011  0.2033 -0.1323
 9002SOL    HW138639   0.407   1.856   7.127 -0.3921 -1.0732 -0.7224
 9002SOL    HW238640   0.470   1.888   6.996  0.0930 -2.4404  0.1503
 9003SOL     OW38641   0.645   4.474   8.064 -1.1082 -0.0581 -0.2064
 9003SOL    HW138642   0.671   4.416   8.136 -0.1883  0.5579 -0.0478
 9003SOL    HW238643   0.695   4.551   8.091  0.2189 -0.6781 -0.9014
 9004SOL     OW38644   2.984   4.380   4.862  0.7785 -0.0119  0.0332
 9004SOL    HW138645   3.008   4.353   4.950 -2.3610 -0.1122  0.8526
 9004SOL    HW238646   3.068   4.377   4.816  1.1177  3.0406  0.4786
 9005SOL     OW38647   0.667   0.314   8.172  0.5790  0.1194 -0.2868
 9005SOL    HW138648   0.673   0.333   8.079 -1.1177 -0.9948 -0.6209
 9005SOL    HW238649   0.672   0.407   8.196 -2.2848  0.0372  0.6976
 9006SOL     OW38650   1.898   2.378   4.873 -0.2427 -0.5726  0.0099
 9006SOL    HW138651   1.931   2.464   4.901 -0.8913  0.1305 -1.4040
 9006SOL    HW238652   1.807   2.407   4.868 -0.1092 -0.2513 -0.6159
 9007SOL     OW38653   2.107   3.446   5.492  0.3218  0.1922 -0.0317
 9007SOL    HW138654   2.063   3.473   5.411 -0.1832  2.1928  0.9161
 9007SOL    HW238655   2.031   3.457   5.550  1.8729 -0.8933  2.2341
 9008SOL     OW38656   3.737   3.331  17.302 -0.3437  0.4970  0.3405
 9008SOL    HW138657   3.748   3.386  17.225 -0.1976 -1.7265 -1.2385
 9008SOL    HW238658   3.645   3.329  17.330  0.5196  1.4332  3.2298
 9009SOL     OW38659   1.932   3.672   4.782  0.0363  0.4209 -0.3639
 9009SOL    HW138660   1.886   3.733   4.725  3.0799  1.7006 -1.4560
 9009SOL    HW238661   1.969   3.605   4.725  1.1108 -0.4543  1.3620
 9010SOL     OW38662   2.592   1.144   3.767 -0.3450 -0.0267 -0.2370
 9010SOL    HW138663   2.656   1.148   3.839  0.4065 -1.2836 -0.8457
 9010SOL    HW238664   2.563   1.235   3.771 -1.2392 -0.3641  0.8602
 9011SOL     OW38665   2.048   4.560   6.046 -0.3880  0.0952  0.3278
 9011SOL    HW138666   2.063   4.654   6.032  0.6931  0.0049  0.8867
 9011SOL    HW238667   2.067   4.515   5.963  0.5522 -1.6123  1.4802
 9012SOL     OW38668   0.548   2.069  17.194 -0.6834 -0.2258  0.3856
 9012SOL    HW138669   0.537   2.011  17.269  0.2586  1.4920  1.8792
 9012SOL    HW238670   0.623   2.119  17.226  0.1439 -0.1329 -1.7331
 9013SOL     OW38671   3.723   0.869   6.479  0.8393  0.0691 -0.4045
 9013SOL    HW138672   3.730   0.938   6.544  1.0101 -0.6533  0.3428
 9013SOL    HW238673   3.631   0.845   6.483 -0.0079  3.1074 -2.2741
 9014SOL     OW38674   4.702   0.473   4.540 -0.1487  0.1062 -0.2413
 9014SOL    HW138675   4.704   0.432   4.626 -0.8014 -0.9156 -0.6960
 9014SOL    HW238676   0.044   0.528   4.550  0.9928 -1.3178 -1.1026
 9015SOL     OW38677   0.522   3.920   8.074 -0.2198 -0.4830 -0.1761
 9015SOL    HW138678   0.587   3.944   8.008 -0.2753  1.6218  0.5280
 9015SOL    HW238679   0.570   3.952   8.150  0.0896  0.8872 -0.9417
 9016SOL     OW38680   1.200   1.185   8.050  0.0255 -0.0705  0.0707
 9016SOL    HW138681   1.168   1.242   8.120  0.7197  0.5077 -0.0846
 9016SOL    HW238682   1.141   1.111   8.063  0.2329 -0.3745 -0.7116
 9017SOL     OW38683   1.529   3.732   2.261  0.0049 -0.3178  0.5409
 9017SOL    HW138684   1.442   3.700   2.237 -0.3434 -0.7062  2.3570
 9017SOL    HW238685   1.581   3.651   2.260 -0.3044 -0.5112  0.0393
 9018SOL     OW38686   0.049   1.360   7.795  0.1554 -0.1986  0.1613
 9018SOL    HW138687   0.116   1.393   7.735 -1.5487  1.3564 -0.8781
 9018SOL    HW238688   0.086   1.290   7.848  0.0656  0.5822  1.2607
 9019SOL     OW38689   4.443   3.629   3.501  0.5130  0.0977 -0.2254
 9019SOL    HW138690   4.477   3.648   3.588 -1.4304 -0.7345  0.7257
 9019SOL    HW238691   4.398   3.710   3.477  1.8707  0.7131 -0.6687
 9020SOL     OW38692   4.013   1.092   4.234  0.6685  0.5358  0.1935
 9020SOL    HW138693   4.086   1.051   4.188 -0.9403 -0.5772 -1.3758
 9020SOL    HW238694   4.011   1.027   4.305 -0.0083  1.4694  1.0168
 9021SOL     OW38695   3.981   3.517   8.678 -0.3768 -0.4635 -0.1149
 9021SOL    HW138696   4.029   3.541   8.598  3.3579  1.1090  2.6017
 9021SOL    HW238697   4.053   3.529   8.740  0.9827 -0.1586 -1.7235
 9022SOL     OW38698   4.729   0.271   9.789  0.4349 -0.0689  0.1983
 9022SOL    HW138699   4.675   0.218   9.730  0.2384 -0.9963  1.2183
 9022SOL    HW238700   4.653   0.304   9.837 -0.8383 -0.6659 -1.3784
 9023SOL     OW38701   3.308   2.059  14.708 -0.2471  0.3806  0.3067
 9023SOL    HW138702   3.262   2.104  14.778  0.4293 -1.0856  1.7040
 9023SOL    HW238703   3.393   2.097  14.730  0.3032 -0.4305 -0.4242
 9024SOL     OW38704   3.308   3.253   6.000 -0.0721 -0.1418 -0.0502
 9024SOL    HW138705   3.365   3.176   6.003  1.7700  1.3393  2.9647
 9024SOL    HW238706   3.375   3.320   6.010  0.0905  0.0894 -2.7039
 9025SOL     OW38707   1.086   1.921  10.976 -0.3428  0.1683  0.0578
 9025SOL    HW138708   0.998   1.953  10.998 -0.0179  1.2299 -0.1791
 9025SOL    HW238709   1.123   2.008  10.961 -1.8980  0.5546 -1.5376
 9026SOL     OW38710   2.879   2.213   3.384  0.1626 -0.4167 -0.2437
 9026SOL    HW138711   2.807   2.272   3.364 -0.0017 -0.3682  0.5047
 9026SOL    HW238712   2.919   2.227   3.298  1.2222  2.9783  0.7889
 9027SOL     OW38713   1.880   1.398   8.391 -0.5032  0.0220  0.3173
 9027SOL    HW138714   1.875   1.458   8.465 -1.0896  0.1540  0.1710
 9027SOL    HW238715   1.904   1.463   8.324 -0.8190 -1.4921 -1.2592
 9028SOL     OW38716   0.748   1.664   3.396 -0.1425  0.3586 -0.0989
 9028SOL    HW138717   0.796   1.666   3.313  1.1205  0.1162  0.6347
 9028SOL    HW238718   0.664   1.632   3.364  1.2013 -1.4646 -1.7969
 9029SOL     OW38719   1.415   4.019   5.298  0.2905 -0.0805  0.4000
 9029SOL    HW138720   1.376   4.106   5.305  0.7642  0.0844  0.9424
 9029SOL    HW238721   1.343   3.956   5.305 -0.6127  0.8975 -0.1361
 9030SOL     OW38722   0.919   0.534   1.912 -0.0498 -0.7638 -0.0032
 9030SOL    HW138723   0.904   0.606   1.850  1.2721 -0.1998  0.3428
 9030SOL    HW238724   1.013   0.539   1.931  0.0117 -2.3536  0.0780
 9031SOL     OW38725   0.097   0.317   8.040  0.0561  0.1895 -0.1174
 9031SOL    HW138726   0.162   0.354   7.981  0.5138  1.5149  1.2094
 9031SOL    HW238727   0.143   0.235   8.059  0.7038  0.8359  1.1413
 9032SOL     OW38728   0.402   1.048  16.902  0.0540  0.3837  0.0020
 9032SOL    HW138729   0.492   1.016  16.896 -0.2923 -0.3462 -1.1613
 9032SOL    HW238730   0.410   1.131  16.949  0.4392 -1.0711  2.5020
 9033SOL     OW38731   4.560   1.796   9.917 -0.5005  0.5395  0.4298
 9033SOL    HW138732   4.538   1.707   9.942  0.8371 -0.4161 -1.7880
 9033SOL    HW238733   4.529   1.843   9.995 -0.6199  0.3138  0.5166
 9034SOL     OW38734   3.931   1.597   8.517 -0.5164  0.1819 -0.0485
 9034SOL    HW138735   3.906   1.597   8.424  1.9590 -0.2237 -0.7024
 9034SOL    HW238736   3.949   1.503   8.523 -0.9187  0.2226  1.7127
 9035SOL     OW38737   2.360   1.824   5.551  0.5159  0.2687 -0.3977
 9035SOL    HW138738   2.273   1.806   5.516  1.2755  1.6663 -2.9916
 9035SOL    HW238739   2.342   1.761   5.621 -0.9763  0.5425 -0.5329
 9036SOL     OW38740   4.626   3.201  12.516 -0.2403 -0.1437 -0.1838
 9036SOL    HW138741   4.649   3.188  12.608  2.0031  0.0345 -0.7262
 9036SOL    HW238742   4.611   3.111  12.487  0.7964 -0.6512  0.8463
 9037SOL     OW38743   1.589   4.317   9.419  0.1752 -0.3760  0.2235
 9037SOL    HW138744   1.580   4.242   9.477  0.3335 -1.0960 -0.6798
 9037SOL    HW238745   1.543   4.289   9.340  0.4795  0.9330 -0.4159
 9038SOL     OW38746   1.279   2.102   2.452 -0.4621 -0.2878 -0.0968
 9038SOL    HW138747   1.215   2.034   2.431 -2.4646  0.8339  2.3198
 9038SOL    HW238748   1.288   2.101   2.547 -0.4122 -1.8694 -0.1319
 9039SOL     OW38749   0.870   3.917   6.791  0.4757  0.6542  0.4506
 9039SOL    HW138750   0.958   3.939   6.762  0.3593  0.8712  0.2527
 9039SOL    HW238751   0.884   3.840   6.845  0.2072  1.9259  2.3551
 9040SOL     OW38752   0.385   1.815   3.248 -0.2983 -0.5536 -0.7160
 9040SOL    HW138753   0.417   1.866   3.174  0.1452  0.9477  0.5203
 9040SOL    HW238754   0.354   1.882   3.309  1.9324  2.0226 -2.4717
 9041SOL     OW38755   3.198   2.946  14.931 -0.4825  0.2318  0.5735
 9041SOL    HW138756   3.235   2.861  14.907 -0.2965  0.1747  1.0655
 9041SOL    HW238757   3.196   2.941  15.026 -1.4422 -0.9335  0.4824
 9042SOL     OW38758   3.946   2.814   7.907  0.2621 -0.5908 -0.2162
 9042SOL    HW138759   3.969   2.880   7.973  1.1878  0.3041 -1.4342
 9042SOL    HW238760   3.855   2.795   7.930 -0.2300  0.2287 -1.5422
 9043SOL     OW38761   3.298   0.925   5.266  0.2436  0.9864  0.0552
 9043SOL    HW138762   3.363   0.956   5.203  1.8077 -1.6967  0.3568
 9043SOL    HW238763   3.216   0.973   5.251 -0.2035  1.2773  3.3485
 9044SOL     OW38764   0.257   2.333  15.346 -0.3866  0.0386  0.1717
 9044SOL    HW138765   0.214   2.252  15.375 -1.4811  0.8660  0.8348
 9044SOL    HW238766   0.201   2.355  15.272 -3.4628 -1.8483  1.9462
 9045SOL     OW38767   1.103   1.813   4.439 -0.3413  0.1436 -0.5313
 9045SOL    HW138768   1.065   1.815   4.527 -1.4783 -0.9911 -0.9962
 9045SOL    HW238769   1.040   1.760   4.390  0.5723 -1.7764  0.3548
 9046SOL     OW38770   2.204   3.541  14.186  0.1814  0.3945  0.1625
 9046SOL    HW138771   2.275   3.573  14.131 -1.0123  0.6126 -1.2426
 9046SOL    HW238772   2.250   3.536  14.270  3.0039  1.2480 -1.3296
 9047SOL     OW38773   1.292   1.823   9.353 -0.7537  0.2314 -0.4512
 9047SOL    HW138774   1.251   1.787   9.274 -0.9833  2.8192 -1.5013
 9047SOL    HW238775   1.338   1.751   9.396  0.2346 -0.0428 -1.9652
 9048SOL     OW38776   2.847   3.086   7.093  0.1889 -0.0827  0.5741
 9048SOL    HW138777   2.822   3.132   7.173  1.7098 -0.9511  1.5522
 9048SOL    HW238778   2.930   3.048   7.123  0.6619 -0.3007 -1.0276
 9049SOL     OW38779   1.515   4.232   1.058 -0.2050 -0.4576 -0.8180
 9049SOL    HW138780   1.610   4.223   1.046 -0.3167 -2.0631 -0.4607
 9049SOL    HW238781   1.512   4.230   1.153  2.6653 -2.7662 -0.7587
 9050SOL     OW38782   4.377   0.238   1.939 -0.5882 -0.0368  0.3059
 9050SOL    HW138783   4.413   0.309   1.992 -0.8244  0.5406 -0.3080
 9050SOL    HW238784   4.380   0.167   2.002 -1.5888  0.2102  0.6345
 9051SOL     OW38785   3.182   0.131   7.142 -0.4228 -0.2748 -0.5547
 9051SOL    HW138786   3.195   0.182   7.061 -0.4112  0.6102  0.0058
 9051SOL    HW238787   3.220   0.051   7.106 -0.4682  0.5424 -2.4404
 9052SOL     OW38788   3.932   1.911  11.526 -0.0668  0.4777  0.1093
 9052SOL    HW138789   3.872   1.969  11.573 -0.0197  0.0852  0.6493
 9052SOL    HW238790   3.872   1.879  11.459 -0.8026 -0.7152  1.3420
 9053SOL     OW38791   1.861   2.201   4.162  0.3591  0.3251  0.0011
 9053SOL    HW138792   1.817   2.129   4.208  1.3604 -2.1459 -2.9069
 9053SOL    HW238793   1.936   2.212   4.222 -0.2022 -0.6143  0.8786
 9054SOL     OW38794   2.078   1.226   8.539 -0.3295  0.2009 -0.4842
 9054SOL    HW138795   2.102   1.133   8.531  0.8833  0.7556 -3.3962
 9054SOL    HW238796   2.041   1.248   8.453 -0.0354  0.8789 -0.4373
 9055SOL     OW38797   0.808   3.551   4.153  0.1278  0.2546 -0.7480
 9055SOL    HW138798   0.826   3.476   4.096 -0.7789 -0.3135 -0.2867
 9055SOL    HW238799   0.732   3.515   4.199  1.3918 -0.0176  1.0835
 9056SOL     OW38800   3.878   3.794  15.595  0.1038 -0.2913  0.3664
 9056SOL    HW138801   3.856   3.831  15.680  1.5752  1.5711 -0.0677
 9056SOL    HW238802   3.887   3.699  15.609 -2.2414 -0.3303  1.5718
 9057SOL     OW38803   0.610   2.502  14.029  0.1367 -0.3862  0.5664
 9057SOL    HW138804   0.687   2.553  14.055  0.8151 -2.3720  2.4931
 9057SOL    HW238805   0.590   2.484  14.121  0.2055  1.9240  1.0186
 9058SOL     OW38806   4.351   4.251   4.666 -0.4360  0.0104  0.1805
 9058SOL    HW138807   4.264   4.292   4.664  2.5297  5.9156 -5.0343
 9058SOL    HW238808   4.371   4.265   4.759  0.2045 -2.2649  0.3874
 9059SOL     OW38809   3.233   3.390   4.711 -0.3569  0.0284 -0.4119
 9059SOL    HW138810   3.219   3.383   4.616 -0.4285  1.6098 -0.5292
 9059SOL    HW238811   3.149   3.358   4.744  0.1339  0.2340  1.0437
 9060SOL     OW38812   2.641   3.921   7.770 -0.4183 -0.2307 -0.0269
 9060SOL    HW138813   2.584   3.917   7.847  0.5164 -2.6146  0.5285
 9060SOL    HW238814   2.650   4.011   7.737  0.9428  0.0844  1.2036
 9061SOL     OW38815   1.338   1.685   8.589 -0.3602  0.2958  0.4069
 9061SOL    HW138816   1.331   1.603   8.540 -0.5212  0.4661  0.1478
 9061SOL    HW238817   1.268   1.735   8.547 -0.4516 -0.5344 -0.4406
 9062SOL     OW38818   2.074   3.287  11.924  0.3058 -0.4055 -0.5540
 9062SOL    HW138819   2.094   3.340  11.847  2.2628 -0.5153 -0.1228
 9062SOL    HW238820   2.156   3.244  11.947  0.1058 -1.3668 -1.6116
 9063SOL     OW38821   3.904   1.644   3.458  0.2784 -0.0663  0.3689
 9063SOL    HW138822   3.963   1.705   3.415  1.3393 -1.4796 -0.1770
 9063SOL    HW238823   3.876   1.699   3.532  2.4949 -1.4543  2.2440
 9064SOL     OW38824   2.678   2.375   7.201 -0.2442  0.2944  0.1668
 9064SOL    HW138825   2.739   2.340   7.136 -0.1612  0.7567 -0.0013
 9064SOL    HW238826   2.603   2.317   7.191  0.6468 -0.9429  0.5791
 9065SOL     OW38827   3.463   1.867   8.735  1.0979  0.1105 -0.9221
 9065SOL    HW138828   3.519   1.830   8.803 -0.9249  0.1532  0.7761
 9065SOL    HW238829   3.388   1.814   8.761  2.3804 -1.6309 -0.7854
 9066SOL     OW38830   1.174   3.736   2.487  0.0873 -0.1109  0.2551
 9066SOL    HW138831   1.133   3.816   2.521  0.2460  0.3899 -0.7533
 9066SOL    HW238832   1.260   3.742   2.528  1.9612  1.5800 -4.0080
 9067SOL     OW38833   0.111   4.120   2.216 -0.5338 -0.2546  0.1318
 9067SOL    HW138834   0.024   4.101   2.181 -0.6405  1.1246 -0.3380
 9067SOL    HW238835   0.162   4.071   2.153  1.5463  1.5527  0.4394
 9068SOL     OW38836   0.446   2.964  11.428  0.4122  0.2584 -0.3289
 9068SOL    HW138837   0.522   2.981  11.373  0.6328  0.9814  0.2072
 9068SOL    HW238838   0.482   2.886  11.471 -0.2311 -0.0138 -0.2735
 9069SOL     OW38839   3.820   2.562   8.521 -0.1553  0.0389  0.2530
 9069SOL    HW138840   3.851   2.615   8.447 -0.4775 -1.0269 -0.6411
 9069SOL    HW238841   3.789   2.633   8.577 -1.0250 -2.6205  3.1183
 9070SOL     OW38842   3.411   1.880   5.171  0.4707  0.3324  0.4701
 9070SOL    HW138843   3.485   1.850   5.119  0.0793  0.4383 -0.1543
 9070SOL    HW238844   3.451   1.943   5.231  0.3112 -1.3661  2.3669
 9071SOL     OW38845   4.231   1.530   4.871  0.4602 -0.0418  0.1478
 9071SOL    HW138846   4.212   1.578   4.790 -2.0237  0.8623  1.2763
 9071SOL    HW238847   4.279   1.591   4.925 -0.0009  0.6522 -0.2240
 9072SOL     OW38848   4.179   2.066  15.541 -0.2884  0.0302 -1.1665
 9072SOL    HW138849   4.244   2.058  15.472  2.5347  1.2884  1.3473
 9072SOL    HW238850   4.226   2.140  15.581 -2.9466  0.5972  0.9047
 9073SOL     OW38851   0.710   1.459  15.648 -0.4783  0.1937  0.1112
 9073SOL    HW138852   0.756   1.526  15.699  1.7763 -1.4720  0.2447
 9073SOL    HW238853   0.673   1.511  15.577 -0.9493  1.0526  0.9779
 9074SOL     OW38854   1.846   4.628   5.785  0.1375 -0.3327  0.5749
 9074SOL    HW138855   1.912   4.678   5.737  0.9043 -1.6463  0.2930
 9074SOL    HW238856   1.810   4.593   5.704  2.3806 -0.0818 -0.5404
 9075SOL     OW38857   2.669   4.501   5.273  0.2489  0.1769 -0.0828
 9075SOL    HW138858   2.582   4.529   5.242  0.7846 -0.7216 -2.4162
 9075SOL    HW238859   2.677   4.416   5.231 -1.0824 -0.7427  1.5279
 9076SOL     OW38860   1.157   3.265  11.064  0.0231  0.0898 -0.2249
 9076SOL    HW138861   1.095   3.256  11.136  1.4590  0.2672  1.0387
 9076SOL    HW238862   1.103   3.270  10.985 -1.4292  1.4100  0.8508
 9077SOL     OW38863   4.240   2.544   6.225  0.3435  0.0274  0.2566
 9077SOL    HW138864   4.254   2.451   6.209 -1.4787 -0.1833 -0.1314
 9077SOL    HW238865   4.192   2.572   6.147 -5.1691 -1.6330  3.0484
 9078SOL     OW38866   0.439   2.950   3.843 -0.5100 -0.3537  0.6475
 9078SOL    HW138867   0.385   2.877   3.815  0.1173 -0.4042 -0.4208
 9078SOL    HW238868   0.515   2.945   3.784 -1.0058  1.3996 -0.1446
 9079SOL     OW38869   4.335   2.009   9.477 -0.3465  0.6158 -0.2672
 9079SOL    HW138870   4.271   1.947   9.443 -1.1470 -0.8547  3.9851
 9079SOL    HW238871   4.370   1.959   9.551 -1.8232  1.9045  1.2979
 9080SOL     OW38872   0.374   0.337   9.073 -0.1452  0.6393 -0.7310
 9080SOL    HW138873   0.364   0.245   9.097 -2.5766  0.6588 -1.6033
 9080SOL    HW238874   0.396   0.377   9.156 -0.0460 -2.0120  0.5419
 9081SOL     OW38875   2.771   1.188  13.559  0.2536  0.6150  0.1113
 9081SOL    HW138876   2.844   1.160  13.615 -0.3063 -2.7944 -0.8562
 9081SOL    HW238877   2.704   1.149  13.615 -0.4503  2.1524  0.3394
 9082SOL     OW38878   1.051   0.717  14.878  0.0811 -0.2119 -0.5196
 9082SOL    HW138879   1.109   0.752  14.945 -1.1197  1.5899 -0.4205
 9082SOL    HW238880   0.966   0.753  14.903 -1.3310 -2.4341 -2.0052
 9083SOL     OW38881   3.016   1.860  16.637  0.2190  0.4158  0.1797
 9083SOL    HW138882   3.057   1.849  16.723  1.2325  1.3870 -0.1717
 9083SOL    HW238883   3.016   1.956  16.629  0.1477  0.4791  0.8833
 9084SOL     OW38884   3.010   2.990   7.484  0.1180 -0.6293  0.1564
 9084SOL    HW138885   2.959   3.014   7.561 -1.8675 -2.0946 -0.7121
 9084SOL    HW238886   3.097   2.968   7.518  0.1075  0.0723  0.6423
 9085SOL     OW38887   3.092   2.774  16.850  0.3443 -0.3435 -0.0663
 9085SOL    HW138888   3.019   2.715  16.866  1.3085 -0.9734  2.0010
 9085SOL    HW238889   3.047   2.853  16.820 -0.9776 -0.7307  0.8995
 9086SOL     OW38890   4.635   1.039   8.599  0.2861 -0.5552 -0.6112
 9086SOL    HW138891   4.675   1.005   8.679 -1.4066 -0.1222  0.4192
 9086SOL    HW238892   4.549   0.998   8.610 -0.0826  0.5652  0.6138
 9087SOL     OW38893   2.324   2.179   2.792  0.1232  0.5142  0.1617
 9087SOL    HW138894   2.234   2.170   2.824  0.8576  0.0562  2.1260
 9087SOL    HW238895   2.339   2.087   2.770  0.3008  0.5250  0.2378
 9088SOL     OW38896   4.506   4.577   6.086 -0.0989 -0.1335  0.3499
 9088SOL    HW138897   4.419   4.547   6.059 -0.5100 -0.0154  1.5535
 9088SOL    HW238898   4.514   4.573   6.181 -0.2447  2.9927  0.5149
 9089SOL     OW38899   1.655   1.841  17.505 -0.4715  0.3980 -0.1184
 9089SOL    HW138900   1.719   1.897  17.461 -0.1721  0.3842  0.3031
 9089SOL    HW238901   1.616   1.809  17.424  0.7847 -1.2587 -0.0775
 9090SOL     OW38902   3.698   0.999   5.357 -0.9919  0.3268  0.0426
 9090SOL    HW138903   3.631   1.010   5.290 -1.4147 -0.7179  0.3064
 9090SOL    HW238904   3.679   1.064   5.424 -0.1685  0.1490  0.4503
 9091SOL     OW38905   1.451   3.469   0.005  0.0519  0.3592  0.2339
 9091SOL    HW138906   1.411   3.386  17.718 -1.6451  1.3481 -0.3042
 9091SOL    HW238907   1.543   3.447   0.021 -0.0358  0.7861  1.2540
 9092SOL     OW38908   0.688   2.857   3.161 -1.0256  0.4520 -0.0782
 9092SOL    HW138909   0.657   2.844   3.250 -1.8561 -0.3984 -0.4929
 9092SOL    HW238910   0.611   2.891   3.116 -1.1158 -1.3994 -1.3524
 9093SOL     OW38911   1.018   2.872   7.560  0.1652 -0.3168  0.0475
 9093SOL    HW138912   0.930   2.877   7.523  0.1684  2.5870  0.4100
 9093SOL    HW238913   1.041   2.785   7.527  1.3013  1.2885 -3.4219
 9094SOL     OW38914   0.769   1.582   3.680  0.1899  0.3712  0.7340
 9094SOL    HW138915   0.781   1.600   3.587 -0.9226 -1.7187  0.1854
 9094SOL    HW238916   0.674   1.576   3.689  0.0521  0.4919 -0.7501
 9095SOL     OW38917   1.212   1.852   7.474  0.7736 -0.5493  0.2799
 9095SOL    HW138918   1.296   1.889   7.499  0.3849 -0.3634  1.3154
 9095SOL    HW238919   1.226   1.860   7.380 -0.1466 -0.9175  0.1053
 9096SOL     OW38920   0.355   1.471  15.341 -0.0534  0.0124 -0.2086
 9096SOL    HW138921   0.347   1.459  15.435 -1.3853  0.1436 -0.3017
 9096SOL    HW238922   0.426   1.411  15.322  0.4088  1.0698 -1.8874
 9097SOL     OW38923   3.614   3.771  12.999 -0.0737  0.2256  0.0839
 9097SOL    HW138924   3.530   3.806  13.026  0.1066  0.5510  0.2288
 9097SOL    HW238925   3.594   3.701  12.936  0.2238  0.8761 -0.7269
 9098SOL     OW38926   2.800   1.157   1.770  0.7491 -0.0016  0.6236
 9098SOL    HW138927   2.812   1.205   1.688 -0.0056  1.8009  1.5607
 9098SOL    HW238928   2.781   1.226   1.834 -0.7150  1.3788 -1.3176
 9099SOL     OW38929   0.445   0.469   9.308  0.3100  0.3079 -0.0041
 9099SOL    HW138930   0.382   0.522   9.358 -0.8589  0.5936 -1.7652
 9099SOL    HW238931   0.515   0.478   9.372  0.3754  0.5357 -0.1099
 9100SOL     OW38932   3.971   0.382   7.102 -0.2218 -0.3233 -0.9569
 9100SOL    HW138933   3.965   0.318   7.173 -0.6574 -2.2006 -2.6962
 9100SOL    HW238934   3.925   0.444   7.158 -0.4515 -0.4718 -0.9829
 9101SOL     OW38935   2.132   0.460  16.677  0.0845  0.0096 -0.2601
 9101SOL    HW138936   2.045   0.482  16.712 -0.0189 -0.9560  0.0852
 9101SOL    HW238937   2.114   0.373  16.642  0.1190 -0.3530  0.6135
 9102SOL     OW38938   3.536   2.099   2.829 -0.6778  0.1050  0.3228
 9102SOL    HW138939   3.556   2.136   2.916  2.6343  0.2443 -0.5066
 9102SOL    HW238940   3.601   2.145   2.776  0.1662  1.2071  2.2728
 9103SOL     OW38941   2.044   1.498  15.920  0.2506 -0.1424  0.0393
 9103SOL    HW138942   2.103   1.518  15.993  1.5280  0.5427 -1.1846
 9103SOL    HW238943   2.086   1.543  15.846 -0.9358  0.5784 -0.1992
 9104SOL     OW38944   0.230   2.910  16.624  0.3130 -0.1657  0.4389
 9104SOL    HW138945   0.272   2.926  16.709  0.1091 -2.6652  0.9959
 9104SOL    HW238946   0.154   2.859  16.652 -1.2599  2.7916  1.6262
 9105SOL     OW38947   1.650   0.049   7.955 -0.3744  0.3375 -0.1610
 9105SOL    HW138948   1.592   0.120   7.984 -0.8263  0.2644 -0.8965
 9105SOL    HW238949   1.622   0.029   7.866  1.7369  0.3607 -0.8219
 9106SOL     OW38950   2.353   3.980  17.276  0.4635 -0.4887  0.1099
 9106SOL    HW138951   2.364   4.048  17.342 -0.0577 -0.3748  0.0742
 9106SOL    HW238952   2.271   3.946  17.311  0.1779  0.7350  0.6167
 9107SOL     OW38953   1.077   4.519   4.237  0.4103  0.4685  0.3563
 9107SOL    HW138954   1.134   4.441   4.234 -0.1895  0.1313 -2.1122
 9107SOL    HW238955   0.991   4.483   4.216  1.8674 -0.5593 -3.8368
 9108SOL     OW38956   1.577   3.969   9.297 -0.0050  0.6287 -0.1831
 9108SOL    HW138957   1.637   3.924   9.357 -0.2569 -1.1594 -1.2662
 9108SOL    HW238958   1.640   4.030   9.259 -1.3466  1.4336 -1.1264
 9109SOL     OW38959   4.569   3.007   4.231  0.0023 -0.3619  0.1291
 9109SOL    HW138960   4.500   3.060   4.270 -0.8047 -2.5832  1.7495
 9109SOL    HW238961   4.554   3.024   4.138  0.0635  0.8812  0.3502
 9110SOL     OW38962   2.812   2.426  14.500  0.6730  0.1090 -0.0116
 9110SOL    HW138963   2.718   2.424  14.482  0.3146 -0.8345  1.9444
 9110SOL    HW238964   2.847   2.459  14.417  1.8757  0.4706  0.6493
 9111SOL     OW38965   3.502   1.123   5.922 -0.1650  0.3244 -0.1079
 9111SOL    HW138966   3.458   1.195   5.877  0.1274  0.2805 -0.4612
 9111SOL    HW238967   3.580   1.161   5.963 -0.6509  0.3822  0.7582
 9112SOL     OW38968   1.812   0.435   2.094 -0.1081 -0.1801  0.3948
 9112SOL    HW138969   1.776   0.472   2.014 -0.1936 -0.4173  0.3230
 9112SOL    HW238970   1.731   0.409   2.139 -1.3184  1.9090 -0.6128
 9113SOL     OW38971   4.669   0.788   7.669 -0.0975  0.5026 -0.8392
 9113SOL    HW138972   0.010   0.845   7.666  0.0108  0.3984  0.1271
 9113SOL    HW238973   4.688   0.717   7.607 -0.5140 -0.8684  0.6128
 9114SOL     OW38974   2.917   1.738   6.833 -0.4230  0.5443 -0.6412
 9114SOL    HW138975   2.835   1.780   6.807 -0.4063 -0.6786 -2.7276
 9114SOL    HW238976   2.982   1.807   6.822 -1.0304  1.5466  2.2347
 9115SOL     OW38977   2.742   3.625   4.626 -0.1369 -0.6929  0.5547
 9115SOL    HW138978   2.670   3.561   4.630 -1.3104  0.6486  1.0362
 9115SOL    HW238979   2.769   3.633   4.717  2.5847  4.0141 -0.7016
 9116SOL     OW38980   2.261   0.727   5.428  0.6547  0.1478 -0.3552
 9116SOL    HW138981   2.292   0.815   5.446  0.3716  0.1485  0.1378
 9116SOL    HW238982   2.310   0.700   5.350  1.7768  0.9429  0.0868
 9117SOL     OW38983   2.260   2.369   6.415 -0.2388 -0.2234  0.3396
 9117SOL    HW138984   2.281   2.280   6.385  0.0991 -0.2624  0.7004
 9117SOL    HW238985   2.176   2.356   6.460 -1.1164  0.4877 -1.0801
 9118SOL     OW38986   3.479   4.175  11.266  0.1251  0.5317  0.8119
 9118SOL    HW138987   3.523   4.091  11.254 -1.2580 -0.0022 -0.5775
 9118SOL    HW238988   3.412   4.155  11.331  0.4374 -0.6722  0.7576
 9119SOL     OW38989   3.490   0.222  10.182  0.4111  0.0414 -0.0686
 9119SOL    HW138990   3.444   0.187  10.105 -1.0540 -1.0917  1.3043
 9119SOL    HW238991   3.545   0.148  10.208  2.9621  1.7241 -0.6678
 9120SOL     OW38992   2.784   4.144   7.969  0.2109 -0.0696  0.1071
 9120SOL    HW138993   2.768   4.067   8.023 -1.4217 -1.2829 -2.0935
 9120SOL    HW238994   2.878   4.130   7.971  0.4172  1.5529  2.1768
 9121SOL     OW38995   2.352   0.541   2.211  0.0567 -0.2279  0.8818
 9121SOL    HW138996   2.370   0.513   2.301  0.6743 -0.8424  0.5670
 9121SOL    HW238997   2.351   0.455   2.168 -0.7102  0.8118 -1.1853
 9122SOL     OW38998   0.977   1.594   9.603 -0.1374  0.0355  0.5468
 9122SOL    HW138999   0.941   1.506   9.608  1.7029 -0.9272 -2.4477
 9122SOL    HW239000   1.053   1.589   9.662  0.3821 -2.2542 -0.2945
 9123SOL     OW39001   4.149   4.105  12.641 -0.3903 -0.2660 -0.2950
 9123SOL    HW139002   4.133   4.028  12.586  1.0475  0.0395 -1.1590
 9123SOL    HW239003   4.243   4.115  12.623 -0.2001  0.2057  1.0205
 9124SOL     OW39004   1.748   2.214  11.635  0.1678  0.4481 -0.0685
 9124SOL    HW139005   1.735   2.211  11.730  1.0381 -1.2665 -0.0119
 9124SOL    HW239006   1.658   2.219  11.603 -0.3159 -0.2701  1.1732
 9125SOL     OW39007   3.614   2.297  15.236  0.5148  0.0358 -0.0337
 9125SOL    HW139008   3.695   2.308  15.286  0.6250 -1.5383  0.1547
 9125SOL    HW239009   3.633   2.223  15.178 -1.3452  0.2279 -0.8634
 9126SOL     OW39010   2.336   2.022   0.378 -0.4288  0.3296 -0.3529
 9126SOL    HW139011   2.267   1.958   0.396 -0.2571  1.0145  2.8472
 9126SOL    HW239012   2.412   1.966   0.363 -0.5871  0.5378 -1.8926
 9127SOL     OW39013   4.082   4.351   1.362 -0.2515 -0.6681 -0.3585
 9127SOL    HW139014   4.118   4.264   1.381  0.7628 -0.5542 -1.7979
 9127SOL    HW239015   4.152   4.412   1.388 -1.3007  1.4830 -2.6341
 9128SOL     OW39016   3.226   0.479   5.588  0.0015  0.0897  0.3497
 9128SOL    HW139017   3.151   0.490   5.647 -1.5821 -0.3090 -1.5744
 9128SOL    HW239018   3.227   0.556   5.532  0.1955  0.0922  0.3596
 9129SOL     OW39019   1.076   2.623   4.963 -0.0321  0.0242  0.5308
 9129SOL    HW139020   1.110   2.559   4.900  1.3337  0.4873  0.7815
 9129SOL    HW239021   1.140   2.644   5.031 -0.6844  1.1930  0.7842
 9130SOL     OW39022   1.865   1.412   5.976 -0.6235  0.5317 -0.2112
 9130SOL    HW139023   1.817   1.437   5.897  1.6581 -3.1828 -2.7448
 9130SOL    HW239024   1.821   1.454   6.050 -2.5081  0.5030 -1.3182
 9131SOL     OW39025   3.417   0.643  10.773  0.4063  0.8359 -0.5424
 9131SOL    HW139026   3.380   0.585  10.706  1.7953 -0.5087 -0.1415
 9131SOL    HW239027   3.437   0.585  10.846  0.0182  2.9199  1.2318
 9132SOL     OW39028   0.092   3.005   6.799  0.5527  0.0170 -0.1237
 9132SOL    HW139029   0.023   3.066   6.773 -0.2067  0.1295  2.1896
 9132SOL    HW239030   0.068   2.924   6.755 -0.3838  0.3496 -0.2349
 9133SOL     OW39031   0.022   2.213  15.671  0.3096  0.1054  0.2967
 9133SOL    HW139032   0.036   2.200  15.578 -0.2292 -0.2967  0.2751
 9133SOL    HW239033   4.663   2.225  15.673  0.3351  0.1187  2.2633
 9134SOL     OW39034   3.507   0.316   1.295  0.1082 -0.1304 -0.4420
 9134SOL    HW139035   3.538   0.244   1.240  0.8226  0.0745 -0.3176
 9134SOL    HW239036   3.430   0.340   1.243  0.0802  1.3458  0.2748
 9135SOL     OW39037   4.180   1.739   4.322 -0.2448  0.1224 -0.4344
 9135SOL    HW139038   4.157   1.646   4.319 -2.0805  0.5105  1.3491
 9135SOL    HW239039   4.272   1.728   4.299  0.1307 -0.6443  1.4035
 9136SOL     OW39040   1.756   0.662   5.338  0.6137 -0.1612 -0.4947
 9136SOL    HW139041   1.808   0.678   5.259 -0.4485 -0.1578 -1.1889
 9136SOL    HW239042   1.718   0.579   5.309 -0.2384  0.9172 -2.4838
 9137SOL     OW39043   4.205   3.825   8.789  0.5014  0.2008  0.1134
 9137SOL    HW139044   4.204   3.827   8.693  0.7736 -2.0751  0.0769
 9137SOL    HW239045   4.256   3.746   8.803  2.9611  2.3144  3.0093
 9138SOL     OW39046   3.650   3.037   7.834  0.6257 -0.1581  0.3314
 9138SOL    HW139047   3.725   3.075   7.789 -1.2467 -0.0848 -2.6733
 9138SOL    HW239048   3.668   3.050   7.927  1.1220  2.2451 -0.1113
 9139SOL     OW39049   0.629   2.035   9.376 -0.3799 -0.0978 -0.8222
 9139SOL    HW139050   0.685   2.040   9.299  0.8767 -0.5862  0.0565
 9139SOL    HW239051   0.541   2.016   9.345 -0.3208 -1.4867 -0.1258
 9140SOL     OW39052   2.854   2.480  12.460 -0.8021  0.1375 -0.5629
 9140SOL    HW139053   2.877   2.466  12.368  0.1727  0.2038 -0.3352
 9140SOL    HW239054   2.773   2.528  12.442 -2.2785 -1.7546  1.0787
 9141SOL     OW39055   4.196   0.406   5.631 -0.1678 -0.2736  0.4303
 9141SOL    HW139056   4.275   0.457   5.650  0.3271 -0.6284 -0.6711
 9141SOL    HW239057   4.215   0.321   5.668 -0.2126 -0.5726 -0.2246
 9142SOL     OW39058   1.756   1.134   5.634  0.3224 -0.1751  0.2397
 9142SOL    HW139059   1.694   1.102   5.700  0.3634 -0.1581  0.2866
 9142SOL    HW239060   1.705   1.122   5.555 -1.6553  2.5803  1.1076
 9143SOL     OW39061   0.792   4.540   7.283  0.6716 -0.2553 -0.1939
 9143SOL    HW139062   0.800   4.625   7.239  1.1074 -0.1533  0.0820
 9143SOL    HW239063   0.734   4.567   7.355 -0.1741 -0.9163 -0.6396
 9144SOL     OW39064   0.201   4.678   2.515  0.5736  0.0302 -0.5206
 9144SOL    HW139065   0.169   4.706   2.601 -1.3510 -0.5898 -1.0279
 9144SOL    HW239066   0.245   4.599   2.546  0.8135 -0.2565 -1.5871
 9145SOL     OW39067   1.702   1.702  17.247  0.1773 -0.9773 -0.0655
 9145SOL    HW139068   1.762   1.635  17.213  0.5588 -0.5280 -0.2756
 9145SOL    HW239069   1.718   1.769  17.181  1.7324 -0.1926  1.0979
 9146SOL     OW39070   3.825   3.963   9.389 -0.6444  0.2808 -0.1752
 9146SOL    HW139071   3.789   3.941   9.303  4.2842  0.9748 -2.4289
 9146SOL    HW239072   3.913   3.980   9.356 -0.7074  0.6924 -0.1310
 9147SOL     OW39073   3.290   0.132   3.410 -0.3613  0.4274 -0.1425
 9147SOL    HW139074   3.378   0.109   3.441 -0.5180 -1.1186 -0.8786
 9147SOL    HW239075   3.273   0.089   3.327 -0.8863 -3.2393  1.8885
 9148SOL     OW39076   2.112   2.526   7.870 -0.5397  0.2031  0.0667
 9148SOL    HW139077   2.029   2.534   7.917 -0.0502 -0.1063  0.9804
 9148SOL    HW239078   2.156   2.451   7.911 -0.2066  0.5606  0.3557
 9149SOL     OW39079   3.820   0.071   5.569 -0.5204  0.8342  0.2330
 9149SOL    HW139080   3.773   0.053   5.488  1.9230  2.0893 -1.4621
 9149SOL    HW239081   3.849   0.159   5.547 -1.4570  1.2338  0.6112
 9150SOL     OW39082   1.556   3.653   8.422 -0.1341  0.5627  0.1485
 9150SOL    HW139083   1.595   3.622   8.503 -0.5436  0.9691  0.5050
 9150SOL    HW239084   1.510   3.729   8.460 -0.7781 -0.3793  1.2583
 9151SOL     OW39085   0.199   4.236   6.487 -0.1377 -0.2589 -0.6459
 9151SOL    HW139086   0.238   4.149   6.493 -1.3828 -0.6181  2.3284
 9151SOL    HW239087   0.186   4.237   6.392  0.1387 -1.0612 -0.6955
 9152SOL     OW39088   4.067   4.030  14.054  0.2278 -0.1528  0.4761
 9152SOL    HW139089   4.130   4.055  13.987  0.8221 -0.5877  0.8750
 9152SOL    HW239090   4.000   4.094  14.030  1.5312  1.4066  0.9568
 9153SOL     OW39091   0.872   4.178   6.657  0.0378 -0.3606 -0.4237
 9153SOL    HW139092   0.876   4.113   6.728  1.1027  0.2703  0.1006
 9153SOL    HW239093   0.965   4.184   6.634 -0.4531  2.4616 -1.6207
 9154SOL     OW39094   4.564   3.748   5.412  0.2842 -0.3651  0.2150
 9154SOL    HW139095   4.471   3.733   5.395  0.0427  1.4484 -0.1005
 9154SOL    HW239096   4.560   3.840   5.438  0.7079  0.2624 -1.8783
 9155SOL     OW39097   4.640   4.082   3.212 -0.8351  0.2416 -0.0349
 9155SOL    HW139098   4.572   4.145   3.237 -0.4692 -0.1633  1.9826
 9155SOL    HW239099   4.675   4.044   3.293 -0.5182 -2.2118 -1.3090
 9156SOL     OW39100   0.884   2.499   7.053 -0.2525  0.4834  0.0651
 9156SOL    HW139101   0.959   2.544   7.015 -0.1242 -0.2127 -0.4949
 9156SOL    HW239102   0.898   2.419   7.003 -1.1720 -0.1543  0.8166
 9157SOL     OW39103   1.670   4.613   4.692  0.7829  0.1354  0.5997
 9157SOL    HW139104   1.741   4.677   4.686  1.6972 -0.9429 -0.2537
 9157SOL    HW239105   1.598   4.675   4.690  0.5145 -0.1203  1.7638
 9158SOL     OW39106   3.153   1.886  10.262 -0.1836  0.1474 -0.0065
 9158SOL    HW139107   3.186   1.873  10.173  1.4662  1.2984  0.4540
 9158SOL    HW239108   3.222   1.941  10.299 -0.0754 -1.1292  1.6661
 9159SOL     OW39109   0.159   2.336  16.313  0.1799 -0.4957 -0.5233
 9159SOL    HW139110   0.085   2.397  16.314 -1.4914 -2.5266  1.4097
 9159SOL    HW239111   0.225   2.397  16.346 -0.4976  0.6424 -1.2675
 9160SOL     OW39112   3.017   2.925   2.328  0.6116 -0.3638 -0.8001
 9160SOL    HW139113   2.947   2.907   2.265 -0.3715 -1.3151  0.5659
 9160SOL    HW239114   2.962   2.971   2.392  0.2288  0.8943 -2.0380
 9161SOL     OW39115   4.377   0.704   2.280  0.3869  0.2085  0.3396
 9161SOL    HW139116   4.439   0.755   2.228 -0.7455  0.8834 -0.3699
 9161SOL    HW239117   4.432   0.660   2.345  0.0560 -1.8427 -0.8003
 9162SOL     OW39118   3.567   1.952  10.894  0.1747  0.4072  0.9787
 9162SOL    HW139119   3.576   2.043  10.921  3.1937  0.8391 -1.4429
 9162SOL    HW239120   3.593   1.892  10.965  1.5395 -0.5787 -0.3512
 9163SOL     OW39121   4.510   2.686  13.114  0.1451  0.7525 -0.0825
 9163SOL    HW139122   4.569   2.711  13.043  0.9645  0.1739  0.4024
 9163SOL    HW239123   4.473   2.612  13.065 -0.9011  0.9879  0.3460
 9164SOL     OW39124   2.882   0.689   7.639  0.0686 -0.0667  0.4781
 9164SOL    HW139125   2.899   0.690   7.545  1.2563 -0.1269  0.6907
 9164SOL    HW239126   2.872   0.595   7.653  1.6036 -0.0836  1.4300
 9165SOL     OW39127   1.071   2.417   6.372 -0.3627 -0.0753  0.2175
 9165SOL    HW139128   1.010   2.489   6.353 -1.5517 -0.4133  2.6589
 9165SOL    HW239129   1.138   2.468   6.418 -1.2794  0.9399  0.4282
 9166SOL     OW39130   2.449   2.126  16.438 -0.5042 -0.6135  0.1911
 9166SOL    HW139131   2.486   2.143  16.525 -2.5439  3.1698  0.3212
 9166SOL    HW239132   2.365   2.095  16.471 -1.8748  2.9590  0.0907
 9167SOL     OW39133   3.412   2.373   1.940 -0.3964  0.2430  0.1435
 9167SOL    HW139134   3.445   2.284   1.942 -0.5914  0.2500  2.8621
 9167SOL    HW239135   3.461   2.415   2.011  0.2445  0.3841 -0.3807
 9168SOL     OW39136   0.687   2.448   2.846  0.1103 -0.4050 -0.1195
 9168SOL    HW139137   0.611   2.406   2.805 -2.4847  3.3193  0.8916
 9168SOL    HW239138   0.740   2.370   2.834 -1.5759 -1.3154 -1.6756
 9169SOL     OW39139   2.736   0.218   6.183  0.6255 -0.0215 -0.3078
 9169SOL    HW139140   2.791   0.144   6.156 -0.2277 -0.3514 -1.1566
 9169SOL    HW239141   2.746   0.283   6.114 -0.1368  2.9497  2.3829
 9170SOL     OW39142   3.038   1.825   5.801  0.1214 -0.2620  0.3012
 9170SOL    HW139143   3.066   1.734   5.805  0.2730 -0.3686 -3.1249
 9170SOL    HW239144   3.041   1.834   5.897 -0.4374 -0.5371  0.3450
 9171SOL     OW39145   3.339   3.447   4.341 -0.3562 -0.3332  0.1398
 9171SOL    HW139146   3.296   3.532   4.334 -0.0416 -0.3644 -2.1803
 9171SOL    HW239147   3.263   3.396   4.315 -0.3592 -0.7387  0.9307
 9172SOL     OW39148   3.678   1.433   4.259  0.6872  0.0825  0.0483
 9172SOL    HW139149   3.619   1.463   4.190 -0.7673 -0.6189  0.9883
 9172SOL    HW239150   3.721   1.359   4.217 -0.6759 -0.1725 -0.9133
 9173SOL     OW39151   2.361   3.351   4.241 -0.0671 -0.2957 -0.1767
 9173SOL    HW139152   2.435   3.325   4.295  0.0079  1.4873  0.6007
 9173SOL    HW239153   2.338   3.270   4.195 -0.8008 -0.4330  0.4332
 9174SOL     OW39154   2.616   2.254  15.743 -0.5034  0.5958  0.3980
 9174SOL    HW139155   2.698   2.224  15.704 -1.5611 -0.5483 -0.9710
 9174SOL    HW239156   2.572   2.174  15.772 -1.0741  0.7831  0.0434
 9175SOL     OW39157   1.321   0.015   7.156 -0.2032  0.1292  0.1105
 9175SOL    HW139158   1.252   0.082   7.147 -0.2328 -0.2324 -2.2820
 9175SOL    HW239159   1.399   0.061   7.186  0.3908 -0.8480  0.0496
 9176SOL     OW39160   3.366   2.670   3.197  0.0839 -0.0928  0.7918
 9176SOL    HW139161   3.352   2.592   3.143  0.3593  0.0915  0.4510
 9176SOL    HW239162   3.280   2.695   3.229  0.4103  1.8704  0.1605
 9177SOL     OW39163   1.403   2.323   5.028  0.3668  0.1173 -0.3089
 9177SOL    HW139164   1.367   2.265   5.095  0.1970 -0.5296 -0.9628
 9177SOL    HW239165   1.494   2.334   5.056  0.0492 -0.1247  0.8164
 9178SOL     OW39166   4.176   0.916   6.925 -0.0866 -0.0487 -0.3539
 9178SOL    HW139167   4.196   0.844   6.984 -0.3552 -0.1230 -0.3543
 9178SOL    HW239168   4.081   0.921   6.928 -0.0097  0.9912  0.2259
 9179SOL     OW39169   0.598   1.248  10.894  0.6303  0.2352 -0.2763
 9179SOL    HW139170   0.656   1.174  10.911 -2.0148 -1.0956  2.8250
 9179SOL    HW239171   0.622   1.309  10.964  1.0510 -1.0468  0.6926
 9180SOL     OW39172   2.327   1.966  13.492 -0.3480 -0.1834  0.0160
 9180SOL    HW139173   2.273   1.936  13.418 -1.8196  3.6881 -0.5153
 9180SOL    HW239174   2.264   1.996  13.558 -0.4619  0.5874 -0.4373
 9181SOL     OW39175   3.048   3.783   4.684  0.5158 -0.2902  0.4349
 9181SOL    HW139176   3.030   3.715   4.619 -1.6515  2.1540 -1.5603
 9181SOL    HW239177   3.030   3.861   4.630 -2.0078 -2.2228 -1.5214
 9182SOL     OW39178   3.110   4.058   7.666 -0.2511  0.2400  0.0374
 9182SOL    HW139179   3.094   4.073   7.572  0.2691  1.9296  0.2373
 9182SOL    HW239180   3.038   4.000   7.690 -1.4130  1.0815 -1.4099
 9183SOL     OW39181   3.199   4.010  17.587 -0.0052 -0.2587 -0.1812
 9183SOL    HW139182   3.195   3.921  17.620  0.9302 -0.3607 -0.3418
 9183SOL    HW239183   3.286   4.034  17.619 -0.4165 -0.9436  1.4392
 9184SOL     OW39184   0.752   2.392   1.999  0.3167  0.4473 -0.3839
 9184SOL    HW139185   0.758   2.468   2.057  3.4460  0.3985 -0.6052
 9184SOL    HW239186   0.810   2.335   2.051  1.7496  0.8417 -1.5358
 9185SOL     OW39187   0.752   0.006  17.267 -0.3219 -1.0631 -0.0855
 9185SOL    HW139188   0.779   0.082  17.319  0.9037 -1.8917  0.4892
 9185SOL    HW239189   0.683   0.048  17.216  0.0317 -0.6322 -0.2167
 9186SOL     OW39190   2.821   1.337   1.568 -0.1741 -0.0099 -0.4866
 9186SOL    HW139191   2.914   1.355   1.581 -0.2465  0.0627 -0.0882
 9186SOL    HW239192   2.811   1.400   1.496 -0.9464  0.3606 -0.0522
 9187SOL     OW39193   2.840   1.815   3.015  0.6813  0.4494  0.0748
 9187SOL    HW139194   2.903   1.759   2.970 -0.2831 -0.9885  0.5038
 9187SOL    HW239195   2.809   1.877   2.950 -0.1000 -0.5201 -0.4734
 9188SOL     OW39196   4.485   3.551   7.587 -0.6002  0.4266 -0.3208
 9188SOL    HW139197   4.473   3.551   7.492  1.6193 -0.8390 -0.6032
 9188SOL    HW239198   4.576   3.571   7.608 -0.4584 -0.0791 -0.4391
 9189SOL     OW39199   4.078   4.626   8.711  0.0237 -0.1724 -0.2144
 9189SOL    HW139200   4.018   4.697   8.690 -1.6922 -2.3181 -2.4684
 9189SOL    HW239201   4.024   4.563   8.759 -1.1696  1.5633  0.7463
 9190SOL     OW39202   4.506   2.345  15.343  0.0558  0.4315 -0.0306
 9190SOL    HW139203   4.504   2.407  15.416 -2.1433  2.1891 -1.5716
 9190SOL    HW239204   4.596   2.352  15.311 -0.0598 -0.2851 -0.5096
 9191SOL     OW39205   1.827   4.150  16.324  0.5261 -0.0523 -0.1812
 9191SOL    HW139206   1.893   4.082  16.310 -0.0294 -0.3233 -1.4708
 9191SOL    HW239207   1.883   4.227  16.333 -1.5973  1.6739 -1.8383
 9192SOL     OW39208   3.238   3.145   9.291 -0.3889  0.5171  0.1205
 9192SOL    HW139209   3.196   3.061   9.273  0.5252 -0.2473  1.5737
 9192SOL    HW239210   3.295   3.145   9.214  1.5670 -2.1963  1.6151
 9193SOL     OW39211   2.361   2.757   8.970  0.4154 -0.0019  0.2210
 9193SOL    HW139212   2.292   2.692   8.981 -1.0505  1.6601  0.9379
 9193SOL    HW239213   2.366   2.764   8.875  0.1714 -1.5556  0.1072
 9194SOL     OW39214   3.816   2.516   9.105  0.0608 -0.0378 -0.3485
 9194SOL    HW139215   3.774   2.475   9.029 -0.4669 -2.6714  1.3718
 9194SOL    HW239216   3.896   2.463   9.114 -0.6966 -0.8934  1.2878
 9195SOL     OW39217   3.871   0.737   6.081  0.3873 -0.0929 -0.8565
 9195SOL    HW139218   3.896   0.764   5.992 -1.1105  0.2836 -1.1521
 9195SOL    HW239219   3.834   0.819   6.112 -1.3525 -0.8829 -0.8370
 9196SOL     OW39220   4.066   2.756   4.854 -0.2077  0.1034 -0.5379
 9196SOL    HW139221   4.070   2.680   4.795  0.2418 -0.0014 -0.3696
 9196SOL    HW239222   4.023   2.712   4.928 -0.2174  1.0940  0.0367
 9197SOL     OW39223   4.383   4.362   8.836  0.8078 -0.1164 -0.1161
 9197SOL    HW139224   4.347   4.281   8.872 -1.4544 -0.4440 -3.1374
 9197SOL    HW239225   4.408   4.411   8.914  1.2617 -0.6844  0.0922
 9198SOL     OW39226   2.102   1.113  13.194  0.1906 -0.7723 -0.7549
 9198SOL    HW139227   2.091   1.046  13.127  0.4274 -1.2012 -0.3689
 9198SOL    HW239228   2.060   1.189  13.153 -0.9208 -0.1461  1.4728
 9199SOL     OW39229   3.560   3.646   5.530 -1.2159  0.2272  0.3766
 9199SOL    HW139230   3.566   3.554   5.507 -0.8956  0.6244 -1.1313
 9199SOL    HW239231   3.650   3.664   5.557 -1.1723  0.4568  0.0776
 9200SOL     OW39232   2.809   1.295   2.368 -0.1679 -0.0643 -0.9696
 9200SOL    HW139233   2.783   1.211   2.407  0.5667  0.1708  0.0453
 9200SOL    HW239234   2.736   1.352   2.391  0.3284 -0.4358  1.6370
 9201SOL     OW39235   2.237   1.204  10.383 -0.1589 -0.2782 -0.5646
 9201SOL    HW139236   2.220   1.111  10.393  0.4351 -0.3211  0.0649
 9201SOL    HW239237   2.206   1.249  10.462 -0.4968  0.0492 -0.8859
 9202SOL     OW39238   1.542   4.029   0.190 -1.3381  0.1275  0.6470
 9202SOL    HW139239   1.608   3.996   0.252  0.2411 -0.8567 -1.5791
 9202SOL    HW239240   1.543   3.959   0.126 -0.4352  1.6035 -0.9461
 9203SOL     OW39241   3.399   0.485   5.288  0.4535 -0.2314 -0.1015
 9203SOL    HW139242   3.419   0.516   5.200  1.3585 -1.1853 -0.2256
 9203SOL    HW239243   3.333   0.546   5.321  0.3716 -0.6931  0.5888
 9204SOL     OW39244   4.104   4.248   1.662  0.6839  0.3153 -0.0556
 9204SOL    HW139245   4.094   4.252   1.567  1.5726 -0.6709 -0.1997
 9204SOL    HW239246   4.172   4.313   1.677  2.4361 -0.6276 -3.8610
 9205SOL     OW39247   2.143   3.019  13.813  0.2885 -0.3024  0.0325
 9205SOL    HW139248   2.147   3.089  13.749  0.2514 -0.8340 -0.5541
 9205SOL    HW239249   2.129   2.943  13.756  0.9993  0.4030 -1.0628
 9206SOL     OW39250   4.546   3.543  13.044 -0.4497  0.0435 -0.4323
 9206SOL    HW139251   4.495   3.492  13.108  1.6971 -1.5545  0.0012
 9206SOL    HW239252   4.612   3.479  13.018 -0.3783 -0.3471  0.6884
 9207SOL     OW39253   4.644   2.020   4.526  0.4962  0.3427 -0.5235
 9207SOL    HW139254   4.664   1.972   4.445  1.6763  0.5251 -0.3315
 9207SOL    HW239255   4.680   1.949   4.578  0.4219 -0.0581 -1.0237
 9208SOL     OW39256   1.251   2.780   3.601  0.4306 -0.3743 -0.8707
 9208SOL    HW139257   1.205   2.762   3.684  1.8734  0.1222  0.0306
 9208SOL    HW239258   1.191   2.730   3.545 -1.2452  1.2038 -0.4857
 9209SOL     OW39259   2.610   3.045   4.566 -0.3167  0.2475  0.1153
 9209SOL    HW139260   2.693   3.016   4.604  0.6786  1.3253 -1.2570
 9209SOL    HW239261   2.591   2.979   4.500  2.7807 -0.5798  0.0300
 9210SOL     OW39262   2.846   0.085   7.052 -0.2882  0.2919  0.0543
 9210SOL    HW139263   2.869   0.054   6.964  2.5906  1.2191  0.4875
 9210SOL    HW239264   2.882   0.013   7.105 -1.0042 -1.2159 -1.4987
 9211SOL     OW39265   4.180   2.938   7.537  0.9534  0.2157  0.1813
 9211SOL    HW139266   4.171   3.025   7.577 -1.1171  0.1356 -0.1242
 9211SOL    HW239267   4.089   2.908   7.537 -0.0667  3.3109 -1.2333
 9212SOL     OW39268   0.529   1.432  13.666 -0.3813  0.6488  0.0756
 9212SOL    HW139269   0.465   1.424  13.736 -0.1098 -0.4907  0.1933
 9212SOL    HW239270   0.607   1.430  13.722 -0.7369  0.8872  0.5807
 9213SOL     OW39271   2.678   1.920  15.284 -0.8536 -0.2276 -0.1246
 9213SOL    HW139272   2.762   1.966  15.284 -0.8965 -0.1581  1.1059
 9213SOL    HW239273   2.661   1.918  15.378 -1.5053 -1.3980 -0.2660
 9214SOL     OW39274   4.722   4.466   5.648 -0.3745  0.4868  0.3191
 9214SOL    HW139275   4.704   4.500   5.735 -1.1757  1.7839 -0.3519
 9214SOL    HW239276   0.028   4.388   5.686 -2.2190  0.4750  2.2464
 9215SOL     OW39277   0.391   3.238  16.181  0.0701  0.1454 -0.6931
 9215SOL    HW139278   0.457   3.241  16.112  2.9438  0.1243  2.0632
 9215SOL    HW239279   0.341   3.162  16.151 -2.1020  0.8574  1.1427
 9216SOL     OW39280   3.708   3.761   3.474 -0.1395  0.0869  0.3052
 9216SOL    HW139281   3.784   3.767   3.416  1.1554 -3.9506  1.6323
 9216SOL    HW239282   3.664   3.831   3.426  2.2169  0.1156 -1.8170
 9217SOL     OW39283   2.885   4.603   2.075  0.2187  0.2676  0.0424
 9217SOL    HW139284   2.966   4.556   2.054  0.8491  1.0523  0.7021
 9217SOL    HW239285   2.889   4.675   2.013  0.8382  1.3144  1.2879
 9218SOL     OW39286   3.988   0.080   8.335 -0.3224  0.2848  0.3246
 9218SOL    HW139287   4.034   0.161   8.357 -0.4220  0.5851 -0.5977
 9218SOL    HW239288   3.914   0.114   8.284  1.3765  1.4648 -1.3365
 9219SOL     OW39289   3.184   1.667   3.682  0.1662 -0.5422 -0.6642
 9219SOL    HW139290   3.241   1.708   3.748 -1.2075 -3.0457  2.0708
 9219SOL    HW239291   3.176   1.741   3.622 -0.0399  0.2967  0.3781
 9220SOL     OW39292   0.303   1.434   2.290  0.2164  0.1413  0.4242
 9220SOL    HW139293   0.359   1.508   2.265 -0.5665  1.4160  2.4290
 9220SOL    HW239294   0.335   1.375   2.222 -0.1426 -1.2426  1.4586
 9221SOL     OW39295   0.689   2.422   3.363  0.2176 -0.2713  0.0647
 9221SOL    HW139296   0.710   2.400   3.272 -0.3893 -2.1557  0.3737
 9221SOL    HW239297   0.623   2.354   3.377  0.4006 -0.7185 -1.2128
 9222SOL     OW39298   1.624   2.685   5.800 -0.0835 -0.1499 -0.1630
 9222SOL    HW139299   1.653   2.776   5.807 -0.9374  0.0154  1.4248
 9222SOL    HW239300   1.596   2.680   5.892  2.1628 -0.6378  0.5004
 9223SOL     OW39301   1.261   0.855  15.874 -0.0854 -0.6778  0.1611
 9223SOL    HW139302   1.246   0.947  15.854 -2.7912 -0.7940  1.7588
 9223SOL    HW239303   1.312   0.858  15.955  0.5357  1.9609 -0.3330
 9224SOL     OW39304   0.901   2.213   0.605  0.2049  0.2264  0.1036
 9224SOL    HW139305   0.972   2.234   0.665 -0.0435  3.3452 -0.6651
 9224SOL    HW239306   0.937   2.261   0.531 -1.5224  1.0630 -0.2054
 9225SOL     OW39307   2.639   4.563  14.267 -0.3612 -0.5837 -0.3721
 9225SOL    HW139308   2.571   4.572  14.334  3.0326  0.3041  2.9485
 9225SOL    HW239309   2.689   4.492  14.306 -0.9827 -0.8279 -0.0199
 9226SOL     OW39310   3.988   1.205   2.646  0.0348 -0.2326 -0.2708
 9226SOL    HW139311   3.928   1.277   2.668  1.5566  1.2686 -1.0645
 9226SOL    HW239312   4.072   1.236   2.680  0.0345 -2.4053  1.7328
 9227SOL     OW39313   1.291   4.182   6.675  0.4573 -0.4063  0.4519
 9227SOL    HW139314   1.373   4.217   6.642  1.8176 -2.4697  1.6236
 9227SOL    HW239315   1.255   4.268   6.698  0.5357 -0.3037  0.1864
 9228SOL     OW39316   4.060   3.496   2.656 -0.1965 -0.9863 -0.3620
 9228SOL    HW139317   4.099   3.579   2.630 -1.9971  0.1811  0.6399
 9228SOL    HW239318   4.128   3.435   2.628  1.2683  0.4912 -0.0587
 9229SOL     OW39319   1.540   0.223  15.856 -0.5537  0.3098 -0.2761
 9229SOL    HW139320   1.553   0.130  15.872  0.0348  0.4779  0.2361
 9229SOL    HW239321   1.475   0.252  15.921 -0.7974 -1.3064  0.2034
 9230SOL     OW39322   2.917   3.490   0.669 -0.0611 -0.7102  0.4487
 9230SOL    HW139323   2.875   3.461   0.750  1.3757 -1.5652  0.8889
 9230SOL    HW239324   2.890   3.582   0.675 -0.1802 -0.7750  0.9391
 9231SOL     OW39325   1.322   0.161   5.589  0.6374 -0.2044 -0.1817
 9231SOL    HW139326   1.333   0.067   5.602 -0.0284 -0.4194 -1.1479
 9231SOL    HW239327   1.243   0.186   5.637  1.6156 -0.5814  1.5891
 9232SOL     OW39328   0.232   0.683  12.331  0.1960  0.6917 -0.3455
 9232SOL    HW139329   0.218   0.669  12.238 -1.0710 -1.7712  0.2273
 9232SOL    HW239330   0.194   0.767  12.358 -4.7732 -1.1250 -1.7566
 9233SOL     OW39331   4.067   2.969   9.596  0.3284 -0.2915 -0.4056
 9233SOL    HW139332   4.058   2.921   9.678 -0.6346 -0.8428 -0.8328
 9233SOL    HW239333   4.075   3.059   9.626 -0.4552 -0.9709  1.8298
 9234SOL     OW39334   2.860   2.714   0.746 -0.9656 -0.4981 -0.1610
 9234SOL    HW139335   2.902   2.791   0.706 -1.5735 -1.0202 -1.8071
 9234SOL    HW239336   2.871   2.736   0.838  1.0065  0.2033 -0.5489
 9235SOL     OW39337   3.480   4.134   9.255 -0.7065 -0.0544 -0.4759
 9235SOL    HW139338   3.508   4.165   9.169 -1.8798  2.1615 -0.0529
 9235SOL    HW239339   3.407   4.194   9.267 -0.3334  0.0181  1.4212
 9236SOL     OW39340   2.393   0.588   7.405 -0.6808 -0.2832 -0.0507
 9236SOL    HW139341   2.475   0.599   7.452 -0.2756 -0.4313 -0.7232
 9236SOL    HW239342   2.397   0.492   7.398 -0.9947 -0.1799 -1.4905
 9237SOL     OW39343   3.746   2.752   2.131 -0.1440 -0.6004 -0.0475
 9237SOL    HW139344   3.675   2.743   2.194  0.3980  0.2503  0.6773
 9237SOL    HW239345   3.813   2.768   2.197 -0.7015 -2.0651  0.8725
 9238SOL     OW39346   0.279   1.068  14.205 -0.5809  0.1651  0.5011
 9238SOL    HW139347   0.254   1.069  14.297 -0.2676 -0.6227  0.5888
 9238SOL    HW239348   0.265   1.161  14.185  0.5822 -0.4319 -3.0734
 9239SOL     OW39349   1.674   4.303   8.744 -0.2659 -0.0029  0.3401
 9239SOL    HW139350   1.694   4.300   8.650  1.1180  2.5926  0.5327
 9239SOL    HW239351   1.627   4.223   8.765 -0.7627  0.8565  2.4608
 9240SOL     OW39352   3.365   2.946  12.292 -0.2971  0.6395  0.4726
 9240SOL    HW139353   3.414   2.961  12.373  0.4987  0.5503  0.0182
 9240SOL    HW239354   3.310   3.023  12.288  0.9591  1.5538  0.6853
 9241SOL     OW39355   1.190   3.270   8.836 -0.0306 -0.1001  0.2395
 9241SOL    HW139356   1.242   3.230   8.766  0.1764 -1.0873  0.9641
 9241SOL    HW239357   1.170   3.192   8.887  1.0498  1.2565  2.6881
 9242SOL     OW39358   3.858   3.840   6.951  0.0185  0.5496  0.5455
 9242SOL    HW139359   3.915   3.888   7.011  1.3482 -0.2929 -0.0320
 9242SOL    HW239360   3.917   3.825   6.877 -0.4782 -0.1428  0.2871
 9243SOL     OW39361   1.943   2.611   4.022 -0.3624  0.4913 -0.1914
 9243SOL    HW139362   1.889   2.532   4.009  2.5740 -1.3358 -1.1798
 9243SOL    HW239363   1.895   2.666   3.960 -0.3754  0.4507 -0.2179
 9244SOL     OW39364   4.343   4.648   3.930 -0.1151 -0.3721  0.1975
 9244SOL    HW139365   4.323   4.556   3.948  0.4144  0.1596  3.5291
 9244SOL    HW239366   4.389   4.680   4.007 -0.1109  0.5918 -0.2121
 9245SOL     OW39367   1.621   4.148   5.574  0.3312 -0.1687 -0.2856
 9245SOL    HW139368   1.605   4.130   5.667  0.7220  0.9649 -0.0001
 9245SOL    HW239369   1.639   4.059   5.543  2.3381 -0.0691  0.5760
 9246SOL     OW39370   2.047   3.218  16.528 -0.1463  0.0716 -0.3850
 9246SOL    HW139371   2.046   3.217  16.432  3.2815 -2.0201 -0.4073
 9246SOL    HW239372   1.957   3.210  16.557  0.3221  2.3555  1.7808
 9247SOL     OW39373   3.415   4.438   3.014 -0.4527  0.3329  0.8777
 9247SOL    HW139374   3.493   4.472   3.059  0.2015  0.0089 -0.0212
 9247SOL    HW239375   3.458   4.431   2.929  0.8187  1.8006  1.4031
 9248SOL     OW39376   3.829   1.264   7.333 -0.1236  0.3702  0.1057
 9248SOL    HW139377   3.858   1.226   7.250 -2.9704  0.3572 -0.8831
 9248SOL    HW239378   3.790   1.347   7.304  0.2624  0.3259 -0.5374
 9249SOL     OW39379   2.410   3.165   8.889 -0.2100  0.7175  0.1594
 9249SOL    HW139380   2.339   3.185   8.829 -0.3042 -0.1850 -0.0338
 9249SOL    HW239381   2.364   3.181   8.971 -2.2715 -0.7514 -0.7088
 9250SOL     OW39382   2.855   2.606   7.862  0.0576  0.5028  0.0663
 9250SOL    HW139383   2.775   2.575   7.820  0.3401 -0.9808  0.6104
 9250SOL    HW239384   2.917   2.576   7.795 -0.7957  0.5657 -0.7381
 9251SOL     OW39385   2.585   2.037   0.147  0.0634 -0.1518  0.4857
 9251SOL    HW139386   2.605   1.943   0.146 -1.2655 -0.4292  0.5453
 9251SOL    HW239387   2.612   2.054   0.057  0.1501  0.2507  0.5879
 9252SOL     OW39388   2.899   0.687   7.339 -0.0582  0.3346  0.6144
 9252SOL    HW139389   2.847   0.608   7.348 -0.4894  0.5246 -0.1714
 9252SOL    HW239390   2.906   0.686   7.243  0.7929  0.2179  0.6814
 9253SOL     OW39391   3.990   0.638   9.506 -0.5028  0.1243  0.1303
 9253SOL    HW139392   4.040   0.633   9.588  1.1320  1.6887 -0.7555
 9253SOL    HW239393   3.986   0.732   9.487  1.2751 -0.4770 -3.3606
 9254SOL     OW39394   2.800   2.856   6.639 -0.0765 -0.7516  0.5191
 9254SOL    HW139395   2.726   2.811   6.679  1.0470 -3.2275 -0.1805
 9254SOL    HW239396   2.814   2.924   6.704  1.2537 -0.8651  0.3603
 9255SOL     OW39397   0.939   4.370  12.618  0.4276  0.2150  0.0417
 9255SOL    HW139398   0.936   4.424  12.697 -1.2429  2.2209 -1.3808
 9255SOL    HW239399   0.865   4.311  12.637  0.6181 -1.1423 -3.4866
 9256SOL     OW39400   2.374   0.764  14.277 -0.4713  0.1387 -0.2366
 9256SOL    HW139401   2.425   0.814  14.341  0.3680 -1.4914  0.3677
 9256SOL    HW239402   2.436   0.707  14.233 -0.2071 -0.0274  0.3531
 9257SOL     OW39403   3.457   2.996   5.733 -0.5554  0.2586 -0.5928
 9257SOL    HW139404   3.472   2.903   5.715 -0.5134  0.5716 -2.2358
 9257SOL    HW239405   3.465   3.039   5.648  1.0555  2.4618  0.6734
 9258SOL     OW39406   0.339   1.159   2.916  0.1352 -0.2759  0.1849
 9258SOL    HW139407   0.401   1.119   2.855 -0.3655 -0.0113 -0.4950
 9258SOL    HW239408   0.379   1.238   2.954  3.0735 -1.3859 -0.5740
 9259SOL     OW39409   0.770   3.037   8.387 -0.3997 -0.0882  0.3532
 9259SOL    HW139410   0.709   3.106   8.414  1.2737  1.6335 -0.2901
 9259SOL    HW239411   0.719   2.995   8.318  1.8109 -1.7076 -0.2763
 9260SOL     OW39412   0.346   0.205   6.434  0.3301 -0.2665 -0.1469
 9260SOL    HW139413   0.302   0.153   6.501  0.4156  0.9555  0.8473
 9260SOL    HW239414   0.381   0.140   6.373 -2.6626 -0.3135 -1.8451
 9261SOL     OW39415   1.158   3.751   0.535  0.6556 -0.3671 -0.1080
 9261SOL    HW139416   1.118   3.823   0.583  1.2240 -0.7283  0.9069
 9261SOL    HW239417   1.210   3.721   0.609 -0.3722 -1.0357  0.3491
 9262SOL     OW39418   2.743   3.271   3.209  0.5292  0.2270  0.2306
 9262SOL    HW139419   2.670   3.277   3.147  0.6933 -0.4216 -0.0283
 9262SOL    HW239420   2.751   3.354   3.257 -1.5321  1.3013 -1.2664
 9263SOL     OW39421   2.573   0.732  10.726 -0.4881 -0.3614  0.7323
 9263SOL    HW139422   2.630   0.730  10.803  0.0415  0.7534  0.3700
 9263SOL    HW239423   2.578   0.643  10.691  0.9157  0.4082 -0.9929
 9264SOL     OW39424   4.267   2.248   6.192  0.2399 -0.2797 -0.6626
 9264SOL    HW139425   4.286   2.213   6.105 -0.2830 -1.3498 -0.3629
 9264SOL    HW239426   4.311   2.194   6.258  0.3360  0.6471  0.0222
 9265SOL     OW39427   0.988   4.700   7.018 -0.3219  0.4327 -0.0300
 9265SOL    HW139428   1.022   4.630   6.963  2.0646 -0.4229  2.5801
 9265SOL    HW239429   0.892   4.702   7.017 -0.3844 -2.2876  1.8712
 9266SOL     OW39430   3.581   0.183   7.436  0.8486 -0.0432 -0.4210
 9266SOL    HW139431   3.628   0.118   7.489  0.5364 -1.5792 -2.0363
 9266SOL    HW239432   3.585   0.148   7.347 -2.6170  1.5314 -1.1804
 9267SOL     OW39433   1.361   3.272   8.397 -0.3752  0.1024  0.2335
 9267SOL    HW139434   1.291   3.285   8.332 -3.8966 -2.3321  3.5203
 9267SOL    HW239435   1.417   3.213   8.347  0.6901  1.0087  0.3720
 9268SOL     OW39436   2.189   0.136  11.716  0.3308  0.2661  0.0109
 9268SOL    HW139437   2.122   0.101  11.657  0.0219  0.2105  0.3919
 9268SOL    HW239438   2.222   0.053  11.750 -3.5225 -1.5073 -0.6093
 9269SOL     OW39439   2.478   4.629   9.273  0.2140  0.2825  0.0412
 9269SOL    HW139440   2.428   4.636   9.353  2.9827 -1.4622  1.9282
 9269SOL    HW239441   2.568   4.639   9.304  0.0520  1.1916  0.2194
 9270SOL     OW39442   1.234   3.389   4.927 -0.0320 -0.3276 -0.0656
 9270SOL    HW139443   1.149   3.360   4.894 -0.1646 -0.9918  0.8308
 9270SOL    HW239444   1.234   3.481   4.902 -0.5047  0.1182  1.5751
 9271SOL     OW39445   4.719   3.232   2.899  0.4918  1.0308  0.5715
 9271SOL    HW139446   4.723   3.144   2.861 -0.2328  0.7792  1.0882
 9271SOL    HW239447   4.627   3.256   2.910  0.0208  0.3366 -1.6966
 9272SOL     OW39448   2.894   0.975   8.704  0.5595  0.3049  0.7163
 9272SOL    HW139449   2.971   1.016   8.663 -0.2297 -1.0652 -2.1026
 9272SOL    HW239450   2.863   1.051   8.754 -1.7949 -1.7870  2.4187
 9273SOL     OW39451   4.191   2.275   7.663 -0.7600  0.1027  0.3093
 9273SOL    HW139452   4.279   2.302   7.634 -0.0345 -1.8501  0.6911
 9273SOL    HW239453   4.175   2.216   7.589 -1.1062  0.6809 -0.0800
 9274SOL     OW39454   3.653   0.141  14.773  0.0313 -0.4564 -0.4824
 9274SOL    HW139455   3.707   0.122  14.696 -1.1465 -1.6413 -1.0193
 9274SOL    HW239456   3.707   0.213  14.806  2.2146 -1.6172 -1.5204
 9275SOL     OW39457   4.687   2.063   6.487 -0.0708 -0.0586  0.1842
 9275SOL    HW139458   0.001   2.124   6.433  0.1280 -0.1447  0.2710
 9275SOL    HW239459   4.634   2.025   6.417 -0.2652 -1.2593  0.9839
 9276SOL     OW39460   3.190   2.589   9.458 -0.2371  0.1712  0.2842
 9276SOL    HW139461   3.185   2.544   9.542  1.9422  1.0243  0.8782
 9276SOL    HW239462   3.285   2.592   9.447 -0.0176 -1.2528  1.7618
 9277SOL     OW39463   3.856   1.917  10.069 -0.1709 -0.3209 -0.4413
 9277SOL    HW139464   3.904   1.969  10.134  0.2983 -1.5787  0.2275
 9277SOL    HW239465   3.888   1.833  10.102 -0.1884 -1.0339 -2.2510
 9278SOL     OW39466   3.088   0.349   8.933 -0.2411  0.1407  0.2979
 9278SOL    HW139467   3.179   0.379   8.930 -0.1754 -0.0746  0.1378
 9278SOL    HW239468   3.065   0.365   9.025 -2.2508  2.6133 -0.6377
 9279SOL     OW39469   4.059   2.965   7.095 -0.4322 -0.7113 -0.0888
 9279SOL    HW139470   4.146   2.943   7.128 -1.1510  2.7137  4.1116
 9279SOL    HW239471   4.076   3.018   7.018  0.8379  2.6861  2.5618
 9280SOL     OW39472   3.626   3.057   3.088  0.0765  0.4704  0.3901
 9280SOL    HW139473   3.636   2.995   3.160 -0.7859  0.1989  0.2806
 9280SOL    HW239474   3.657   3.010   3.010 -0.3766  1.8010 -0.5803
 9281SOL     OW39475   1.444   4.602  13.567  0.0654 -0.0822 -0.1966
 9281SOL    HW139476   1.378   4.665  13.595  0.8113  0.3229  0.6111
 9281SOL    HW239477   1.397   4.523  13.594 -1.0079 -0.3008 -2.6348
 9282SOL     OW39478   3.192   4.732   3.207 -0.2611  0.1162 -0.5372
 9282SOL    HW139479   3.215   4.640   3.221 -3.1672 -0.7983 -1.6417
 9282SOL    HW239480   3.173   4.735   3.113  1.0232  3.5781 -0.6711
 9283SOL     OW39481   0.806   3.373   0.594 -0.3181  0.0466  0.1276
 9283SOL    HW139482   0.830   3.433   0.524  1.2314 -0.6678  0.0374
 9283SOL    HW239483   0.790   3.298   0.537 -0.6547 -0.4466  0.8736
 9284SOL     OW39484   4.335   1.250  11.169  0.4547  0.1339  0.3120
 9284SOL    HW139485   4.404   1.226  11.231  0.9057  1.4223  0.3049
 9284SOL    HW239486   4.300   1.325  11.217 -1.9439 -0.3177 -0.6934
 9285SOL     OW39487   0.086   2.991   9.315 -0.1206  0.5952  0.1450
 9285SOL    HW139488   0.119   3.057   9.253  1.3368  0.4086  0.7281
 9285SOL    HW239489   4.730   2.984   9.288 -0.1197 -0.2650  0.3712
 9286SOL     OW39490   4.055   2.955   0.083  0.5077  0.1057  0.3072
 9286SOL    HW139491   3.995   2.930   0.153 -1.1064  1.6674 -0.5025
 9286SOL    HW239492   4.136   2.908   0.098  0.1201 -0.7136 -0.1921
 9287SOL     OW39493   4.104   3.586   2.150  0.7126  0.0213  0.0407
 9287SOL    HW139494   4.028   3.644   2.157 -0.7024 -1.8025  0.0116
 9287SOL    HW239495   4.180   3.634   2.182 -0.2528  1.2492  0.5255
 9288SOL     OW39496   1.592   3.501   4.524  0.5037  0.1710 -0.1834
 9288SOL    HW139497   1.579   3.561   4.451 -2.2595  0.4989  0.5955
 9288SOL    HW239498   1.666   3.452   4.487  0.2865 -0.1392 -0.2069
 9289SOL     OW39499   0.605   2.566   6.450  0.1352  0.4036 -0.2599
 9289SOL    HW139500   0.624   2.545   6.542  1.2723  0.2650 -0.5190
 9289SOL    HW239501   0.533   2.507   6.430  1.3809 -1.4319  0.6129
 9290SOL     OW39502   3.999   4.439   7.415  0.7480  0.5760  0.0429
 9290SOL    HW139503   4.093   4.451   7.429  0.5625  1.4617  0.5860
 9290SOL    HW239504   3.963   4.519   7.454  0.9871  0.3908  0.6580
 9291SOL     OW39505   2.673   1.044   7.165 -0.0213  0.5617  0.7034
 9291SOL    HW139506   2.670   1.109   7.234 -1.0340 -0.1304  1.3159
 9291SOL    HW239507   2.721   0.967   7.195  0.7325  0.6133 -0.3799
 9292SOL     OW39508   2.695   3.037   6.809 -0.0448  0.3905  0.0657
 9292SOL    HW139509   2.707   3.118   6.859  0.1855  0.3453  0.0826
 9292SOL    HW239510   2.600   3.040   6.826  0.2663  1.6474  1.5700
 9293SOL     OW39511   2.727   1.369   8.469 -0.1447  0.2424  0.1556
 9293SOL    HW139512   2.687   1.329   8.546  0.5394 -1.1161 -0.1819
 9293SOL    HW239513   2.816   1.334   8.468 -0.0153  0.5781 -0.7282
 9294SOL     OW39514   0.073   4.136  13.658  0.5090 -0.2957 -0.1041
 9294SOL    HW139515   0.107   4.205  13.601 -0.2597 -0.1096 -0.3257
 9294SOL    HW239516   0.088   4.185  13.739 -1.8175 -1.5877  1.1074
 9295SOL     OW39517   1.557   2.968   5.254 -0.2399 -0.6034 -0.2916
 9295SOL    HW139518   1.473   2.930   5.227 -0.8592  0.4093  0.1711
 9295SOL    HW239519   1.559   2.955   5.349 -1.2592 -1.2424 -0.3593
 9296SOL     OW39520   0.636   1.330   2.014  0.2853  0.3710 -0.0632
 9296SOL    HW139521   0.623   1.424   2.002  1.2226  0.4346 -0.6541
 9296SOL    HW239522   0.552   1.301   2.048  0.3907 -1.6098 -1.4651
 9297SOL     OW39523   3.111   3.273   3.615  0.4576  0.2999 -0.1242
 9297SOL    HW139524   3.056   3.309   3.545  0.1666 -0.5513 -0.3327
 9297SOL    HW239525   3.123   3.184   3.584  2.2144 -0.0419  1.5685
 9298SOL     OW39526   0.618   4.041   9.129  0.1195 -0.2591 -0.0673
 9298SOL    HW139527   0.597   4.030   9.222 -0.6279  0.6762 -0.1229
 9298SOL    HW239528   0.547   3.994   9.086  1.7185 -1.0026 -1.8683
 9299SOL     OW39529   1.983   0.983  13.399  0.2075 -0.4509  0.8212
 9299SOL    HW139530   2.019   1.046  13.462  1.9200 -0.3359 -0.2929
 9299SOL    HW239531   2.020   1.027  13.323 -1.4068 -0.9551 -0.2744
 9300SOL     OW39532   3.422   0.275   9.092  0.2519  0.1585  1.0751
 9300SOL    HW139533   3.473   0.324   9.156  0.2884  2.6090 -0.8167
 9300SOL    HW239534   3.408   0.344   9.027 -1.2394 -0.9315  0.2509
 9301SOL     OW39535   1.149   4.307  15.797  0.0604 -0.2349 -0.1385
 9301SOL    HW139536   1.062   4.326  15.760  0.8448  0.5124 -1.6205
 9301SOL    HW239537   1.154   4.381  15.857 -2.5986  0.8087 -1.1845
 9302SOL     OW39538   0.709   1.714   9.321  0.7642 -0.1247 -0.1191
 9302SOL    HW139539   0.722   1.620   9.335 -1.1136 -0.2333  0.9278
 9302SOL    HW239540   0.662   1.746   9.398  2.2514  1.8698 -0.0299
 9303SOL     OW39541   3.041   1.892   7.791 -0.4507  0.3762 -0.0406
 9303SOL    HW139542   3.084   1.904   7.706 -0.0364  0.2927  0.1563
 9303SOL    HW239543   3.111   1.920   7.849 -0.1301 -0.6298  0.0647
 9304SOL     OW39544   4.673   1.282   2.525 -0.0687 -0.1124  0.4676
 9304SOL    HW139545   0.024   1.243   2.539  0.6329  1.4362  0.4479
 9304SOL    HW239546   4.696   1.357   2.470  0.0623 -1.0368 -0.7274
 9305SOL     OW39547   3.945   0.575   1.767 -0.2734 -0.2852  0.0183
 9305SOL    HW139548   3.957   0.506   1.831 -1.5582 -1.9230 -1.5175
 9305SOL    HW239549   3.999   0.647   1.800  0.0234 -0.1276 -0.7964
 9306SOL     OW39550   1.495   2.803  17.058  0.2613  0.5187  0.3611
 9306SOL    HW139551   1.556   2.733  17.081 -0.5306  0.0383  0.9922
 9306SOL    HW239552   1.519   2.812  16.966 -0.9213 -2.6188 -0.2324
 9307SOL     OW39553   3.018   3.938  14.541 -0.0754  0.0921 -0.0354
 9307SOL    HW139554   3.031   3.922  14.634  0.5058 -1.8050 -0.4535
 9307SOL    HW239555   2.931   3.903  14.521 -0.0189 -1.1203  1.8391
 9308SOL     OW39556   2.953   0.979   1.919 -0.3249  0.1143  0.4139
 9308SOL    HW139557   2.910   1.051   1.873 -1.0806 -1.3705 -1.2375
 9308SOL    HW239558   2.952   1.009   2.009  0.1659 -3.0359  1.4865
 9309SOL     OW39559   2.913   0.623   5.952  0.2764 -0.0197 -0.2821
 9309SOL    HW139560   2.856   0.548   5.933 -1.5137  1.1268  0.5653
 9309SOL    HW239561   2.893   0.634   6.045  0.4226  0.3609 -0.2964
 9310SOL     OW39562   2.471   2.128   8.007  0.4026 -0.2176  0.3175
 9310SOL    HW139563   2.511   2.208   8.043  1.7218  0.1742 -2.0387
 9310SOL    HW239564   2.504   2.054   8.058  1.2434  0.3115  0.5475
 9311SOL     OW39565   3.542   0.771   3.320 -0.5532 -0.2559 -0.2992
 9311SOL    HW139566   3.545   0.686   3.276  0.2542 -0.6668  0.5518
 9311SOL    HW239567   3.449   0.789   3.334 -0.2631  1.1752 -0.2591
 9312SOL     OW39568   1.821   2.543   5.976  0.3866  0.1059 -0.8761
 9312SOL    HW139569   1.891   2.479   5.985  2.5616  2.3534 -1.5948
 9312SOL    HW239570   1.870   2.614   5.933  1.3237  1.1271  1.8462
 9313SOL     OW39571   3.492   2.940   1.338  0.0455  0.1974 -0.4507
 9313SOL    HW139572   3.497   3.000   1.263  1.9768  0.5018 -0.0711
 9313SOL    HW239573   3.517   2.995   1.412  3.4134 -0.7967 -0.8622
 9314SOL     OW39574   3.326   2.050  17.247  0.1742 -0.5571 -0.2949
 9314SOL    HW139575   3.349   2.102  17.324  3.2374  0.0680 -1.6189
 9314SOL    HW239576   3.395   2.069  17.184  1.0320  0.4878  0.9593
 9315SOL     OW39577   2.153   0.208   2.621  0.3810 -0.0728 -0.3130
 9315SOL    HW139578   2.236   0.200   2.667  1.0038 -0.7132 -1.5717
 9315SOL    HW239579   2.184   0.157   2.546 -3.2700 -1.1399 -1.1006
 9316SOL     OW39580   4.541   0.939  12.850 -0.5627 -0.6683 -0.0951
 9316SOL    HW139581   4.565   1.007  12.912  1.5426  0.3315 -2.0134
 9316SOL    HW239582   4.603   0.871  12.876  0.1512  0.4919  1.2300
 9317SOL     OW39583   4.658   3.744   8.126 -0.0431 -0.1112 -0.0637
 9317SOL    HW139584   4.632   3.836   8.121  0.3298  0.0776  1.4937
 9317SOL    HW239585   4.721   3.761   8.196  0.4970  1.2836 -0.8776
 9318SOL     OW39586   0.270   4.420   5.139  0.1284  0.0213 -0.3613
 9318SOL    HW139587   0.246   4.328   5.149  1.9967 -0.0888  3.2357
 9318SOL    HW239588   0.274   4.432   5.044 -1.3579  0.1085 -0.4067
 9319SOL     OW39589   1.732   1.312   9.424 -0.1784  0.1919 -0.1544
 9319SOL    HW139590   1.725   1.302   9.519  0.7604 -0.3319 -0.1497
 9319SOL    HW239591   1.809   1.369   9.427  0.8447 -1.1363 -1.6835
 9320SOL     OW39592   0.799   0.533   6.198  0.4116 -0.3204 -0.9465
 9320SOL    HW139593   0.860   0.602   6.173  0.2627 -0.4370 -1.6207
 9320SOL    HW239594   0.822   0.465   6.135  3.6807 -0.2408  0.1498
 9321SOL     OW39595   0.806   4.314   4.877 -0.2138 -0.0082  0.2869
 9321SOL    HW139596   0.827   4.380   4.944 -0.5540 -1.1034  1.4675
 9321SOL    HW239597   0.895   4.295   4.845 -0.4429  0.9267 -0.9200
 9322SOL     OW39598   0.392   4.589  11.670 -0.4072 -0.1807 -0.0015
 9322SOL    HW139599   0.304   4.581  11.631 -0.4757 -0.0427  0.1257
 9322SOL    HW239600   0.442   4.595  11.589 -1.2400 -1.8924 -0.6624
 9323SOL     OW39601   2.936   3.934   2.404  0.0097 -0.0208 -0.1545
 9323SOL    HW139602   2.986   3.933   2.485  3.3654  1.3167 -2.1703
 9323SOL    HW239603   2.987   3.990   2.344  0.3901  0.4951  0.6465
 9324SOL     OW39604   1.800   3.858   6.209 -0.6316 -0.2867 -0.5812
 9324SOL    HW139605   1.790   3.765   6.189  0.4328 -0.7893  1.2856
 9324SOL    HW239606   1.800   3.898   6.122 -0.5343 -2.2691 -1.4938
 9325SOL     OW39607   1.391   3.845   8.593  0.1328  0.0658 -0.3573
 9325SOL    HW139608   1.411   3.932   8.626  2.8901  0.0349 -1.9376
 9325SOL    HW239609   1.314   3.877   8.547 -0.2635  0.8794  0.8856
 9326SOL     OW39610   1.842   3.216   0.236  0.5784  0.4321  0.2529
 9326SOL    HW139611   1.769   3.160   0.213 -0.2084  0.8403  1.7185
 9326SOL    HW239612   1.906   3.177   0.177  0.1123 -2.1191  1.4236
 9327SOL     OW39613   3.160   1.809   1.918 -0.3482 -0.3064 -0.1986
 9327SOL    HW139614   3.167   1.890   1.868 -0.3215 -0.6205 -0.7037
 9327SOL    HW239615   3.142   1.847   2.004 -0.2063 -0.1640 -0.2328
 9328SOL     OW39616   1.893   4.444   3.051  0.1287  0.0976  0.6554
 9328SOL    HW139617   1.906   4.444   2.956  3.1452 -1.1142  1.0553
 9328SOL    HW239618   1.839   4.365   3.045 -0.3781  0.6385 -1.6725
 9329SOL     OW39619   0.427   3.729   9.555  0.1752 -0.1097  0.1572
 9329SOL    HW139620   0.446   3.711   9.647  1.3684 -1.7834 -0.4261
 9329SOL    HW239621   0.487   3.666   9.515 -1.1342  0.2289 -2.3961
 9330SOL     OW39622   0.705   4.466  12.410  0.3393  0.5555  0.0994
 9330SOL    HW139623   0.648   4.524  12.460 -0.3911 -0.6145  0.6301
 9330SOL    HW239624   0.725   4.396  12.473 -0.0701  0.2611 -0.0951
 9331SOL     OW39625   1.313   2.469   4.774  0.6841 -0.8981 -0.4122
 9331SOL    HW139626   1.223   2.436   4.771  0.3889 -0.1125 -0.2248
 9331SOL    HW239627   1.340   2.430   4.857 -0.8099 -0.2968  0.3614
 9332SOL     OW39628   3.025   0.418   6.179  0.2360 -0.6718 -0.4101
 9332SOL    HW139629   2.961   0.396   6.247  0.2164  1.3287  0.2470
 9332SOL    HW239630   2.974   0.389   6.104  0.1695 -0.3258 -0.5002
 9333SOL     OW39631   2.726   3.879  10.843  0.3422  0.0576 -0.0570
 9333SOL    HW139632   2.657   3.877  10.777  3.0908  0.7045 -2.8857
 9333SOL    HW239633   2.739   3.974  10.847  0.4785 -0.0537  2.2851
 9334SOL     OW39634   3.321   1.633  17.089  0.0850  0.0109 -0.4947
 9334SOL    HW139635   3.320   1.537  17.097 -1.0105  0.1925  1.5212
 9334SOL    HW239636   3.415   1.644  17.076 -0.1526  1.0870 -1.2742
 9335SOL     OW39637   0.151   2.646   2.111 -0.1501  0.1580  0.0451
 9335SOL    HW139638   0.075   2.696   2.079 -0.5423 -1.4922 -1.6267
 9335SOL    HW239639   0.170   2.692   2.193 -0.4689 -1.2398  0.8951
 9336SOL     OW39640   2.935   4.649   8.436 -0.0889 -0.2720 -0.3854
 9336SOL    HW139641   3.017   4.671   8.480 -1.8724 -0.6204  3.1092
 9336SOL    HW239642   2.931   4.716   8.367  0.7629 -1.7152 -1.8453
 9337SOL     OW39643   4.629   0.058   2.913  0.7369 -0.3882  0.2636
 9337SOL    HW139644   4.548   0.058   2.863  0.3468 -0.0779  0.8996
 9337SOL    HW239645   4.648   0.152   2.908  0.2169 -0.3018 -0.1065
 9338SOL     OW39646   3.310   0.369   6.145  0.2668  0.2408 -0.2189
 9338SOL    HW139647   3.220   0.392   6.120 -0.4777 -1.6339  0.6579
 9338SOL    HW239648   3.351   0.454   6.161 -1.7207  1.9447 -4.2044
 9339SOL     OW39649   0.606   4.085   2.885  0.3235  0.2485  0.2828
 9339SOL    HW139650   0.588   4.055   2.796 -1.2833 -0.8981  0.9824
 9339SOL    HW239651   0.665   4.157   2.862  0.2696 -0.2083 -1.2756
 9340SOL     OW39652   4.227   3.971   8.148 -0.1451  0.0261 -0.2683
 9340SOL    HW139653   4.160   4.008   8.090  0.6717 -1.0699 -1.9004
 9340SOL    HW239654   4.240   4.035   8.219 -0.0964  0.9568 -1.1240
 9341SOL     OW39655   0.423   3.832  11.458 -0.1447 -0.2313  0.0666
 9341SOL    HW139656   0.510   3.807  11.427 -1.3110 -2.7603 -1.1555
 9341SOL    HW239657   0.435   3.838  11.553 -1.3035  0.2131  0.1891
 9342SOL     OW39658   1.054   2.746   8.244 -0.4879 -0.2548  0.0033
 9342SOL    HW139659   1.109   2.749   8.322 -2.1822  0.9664  1.1312
 9342SOL    HW239660   1.001   2.825   8.249 -0.4494 -0.2540  0.3752
 9343SOL     OW39661   4.484   2.108  17.570  0.6768 -0.1555 -0.2457
 9343SOL    HW139662   4.421   2.036  17.570 -1.2290  1.5202 -0.2615
 9343SOL    HW239663   4.556   2.069  17.520  0.3028 -0.1405 -0.7845
 9344SOL     OW39664   3.538   1.250   4.963 -0.0169 -0.5179  0.3628
 9344SOL    HW139665   3.618   1.299   4.983  0.4050 -0.4317 -1.5954
 9344SOL    HW239666   3.557   1.218   4.875  1.1686  0.4571  0.2642
 9345SOL     OW39667   0.431   1.642   5.123 -0.5641  0.4570  0.3177
 9345SOL    HW139668   0.419   1.573   5.189  0.5884 -0.8992 -0.8950
 9345SOL    HW239669   0.362   1.619   5.062 -2.3881  2.5954  1.5468
 9346SOL     OW39670   3.918   0.543  10.293 -0.1827  0.1975 -0.1760
 9346SOL    HW139671   3.943   0.593  10.371  2.0127 -1.7211  0.3667
 9346SOL    HW239672   3.824   0.543  10.313 -0.1826 -0.8849 -0.1615
 9347SOL     OW39673   2.721   4.676  16.744 -0.0881 -0.3508  0.0307
 9347SOL    HW139674   2.733   4.614  16.816 -0.6122 -0.6563 -0.1489
 9347SOL    HW239675   2.786   0.010  16.758  0.2647 -0.5632 -0.5393
 9348SOL     OW39676   3.979   3.142   3.577  0.0622  0.7198  0.8808
 9348SOL    HW139677   3.956   3.151   3.670 -0.8452 -2.0025  0.9207
 9348SOL    HW239678   3.919   3.208   3.541 -0.1086 -0.2676 -0.6242
 9349SOL     OW39679   2.261   3.014   4.935  0.3721  0.0289  0.2149
 9349SOL    HW139680   2.181   2.967   4.911  0.4685  1.3563 -2.7306
 9349SOL    HW239681   2.314   2.990   4.858 -0.1457 -4.6939  1.3247
 9350SOL     OW39682   3.835   4.174   8.492 -0.0938  0.0511  0.0774
 9350SOL    HW139683   3.927   4.156   8.472 -0.9956 -0.0011 -4.0422
 9350SOL    HW239684   3.821   4.138   8.580  0.4728 -2.7339 -0.9595
 9351SOL     OW39685   3.409   2.781   9.225 -0.3705 -0.1036  0.3518
 9351SOL    HW139686   3.353   2.847   9.183  0.2129  0.1841  0.0282
 9351SOL    HW239687   3.490   2.831   9.226 -0.4267 -0.0462  2.0979
 9352SOL     OW39688   4.668   1.706   6.324 -0.1326 -0.0874 -0.1335
 9352SOL    HW139689   4.724   1.671   6.394 -1.4527 -0.8060  0.5567
 9352SOL    HW239690   4.618   1.631   6.294  1.6371 -1.3481  0.0413
 9353SOL     OW39691   4.102   0.362   4.002 -0.0470 -0.4160  0.5405
 9353SOL    HW139692   4.145   0.291   3.953  1.9120  1.9576 -1.1502
 9353SOL    HW239693   4.019   0.317   4.019  0.1897 -1.4160 -0.9310
 9354SOL     OW39694   1.416   0.766   5.542  0.0406  0.0649  1.0161
 9354SOL    HW139695   1.361   0.734   5.470 -0.4531  1.5449  0.7201
 9354SOL    HW239696   1.429   0.860   5.527  0.0788 -0.3580 -1.5946
 9355SOL     OW39697   3.702   4.420   9.128  0.6160  0.6232  0.3166
 9355SOL    HW139698   3.619   4.389   9.093  1.4816 -2.9278  1.4708
 9355SOL    HW239699   3.689   4.432   9.222 -1.5592 -2.3521  0.3581
 9356SOL     OW39700   0.527   3.019   1.285  0.2919 -0.0712 -0.2845
 9356SOL    HW139701   0.556   3.029   1.375 -2.3352 -1.7814  0.7535
 9356SOL    HW239702   0.568   3.096   1.246  0.2307 -0.4771 -1.1575
 9357SOL     OW39703   0.720   3.975   7.914 -0.3142 -0.3834  0.2651
 9357SOL    HW139704   0.805   3.943   7.884 -0.5802  1.0416 -2.0270
 9357SOL    HW239705   0.735   4.068   7.896  0.0132 -0.3667  0.6273
 9358SOL     OW39706   4.022   2.431   8.666  0.4435  0.1300  0.5028
 9358SOL    HW139707   4.030   2.337   8.655 -1.5132 -0.1669  1.5597
 9358SOL    HW239708   3.994   2.459   8.578  0.5685  1.6928  0.9540
 9359SOL     OW39709   4.681   4.133   5.042  0.3645  0.1402  0.3632
 9359SOL    HW139710   4.646   4.050   5.008 -1.8156  0.3427  2.1307
 9359SOL    HW239711   4.657   4.134   5.135 -0.1138  1.1212  0.2212
 9360SOL     OW39712   4.452   4.250   3.337  0.1787  0.5452  0.2112
 9360SOL    HW139713   4.450   4.325   3.278  0.9339  1.8284  1.7985
 9360SOL    HW239714   4.444   4.302   3.417  1.3889 -1.2581  1.5078
 9361SOL     OW39715   1.533   2.349   7.327 -0.5136  0.0148 -0.2227
 9361SOL    HW139716   1.444   2.365   7.359 -0.5869 -0.2833 -0.2758
 9361SOL    HW239717   1.558   2.271   7.375  1.1875  2.1491  2.3076
 9362SOL     OW39718   3.990   1.566   5.004  0.3607 -0.4361 -0.6840
 9362SOL    HW139719   4.022   1.623   5.073  0.0685  1.0293 -1.7507
 9362SOL    HW239720   4.071   1.543   4.958  0.9708  0.2910  0.0541
 9363SOL     OW39721   2.876   1.425   9.819 -0.3021 -0.4372 -0.1561
 9363SOL    HW139722   2.885   1.516   9.845 -0.5795 -0.5234  0.2494
 9363SOL    HW239723   2.802   1.385   9.865  0.2977 -0.5049  0.7526
 9364SOL     OW39724   1.981   2.567   2.558  0.1420 -0.0404 -0.0085
 9364SOL    HW139725   1.938   2.625   2.495 -0.7585 -2.3885 -1.5530
 9364SOL    HW239726   2.013   2.633   2.620  0.8262 -0.7409  0.3768
 9365SOL     OW39727   4.639   4.579  11.697  0.1431  0.0633 -0.0390
 9365SOL    HW139728   4.711   4.522  11.726 -0.5081 -0.2041  1.0483
 9365SOL    HW239729   4.656   4.655  11.752  1.5364  1.1680 -2.0079
 9366SOL     OW39730   3.352   4.434  17.580  0.6210  0.0927  0.0928
 9366SOL    HW139731   3.413   4.394  17.642  2.4842  0.1903 -1.7015
 9366SOL    HW239732   3.410   4.493  17.533  1.1405 -0.5491 -0.0663
 9367SOL     OW39733   1.525   3.981  12.143 -0.3359  0.7498  0.0536
 9367SOL    HW139734   1.432   4.002  12.145 -0.6229 -0.5689  0.8355
 9367SOL    HW239735   1.537   4.002  12.235  1.8540  0.6480 -0.2023
 9368SOL     OW39736   3.065   1.402   1.583  0.0125 -0.2328 -0.0350
 9368SOL    HW139737   3.125   1.343   1.628  0.4052  0.3583  0.2257
 9368SOL    HW239738   3.071   1.484   1.633 -0.0779  0.5976 -1.3683
 9369SOL     OW39739   1.293   3.068   1.766  0.1893  0.0714  0.0052
 9369SOL    HW139740   1.269   3.023   1.847  2.1324 -0.5714  0.2097
 9369SOL    HW239741   1.385   3.081   1.790  0.6002 -2.9108  0.0840
 9370SOL     OW39742   1.800   1.800   5.516 -0.1190 -0.5102  0.1468
 9370SOL    HW139743   1.830   1.709   5.517 -0.5665 -0.6774 -0.8321
 9370SOL    HW239744   1.714   1.782   5.477 -1.5875  0.2648  3.0130
 9371SOL     OW39745   3.573   1.172   8.173  0.2101 -0.5109  0.1770
 9371SOL    HW139746   3.609   1.085   8.191 -2.2856 -1.5252  0.3356
 9371SOL    HW239747   3.636   1.232   8.211 -1.0492  0.6863  0.3912
 9372SOL     OW39748   2.549   0.246   9.515  0.0717  0.0382  0.0329
 9372SOL    HW139749   2.561   0.340   9.518 -0.8144  0.2253 -1.7129
 9372SOL    HW239750   2.467   0.227   9.561 -0.3784  1.8549 -0.0339
 9373SOL     OW39751   0.517   4.615  10.147  0.4045 -0.0567  0.0836
 9373SOL    HW139752   0.430   4.575  10.158  1.1428 -2.3740 -2.8577
 9373SOL    HW239753   0.563   4.586  10.226 -0.9471 -0.0975  0.8764
 9374SOL     OW39754   0.583   4.584   7.488 -0.0742 -0.6750 -0.0415
 9374SOL    HW139755   0.506   4.639   7.473  0.0917 -0.1169  1.1167
 9374SOL    HW239756   0.565   4.550   7.575 -0.8783 -0.0024  0.0593
 9375SOL     OW39757   1.140   0.641   4.011  0.6393  0.3451 -0.1382
 9375SOL    HW139758   1.145   0.672   3.921 -1.6601 -0.2020 -0.4348
 9375SOL    HW239759   1.191   0.710   4.053 -0.6699  1.0078  0.3427
 9376SOL     OW39760   1.756   0.406   8.652 -0.4346 -0.1643  0.3334
 9376SOL    HW139761   1.808   0.353   8.591 -0.0553 -0.4435  0.9070
 9376SOL    HW239762   1.671   0.367   8.632 -0.0371 -1.0371  0.3545
 9377SOL     OW39763   4.102   2.111   7.474  0.5314 -0.0460 -0.2044
 9377SOL    HW139764   4.125   2.019   7.467 -0.2361 -0.2844  0.3638
 9377SOL    HW239765   4.011   2.092   7.498  1.1231 -0.8998  1.3594
 9378SOL     OW39766   2.508   1.243   2.136 -0.0170 -0.2335  0.2355
 9378SOL    HW139767   2.486   1.170   2.193  0.3564  0.8988  1.8441
 9378SOL    HW239768   2.458   1.228   2.056  0.0084  0.7037  0.0362
 9379SOL     OW39769   0.403   4.206   0.970 -0.3437  0.0016 -0.1287
 9379SOL    HW139770   0.459   4.128   0.959 -0.4841 -0.1154 -0.0123
 9379SOL    HW239771   0.367   4.215   0.882 -0.4529  0.9574  0.0197
 9380SOL     OW39772   0.463   4.444   5.662  0.3931  0.3451  0.2874
 9380SOL    HW139773   0.498   4.479   5.744 -1.0234 -0.3333  1.1892
 9380SOL    HW239774   0.379   4.414   5.698 -0.4495  0.7929 -1.2822
 9381SOL     OW39775   2.027   4.409   7.997  0.3630 -0.5540  0.0965
 9381SOL    HW139776   2.120   4.405   7.972  0.1084  2.6382 -1.3692
 9381SOL    HW239777   2.013   4.492   8.042  3.1753  0.7088 -1.3280
 9382SOL     OW39778   1.870   1.800   6.009  0.0150  0.4583  0.3348
 9382SOL    HW139779   1.943   1.741   6.025 -0.3167 -0.4946 -1.6950
 9382SOL    HW239780   1.835   1.758   5.931 -0.1971  1.6056 -0.1876
 9383SOL     OW39781   3.149   4.611  10.065 -0.0512  0.1451 -0.0114
 9383SOL    HW139782   3.066   4.640  10.103  0.4163  1.3793  0.0468
 9383SOL    HW239783   3.206   4.592  10.140 -0.8599 -0.8718  0.3472
 9384SOL     OW39784   1.463   3.567   5.270  0.5342  0.3942 -0.4246
 9384SOL    HW139785   1.538   3.548   5.326  1.4832 -1.5637 -2.3634
 9384SOL    HW239786   1.394   3.522   5.320 -0.7766  3.4301  0.5029
 9385SOL     OW39787   2.062   0.496   1.744 -0.0987  0.3477  0.4269
 9385SOL    HW139788   2.146   0.495   1.698  0.5179  2.1030  1.5204
 9385SOL    HW239789   2.056   0.591   1.751  1.4831  0.7372 -3.7897
 9386SOL     OW39790   3.050   4.419   2.304 -0.4310  0.5312 -0.1524
 9386SOL    HW139791   3.063   4.512   2.324 -0.3722  0.3733  0.5232
 9386SOL    HW239792   3.042   4.396   2.396  0.8660 -1.6457 -0.5939
 9387SOL     OW39793   4.373   3.658   6.737 -0.5698 -0.0725  0.1486
 9387SOL    HW139794   4.384   3.746   6.700  1.4823  0.2197  1.4826
 9387SOL    HW239795   4.391   3.603   6.660 -0.4511 -0.5306  0.5038
 9388SOL     OW39796   3.702   2.992  13.167 -0.6737 -0.2446 -0.3123
 9388SOL    HW139797   3.665   3.038  13.243 -0.9222 -0.0183 -0.5672
 9388SOL    HW239798   3.743   2.917  13.210  1.0343  0.9733  0.1632
 9389SOL     OW39799   1.809   1.789   3.884 -0.4817  0.2020  0.3833
 9389SOL    HW139800   1.745   1.732   3.842 -1.1593  1.0240  0.3009
 9389SOL    HW239801   1.752   1.865   3.893  1.3810  1.5658  0.6117
 9390SOL     OW39802   0.368   3.617   7.401  0.1202 -0.5202  0.2660
 9390SOL    HW139803   0.444   3.586   7.451  0.0636 -0.8391  0.1509
 9390SOL    HW239804   0.378   3.711   7.417  0.2065 -0.5031  0.1134
 9391SOL     OW39805   0.028   2.257   4.500  0.2710 -0.0778  0.3488
 9391SOL    HW139806   4.707   2.180   4.502 -0.1001  0.1879  0.1370
 9391SOL    HW239807   0.082   2.237   4.577  1.6531 -1.6526 -1.0490
 9392SOL     OW39808   1.509   1.802   8.349 -0.6325  0.1790 -0.1893
 9392SOL    HW139809   1.535   1.889   8.319 -0.2469 -0.0633 -0.5691
 9392SOL    HW239810   1.483   1.761   8.266 -2.9109 -2.5724  1.9213
 9393SOL     OW39811   0.911   2.183   5.454  0.0692 -0.5112  0.0071
 9393SOL    HW139812   0.994   2.213   5.491 -0.6541 -0.7393  1.8396
 9393SOL    HW239813   0.944   2.103   5.414  1.1237 -1.1442  2.1520
 9394SOL     OW39814   2.816   2.021  14.948 -0.2098  0.3265  0.2780
 9394SOL    HW139815   2.767   1.971  14.882  1.3159 -0.2858 -0.4019
 9394SOL    HW239816   2.767   2.103  14.942  2.5934  2.0491  1.3473
 9395SOL     OW39817   4.248   4.003   1.071  0.3367  0.3954 -0.8273
 9395SOL    HW139818   4.257   4.097   1.085  1.5626  0.1738 -0.0541
 9395SOL    HW239819   4.244   3.998   0.976 -0.1221  1.6171 -0.8789
 9396SOL     OW39820   0.758   0.357   4.934  0.2048  0.4710 -0.1415
 9396SOL    HW139821   0.753   0.265   4.908 -0.2331  0.1998  0.8770
 9396SOL    HW239822   0.677   0.361   4.986 -1.9345 -1.4050 -3.2781
 9397SOL     OW39823   3.640   0.401   5.701 -0.3343  0.0427  0.0515
 9397SOL    HW139824   3.545   0.406   5.704 -0.2147  1.2926  1.5029
 9397SOL    HW239825   3.647   0.392   5.606 -2.1887 -0.4996 -0.0324
 9398SOL     OW39826   2.416   3.320   9.966 -0.5082  0.3439 -0.3289
 9398SOL    HW139827   2.511   3.321   9.974 -0.4422 -0.1534 -1.0301
 9398SOL    HW239828   2.400   3.227   9.951 -0.7565 -0.3048  3.8833
 9399SOL     OW39829   3.019   3.365   2.422 -0.4004 -0.1777 -0.1812
 9399SOL    HW139830   2.974   3.351   2.339  0.5938  0.1434 -0.7670
 9399SOL    HW239831   3.059   3.450   2.406  0.1758 -0.6123 -1.0159
 9400SOL     OW39832   1.712   2.223   1.953  0.2761 -0.2901 -0.2505
 9400SOL    HW139833   1.734   2.311   1.983  0.0818 -0.8150  1.4226
 9400SOL    HW239834   1.617   2.220   1.958  0.2784 -0.4773 -0.2934
 9401SOL     OW39835   2.533   0.943  14.444  0.2597  0.1276  0.1558
 9401SOL    HW139836   2.475   1.017  14.430  0.9603  1.1444  2.5439
 9401SOL    HW239837   2.520   0.920  14.536 -1.0521  2.1657  0.4720
 9402SOL     OW39838   2.232   2.610   7.642 -0.3439 -0.6298 -0.3919
 9402SOL    HW139839   2.248   2.694   7.685 -0.5535 -0.1341 -1.2704
 9402SOL    HW239840   2.181   2.566   7.710 -0.3381 -0.6756 -0.4173
 9403SOL     OW39841   1.578   2.045   8.579 -0.2013  0.0129 -0.2345
 9403SOL    HW139842   1.578   2.005   8.666 -1.4826  0.4404 -0.0423
 9403SOL    HW239843   1.486   2.070   8.576 -0.1403  0.2530 -0.0671
 9404SOL     OW39844   4.159   2.462   9.577  0.6106  0.5060 -0.3244
 9404SOL    HW139845   4.068   2.471   9.603  0.4641  0.3807 -0.7924
 9404SOL    HW239846   4.202   2.493   9.657 -2.3929  1.4190  0.9256
 9405SOL     OW39847   1.392   1.468   7.406  0.2271  0.9278  0.4623
 9405SOL    HW139848   1.338   1.395   7.375 -1.9514  2.0992  1.5237
 9405SOL    HW239849   1.406   1.437   7.496 -0.9750  2.0723  1.0393
 9406SOL     OW39850   0.305   1.291   5.474  0.2780  0.3538 -0.1126
 9406SOL    HW139851   0.251   1.219   5.508 -0.8208  0.8352 -0.8052
 9406SOL    HW239852   0.298   1.355   5.544 -1.2161  0.3419 -0.2470
 9407SOL     OW39853   2.137   0.012   6.401  0.6015 -0.2588 -0.0246
 9407SOL    HW139854   2.201   4.703   6.456  0.7555 -0.3967 -0.3167
 9407SOL    HW239855   2.059   4.720   6.451  0.7377 -0.7725 -0.0962
 9408SOL     OW39856   3.819   4.555   6.899 -0.1383  0.8648  0.0705
 9408SOL    HW139857   3.842   4.596   6.816 -0.9494  1.3348  0.0787
 9408SOL    HW239858   3.895   4.533   6.953  0.3689 -0.7602 -1.3094
 9409SOL     OW39859   4.490   0.433   2.104 -0.0778 -0.8528  0.1904
 9409SOL    HW139860   4.496   0.409   2.197 -1.7803 -1.3719  0.1792
 9409SOL    HW239861   4.575   0.394   2.085 -0.5159 -0.9108 -1.5919
 9410SOL     OW39862   4.337   2.362   4.546 -0.2582 -0.1961 -0.4971
 9410SOL    HW139863   4.390   2.424   4.496 -2.3604  1.2210 -0.9707
 9410SOL    HW239864   4.292   2.331   4.467 -0.9900  0.6600 -0.4037
 9411SOL     OW39865   3.542   1.337   7.687 -0.0458 -0.1443  0.6582
 9411SOL    HW139866   3.524   1.353   7.779  1.4053  1.8543  0.6095
 9411SOL    HW239867   3.625   1.288   7.689  0.7519  1.0015 -3.9058
 9412SOL     OW39868   0.159   2.040   3.140  0.4940 -0.4869 -0.3334
 9412SOL    HW139869   0.149   2.018   3.047 -1.8862 -2.4192  0.3662
 9412SOL    HW239870   0.126   1.960   3.182  0.8863  1.0614  2.8859
 9413SOL     OW39871   3.364   3.138   5.254 -0.5675  0.1668  0.3909
 9413SOL    HW139872   3.423   3.149   5.180 -0.0357 -0.0349  0.7834
 9413SOL    HW239873   3.278   3.168   5.223 -0.8955  1.1513  2.2344
 9414SOL     OW39874   2.619   1.134  10.654  0.4380 -0.2339 -0.8441
 9414SOL    HW139875   2.556   1.202  10.676  1.2618 -0.2388  1.4885
 9414SOL    HW239876   2.688   1.175  10.603  1.0228  1.1633  1.0779
 9415SOL     OW39877   0.549   4.274   0.310 -0.2157  0.5437 -0.6397
 9415SOL    HW139878   0.529   4.338   0.241 -0.1305  1.1054 -0.1413
 9415SOL    HW239879   0.575   4.340   0.374  0.6737  2.1167 -2.6272
 9416SOL     OW39880   3.304   0.013  15.914 -0.0978  0.7274 -0.7023
 9416SOL    HW139881   3.214   4.732  15.884 -0.1291  2.6465 -1.6514
 9416SOL    HW239882   3.291   0.025  16.008 -0.6050  0.8419 -0.7842
 9417SOL     OW39883   0.863   0.393   6.449  0.1823 -0.5237  0.5642
 9417SOL    HW139884   0.942   0.351   6.483  0.5085 -0.9323 -0.7001
 9417SOL    HW239885   0.903   0.451   6.384  0.2273  0.1237  1.1763
 9418SOL     OW39886   4.157   3.123  10.502 -0.5835  0.0650 -0.0198
 9418SOL    HW139887   4.132   3.197  10.557 -1.1510 -1.3947  1.6786
 9418SOL    HW239888   4.164   3.058  10.571  1.5783  0.5383  0.2082
 9419SOL     OW39889   0.180   0.668   5.104  0.3773 -0.2284 -0.6713
 9419SOL    HW139890   0.143   0.639   5.187 -0.6651 -0.7559 -1.3300
 9419SOL    HW239891   0.180   0.761   5.126  1.8346 -0.5061  0.5545
 9420SOL     OW39892   1.121   2.048  11.459 -0.0341  0.2133  0.6739
 9420SOL    HW139893   1.155   1.966  11.423  3.4304  0.9827  2.1231
 9420SOL    HW239894   1.082   2.020  11.541 -0.4986  0.0746  0.4058
 9421SOL     OW39895   2.528   4.432   6.144 -0.3559 -0.1565 -0.2774
 9421SOL    HW139896   2.487   4.515   6.119 -1.2585  0.2395  2.5279
 9421SOL    HW239897   2.555   4.396   6.060  0.9362 -1.5240  0.7197
 9422SOL     OW39898   1.472   2.133   2.266  0.0498 -0.1359 -0.1142
 9422SOL    HW139899   1.418   2.137   2.345 -1.3993  1.0372 -1.1670
 9422SOL    HW239900   1.554   2.102   2.304  0.8023  1.7013 -0.2360
 9423SOL     OW39901   0.232   0.998   5.985 -0.4894 -0.7349 -0.5283
 9423SOL    HW139902   0.290   1.075   5.989 -1.9510  0.3609 -0.2781
 9423SOL    HW239903   0.146   1.034   5.965 -0.5884  0.4533  1.9715
 9424SOL     OW39904   3.384   3.353   9.779 -0.4768 -0.6037  0.0856
 9424SOL    HW139905   3.376   3.292   9.853  1.6870  1.1929  1.7817
 9424SOL    HW239906   3.297   3.381   9.751 -0.6280 -0.9969  0.1614
 9425SOL     OW39907   2.238   1.990   3.805 -0.0568  0.0335  0.2001
 9425SOL    HW139908   2.162   1.988   3.864 -0.0049  2.2045  0.3345
 9425SOL    HW239909   2.240   1.895   3.798 -1.8699  0.0862 -1.0405
 9426SOL     OW39910   3.674   1.101  14.301 -0.0064  0.1577  0.3410
 9426SOL    HW139911   3.582   1.113  14.325 -0.1398  0.9653 -0.5497
 9426SOL    HW239912   3.704   1.189  14.326  0.5127  0.4114 -1.2228
 9427SOL     OW39913   3.854   1.006   8.834  0.3058 -0.4431 -0.0339
 9427SOL    HW139914   3.765   0.978   8.857  0.4677  0.8238  2.2154
 9427SOL    HW239915   3.835   1.099   8.844  0.1121 -0.4216 -0.6121
 9428SOL     OW39916   3.359   2.440   3.008  0.2236  0.5406 -0.0338
 9428SOL    HW139917   3.419   2.474   2.942  0.8741  0.8071  0.7061
 9428SOL    HW239918   3.281   2.440   2.952 -1.2044  1.0005  1.9584
 9429SOL     OW39919   3.225   0.582   5.909  0.0626  0.0754  0.1633
 9429SOL    HW139920   3.294   0.589   5.844  0.4149 -1.5924  0.3560
 9429SOL    HW239921   3.155   0.546   5.856  0.2957 -0.1171 -0.0133
 9430SOL     OW39922   0.157   4.202   8.271 -0.5645  0.0168 -0.0143
 9430SOL    HW139923   0.212   4.185   8.348  0.8359  0.3984 -0.9213
 9430SOL    HW239924   0.217   4.160   8.210 -2.5821 -3.1327  0.1776
 9431SOL     OW39925   4.723   0.305   7.577 -0.4227  0.0301  0.6266
 9431SOL    HW139926   0.070   0.262   7.553 -2.3327 -2.0903 -2.0923
 9431SOL    HW239927   4.728   0.386   7.527  0.4254 -0.1406  0.4277
 9432SOL     OW39928   0.602   1.926   4.277 -0.0484 -0.1694  0.3347
 9432SOL    HW139929   0.551   1.892   4.350 -2.6912  3.1946  0.0827
 9432SOL    HW239930   0.685   1.919   4.324  1.4222  1.4909 -1.9867
 9433SOL     OW39931   3.752   1.749   7.038 -0.0523 -0.0637  0.0605
 9433SOL    HW139932   3.740   1.693   6.961 -2.1972 -0.0545  0.4060
 9433SOL    HW239933   3.676   1.741   7.095 -1.3654  1.2805 -1.5198
 9434SOL     OW39934   1.917   4.052   2.085  0.2920 -0.6357 -0.4837
 9434SOL    HW139935   1.836   4.094   2.057 -0.4136 -1.0822  0.8795
 9434SOL    HW239936   1.910   4.068   2.179  0.1668  1.3200 -0.8383
 9435SOL     OW39937   4.107   4.201   3.386 -0.3705  0.4374  0.5080
 9435SOL    HW139938   4.055   4.171   3.311 -1.2197 -1.4174  1.8335
 9435SOL    HW239939   4.141   4.286   3.357  0.2321 -0.3348 -1.0607
 9436SOL     OW39940   4.422   3.203  12.109 -0.1871  0.1805  0.0577
 9436SOL    HW139941   4.417   3.275  12.046  0.0267  0.3913  0.2805
 9436SOL    HW239942   4.516   3.204  12.128 -0.0771 -1.8292 -0.3889
 9437SOL     OW39943   1.365   3.070   7.585  0.6530  0.5879  0.0350
 9437SOL    HW139944   1.279   3.053   7.623  0.7556  0.2095  0.1037
 9437SOL    HW239945   1.418   3.064   7.665 -0.1874  1.9860  0.6969
 9438SOL     OW39946   3.469   2.295  13.022 -0.2156 -0.0867 -0.1612
 9438SOL    HW139947   3.502   2.377  12.985 -0.7120  0.5034  0.7067
 9438SOL    HW239948   3.502   2.233  12.957  0.3415  1.4683 -1.3386
 9439SOL     OW39949   0.345   2.155   4.986  0.1666 -0.0058 -0.3117
 9439SOL    HW139950   0.342   2.080   4.927  0.0209 -1.3472  1.4314
 9439SOL    HW239951   0.406   2.203   4.930  0.8958 -0.5720  0.0151
 9440SOL     OW39952   1.292   2.159   7.900 -0.1040  0.2844  0.4134
 9440SOL    HW139953   1.364   2.123   7.951  0.4871  1.9037  0.7412
 9440SOL    HW239954   1.261   2.232   7.954 -1.5258 -0.6112  0.8087
 9441SOL     OW39955   2.005   3.963  11.254  0.2130 -0.3561 -0.0557
 9441SOL    HW139956   2.064   3.979  11.328 -1.5451  1.1895  0.9797
 9441SOL    HW239957   2.006   3.867  11.253 -0.4125 -0.3630  0.3870
 9442SOL     OW39958   3.341   0.734   1.824 -0.0151 -0.7901 -0.0396
 9442SOL    HW139959   3.314   0.646   1.796 -1.4809 -0.4956  0.4385
 9442SOL    HW239960   3.362   0.778   1.742  0.6667  1.7177  1.4874
 9443SOL     OW39961   1.420   4.386   4.751  0.3340  0.2765 -0.5875
 9443SOL    HW139962   1.444   4.430   4.669  0.2370  0.1357 -0.6930
 9443SOL    HW239963   1.356   4.320   4.722  0.1821 -0.3415  1.1303
 9444SOL     OW39964   1.802   3.347   7.336 -0.2124  0.6978  0.4478
 9444SOL    HW139965   1.740   3.405   7.292 -1.0652 -0.7848 -0.3278
 9444SOL    HW239966   1.743   3.290   7.385  0.0793  1.7672  2.0305
 9445SOL     OW39967   1.295   2.623   0.573 -0.2608  0.7344 -0.1426
 9445SOL    HW139968   1.326   2.704   0.532  4.5856 -0.6063  0.8978
 9445SOL    HW239969   1.276   2.657   0.660 -1.4182 -1.7022  0.5422
 9446SOL     OW39970   3.059   1.630   4.274  0.3208  0.0176 -0.0395
 9446SOL    HW139971   3.086   1.555   4.328  0.2992 -0.3678 -0.5615
 9446SOL    HW239972   3.079   1.596   4.187 -0.8400  0.0731 -0.3298
 9447SOL     OW39973   1.526   2.059   6.945 -0.1227  0.0049 -0.5784
 9447SOL    HW139974   1.500   2.058   6.853  1.3274 -0.8748 -0.9748
 9447SOL    HW239975   1.613   2.098   6.935 -0.2916  0.5173 -0.0044
 9448SOL     OW39976   4.678   3.332  13.228  0.0364 -0.3019 -0.1390
 9448SOL    HW139977   4.672   3.301  13.318 -1.2595  1.1225  0.2503
 9448SOL    HW239978   4.700   3.424  13.241  0.6142 -0.5918  0.9381
 9449SOL     OW39979   2.318   1.852  16.867 -0.0269 -0.3044  0.0464
 9449SOL    HW139980   2.351   1.882  16.952  0.1453  0.0472 -0.1459
 9449SOL    HW239981   2.371   1.776  16.843  1.2269  0.5347  0.1673
 9450SOL     OW39982   2.437   0.239  14.677 -0.3385 -0.4511  0.2688
 9450SOL    HW139983   2.505   0.265  14.739 -0.6295 -1.2040  0.9172
 9450SOL    HW239984   2.378   0.314  14.671 -0.8895 -0.8748  0.3394
 9451SOL     OW39985   2.523   0.735   6.056 -0.0834  0.3375 -0.0512
 9451SOL    HW139986   2.460   0.751   5.985 -1.2058  2.1868  1.3759
 9451SOL    HW239987   2.541   0.822   6.093  0.1397  0.0249  0.5753
 9452SOL     OW39988   3.881   0.815   6.784 -0.7658  0.2527 -0.0337
 9452SOL    HW139989   3.904   0.795   6.874 -0.2894 -0.4272 -0.3106
 9452SOL    HW239990   3.829   0.894   6.799 -1.8408 -0.4858  0.1578
 9453SOL     OW39991   1.782   0.798  13.379 -0.1743 -0.4129  0.2113
 9453SOL    HW139992   1.764   0.801  13.473  1.5184 -3.0293  0.6260
 9453SOL    HW239993   1.833   0.877  13.362 -1.6423  0.4105 -0.3754
 9454SOL     OW39994   3.130   1.994   4.489 -0.0628 -0.1124 -0.1803
 9454SOL    HW139995   3.197   2.060   4.503 -1.2206  1.4286 -1.9412
 9454SOL    HW239996   3.157   1.951   4.408 -3.6167 -2.3101 -0.2190
 9455SOL     OW39997   3.005   1.043   3.341 -0.2501  0.1640  0.9636
 9455SOL    HW139998   3.096   1.053   3.313 -1.7692  2.2675 -3.1869
 9455SOL    HW239999   3.006   1.040   3.436  0.2839 -0.2737  0.9423
 9456SOL     OW40000   1.906   1.826   2.580  0.3895  0.6061  0.6124
 9456SOL    HW140001   1.838   1.892   2.597  0.4055  0.7038  0.2991
 9456SOL    HW240002   1.924   1.801   2.670  0.2521 -0.6940  0.2795
 9457SOL     OW40003   4.028   0.125   4.154 -0.2817 -0.2833  0.0865
 9457SOL    HW140004   4.116   0.100   4.180 -0.2195 -0.5339 -0.3614
 9457SOL    HW240005   4.019   0.070   4.076 -3.2151 -0.6866  0.6965
 9458SOL     OW40006   4.077   1.832   6.230 -0.4248  0.3934  0.2809
 9458SOL    HW140007   4.029   1.761   6.188 -0.1260  0.1734  0.3112
 9458SOL    HW240008   4.094   1.891   6.156  0.3009 -0.5356 -0.2934
 9459SOL     OW40009   0.119   4.165   2.841  0.7094  0.4060 -0.9494
 9459SOL    HW140010   0.201   4.127   2.808 -0.5906 -1.8881 -1.5536
 9459SOL    HW240011   0.067   4.137   2.766  0.0988  0.9672 -0.7229
 9460SOL     OW40012   0.542   3.145   3.617 -0.0267  0.1362  0.7149
 9460SOL    HW140013   0.532   3.207   3.545 -0.2994  0.1431  0.7587
 9460SOL    HW240014   0.566   3.062   3.577 -0.3154  0.6643 -0.5658
 9461SOL     OW40015   2.220   4.044   2.578  0.1078  0.0897  0.3706
 9461SOL    HW140016   2.302   4.087   2.554 -0.5489 -0.4588 -2.8469
 9461SOL    HW240017   2.259   3.988   2.645 -0.0614  1.0088  1.2348
 9462SOL     OW40018   3.828   0.396   6.853 -0.0637 -0.2730  0.1829
 9462SOL    HW140019   3.884   0.388   6.776 -0.8975  1.6755 -0.6299
 9462SOL    HW240020   3.891   0.414   6.922  0.6021 -1.7783 -0.0222
 9463SOL     OW40021   0.028   0.026   6.389  0.2431  0.2119  0.3352
 9463SOL    HW140022   4.705   0.098   6.414 -1.4071 -1.6872  1.9459
 9463SOL    HW240023   4.718   4.692   6.438 -1.7983  1.5644  0.3715
 9464SOL     OW40024   3.456   2.774   8.537  0.0835  0.2947 -0.2492
 9464SOL    HW140025   3.374   2.819   8.517 -0.9896 -2.1708 -1.3168
 9464SOL    HW240026   3.483   2.823   8.615  2.2831 -2.6735  0.8511
 9465SOL     OW40027   2.374   2.024   3.541 -0.4906 -0.5455 -0.0761
 9465SOL    HW140028   2.432   2.089   3.581  0.6438 -0.7595 -1.3386
 9465SOL    HW240029   2.304   2.022   3.606 -1.8501  0.0050 -1.5270
 9466SOL     OW40030   1.287   0.940  11.871 -0.2866  0.0034  0.0907
 9466SOL    HW140031   1.360   0.988  11.832 -0.6130  0.9074  0.5968
 9466SOL    HW240032   1.320   0.851  11.860 -0.1766  0.0988 -0.3429
 9467SOL     OW40033   1.326   2.594  11.452 -0.4871 -0.4511 -0.2039
 9467SOL    HW140034   1.408   2.589  11.403  0.2073 -1.0156  1.0370
 9467SOL    HW240035   1.352   2.563  11.538 -0.2031 -4.4313 -1.7056
 9468SOL     OW40036   1.984   1.162  12.813 -0.5556  0.6409  0.1139
 9468SOL    HW140037   1.997   1.229  12.880  0.7499  1.0401 -0.5471
 9468SOL    HW240038   1.979   1.216  12.734  0.9609  1.9896  0.9508
 9469SOL     OW40039   4.079   1.843   0.017  1.2028 -0.3207  0.3945
 9469SOL    HW140040   4.159   1.811  17.715  1.3701 -0.4400  0.8016
 9469SOL    HW240041   4.081   1.820   0.110 -0.3037 -3.9049 -0.4883
 9470SOL     OW40042   2.405   3.070  14.549 -0.3314  0.1077  0.1673
 9470SOL    HW140043   2.381   3.061  14.642 -0.4911  1.6240  0.2714
 9470SOL    HW240044   2.317   3.065  14.512  0.1107 -1.2123 -0.6954
 9471SOL     OW40045   1.105   1.369   5.873 -0.6564 -0.5149 -0.2436
 9471SOL    HW140046   1.055   1.312   5.932  1.2320 -0.6254  1.2599
 9471SOL    HW240047   1.168   1.409   5.933  0.6937 -0.2683 -1.8225
 9472SOL     OW40048   3.714   1.382  10.945  0.9883 -0.7236  0.1273
 9472SOL    HW140049   3.741   1.292  10.927  0.8329 -0.6565 -0.4351
 9472SOL    HW240050   3.753   1.388  11.032  1.8755  0.9222 -0.3860
 9473SOL     OW40051   0.064   1.592   5.403  0.3276 -0.3968 -0.6816
 9473SOL    HW140052   0.021   1.665   5.448  1.5470 -0.5579  0.7360
 9473SOL    HW240053   0.038   1.598   5.311  2.0492 -1.1319 -1.2033
 9474SOL     OW40054   3.832   3.762   6.040  0.0544 -0.1509  0.3973
 9474SOL    HW140055   3.867   3.833   5.986  2.8533 -0.7961  1.3676
 9474SOL    HW240056   3.873   3.702   5.978 -0.0713  2.5018 -2.2637
 9475SOL     OW40057   1.343   3.513   8.603  0.5103  0.4252  0.0958
 9475SOL    HW140058   1.346   3.495   8.509  2.3290 -2.4277  0.7054
 9475SOL    HW240059   1.421   3.569   8.611  1.2956 -0.4059 -1.5704
 9476SOL     OW40060   2.930   3.978   6.801  0.1448  0.0534  0.0343
 9476SOL    HW140061   2.859   3.913   6.805 -0.0431  0.1485 -1.7373
 9476SOL    HW240062   2.883   4.056   6.830  0.8996  1.1580 -1.7312
 9477SOL     OW40063   2.039   2.652   2.188 -0.1230 -0.7710  0.7861
 9477SOL    HW140064   1.966   2.686   2.240  0.1371  1.8791 -0.5744
 9477SOL    HW240065   2.106   2.683   2.249  0.9447 -0.7961 -0.3585
 9478SOL     OW40066   1.061   3.305  14.172  0.1867 -0.0555 -0.1198
 9478SOL    HW140067   1.067   3.211  14.185  1.5497  0.0349 -0.1109
 9478SOL    HW240068   0.967   3.314  14.191  0.7330  3.7980  0.7980
 9479SOL     OW40069   0.887   4.340   5.523  0.1686  0.4897  0.2638
 9479SOL    HW140070   0.891   4.342   5.618  1.2191  4.0177  0.1231
 9479SOL    HW240071   0.923   4.423   5.493  0.3565  0.1148 -0.5561
 9480SOL     OW40072   3.691   0.018   3.874 -0.0162  0.4379 -0.1048
 9480SOL    HW140073   3.699   4.693   3.800  2.6522 -1.7721  1.9576
 9480SOL    HW240074   3.597   0.015   3.889 -0.2137  4.1553 -0.5002
 9481SOL     OW40075   3.867   2.771   1.869 -0.1117 -0.1542 -0.2968
 9481SOL    HW140076   3.850   2.764   1.963 -2.1116  1.1520 -0.5624
 9481SOL    HW240077   3.962   2.779   1.868 -0.2238  1.1808 -0.4460
 9482SOL     OW40078   0.027   1.168   6.667  0.2568 -0.1575  0.6076
 9482SOL    HW140079   0.015   1.110   6.591  0.4766  0.0208  0.4357
 9482SOL    HW240080   4.692   1.133   6.721 -2.1301 -0.0208 -2.4355
 9483SOL     OW40081   2.353   1.225  10.740 -0.4676  0.5133  0.4720
 9483SOL    HW140082   2.281   1.280  10.711  1.4331  1.8414 -1.6859
 9483SOL    HW240083   2.302   1.144  10.741  2.3052 -1.2652 -1.1851
 9484SOL     OW40084   3.156   3.627   7.724  0.2374  0.4412  0.0455
 9484SOL    HW140085   3.223   3.611   7.791  1.4089 -0.7326 -1.4097
 9484SOL    HW240086   3.142   3.543   7.681 -0.1510  0.9705 -0.8506
 9485SOL     OW40087   1.545   3.208  10.826  0.0020  0.1207  0.1861
 9485SOL    HW140088   1.620   3.216  10.886  0.3072 -2.2194  0.1098
 9485SOL    HW240089   1.488   3.270  10.871 -0.9755  1.2580 -2.5720
 9486SOL     OW40090   4.448   0.595   2.639  0.1307  0.5098  0.6894
 9486SOL    HW140091   4.521   0.646   2.674  0.1158  0.3021  1.0178
 9486SOL    HW240092   4.489   0.575   2.555 -0.4762  1.5579  0.1436
 9487SOL     OW40093   1.269   0.637   8.287 -0.1001 -0.4609  0.0499
 9487SOL    HW140094   1.348   0.689   8.275 -0.8594  0.9825  1.3418
 9487SOL    HW240095   1.217   0.708   8.323 -0.0868  0.0188 -0.8780
 9488SOL     OW40096   0.853   3.589   0.422 -0.0460  0.0487  0.7141
 9488SOL    HW140097   0.852   3.577   0.327 -0.6952 -2.1562  0.9908
 9488SOL    HW240098   0.834   3.682   0.434  0.3316  0.2032  0.1212
 9489SOL     OW40099   2.043   3.360   1.913 -0.4669 -0.6228 -0.1405
 9489SOL    HW140100   1.990   3.437   1.932 -0.1227 -0.5906  0.6760
 9489SOL    HW240101   2.070   3.346   2.003  2.6307 -2.1714 -1.3086
 9490SOL     OW40102   4.510   2.090  12.122 -0.5028  0.0817  0.3994
 9490SOL    HW140103   4.585   2.059  12.071 -0.3369  3.5031 -1.4193
 9490SOL    HW240104   4.546   2.107  12.209 -0.1012  0.0399  0.2435
 9491SOL     OW40105   2.440   4.593   3.982 -0.2024  0.0315 -0.0029
 9491SOL    HW140106   2.471   4.683   3.977 -0.8174  0.0332 -3.7643
 9491SOL    HW240107   2.404   4.589   3.894  0.9662  3.6085 -0.6512
 9492SOL     OW40108   1.236   2.835   0.793 -0.3652  0.0952 -0.0133
 9492SOL    HW140109   1.293   2.906   0.822 -0.6852  0.5815 -0.5783
 9492SOL    HW240110   1.155   2.884   0.787 -0.4918 -0.1223 -0.0778
 9493SOL     OW40111   0.296   4.195  17.510 -0.3180  0.1850  0.0160
 9493SOL    HW140112   0.345   4.249  17.448  2.6708  1.3293  3.3995
 9493SOL    HW240113   0.331   4.232  17.591 -1.8194  1.6724 -0.0070
 9494SOL     OW40114   4.341   3.953  16.726  1.0321 -0.1890  0.2886
 9494SOL    HW140115   4.362   4.030  16.779  0.1196 -0.6137  1.2772
 9494SOL    HW240116   4.246   3.944  16.738  0.6667  0.6093 -1.8770
 9495SOL     OW40117   1.418   3.336  11.074 -0.1391 -0.0168 -0.7778
 9495SOL    HW140118   1.325   3.312  11.068 -0.1064 -0.7090  1.4962
 9495SOL    HW240119   1.421   3.359  11.167  0.1888 -0.3059 -0.7159
 9496SOL     OW40120   3.994   4.503   1.972 -1.0153 -0.2378  0.4195
 9496SOL    HW140121   3.959   4.517   1.884 -2.2905 -0.2822  0.9202
 9496SOL    HW240122   3.915   4.479   2.021 -0.9528 -1.4099 -0.0443
 9497SOL     OW40123   1.979   3.672   7.115 -0.6131  0.3926  0.5407
 9497SOL    HW140124   2.016   3.738   7.056 -1.4398 -0.7971 -1.2949
 9497SOL    HW240125   1.887   3.678   7.087 -1.4152 -0.5078  2.9378
 9498SOL     OW40126   0.175   3.348  13.039  0.9782  0.4335 -0.1124
 9498SOL    HW140127   0.134   3.397  12.968  0.4166 -1.1725 -0.8901
 9498SOL    HW240128   0.096   3.324  13.086  0.5910  2.1607  0.1004
 9499SOL     OW40129   2.185   3.795   6.643  0.0103  0.3863 -0.0456
 9499SOL    HW140130   2.141   3.781   6.559 -1.7660 -2.7960  1.4166
 9499SOL    HW240131   2.273   3.814   6.611  1.0173  0.6537  2.9012
 9500SOL     OW40132   2.278   2.382  14.146 -0.4116  0.5398 -0.6852
 9500SOL    HW140133   2.287   2.317  14.216 -1.5418 -0.3254 -1.3396
 9500SOL    HW240134   2.342   2.447  14.174 -0.0714 -0.6506  1.3278
 9501SOL     OW40135   2.427   3.534  14.713 -0.2147 -0.4882  0.0465
 9501SOL    HW140136   2.469   3.620  14.723  2.5525 -1.8035 -0.1592
 9501SOL    HW240137   2.500   3.474  14.695  0.7926  0.8010 -0.1982
 9502SOL     OW40138   0.798   2.201  13.551  0.2593  0.2224 -0.2675
 9502SOL    HW140139   0.848   2.274  13.588 -0.8314  0.1770  1.3275
 9502SOL    HW240140   0.860   2.174  13.484  0.6370  0.2335  0.0767
 9503SOL     OW40141   3.345   0.712   7.168  0.0564 -0.4855 -0.4765
 9503SOL    HW140142   3.268   0.752   7.208  1.1079  2.0972 -1.0654
 9503SOL    HW240143   3.309   0.624   7.151 -1.9608  0.1852  0.3443
 9504SOL     OW40144   1.192   4.134  12.237  0.1747  0.1067  0.4485
 9504SOL    HW140145   1.131   4.156  12.307 -1.2282  0.0307 -0.7578
 9504SOL    HW240146   1.135   4.077  12.186 -0.1128  1.3824 -0.6530
 9505SOL     OW40147   2.281   2.956   6.053  0.3402 -0.4096 -0.0677
 9505SOL    HW140148   2.254   2.948   6.145  0.5095 -3.6313 -0.2937
 9505SOL    HW240149   2.251   3.046   6.040 -1.7257 -1.4488 -2.5283
 9506SOL     OW40150   4.320   1.155  10.373  0.9557 -0.7841 -0.3658
 9506SOL    HW140151   4.268   1.127  10.298 -0.0923 -1.7808  0.7347
 9506SOL    HW240152   4.349   1.070  10.404  0.8230 -0.3247  1.0237
 9507SOL     OW40153   2.217   2.102   5.564  0.6137  0.0366 -0.0082
 9507SOL    HW140154   2.259   2.187   5.578  1.4518 -0.2939 -0.4689
 9507SOL    HW240155   2.286   2.037   5.580 -2.0436 -2.4614  1.2058
 9508SOL     OW40156   1.871   2.748  17.400 -0.0710 -0.6696 -0.2000
 9508SOL    HW140157   1.779   2.721  17.401 -0.0932 -0.7378 -3.3321
 9508SOL    HW240158   1.920   2.668  17.383  2.9818  0.9023  1.2736
 9509SOL     OW40159   4.724   0.738   8.898 -0.5530  0.5020 -0.4768
 9509SOL    HW140160   4.637   0.716   8.931 -0.9767  0.6358 -1.5182
 9509SOL    HW240161   0.042   0.713   8.974 -1.9853 -0.9080  0.0560
 9510SOL     OW40162   2.971   1.414   3.332  0.0938 -0.6059 -0.0668
 9510SOL    HW140163   2.971   1.509   3.317  0.2776 -0.1303  2.9762
 9510SOL    HW240164   3.018   1.407   3.415  0.0725 -0.9688 -0.0872
 9511SOL     OW40165   2.060   2.696   0.457  0.3449 -0.4757  0.3080
 9511SOL    HW140166   1.974   2.659   0.475 -0.4251  0.6324 -1.0273
 9511SOL    HW240167   2.038   2.768   0.398 -3.1625 -0.3444  1.8082
 9512SOL     OW40168   2.009   1.284   9.880  0.1848 -0.1585  0.1397
 9512SOL    HW140169   2.004   1.342   9.956 -1.9914 -0.5681  0.3011
 9512SOL    HW240170   1.972   1.203   9.915  0.7791  0.1224  1.4156
 9513SOL     OW40171   2.300   3.435   2.453 -0.3259  0.0606 -0.2439
 9513SOL    HW140172   2.215   3.401   2.483 -0.0412  0.1482  0.6467
 9513SOL    HW240173   2.309   3.504   2.519  0.3284  0.3484 -0.6388
 9514SOL     OW40174   3.268   4.686   5.055 -0.1967  0.2289 -0.1911
 9514SOL    HW140175   3.357   4.694   5.088  0.3174  0.4881 -1.6037
 9514SOL    HW240176   3.222   0.005   5.119 -1.1337  0.8833 -1.4096
 9515SOL     OW40177   1.271   3.832  12.119 -0.3538 -0.0516  0.0326
 9515SOL    HW140178   1.193   3.888  12.123 -0.6967 -0.5591  0.4958
 9515SOL    HW240179   1.275   3.815  12.025  3.1790  2.1614 -0.1929
 9516SOL     OW40180   0.687   4.700   2.821 -0.0802 -0.1867  0.4502
 9516SOL    HW140181   0.700   4.615   2.777 -4.0838 -0.6426  0.1876
 9516SOL    HW240182   0.693   4.671   2.912  0.5055  0.5943  0.6582
 9517SOL     OW40183   2.749   1.494  15.146 -0.4229  0.3122 -0.5874
 9517SOL    HW140184   2.668   1.519  15.192 -1.6185 -1.5050 -1.7064
 9517SOL    HW240185   2.705   1.433  15.087  1.0300 -0.0952 -1.2274
 9518SOL     OW40186   1.568   0.442  11.980 -0.1212 -0.3410  0.7778
 9518SOL    HW140187   1.545   0.525  12.021 -1.7515 -0.4407  0.0355
 9518SOL    HW240188   1.650   0.465  11.936 -1.1678 -1.9424 -2.0098
 9519SOL     OW40189   4.208   3.435   8.209  0.8217  0.2977 -0.6835
 9519SOL    HW140190   4.293   3.451   8.168  0.8008 -0.0851 -0.8709
 9519SOL    HW240191   4.153   3.460   8.135  0.2792  1.3202  0.0587
 9520SOL     OW40192   0.742   3.898  15.017  0.4417  0.1752  0.1621
 9520SOL    HW140193   0.688   3.947  15.080 -0.9080 -1.0436 -0.0622
 9520SOL    HW240194   0.702   3.925  14.935  0.5072 -2.1499 -0.6404
 9521SOL     OW40195   1.606   2.547  13.752  0.1120  0.1612  0.5177
 9521SOL    HW140196   1.539   2.562  13.819  1.7482  0.7516  2.0200
 9521SOL    HW240197   1.677   2.525  13.812  0.3211  2.1262  1.0113
 9522SOL     OW40198   2.932   2.199  14.659  0.1887 -0.7559 -0.6979
 9522SOL    HW140199   2.907   2.242  14.577 -0.6937 -0.7805 -0.4373
 9522SOL    HW240200   2.986   2.258  14.711 -1.0361  0.0504 -0.3366
 9523SOL     OW40201   4.612   4.649   4.026  0.5087 -0.0900  0.2715
 9523SOL    HW140202   4.602   4.707   4.101 -2.0698  0.0760 -0.1906
 9523SOL    HW240203   4.693   4.690   3.996  0.7080 -0.7415 -0.0855
 9524SOL     OW40204   0.223   1.269   8.286  0.0128 -0.1192 -0.1000
 9524SOL    HW140205   0.167   1.246   8.212 -0.6214 -0.5216  0.5000
 9524SOL    HW240206   0.244   1.182   8.322 -0.9881  0.0249  0.8293
 9525SOL     OW40207   4.514   3.366   3.485 -0.0173  0.4309 -0.2932
 9525SOL    HW140208   4.510   3.456   3.452  1.8637  1.7099  2.9448
 9525SOL    HW240209   4.523   3.384   3.579 -2.7035  2.0426 -0.3670
 9526SOL     OW40210   0.046   3.898   5.187 -0.3564  0.4656  0.6985
 9526SOL    HW140211   0.122   3.876   5.241  0.3271  1.1951  0.0348
 9526SOL    HW240212   0.012   3.984   5.211  0.7795  2.2982 -4.2242
 9527SOL     OW40213   0.465   1.716   9.965 -0.2199 -0.4114 -0.0603
 9527SOL    HW140214   0.431   1.627   9.959 -1.3714  0.1154 -1.2044
 9527SOL    HW240215   0.474   1.721  10.060 -2.5485 -1.9397  0.2563
 9528SOL     OW40216   3.848   2.094  17.558 -0.0801  0.4106 -0.3516
 9528SOL    HW140217   3.761   2.113  17.523 -0.3208 -2.0174 -1.0884
 9528SOL    HW240218   3.878   2.070  17.470 -1.1824 -1.6329 -0.1610
 9529SOL     OW40219   0.911   1.349   4.530  0.3350  0.2167 -0.6026
 9529SOL    HW140220   0.885   1.405   4.603 -1.7771 -1.1202 -0.3299
 9529SOL    HW240221   0.977   1.294   4.573 -1.0206  0.6611  2.0969
 9530SOL     OW40222   4.289   3.705   5.831  0.1008 -0.0336 -0.3666
 9530SOL    HW140223   4.269   3.793   5.801 -1.2221 -0.4831 -0.7922
 9530SOL    HW240224   4.298   3.709   5.926  0.8432  0.5746 -0.4569
 9531SOL     OW40225   4.639   1.896   1.069  0.4553  0.0405 -0.4588
 9531SOL    HW140226   4.705   1.859   1.127 -0.0312  0.5213  0.4039
 9531SOL    HW240227   4.647   1.824   1.006  1.3763  0.2154 -0.5341
 9532SOL     OW40228   1.016   2.533   1.943  0.4484 -0.2887  0.5111
 9532SOL    HW140229   1.046   2.531   1.852 -0.5386 -1.3304  0.2026
 9532SOL    HW240230   0.925   2.562   1.931  1.3141  1.1419 -2.5883
 9533SOL     OW40231   3.984   3.530   3.459 -0.0827 -0.8225  0.4273
 9533SOL    HW140232   4.058   3.470   3.455  1.8468  1.6741 -1.8032
 9533SOL    HW240233   4.032   3.611   3.477 -0.0960 -0.3923 -1.4467
 9534SOL     OW40234   3.995   1.973   3.829  0.4703  0.4147  0.4824
 9534SOL    HW140235   3.965   2.054   3.870  0.8634  0.3825  0.8276
 9534SOL    HW240236   3.953   1.917   3.894  0.2255  2.1337  1.7932
 9535SOL     OW40237   0.928   1.836   4.021  0.2695 -0.1373  0.0462
 9535SOL    HW140238   0.868   1.761   4.023  2.2234 -1.6775  0.2090
 9535SOL    HW240239   0.999   1.801   4.075  1.1396 -0.2129 -1.1610
 9536SOL     OW40240   4.024   3.221   8.554 -0.3355 -0.1281  0.1900
 9536SOL    HW140241   4.025   3.312   8.524  1.7415  0.2545  1.4077
 9536SOL    HW240242   3.950   3.223   8.614 -1.4226 -0.0173 -1.1596
 9537SOL     OW40243   0.706   0.639  15.101  0.1065  0.2752 -0.2239
 9537SOL    HW140244   0.779   0.579  15.089  0.7069  0.9580  0.0251
 9537SOL    HW240245   0.741   0.727  15.089 -1.3974  0.7024 -1.4486
 9538SOL     OW40246   1.137   2.190   1.452 -0.2861 -0.5834 -0.5691
 9538SOL    HW140247   1.207   2.129   1.475 -0.0163  0.3204  0.9722
 9538SOL    HW240248   1.098   2.125   1.393 -0.7451 -1.6913  0.9345
 9539SOL     OW40249   4.367   0.112   2.219 -0.3811  0.7897  0.2975
 9539SOL    HW140250   4.348   0.193   2.266  0.7699 -0.4807  2.9035
 9539SOL    HW240251   4.360   0.039   2.280  1.8284 -1.6132 -2.3213
 9540SOL     OW40252   3.421   3.421  14.868  0.0614 -0.2585 -0.3129
 9540SOL    HW140253   3.445   3.447  14.957  1.9007  0.0970 -0.9079
 9540SOL    HW240254   3.366   3.350  14.903 -2.0079  1.3236 -0.3544
 9541SOL     OW40255   4.444   0.094   5.116  0.2005  0.2706 -0.2442
 9541SOL    HW140256   4.501   0.084   5.040 -2.6412 -1.5521 -2.1013
 9541SOL    HW240257   4.476   0.181   5.140 -0.7862  0.4951  0.2803
 9542SOL     OW40258   1.379   0.296  11.824 -0.3731  0.4381 -0.4364
 9542SOL    HW140259   1.437   0.340  11.885 -0.1746  1.0633 -1.0737
 9542SOL    HW240260   1.403   0.338  11.741  1.7331  0.9590  0.4403
 9543SOL     OW40261   0.324   3.977   5.571  0.1589 -0.4102 -0.1128
 9543SOL    HW140262   0.388   3.943   5.634  0.4312 -1.4457 -0.9528
 9543SOL    HW240263   0.336   4.072   5.575  0.1969 -0.4457  0.6267
 9544SOL     OW40264   4.259   0.133   4.754  0.6567 -0.4713  0.5612
 9544SOL    HW140265   4.235   0.045   4.726 -2.6674  1.2072 -1.8501
 9544SOL    HW240266   4.254   0.183   4.673  1.2485 -2.2108 -0.5398
 9545SOL     OW40267   2.105   3.286   6.935  0.1959  0.1437  0.6236
 9545SOL    HW140268   2.097   3.287   7.031  1.8938 -0.5074  0.7627
 9545SOL    HW240269   2.151   3.203   6.921 -0.2440 -0.3917  2.3263
 9546SOL     OW40270   4.607   3.869  12.728  0.1290 -0.7090  0.2245
 9546SOL    HW140271   4.695   3.867  12.765  0.6042 -2.0812 -0.9792
 9546SOL    HW240272   4.583   3.777  12.723 -2.2574 -0.1023  0.2855
 9547SOL     OW40273   1.309   3.265   5.139 -0.4776  0.1212  0.2155
 9547SOL    HW140274   1.398   3.247   5.111 -0.1070 -2.2420  2.9926
 9547SOL    HW240275   1.266   3.309   5.066 -2.0813  1.2923  1.8672
 9548SOL     OW40276   0.350   3.955   2.608 -0.0431 -0.5656 -0.3712
 9548SOL    HW140277   0.311   3.908   2.682  0.5886 -0.1804  0.2064
 9548SOL    HW240278   0.272   3.981   2.559 -0.4084 -1.4559 -0.2638
 9549SOL     OW40279   2.098   0.524   6.473 -0.0333  0.4199  0.0175
 9549SOL    HW140280   2.192   0.541   6.486  0.4525 -1.4559 -1.1795
 9549SOL    HW240281   2.063   0.613   6.464  2.2356  1.4169  1.0391
 9550SOL     OW40282   4.036   3.769   7.576 -0.4147  0.1287 -0.3087
 9550SOL    HW140283   3.941   3.761   7.587 -0.5426  0.2847 -1.3499
 9550SOL    HW240284   4.060   3.791   7.666  0.9915  0.5650 -0.8073
 9551SOL     OW40285   0.168   0.800   7.309 -0.3390  0.0827  0.3674
 9551SOL    HW140286   0.190   0.745   7.234  2.5882  0.7739  0.7152
 9551SOL    HW240287   0.257   0.789   7.343  0.0344  1.5467 -0.1569
 9552SOL     OW40288   1.681   3.465   5.406  0.6209  0.1127 -0.1172
 9552SOL    HW140289   1.719   3.416   5.333  1.6591  0.1072  0.4213
 9552SOL    HW240290   1.765   3.489   5.447 -0.4402 -0.1268  2.1816
 9553SOL     OW40291   0.777   4.038   3.946 -0.1611 -0.0102  0.0691
 9553SOL    HW140292   0.707   4.054   3.883 -0.3571 -0.5166  0.1517
 9553SOL    HW240293   0.753   3.952   3.981 -1.5767  0.1078 -0.6074
 9554SOL     OW40294   4.603   0.819   2.125 -0.5849 -0.0293 -0.2163
 9554SOL    HW140295   4.621   0.777   2.040  0.7456 -0.5103  0.2889
 9554SOL    HW240296   4.674   0.773   2.170  0.1967  0.3912 -1.0052
 9555SOL     OW40297   1.983   1.039   1.759 -0.1430 -0.0632  0.2704
 9555SOL    HW140298   2.046   1.091   1.708  0.2963 -0.9575 -0.1065
 9555SOL    HW240299   1.900   1.078   1.730 -0.1851 -0.3176  0.0480
 9556SOL     OW40300   0.225   3.004   9.556 -0.3896  0.0508 -0.2970
 9556SOL    HW140301   0.187   2.984   9.471 -1.4966  0.2122  0.1614
 9556SOL    HW240302   0.218   2.916   9.593  1.0568 -0.2710 -0.8182
 9557SOL     OW40303   0.754   3.728   3.043 -0.4641 -0.5574  0.1136
 9557SOL    HW140304   0.756   3.692   2.954  0.3029  2.7437 -1.2184
 9557SOL    HW240305   0.675   3.782   3.042  0.6065  0.9652 -2.2179
 9558SOL     OW40306   0.706   2.873  14.488 -0.0287  0.0499  0.0125
 9558SOL    HW140307   0.665   2.953  14.522  0.6573  0.8087 -0.9592
 9558SOL    HW240308   0.633   2.822  14.453 -0.6407  0.5715  0.5260
 9559SOL     OW40309   4.047   1.829  12.401  0.0418  0.3719 -0.1235
 9559SOL    HW140310   4.086   1.742  12.410 -2.0853 -0.6422 -0.8106
 9559SOL    HW240311   4.020   1.842  12.492 -1.3958 -0.1234 -0.4876
 9560SOL     OW40312   4.209   4.370   2.141  0.2515  0.4761  0.1122
 9560SOL    HW140313   4.157   4.332   2.212 -0.5311 -1.2920 -1.4181
 9560SOL    HW240314   4.134   4.413   2.099  0.3594  2.1093  1.5842
 9561SOL     OW40315   2.041   3.750   3.722  0.4741 -0.4465  0.6880
 9561SOL    HW140316   1.998   3.834   3.712 -0.0039 -1.0298 -1.9513
 9561SOL    HW240317   2.130   3.777   3.745 -0.6993  2.7323  1.4231
 9562SOL     OW40318   1.296   3.728   5.124 -0.2139  0.2286  0.0936
 9562SOL    HW140319   1.233   3.753   5.192 -0.0064  2.8458 -0.6913
 9562SOL    HW240320   1.364   3.677   5.168 -0.8467 -0.2654  0.5060
 9563SOL     OW40321   2.876   4.098   4.730 -0.2653  0.4784 -0.1038
 9563SOL    HW140322   2.838   4.022   4.685  2.3414 -1.5312  1.1294
 9563SOL    HW240323   2.929   4.061   4.800 -0.1107 -1.7415 -1.3971
 9564SOL     OW40324   3.256   4.688  12.582  0.9371  0.2620  0.6997
 9564SOL    HW140325   3.339   4.670  12.539 -0.1864 -0.4576 -1.1655
 9564SOL    HW240326   3.264   0.048  12.586  1.1107  0.2446  0.7448
 9565SOL     OW40327   2.700   3.533  17.272  0.0328  0.1388  0.3025
 9565SOL    HW140328   2.646   3.533  17.192  1.2239 -1.7029 -0.5046
 9565SOL    HW240329   2.641   3.481  17.326 -2.2102 -1.4828 -3.6600
 9566SOL     OW40330   4.507   0.768   5.117 -0.0777 -0.1821 -0.2055
 9566SOL    HW140331   4.446   0.841   5.115  0.8075  0.4836 -2.6283
 9566SOL    HW240332   4.445   0.696   5.129 -0.0562 -0.0029  0.9290
 9567SOL     OW40333   2.679   1.253   2.993 -0.1421 -0.2917  0.2383
 9567SOL    HW140334   2.722   1.331   2.959 -2.5630  0.3936 -1.2181
 9567SOL    HW240335   2.662   1.280   3.083  0.4397  0.6322  0.0698
 9568SOL     OW40336   2.672   1.774  13.535 -0.1050 -0.1417 -0.1380
 9568SOL    HW140337   2.762   1.800  13.516 -0.3035 -0.6103 -1.7346
 9568SOL    HW240338   2.672   1.686  13.498 -2.4691  0.2310 -1.0643
 9569SOL     OW40339   0.298   3.741   4.800  0.1642 -0.1395  0.1482
 9569SOL    HW140340   0.288   3.731   4.895 -1.3497 -1.1056 -0.1136
 9569SOL    HW240341   0.227   3.803   4.783 -0.9123 -1.2264  0.6764
 9570SOL     OW40342   1.800   1.934   4.799  0.1847 -0.5228  0.3339
 9570SOL    HW140343   1.836   1.962   4.883  1.8850  2.0975 -1.2914
 9570SOL    HW240344   1.753   2.014   4.775  2.0121  0.0548 -1.3884
 9571SOL     OW40345   4.249   0.650   1.596  0.3221 -0.1247  0.4689
 9571SOL    HW140346   4.207   0.683   1.676 -0.7872 -0.4552  0.0169
 9571SOL    HW240347   4.178   0.667   1.535  0.8484  1.2678  0.2400
   4.73530   4.73530  17.73998
