Membrane in water
40347
    1TMC1    C1    1   3.721   1.726  11.836 -0.1650 -0.0282  0.3259
    1TMC1    C2    2   3.655   1.785  11.735 -0.8934 -0.3466 -0.0070
    1TMC1    C3    3   3.676   1.920  11.711 -0.3416  0.0686  0.3526
    1TMC1    C4    4   3.815   1.793  11.913 -0.2025 -0.1398  0.5717
    1TMC1    C5    5   3.830   1.927  11.893 -0.1838 -0.8879  0.0681
    1TMC1    C6    6   3.757   1.992  11.796  0.2635 -0.1681 -0.0257
    1TMC1     C    7   3.696   1.584  11.851 -0.4838 -0.8718 -0.7084
    1TMC1     O    8   3.631   1.532  11.765 -0.4523  1.0229  0.0258
    1TMC1     H    9   3.575   1.741  11.677  0.7764 -2.0965 -0.9815
    1TMC1    H1   10   3.882   1.743  11.982 -0.1635  0.3454  0.8835
    1TMC1    H2   11   3.766   2.100  11.789  0.9870 -0.1751  0.9302
    1TMC1    C7   12   3.941   1.992  11.962 -0.5232  0.2708 -0.0671
    1TMC1    C8   13   3.623   1.992  11.601  0.8682 -0.4281 -0.3608
    1TMC1    O1   14   3.994   1.944  12.063  0.2839 -0.7654  0.6453
    1TMC1    O2   15   3.639   2.109  11.595  0.3997 -0.4148  0.3213
    1TMC1    O3   16   3.974   2.108  11.899 -0.2664 -0.0847  0.4366
    1TMC1    H3   17   3.949   2.110  11.804  1.1975 -2.1598 -0.0106
    1TMC1    O5   18   3.599   1.903  11.502  0.4838 -0.1147  0.2303
    1TMC1    H5   19   3.606   1.810  11.530 -2.0181  0.7698  3.8449
    2MPD2     C   20   3.742   1.143  12.123 -0.5932 -0.8034  0.7812
    2MPD2    C1   21   3.654   1.177  12.025 -0.3717 -0.0236 -0.4361
    2MPD2    C2   22   3.649   1.303  11.962 -0.6784  0.2680 -0.1368
    2MPD2    C3   23   3.739   1.398  12.008  0.4704 -0.1720 -0.0672
    2MPD2    C4   24   3.823   1.361  12.117 -0.4987 -0.1307 -0.3796
    2MPD2    C5   25   3.825   1.242  12.176  0.4711  0.0469  0.1357
    2MPD2     H   26   3.587   1.319  11.875 -1.5718 -1.5786  0.1666
    2MPD2    H1   27   3.899   1.431  12.149 -0.5433  0.5038 -1.6895
    2MPD2    H2   28   3.756   1.047  12.173  1.1333 -2.1371 -2.2727
    2MPD2    H3   29   3.896   1.220  12.255  0.1164 -2.9682 -0.4216
    2MPD2     N   30   3.758   1.526  11.955 -0.0333 -0.0396  0.4913
    2MPD2    H5   31   3.823   1.584  12.008  0.0796  0.7027 -0.4616
    2MPD2    N1   32   3.556   1.084  11.979  1.2951  0.2429 -0.4462
    2MPD2    H7   33   3.497   1.110  11.900  1.0114  0.9159 -0.0057
    3TMC1    C1   34   2.704   2.870  10.752  0.0755  0.7846  0.1296
    3TMC1    C2   35   2.766   2.989  10.716 -0.0357 -0.0993 -0.0094
    3TMC1    C3   36   2.896   2.994  10.697 -0.2054  0.2389  0.8354
    3TMC1    C4   37   2.773   2.759  10.763 -0.2147 -0.2280 -0.2719
    3TMC1    C5   38   2.907   2.767  10.753 -0.9239  0.1915 -0.3146
    3TMC1    C6   39   2.969   2.880  10.712  0.3681 -0.0433  0.5505
    3TMC1     C   40   2.573   2.868  10.821 -0.0900 -0.3415 -0.8372
    3TMC1     O   41   2.525   2.767  10.864  0.5356 -0.5296  0.0332
    3TMC1     H   42   2.697   3.070  10.693 -1.2726 -1.1296  0.0465
    3TMC1    H1   43   2.727   2.679  10.819 -0.5146  0.2416  0.1595
    3TMC1    H2   44   3.077   2.889  10.710  0.3630  0.1330  1.0487
    3TMC1    C7   45   2.988   2.654  10.807  0.0308  0.0061  0.0806
    3TMC1    C8   46   2.962   3.116  10.667  0.2770 -0.1128 -0.0065
    3TMC1    O1   47   3.108   2.674  10.819 -0.3172  0.3455 -0.0995
    3TMC1    O2   48   3.086   3.124  10.657  0.5609  0.2591 -0.4731
    3TMC1    O3   49   2.923   2.544  10.771 -0.0636  0.3109 -0.2218
    3TMC1    H3   50   2.834   2.546  10.729  0.2159 -0.0087 -0.8368
    3TMC1    O5   51   2.867   3.180  10.595 -0.3071 -0.0808  0.2061
    3TMC1    H5   52   2.903   3.266  10.563 -2.0000  2.2065  4.4849
    4MPD2     C   53   2.296   3.104  11.191 -0.1691  0.2148 -0.1762
    4MPD2    C1   54   2.348   3.203  11.112 -0.6124 -0.5573  0.6247
    4MPD2    C2   55   2.436   3.162  11.012 -0.5015  0.0070  0.5347
    4MPD2    C3   56   2.451   3.027  10.981 -0.8532  0.9243 -0.2060
    4MPD2    C4   57   2.392   2.933  11.065  0.1446 -0.5299  0.0228
    4MPD2    C5   58   2.323   2.970  11.174 -0.2987  0.1936 -0.7061
    4MPD2     H   59   2.490   3.239  10.958  0.9601 -1.6597 -0.4088
    4MPD2    H1   60   2.410   2.830  11.036  2.2373 -0.5533  1.3759
    4MPD2    H2   61   2.240   3.125  11.282  0.5226 -0.1499  0.3374
    4MPD2    H3   62   2.286   2.891  11.239 -0.4720  0.3019 -0.6762
    4MPD2     N   63   2.535   2.995  10.871 -0.5224  0.4386 -0.4348
    4MPD2    H5   64   2.581   3.069  10.819 -1.3123  0.1779 -1.4959
    4MPD2    N1   65   2.323   3.342  11.135  0.5219  0.3829 -0.8015
    4MPD2    H7   66   2.362   3.406  11.067  0.1667  0.3537 -1.0343
    5TCq1    O1   67   3.701   3.617  12.161  0.2968  0.1379 -0.3308
    5TCq1    C1   68   3.806   3.675  12.098  1.2819 -0.3715  0.2189
    5TCq1    O2   69   3.886   3.625  12.027  0.4867 -0.1570 -0.0161
    5TCq1    C2   70   3.760   3.803  12.066  0.2022 -0.2677  0.4261
    5TCq1    C3   71   3.688   3.880  12.156 -0.0265 -0.3107  0.5473
    5TCq1    C4   72   3.630   3.990  12.107  0.0588 -0.2993 -0.3409
    5TCq1    C5   73   3.626   4.024  11.972  0.6129 -0.0463  0.2626
    5TCq1    C6   74   3.695   3.944  11.884  0.4194 -0.3123  0.4154
    5TCq1    C7   75   3.755   3.827  11.931  0.0833  0.2849  0.4721
    5TCq1    C8   76   3.664   3.961  11.739  0.4723  0.5807  0.1186
    5TCq1    O4   77   3.691   3.864  11.669  1.2317  0.6120 -0.0261
    5TCq1    C9   78   3.550   4.069  12.193 -0.7873 -0.0662 -0.5392
    5TCq1    O5   79   3.505   4.022  12.300 -0.4713  0.2748 -0.1387
    5TCq1    O6   80   3.513   4.179  12.138  0.1232  0.7330  0.3497
    5TCq1    H1   81   3.634   3.677  12.200 -0.1876 -0.8009  0.2781
    5TCq1    H2   82   3.694   3.862  12.263 -0.0115 -2.5785  0.1664
    5TCq1    H3   83   3.582   4.119  11.944  1.6753 -0.0059 -1.2583
    5TCq1    H4   84   3.804   3.760  11.860  0.0259 -0.0870  0.7820
    6MPD2     C   85   3.434   4.196  11.593  0.4868 -0.5190  0.3525
    6MPD2    C1   86   3.505   4.078  11.595 -0.1088  0.7768 -0.2042
    6MPD2    C2   87   3.483   3.978  11.500  0.3486 -0.0580  0.3223
    6MPD2    C3   88   3.390   4.003  11.404 -0.4914 -0.2987 -0.2639
    6MPD2    C4   89   3.314   4.122  11.402 -0.6506 -0.6067 -0.4847
    6MPD2    C5   90   3.339   4.217  11.497  0.9171 -0.0169  0.2058
    6MPD2     H   91   3.528   3.880  11.505 -0.2617 -0.4915 -2.3930
    6MPD2    H1   92   3.231   4.147  11.336 -0.9600  1.0760  0.5238
    6MPD2    H2   93   3.437   4.273  11.669  0.4504 -2.3879  2.2406
    6MPD2    H3   94   3.279   4.306  11.482  0.4001 -0.3645  0.2010
    6MPD2     N   95   3.361   3.904  11.298 -0.3562 -0.6973 -0.6246
    6MPD2    H5   96   3.422   3.823  11.297  2.4906  1.4862 -0.2649
    6MPD2    N1   97   3.593   4.071  11.711  0.4512 -0.3138 -0.7948
    6MPD2    H7   98   3.595   4.156  11.766 -2.1570 -1.9304  1.7814
    7TCq1    O1   99   0.428   4.219  13.310  0.4680  0.2668 -0.1975
    7TCq1    C1  100   0.325   4.230  13.223  0.2606  1.2632  0.3380
    7TCq1    O2  101   0.271   4.338  13.188  0.3780 -0.1543  0.1837
    7TCq1    C2  102   0.291   4.100  13.163 -0.3924 -0.7078 -0.1419
    7TCq1    C3  103   0.244   4.101  13.035 -0.3549 -0.2608  0.3647
    7TCq1    C4  104   0.220   3.981  12.976  0.2631 -0.6470  0.5184
    7TCq1    C5  105   0.254   3.860  13.038 -0.5197 -0.4414  0.2939
    7TCq1    C6  106   0.302   3.867  13.164  0.4337  0.0798 -0.0375
    7TCq1    C7  107   0.316   3.989  13.232  0.0791 -0.4741 -0.0558
    7TCq1    C8  108   0.332   3.740  13.231  0.0107 -0.2321 -0.0679
    7TCq1    O4  109   0.268   3.645  13.194 -0.4028  0.4739 -0.5283
    7TCq1    C9  110   0.148   3.974  12.850  0.4176 -0.6391 -0.1103
    7TCq1    O5  111   0.101   3.857  12.829  0.1443 -0.4371  1.0549
    7TCq1    O6  112   0.115   4.085  12.797 -0.0516  0.0666 -0.4690
    7TCq1    H1  113   0.460   4.127  13.308  1.0267  0.5392 -2.8729
    7TCq1    H2  114   0.221   4.198  12.993 -2.6743  0.8557  4.1815
    7TCq1    H3  115   0.251   3.765  12.985  2.7806 -0.2581 -0.1957
    7TCq1    H4  116   0.339   3.981  13.338  0.4422  0.4197 -0.0741
    8MPD2     C  117   0.568   3.461  13.592 -0.6510  0.2717  0.6544
    8MPD2    C1  118   0.454   3.426  13.514 -0.2787  0.9521  0.0284
    8MPD2    C2  119   0.405   3.515  13.418 -0.7656  0.9555  0.0281
    8MPD2    C3  120   0.463   3.642  13.423 -0.4732  0.2478  0.1852
    8MPD2    C4  121   0.561   3.677  13.506  0.7693  0.1469 -0.6388
    8MPD2    C5  122   0.618   3.587  13.580 -0.0956  0.3973  0.3907
    8MPD2     H  123   0.328   3.484  13.348  0.4367 -0.5042 -0.6180
    8MPD2    H1  124   0.602   3.777  13.507  1.1003  0.0072 -0.3290
    8MPD2    H2  125   0.612   3.391  13.663  0.1886 -1.4854 -1.5619
    8MPD2    H3  126   0.702   3.619  13.642 -0.1951  0.3932  0.5279
    8MPD2     N  127   0.419   3.747  13.339  0.2145  0.6732  0.3858
    8MPD2    H5  128   0.461   3.837  13.358  3.6841 -1.0860  1.1132
    8MPD2    N1  129   0.405   3.292  13.539  0.1032  0.0884 -0.0334
    8MPD2    H7  130   0.458   3.230  13.600 -0.6098  0.0864  0.5883
    9TMC1    C1  131   2.536   2.446  11.099 -0.7808 -0.1900  0.9091
    9TMC1    C2  132   2.465   2.505  10.995 -0.8104 -0.0647  0.3620
    9TMC1    C3  133   2.335   2.489  10.994 -0.0830  0.2262 -0.4341
    9TMC1    C4  134   2.480   2.364  11.189  0.4655  0.5597  0.0747
    9TMC1    C5  135   2.344   2.349  11.186 -0.7806 -0.1198  0.0729
    9TMC1    C6  136   2.273   2.421  11.095 -0.5636  0.1568  0.2098
    9TMC1     C  137   2.676   2.439  11.072  0.6790  0.0707 -0.3988
    9TMC1     O  138   2.724   2.539  11.014  0.3912  0.3833 -0.7653
    9TMC1     H  139   2.515   2.551  10.910 -0.4827 -3.8089 -1.4700
    9TMC1    H1  140   2.541   2.328  11.271  2.4867  3.2064 -0.2464
    9TMC1    H2  141   2.165   2.414  11.106 -0.4737  0.3501  1.2125
    9TMC1    C7  142   2.268   2.279  11.297 -0.0123  0.2894 -1.3995
    9TMC1    C8  143   2.250   2.512  10.876  0.2988  1.6331  0.0130
    9TMC1    O1  144   2.146   2.280  11.306 -0.7521  0.0111 -0.1747
    9TMC1    O2  145   2.137   2.472  10.866 -0.2501  0.3919 -0.6590
    9TMC1    O3  146   2.344   2.180  11.342  0.0508  0.0232  0.4377
    9TMC1    H3  147   2.436   2.173  11.310 -0.9525  3.0156 -3.0684
    9TMC1    O5  148   2.295   2.621  10.814  0.2203  0.0139  0.1180
    9TMC1    H5  149   2.386   2.650  10.835  0.3680 -0.9688  0.8363
   10MPD2     C  150   2.979   2.411  11.094 -0.4224  0.2596 -0.5634
   10MPD2    C1  151   2.885   2.313  11.126 -0.7057 -0.5472  0.0104
   10MPD2    C2  152   2.935   2.192  11.167  0.7460 -0.0727 -0.3385
   10MPD2    C3  153   3.067   2.160  11.159 -0.1483 -0.4112  0.0778
   10MPD2    C4  154   3.156   2.257  11.119  1.0844  0.4343 -0.2130
   10MPD2    C5  155   3.113   2.384  11.085  0.1078 -0.3594 -0.6916
   10MPD2     H  156   2.861   2.114  11.175  0.4750  0.3788  1.4678
   10MPD2    H1  157   3.262   2.239  11.108  1.1772  0.8075  0.0535
   10MPD2    H2  158   2.936   2.504  11.059  1.5744  0.9983 -1.0154
   10MPD2    H3  159   3.187   2.460  11.060 -0.6092  1.4915  2.8582
   10MPD2     N  160   3.120   2.035  11.190 -0.8604 -0.5316  0.0827
   10MPD2    H5  161   3.220   2.036  11.209 -1.0394 -0.5723  1.0456
   10MPD2    N1  162   2.743   2.340  11.128  0.1467 -0.0443 -0.1370
   10MPD2    H7  163   2.688   2.265  11.166 -2.5598  2.0101  0.0002
   11TCq1    O1  164   2.806   1.963  14.236  0.0230 -0.1829 -0.2851
   11TCq1    C1  165   2.692   1.926  14.296  1.0780  1.0024  0.6046
   11TCq1    O2  166   2.663   1.925  14.413  0.6058  0.2748 -0.3129
   11TCq1    C2  167   2.600   1.884  14.187 -0.3467  0.1254  0.3048
   11TCq1    C3  168   2.482   1.939  14.204 -0.5844  0.1356  0.4114
   11TCq1    C4  169   2.375   1.878  14.145  0.4960 -0.0737 -0.1161
   11TCq1    C5  170   2.386   1.749  14.101  0.0625  0.3349  0.0876
   11TCq1    C6  171   2.509   1.696  14.092  0.0318  0.4610 -0.4846
   11TCq1    C7  172   2.621   1.768  14.130  0.1829 -0.0573  0.4229
   11TCq1    C8  173   2.517   1.562  14.027  0.7787 -0.1134  0.0934
   11TCq1    O4  174   2.411   1.504  14.004  0.3740 -0.2266 -0.0948
   11TCq1    C9  175   2.249   1.942  14.146  0.4842  0.1164 -0.3613
   11TCq1    O5  176   2.256   2.067  14.178 -0.7318 -0.6388  0.4279
   11TCq1    O6  177   2.153   1.876  14.098 -0.4000  0.1326  0.0728
   11TCq1    H1  178   2.812   1.952  14.138 -0.9888 -0.6948 -0.2925
   11TCq1    H2  179   2.479   2.030  14.263 -0.3226  1.1938 -1.1944
   11TCq1    H3  180   2.292   1.703  14.072  0.2027 -0.5983  1.1248
   11TCq1    H4  181   2.722   1.728  14.126  1.1555  2.2654  1.6528
   12MPD2     C  182   2.622   1.309  13.891 -0.3493 -0.1769  0.8852
   12MPD2    C1  183   2.697   1.412  13.934 -0.9315 -0.4935  0.7306
   12MPD2    C2  184   2.832   1.401  13.920 -0.1987 -0.4441 -0.6803
   12MPD2    C3  185   2.895   1.282  13.882  0.3820 -0.5105  0.0847
   12MPD2    C4  186   2.816   1.188  13.819 -0.3570 -0.1694 -0.3876
   12MPD2    C5  187   2.682   1.204  13.821 -0.1251 -0.1033 -0.0388
   12MPD2     H  188   2.892   1.488  13.947 -1.0799 -0.6238  1.8943
   12MPD2    H1  189   2.852   1.101  13.765 -1.6004 -0.3312 -0.9631
   12MPD2    H2  190   2.514   1.306  13.902 -0.5072  0.4987 -0.4985
   12MPD2    H3  191   2.620   1.141  13.758  0.9783 -0.7988 -0.4277
   12MPD2     N  192   3.026   1.250  13.902  0.3027  0.4215  0.2042
   12MPD2    H5  193   3.056   1.161  13.864  2.7699  0.8604  1.1344
   12MPD2    N1  194   2.645   1.523  14.000  0.3753 -0.6851  0.1062
   12MPD2    H7  195   2.718   1.588  14.030 -3.2653  2.7315  1.5681
   13TCq1    O1  196   2.784   1.742  10.650  0.1068 -0.4082 -0.1874
   13TCq1    C1  197   2.688   1.691  10.565 -0.1294  0.3711  0.7351
   13TCq1    O2  198   2.716   1.672  10.448 -0.6844  0.2437  0.0301
   13TCq1    C2  199   2.562   1.682  10.628 -0.5027  0.0767  0.6236
   13TCq1    C3  200   2.464   1.625  10.546 -0.3318  0.3466 -0.0746
   13TCq1    C4  201   2.339   1.604  10.596 -0.0794 -0.1519  0.5654
   13TCq1    C5  202   2.313   1.641  10.727 -0.7588 -0.9543  0.2777
   13TCq1    C6  203   2.403   1.707  10.804 -0.1681 -0.0233 -0.6550
   13TCq1    C7  204   2.532   1.729  10.755 -0.2964  0.5461 -0.5730
   13TCq1    C8  205   2.387   1.735  10.944  0.0950 -0.4425 -0.2843
   13TCq1    O4  206   2.470   1.734  11.030 -0.2214 -0.5015 -0.1135
   13TCq1    C9  207   2.234   1.530  10.524  0.2645  0.3670  0.6665
   13TCq1    O5  208   2.265   1.505  10.406 -0.7029 -0.6793  0.1529
   13TCq1    O6  209   2.155   1.461  10.592 -0.5147 -0.3595 -0.1113
   13TCq1    H1  210   2.775   1.720  10.745  0.1264  0.1607 -0.0579
   13TCq1    H2  211   2.482   1.589  10.445 -0.8697 -0.5344  0.1406
   13TCq1    H3  212   2.218   1.609  10.768 -2.3465  1.3391 -1.6401
   13TCq1    H4  213   2.608   1.786  10.807  1.4264 -3.9282  1.7945
   14MPD2     C  214   2.050   1.763  11.090 -0.2231 -0.1708 -0.3797
   14MPD2    C1  215   2.187   1.768  11.093 -0.1651  0.1496 -0.5446
   14MPD2    C2  216   2.252   1.792  11.218 -0.2049 -0.4854  0.0547
   14MPD2    C3  217   2.186   1.822  11.332  0.0521 -0.2633 -0.7850
   14MPD2    C4  218   2.046   1.831  11.322  0.0216 -0.5308  0.3341
   14MPD2    C5  219   1.975   1.802  11.204 -0.1797  0.0782  0.1305
   14MPD2     H  220   2.359   1.808  11.216 -0.3711  0.3909 -2.0555
   14MPD2    H1  221   1.982   1.844  11.408 -1.7460  0.1361 -1.0891
   14MPD2    H2  222   1.997   1.749  10.996 -0.6675  0.7365 -0.2675
   14MPD2    H3  223   1.867   1.812  11.202  0.0328  2.7193  2.4620
   14MPD2     N  224   2.263   1.847  11.455 -0.7284  0.1364 -0.0976
   14MPD2    H5  225   2.208   1.854  11.540 -0.1594 -0.4845  0.3243
   14MPD2    N1  226   2.249   1.751  10.971  0.2689  0.1501 -0.4418
   14MPD2    H7  227   2.185   1.735  10.894  2.4979  1.1003 -2.4904
   15TCq1    O1  228   4.344   1.147   1.835 -0.0030  0.6676  0.4192
   15TCq1    C1  229   4.411   1.269   1.828  0.4257 -0.0754  0.6181
   15TCq1    O2  230   4.352   1.379   1.833 -0.5948  0.3040 -0.4818
   15TCq1    C2  231   4.546   1.255   1.799  0.6375  0.1126  0.0778
   15TCq1    C3  232   4.632   1.350   1.854 -0.4432 -0.0299 -0.2635
   15TCq1    C4  233   0.028   1.326   1.840  0.7305  0.4996 -0.1842
   15TCq1    C5  234   0.080   1.217   1.770 -0.3862 -0.6231 -0.0103
   15TCq1    C6  235   4.727   1.126   1.716 -0.2024 -0.0601  0.1532
   15TCq1    C7  236   4.593   1.150   1.722  0.5254  0.8067  0.0982
   15TCq1    C8  237   0.046   0.993   1.674  0.0514  0.7307 -0.2163
   15TCq1    O4  238   0.168   0.990   1.661 -0.0263 -0.0173  0.4941
   15TCq1    C9  239   0.123   1.409   1.903 -0.5156 -0.2517  0.2681
   15TCq1    O5  240   0.245   1.378   1.894  0.1188  0.5335 -0.4594
   15TCq1    O6  241   0.075   1.471   2.002 -0.2068 -0.1834  0.3706
   15TCq1    H1  242   4.408   1.075   1.856 -0.1038  0.1227 -1.0882
   15TCq1    H2  243   4.596   1.434   1.912 -0.1594  0.2644 -0.5157
   15TCq1    H3  244   0.186   1.191   1.772 -0.5048 -1.2461 -1.8481
   15TCq1    H4  245   4.517   1.101   1.662  1.9738 -0.9597 -0.2641
   16MPD2     C  246   4.608   0.677   1.680  0.0061 -0.2695 -0.1268
   16MPD2    C1  247   4.716   0.758   1.654 -0.6261 -0.3041  0.0902
   16MPD2    C2  248   0.088   0.711   1.579  0.0462  0.0504  0.6514
   16MPD2    C3  249   0.097   0.581   1.548 -0.4677  0.1592 -0.5686
   16MPD2    C4  250   4.737   0.492   1.582  0.4782 -0.5558  0.0080
   16MPD2    C5  251   4.621   0.544   1.647  0.8200  0.3634 -1.0143
   16MPD2     H  252   0.169   0.776   1.548  0.6600  0.4528  3.1117
   16MPD2    H1  253   0.004   0.385   1.566 -1.2035 -0.6475  0.0553
   16MPD2    H2  254   4.510   0.709   1.715 -0.3729 -1.4087 -0.1456
   16MPD2    H3  255   4.554   0.463   1.672  1.9432 -0.4534 -0.6442
   16MPD2     N  256   0.211   0.542   1.471  0.2438 -0.4060 -0.6623
   16MPD2    H5  257   0.289   0.602   1.492 -1.4672  1.2838  0.9000
   16MPD2    N1  258   4.696   0.895   1.691 -0.3670 -0.5267  0.3159
   16MPD2    H7  259   4.610   0.932   1.731 -0.9724 -0.4228 -1.0568
   17TMC1    C1  260   2.665   0.322  10.170 -0.1578 -0.1003  0.2556
   17TMC1    C2  261   2.633   0.217  10.093  0.7032  0.2797  0.7429
   17TMC1    C3  262   2.529   0.135  10.135  0.2328 -0.2992 -0.2461
   17TMC1    C4  263   2.594   0.353  10.283 -0.7477 -0.0558  0.2040
   17TMC1    C5  264   2.501   0.264  10.323  0.9561  0.0682 -0.6241
   17TMC1    C6  265   2.469   0.149  10.254 -0.3687  0.4926 -0.1242
   17TMC1     C  266   2.769   0.412  10.121  0.4187  0.7114 -0.3954
   17TMC1     O  267   2.798   0.403  10.001 -0.2158 -0.5918 -0.4896
   17TMC1     H  268   2.683   0.197   9.999 -0.1955 -1.8425  0.6936
   17TMC1    H1  269   2.608   0.440  10.346  0.8161 -0.2904  0.1741
   17TMC1    H2  270   2.400   0.072  10.288 -2.0954  2.1173  0.0752
   17TMC1    C7  271   2.421   0.300  10.437 -0.5410  0.2358 -0.1897
   17TMC1    C8  272   2.506   0.007  10.065  0.3665  0.7358  0.2046
   17TMC1    O1  273   2.363   0.215  10.508 -0.0068 -0.3376 -0.5979
   17TMC1    O2  274   2.475   4.644  10.123  0.4099 -0.4713 -0.4099
   17TMC1    O3  275   2.383   0.429  10.410  0.6897  1.0475  0.5479
   17TMC1    H3  276   2.427   0.465  10.330 -2.9098 -1.3194 -2.4858
   17TMC1    O5  277   2.514   0.020   9.932 -0.4038 -0.3416  0.2086
   17TMC1    H5  278   2.501   0.113   9.904  0.9738 -0.5258 -1.0455
   18MPD2     C  279   2.978   0.609  10.067  0.0628  0.4837 -0.7776
   18MPD2    C1  280   2.911   0.604  10.187 -0.2948 -0.0170 -0.1440
   18MPD2    C2  281   2.948   0.689  10.292 -0.1541 -0.0803  0.1577
   18MPD2    C3  282   3.044   0.787  10.267  0.6593 -0.0743  0.1481
   18MPD2    C4  283   3.096   0.799  10.141  0.1684  0.6739 -0.2446
   18MPD2    C5  284   3.069   0.707  10.043 -0.2304 -0.1697  0.0980
   18MPD2     H  285   2.900   0.667  10.386 -0.4515 -1.8038 -0.4031
   18MPD2    H1  286   3.171   0.877  10.131  2.4669 -1.4871  0.2976
   18MPD2    H2  287   2.958   0.550   9.978 -0.6334  1.0631 -1.0088
   18MPD2    H3  288   3.116   0.724   9.946 -1.3824 -0.5168 -0.5178
   18MPD2     N  289   3.086   0.881  10.368 -0.0410 -0.0976 -0.3029
   18MPD2    H5  290   3.148   0.955  10.337  0.3756  0.0847  0.9648
   18MPD2    N1  291   2.806   0.509  10.215  0.5577 -0.4017 -0.7747
   18MPD2    H7  292   2.775   0.503  10.311  0.9375  2.1289 -0.4920
   19TMC2    C1  293   4.696   2.033  14.030  0.4947  0.4360 -0.1491
   19TMC2    C2  294   4.628   2.048  13.913  0.5737  0.1561  0.1664
   19TMC2    C3  295   4.493   2.037  13.917  0.1639 -0.2740 -0.1932
   19TMC2    C4  296   4.632   2.007  14.152 -0.7207 -0.8202  0.2525
   19TMC2    C5  297   4.497   1.983  14.148 -0.2778 -0.0157  0.2938
   19TMC2    C6  298   4.429   1.997  14.028 -0.0876  1.1441  0.3052
   19TMC2     C  299   0.095   1.985  14.003 -0.1846 -0.7125  0.6117
   19TMC2     O  300   0.153   2.015  13.898 -0.0908 -0.1674  0.3099
   19TMC2     H  301   4.674   2.068  13.817  0.4684  1.2946  0.3570
   19TMC2    H1  302   4.682   1.993  14.247 -2.5434  2.3274  1.6794
   19TMC2    H2  303   4.321   1.988  14.032  0.1353  0.2099  3.8987
   19TMC2    C7  304   4.421   1.960  14.268  0.2565 -0.4405 -1.0390
   19TMC2    C8  305   4.427   2.047  13.784 -0.1064  1.0114  0.0423
   19TMC2    O1  306   4.312   1.906  14.252 -0.5738  0.3718  0.1567
   19TMC2    O2  307   4.486   2.016  13.680  0.1773  0.1810 -0.2435
   19TMC2    O5  308   4.290   2.047  13.804  0.0123  0.0993 -0.5216
   19TMC2    H5  309   4.278   2.109  13.880 -0.7052 -1.8991  1.0131
   20MPD2     C  310   0.384   1.941  14.058 -0.3294 -0.2719  0.2790
   20MPD2    C1  311   0.282   1.876  14.124 -0.2277 -0.3159 -0.9133
   20MPD2    C2  312   0.296   1.787  14.227 -0.0469 -0.3115  0.6583
   20MPD2    C3  313   0.426   1.761  14.258 -0.8227  0.5653 -1.1684
   20MPD2    C4  314   0.530   1.818  14.192  0.0009  0.1435 -0.0907
   20MPD2    C5  315   0.515   1.912  14.093 -1.1356  0.7676  0.9813
   20MPD2     H  316   0.214   1.745  14.284 -0.4360  0.5019  0.7060
   20MPD2    H1  317   0.636   1.797  14.199  0.6962  4.0090  0.9111
   20MPD2    H2  318   0.381   2.016  13.980  0.3532  0.7713  1.2511
   20MPD2    H3  319   0.597   1.962  14.044 -1.8038 -2.0724 -3.1037
   20MPD2     N  320   0.459   1.669  14.353 -0.3490  0.0777 -0.1828
   20MPD2    H5  321   0.559   1.658  14.369 -0.3724 -2.0239 -1.4277
   20MPD2    N1  322   0.141   1.913  14.107 -0.2747  1.1042  0.0537
   20MPD2    H7  323   0.076   1.871  14.172  0.7209  0.3435  0.5514
   21TMC2    C1  324   1.792   1.960  14.164  0.1367 -0.6703 -0.5194
   21TMC2    C2  325   1.865   1.851  14.177 -0.5806  0.2714 -0.5073
   21TMC2    C3  326   1.897   1.808  14.308  0.3578 -0.1428  0.7308
   21TMC2    C4  327   1.737   2.030  14.266  0.0261 -0.1456 -0.5149
   21TMC2    C5  328   1.769   1.995  14.389 -0.1058 -0.5381  0.2814
   21TMC2    C6  329   1.857   1.889  14.411 -0.1611 -0.7546  1.0651
   21TMC2     C  330   1.799   2.018  14.027 -0.7694  0.3053  0.1326
   21TMC2     O  331   1.794   1.935  13.939 -0.3180 -0.0456 -0.0042
   21TMC2     H  332   1.884   1.791  14.089  1.3984  2.4985 -1.6106
   21TMC2    H1  333   1.674   2.114  14.238  1.3833  0.8664 -0.4929
   21TMC2    H2  334   1.878   1.858  14.513 -0.0670 -0.4688  1.1328
   21TMC2    C7  335   1.755   2.093  14.496  0.0660  0.3648 -0.1891
   21TMC2    C8  336   1.993   1.702  14.327  0.5712  0.3959 -0.7759
   21TMC2    O1  337   1.812   2.069  14.598 -0.2751  0.0964  0.0947
   21TMC2    O2  338   1.968   1.613  14.410  0.1456  0.3971 -0.1716
   21TMC2    O5  339   2.050   1.677  14.205 -0.0179 -0.4227 -0.3541
   21TMC2    H5  340   2.089   1.754  14.158 -0.6878 -0.2200 -0.5738
   22MPD2     C  341   1.973   2.442  14.270 -0.2613  0.2934  0.3546
   22MPD2    C1  342   2.025   2.316  14.251  0.4991  0.0924  0.2339
   22MPD2    C2  343   1.965   2.226  14.163  0.4641 -0.3323 -0.4740
   22MPD2    C3  344   1.846   2.254  14.103  0.3374 -0.5722 -0.1071
   22MPD2    C4  345   1.806   2.387  14.108  0.7123  0.2634  0.4252
   22MPD2    C5  346   1.869   2.480  14.189 -0.1145  0.2103  0.2194
   22MPD2     H  347   2.006   2.126  14.150  1.0174  0.1546 -2.5189
   22MPD2    H1  348   1.714   2.419  14.060  0.7414  0.9133  0.8061
   22MPD2    H2  349   2.022   2.515  14.334 -2.2175  1.2998  0.6781
   22MPD2    H3  350   1.832   2.582  14.192  0.6416  0.5719 -2.5583
   22MPD2     N  351   1.783   2.153  14.018 -0.1987 -0.2926  0.0166
   22MPD2    H5  352   1.731   2.187  13.938 -1.3124  0.5291  1.0930
   22MPD2    N1  353   2.132   2.255  14.325  0.8664  0.3565 -0.3003
   22MPD2    H7  354   2.158   2.159  14.302  0.9587 -0.6046  3.7490
   23TMC2    C1  355   3.068   3.017  14.767 -0.4175  0.3916 -0.3175
   23TMC2    C2  356   2.994   3.048  14.881 -0.0320 -0.3538 -0.5576
   23TMC2    C3  357   2.863   3.031  14.888 -0.1531  0.3092  0.1679
   23TMC2    C4  358   3.000   2.949  14.673 -0.0733 -0.3237 -0.0819
   23TMC2    C5  359   2.865   2.919  14.685 -0.8228  0.1305 -0.5170
   23TMC2    C6  360   2.797   2.965  14.791 -0.2511 -0.7089 -0.1539
   23TMC2     C  361   3.218   3.015  14.764 -0.2275  0.0252 -0.6297
   23TMC2     O  362   3.266   2.970  14.661  0.3227  0.0923 -0.0159
   23TMC2     H  363   3.046   3.099  14.961 -1.1641 -1.0263  0.6295
   23TMC2    H1  364   3.045   2.938  14.575 -0.6476  0.2715 -0.4120
   23TMC2    H2  365   2.692   2.943  14.804 -0.1395 -0.4540  1.1768
   23TMC2    C7  366   2.792   2.879  14.562  0.6457  0.6984 -0.5480
   23TMC2    C8  367   2.792   3.082  14.997  0.3718  0.0680  0.3334
   23TMC2    O1  368   2.862   2.837  14.471  0.4206 -0.1842 -0.8404
   23TMC2    O2  369   2.844   3.172  15.058  0.5391  0.0410  0.1044
   23TMC2    O5  370   2.700   2.990  15.045  0.3249 -0.2383 -0.0580
   23TMC2    H5  371   2.694   2.915  14.982 -0.1318  1.2965 -1.8435
   24MPD2     C  372   3.663   2.961  15.023  0.5861 -0.8290  0.1844
   24MPD2    C1  373   3.565   2.963  15.114  0.3076 -0.1619  0.1928
   24MPD2    C2  374   3.442   2.988  15.061 -0.4463  0.2658 -0.1141
   24MPD2    C3  375   3.410   3.001  14.928 -0.0519 -0.2149  0.2809
   24MPD2    C4  376   3.511   3.021  14.847 -0.1871 -0.4337  0.4338
   24MPD2    C5  377   3.640   2.996  14.890  0.6191  0.6603  0.2875
   24MPD2     H  378   3.358   2.991  15.129  0.4690 -2.4847  1.1292
   24MPD2    H1  379   3.502   3.036  14.741 -2.0909 -0.0933  0.6421
   24MPD2    H2  380   3.768   2.946  15.047  0.8770  0.1931 -0.4427
   24MPD2    H3  381   3.722   3.012  14.821  0.6151 -0.5697 -0.0011
   24MPD2     N  382   3.275   3.018  14.891 -0.3648 -0.3292 -0.1051
   24MPD2    H5  383   3.212   3.020  14.969 -0.7565  0.3222 -0.4380
   24MPD2    N1  384   3.576   2.923  15.251  0.4768  0.1450  0.0025
   24MPD2    H7  385   3.494   2.939  15.309  0.4013  1.3387 -0.4454
   25TMC2    C1  386   1.993   1.067  12.097  0.4656 -0.5707  0.1267
   25TMC2    C2  387   1.858   1.097  12.087  0.1118  0.3824  0.3915
   25TMC2    C3  388   1.785   1.076  12.198 -0.4151  0.3144 -0.0812
   25TMC2    C4  389   2.042   0.999  12.199  0.8140  0.0209  0.2224
   25TMC2    C5  390   1.963   0.987  12.309  0.4807 -0.3267 -0.0554
   25TMC2    C6  391   1.831   1.014  12.312  0.1977 -0.3517  0.1030
   25TMC2     C  392   2.067   1.104  11.975 -0.5259  0.9983  0.2861
   25TMC2     O  393   2.048   1.212  11.919 -0.6035 -0.1840  0.6023
   25TMC2     H  394   1.824   1.146  11.997 -1.4969 -2.2611 -0.4601
   25TMC2    H1  395   2.149   0.986  12.192  0.5663 -1.8569  0.0117
   25TMC2    H2  396   1.771   0.976  12.393  1.0596 -1.1324  0.3758
   25TMC2    C7  397   2.021   0.931  12.434 -0.5832  0.0520 -0.2183
   25TMC2    C8  398   1.648   1.099  12.184  0.3908 -0.4350  0.3498
   25TMC2    O1  399   1.942   0.890  12.517  0.0710  0.3951 -0.5087
   25TMC2    O2  400   1.576   1.129  12.278 -0.1897 -0.1148  0.0685
   25TMC2    O5  401   1.609   1.048  12.066 -0.0170 -0.1140 -0.2013
   25TMC2    H5  402   1.681   1.008  12.012  0.3089  0.2156 -0.0145
   26MPD2     C  403   2.365   0.977  11.576  0.1418  0.1088 -0.0443
   26MPD2    C1  404   2.322   0.860  11.644  0.1612 -0.7434 -0.1941
   26MPD2    C2  405   2.257   0.868  11.767  0.1567 -0.4033  0.2717
   26MPD2    C3  406   2.221   0.991  11.810  1.2573 -0.2843  0.2778
   26MPD2    C4  407   2.266   1.105  11.747 -0.5860  0.2589  0.2811
   26MPD2    C5  408   2.338   1.095  11.637  0.0246  0.6379 -0.4651
   26MPD2     H  409   2.221   0.774  11.805  2.6407 -1.6397 -0.3761
   26MPD2    H1  410   2.236   1.205  11.778 -0.8521  0.4177 -0.5050
   26MPD2    H2  411   2.398   0.978  11.473  0.3099 -0.6808  0.0084
   26MPD2    H3  412   2.357   1.191  11.590 -1.5036 -0.2386 -2.8571
   26MPD2     N  413   2.136   0.995  11.927  0.1329  0.0274 -0.1090
   26MPD2    H5  414   2.111   0.909  11.975 -0.6817  1.0572  1.3167
   26MPD2    N1  415   2.357   0.735  11.584  0.8875  0.1039 -0.1140
   26MPD2    H7  416   2.385   0.753  11.488  2.1781  2.6574  0.7412
   27TMC2    C1  417   1.238   2.721  12.286 -0.1921  0.3375  0.3235
   27TMC2    C2  418   1.299   2.785  12.181  0.3608 -0.5997  0.0736
   27TMC2    C3  419   1.332   2.915  12.209 -0.4070  0.5042 -0.0461
   27TMC2    C4  420   1.219   2.776  12.415 -0.0724  0.0241 -0.0620
   27TMC2    C5  421   1.260   2.906  12.432  0.0747  0.0461 -0.2171
   27TMC2    C6  422   1.313   2.981  12.329 -0.1449 -0.0967  0.5409
   27TMC2     C  423   1.178   2.592  12.260 -0.8482 -0.3572 -0.2272
   27TMC2     O  424   1.228   2.514  12.182 -0.4153 -0.4490  0.1930
   27TMC2     H  425   1.286   2.759  12.076  0.5326  1.1968 -0.3862
   27TMC2    H1  426   1.175   2.717  12.494 -0.5349 -0.3210 -0.5808
   27TMC2    H2  427   1.329   3.088  12.337  1.1040 -0.3328  1.1255
   27TMC2    C7  428   1.232   2.967  12.564  0.2893  0.6550 -0.3972
   27TMC2    C8  429   1.366   2.998  12.095 -0.4915  0.1085  0.1005
   27TMC2    O1  430   1.236   2.883  12.658 -0.2682 -0.4824  0.4315
   27TMC2    O2  431   1.341   2.959  11.981  0.4225 -0.7009 -0.5582
   27TMC2    O5  432   1.489   3.047  12.127  0.4064  0.3518 -0.2992
   27TMC2    H5  433   1.499   3.053  12.224 -1.4934 -1.0561 -0.0078
   28MPD2     C  434   0.897   2.221  12.487  0.4025  0.7768  0.8691
   28MPD2    C1  435   0.838   2.345  12.517 -0.7442  0.0855  0.3144
   28MPD2    C2  436   0.890   2.459  12.460 -0.1294  0.6703 -0.2521
   28MPD2    C3  437   1.004   2.447  12.376 -0.3157 -0.4815  0.5752
   28MPD2    C4  438   1.059   2.325  12.353  0.0210 -0.2807  0.4667
   28MPD2    C5  439   1.003   2.215  12.397 -0.0122 -0.2076  0.3482
   28MPD2     H  440   0.850   2.560  12.469  1.1280  1.1290  0.2722
   28MPD2    H1  441   1.148   2.314  12.292 -0.2479  2.6231 -0.4578
   28MPD2    H2  442   0.875   2.123  12.526  0.3986  1.3326  2.2915
   28MPD2    H3  443   1.050   2.118  12.384 -2.2248 -1.3045  0.6355
   28MPD2     N  444   1.064   2.574  12.332  0.3349  0.6399  0.6819
   28MPD2    H5  445   1.021   2.659  12.367  0.3191  2.6518 -4.2148
   28MPD2    N1  446   0.737   2.344  12.618 -0.8203 -0.8041 -0.7237
   28MPD2    H7  447   0.720   2.256  12.667  3.0616 -2.1197 -1.7291
   29TMC2    C1  448   0.451   0.606  14.680  0.4280  0.2070 -0.6052
   29TMC2    C2  449   0.496   0.637  14.798  0.0770 -0.5542  0.5201
   29TMC2    C3  450   0.525   0.766  14.826 -0.3311 -0.0639  0.6292
   29TMC2    C4  451   0.439   0.703  14.579  0.1130  0.7988  0.2659
   29TMC2    C5  452   0.472   0.832  14.612 -0.8203  0.0281  0.5564
   29TMC2    C6  453   0.514   0.867  14.738  0.3681 -0.3311 -0.1784
   29TMC2     C  454   0.434   0.462  14.656  0.3342 -0.5424  0.1758
   29TMC2     O  455   0.479   0.388  14.739  0.8157  0.3634 -0.6753
   29TMC2     H  456   0.515   0.558  14.870  2.1981 -1.6738 -1.2703
   29TMC2    H1  457   0.424   0.686  14.473  0.0687 -1.8560  0.6881
   29TMC2    H2  458   0.532   0.971  14.761 -0.5947 -0.0120 -0.8698
   29TMC2    C7  459   0.478   0.928  14.505  0.1533 -0.6649 -0.5293
   29TMC2    C8  460   0.593   0.782  14.948 -0.3218 -0.2446  0.3793
   29TMC2    O1  461   0.426   0.906  14.399  0.0235 -0.0060  0.2223
   29TMC2    O2  462   0.560   0.738  15.056  0.4212 -0.2320 -0.4935
   29TMC2    O5  463   0.657   0.899  14.929  0.6682  0.4833  0.4976
   29TMC2    H5  464   0.696   0.912  14.839  0.8760 -0.1610  0.4925
   30MPD2     C  465   0.199   0.071  14.408 -1.0576 -0.0687 -0.6550
   30MPD2    C1  466   0.295   0.068  14.503 -0.1657 -0.0572  0.8569
   30MPD2    C2  467   0.345   0.188  14.548 -0.4994  0.2424 -0.1309
   30MPD2    C3  468   0.298   0.307  14.499 -0.6351  0.2206  0.0452
   30MPD2    C4  469   0.201   0.312  14.402 -0.7829 -0.8429  0.2929
   30MPD2    C5  470   0.146   0.192  14.366 -0.3717  0.3065  0.4167
   30MPD2     H  471   0.414   0.196  14.632  0.8437 -1.9587 -1.0121
   30MPD2    H1  472   0.157   0.404  14.364 -2.8448 -1.7364  0.4975
   30MPD2    H2  473   0.146   4.719  14.377 -1.3174  0.7184 -2.5202
   30MPD2    H3  474   0.064   0.188  14.296  1.5934  1.8932 -1.9917
   30MPD2     N  475   0.351   0.440  14.542 -0.3559  0.1458  0.3346
   30MPD2    H5  476   0.322   0.521  14.490  4.3486  2.2032  0.9085
   30MPD2    N1  477   0.362   4.687  14.543 -0.1002  0.2107 -0.3476
   30MPD2    H7  478   0.433   4.698  14.615 -0.1155  0.0422 -0.3084
   31TMC2    C1  479   3.344   3.658  15.821 -0.4014  0.0677  0.2496
   31TMC2    C2  480   3.278   3.777  15.837  1.7932 -0.4150 -0.3805
   31TMC2    C3  481   3.237   3.813  15.966 -0.2160 -0.3457  0.2513
   31TMC2    C4  482   3.377   3.586  15.926  0.6321 -0.4815  0.5502
   31TMC2    C5  483   3.321   3.618  16.046  1.2114 -0.4962  0.6180
   31TMC2    C6  484   3.247   3.729  16.073 -0.0624  0.2449  0.2224
   31TMC2     C  485   3.390   3.641  15.686  0.3809  0.3238 -0.3284
   31TMC2     O  486   3.370   3.731  15.611  0.4809  0.0224  0.7343
   31TMC2     H  487   3.243   3.840  15.756 -2.5432 -0.1088  1.6966
   31TMC2    H1  488   3.422   3.488  15.912 -2.4644 -1.6027 -1.6159
   31TMC2    H2  489   3.194   3.761  16.162 -0.0518 -1.1089  0.7271
   31TMC2    C7  490   3.336   3.515  16.146  0.1807  0.3894 -0.2151
   31TMC2    C8  491   3.149   3.926  15.982 -0.2559  0.0029  0.0447
   31TMC2    O1  492   3.381   3.409  16.104 -0.2658  0.2273  0.0915
   31TMC2    O2  493   3.045   3.931  15.921  0.7373 -0.7104  0.1421
   31TMC2    O5  494   3.179   3.981  16.100  0.6600 -0.4260  0.1136
   31TMC2    H5  495   3.277   3.985  16.111  0.6973 -1.9775  0.2610
   32MPD2     C  496   3.483   3.353  15.279  0.0768  0.0423 -0.2109
   32MPD2    C1  497   3.476   3.492  15.291 -0.6663  0.4149 -0.6376
   32MPD2    C2  498   3.467   3.548  15.420 -0.1693 -0.3902 -0.0020
   32MPD2    C3  499   3.462   3.464  15.536  0.5947 -0.6164  0.0402
   32MPD2    C4  500   3.473   3.328  15.523  0.0744  0.1531 -0.7737
   32MPD2    C5  501   3.486   3.277  15.393  0.2485  0.5966  0.2613
   32MPD2     H  502   3.451   3.655  15.424 -0.0588 -0.3966  0.5708
   32MPD2    H1  503   3.464   3.262  15.608  3.9950  0.0163 -0.4472
   32MPD2    H2  504   3.514   3.309  15.185 -0.7704 -0.1227 -0.4133
   32MPD2    H3  505   3.496   3.169  15.381  2.1810  0.6924  1.0480
   32MPD2     N  506   3.438   3.512  15.661 -0.0564  0.1285  0.8894
   32MPD2    H5  507   3.454   3.456  15.744  1.2560  0.7601  1.0639
   32MPD2    N1  508   3.481   3.559  15.169 -0.5391  0.9485 -0.1551
   32MPD2    H7  509   3.494   3.510  15.081 -1.1655 -1.7080  1.2448
   33TMC2    C1  510   3.305   1.811  10.088  0.0594  0.3105  0.1654
   33TMC2    C2  511   3.246   1.767   9.977  0.0646  0.4466  0.1080
   33TMC2    C3  512   3.238   1.860   9.874 -0.3110 -0.2850  0.2106
   33TMC2    C4  513   3.361   1.940  10.099  0.0924  0.4458  0.8001
   33TMC2    C5  514   3.369   2.018   9.992  0.0351  0.5504  0.3611
   33TMC2    C6  515   3.293   1.983   9.880 -0.2979 -0.4433 -0.0009
   33TMC2     C  516   3.320   1.728  10.201 -0.8995  0.2524  0.2958
   33TMC2     O  517   3.246   1.627  10.195 -0.0736  0.3592  0.1266
   33TMC2     H  518   3.205   1.668   9.965 -0.4851  0.7730 -0.7466
   33TMC2    H1  519   3.401   1.983  10.190  2.1320 -0.5945  0.4025
   33TMC2    H2  520   3.292   2.037   9.786 -0.1667 -2.2855 -1.0429
   33TMC2    C7  521   3.401   2.156  10.020 -0.3411  0.1705  0.2092
   33TMC2    C8  522   3.208   1.813   9.741 -0.0308  0.6118  0.0017
   33TMC2    O1  523   3.490   2.167  10.105 -0.3058  0.0437 -0.3642
   33TMC2    O2  524   3.181   1.895   9.650 -0.2404 -0.1861 -0.1246
   33TMC2    O5  525   3.279   1.699   9.722 -0.2674 -0.3925  0.1476
   33TMC2    H5  526   3.302   1.649   9.802  1.5819 -1.3527 -0.9869
   34MPD2     C  527   3.542   1.531  10.614  0.1008  0.6414 -0.0209
   34MPD2    C1  528   3.437   1.479  10.539 -0.0123  0.1181 -0.3740
   34MPD2    C2  529   3.389   1.551  10.427  0.3175  0.4574  0.0763
   34MPD2    C3  530   3.461   1.669  10.395 -0.0066 -0.4268 -0.3102
   34MPD2    C4  531   3.569   1.715  10.466  0.3345  1.5244 -0.4482
   34MPD2    C5  532   3.613   1.642  10.570  0.7481 -0.0091  0.4442
   34MPD2     H  533   3.299   1.520  10.375  1.3704 -0.9426 -0.8882
   34MPD2    H1  534   3.629   1.801  10.439 -0.5837  1.3653 -3.0075
   34MPD2    H2  535   3.596   1.469  10.684 -2.6868 -1.4828  0.2826
   34MPD2    H3  536   3.704   1.659  10.626  1.2964  0.3868 -0.5654
   34MPD2     N  537   3.434   1.745  10.280 -0.1304 -0.4826  0.2641
   34MPD2    H5  538   3.502   1.819  10.262 -1.9608  0.4683 -2.7818
   34MPD2    N1  539   3.385   1.352  10.582 -0.7091  0.6607  0.7098
   34MPD2    H7  540   3.410   1.316  10.673 -0.0818 -1.2097 -0.1928
   35TMC2    C1  541   0.019   2.926  11.771  0.4563  0.2070 -0.3659
   35TMC2    C2  542   4.722   2.908  11.642 -0.4744  0.1047  0.4176
   35TMC2    C3  543   4.632   2.819  11.609  0.3017 -0.0967 -0.0247
   35TMC2    C4  544   4.696   2.850  11.871  0.1323  0.2980 -0.1547
   35TMC2    C5  545   4.609   2.758  11.832  0.2024  0.3175 -0.0695
   35TMC2    C6  546   4.569   2.743  11.704  0.5903  0.0037  0.1621
   35TMC2     C  547   0.147   2.985  11.795  0.5398  0.1132  0.3242
   35TMC2     O  548   0.194   3.055  11.705  0.0572 -0.5540  0.1978
   35TMC2     H  549   0.031   2.979  11.575 -0.5195 -0.9879 -0.7712
   35TMC2    H1  550   4.721   2.868  11.975 -0.9343  0.5378  0.0535
   35TMC2    H2  551   4.511   2.659  11.668  1.0060 -1.2153  2.3670
   35TMC2    C7  552   4.557   2.668  11.938 -0.2473 -0.0706 -0.0537
   35TMC2    C8  553   4.594   2.811  11.471 -0.1467 -0.2796 -0.6367
   35TMC2    O1  554   4.641   2.629  12.018 -0.0471 -0.2031  0.0237
   35TMC2    O2  555   4.666   2.852  11.383 -0.5096 -0.0004 -0.0527
   35TMC2    O5  556   4.466   2.791  11.459  0.7154  0.5395 -0.1650
   35TMC2    H5  557   4.417   2.804  11.543 -0.4976 -1.5343 -0.5562
   36MPD2     C  558   0.426   3.185  12.175 -0.1351 -0.1986  0.1123
   36MPD2    C1  559   0.399   3.052  12.211  0.0481  0.4083  0.1273
   36MPD2    C2  560   0.334   2.973  12.117 -0.2089  0.1171 -0.8530
   36MPD2    C3  561   0.292   3.028  11.999 -0.3632  0.0818 -0.2114
   36MPD2    C4  562   0.318   3.159  11.966 -0.1866  0.2493 -0.0227
   36MPD2    C5  563   0.383   3.235  12.055  0.1939  0.2843 -0.4769
   36MPD2     H  564   0.304   2.870  12.137  0.8053 -0.3554 -1.8049
   36MPD2    H1  565   0.288   3.196  11.869  1.9466  0.0450 -0.7634
   36MPD2    H2  566   0.486   3.251  12.237  0.8882 -1.1769  0.1680
   36MPD2    H3  567   0.386   3.343  12.047  1.8796  0.4420  2.2706
   36MPD2     N  568   0.206   2.948  11.915 -0.2082 -0.1886  0.1781
   36MPD2    H5  569   0.178   2.856  11.945 -0.5780  0.0066  0.4313
   36MPD2    N1  570   0.422   3.011  12.340  0.4576  0.2160  0.0523
   36MPD2    H7  571   0.459   3.082  12.402 -0.2684  1.3170 -0.7748
   37TMC2    C1  572   2.517   3.246  11.452  0.0752 -0.0898 -0.3292
   37TMC2    C2  573   2.566   3.366  11.414 -0.1828 -0.1980  0.3135
   37TMC2    C3  574   2.680   3.365  11.334 -0.4676  0.2406 -0.4813
   37TMC2    C4  575   2.589   3.129  11.425 -0.2991 -0.3258  0.1099
   37TMC2    C5  576   2.717   3.140  11.362  1.1474 -0.0860 -0.7681
   37TMC2    C6  577   2.765   3.262  11.321  0.6099 -0.2720 -1.1926
   37TMC2     C  578   2.417   3.242  11.568 -0.6073  0.5326  0.8259
   37TMC2     O  579   2.368   3.349  11.596  0.5171  0.0179 -0.3880
   37TMC2     H  580   2.493   3.445  11.416  1.4724  1.3603 -0.0866
   37TMC2    H1  581   2.556   3.035  11.467 -0.7385 -0.2413 -0.0375
   37TMC2    H2  582   2.863   3.269  11.275  0.5683 -0.1850 -1.2684
   37TMC2    C7  583   2.808   3.045  11.399  0.0181  0.3949  0.3037
   37TMC2    C8  584   2.712   3.489  11.269 -0.5056  0.5624 -0.1143
   37TMC2    O1  585   2.765   2.933  11.408 -0.1089  0.1561  0.1059
   37TMC2    O2  586   2.634   3.541  11.191 -0.0187 -0.4024  0.1389
   37TMC2    O5  587   2.835   3.531  11.294 -0.0029 -0.4020 -0.2675
   37TMC2    H5  588   2.877   3.470  11.360 -1.2542 -0.1256  0.7834
   38MPD2     C  589   2.219   3.001  11.972  0.5606  0.1255 -0.6904
   38MPD2    C1  590   2.306   2.914  11.911 -0.2216 -0.2727 -0.0382
   38MPD2    C2  591   2.363   2.952  11.796 -0.6972 -0.2085  0.2399
   38MPD2    C3  592   2.345   3.083  11.750 -0.5446  0.2953 -0.8250
   38MPD2    C4  593   2.255   3.166  11.810 -0.4423  0.1738 -0.1808
   38MPD2    C5  594   2.187   3.125  11.925  0.1513  0.9389  0.0265
   38MPD2     H  595   2.441   2.890  11.753  1.9663  2.2182  1.6078
   38MPD2    H1  596   2.235   3.261  11.763 -3.1171 -0.4611 -0.3262
   38MPD2    H2  597   2.166   2.977  12.063  0.5064 -0.2131 -0.8134
   38MPD2    H3  598   2.120   3.193  11.976  0.8638  0.4796  1.5802
   38MPD2     N  599   2.415   3.120  11.633 -0.7820 -0.1802 -0.4892
   38MPD2    H5  600   2.487   3.058  11.597 -0.1608  0.7884 -0.9138
   38MPD2    N1  601   2.353   2.789  11.964 -0.3792 -0.2934 -0.0248
   38MPD2    H7  602   2.413   2.733  11.905  1.5117 -0.9808  2.5481
   39TMC2    C1  603   0.275   0.589   1.918 -0.4004 -0.0589  1.6096
   39TMC2    C2  604   0.205   0.670   2.006 -0.4690  0.8758 -0.6543
   39TMC2    C3  605   0.209   0.803   1.988 -0.4066 -0.0562  0.1322
   39TMC2    C4  606   0.344   0.638   1.805 -0.3645 -0.2634  0.6024
   39TMC2    C5  607   0.342   0.778   1.799  0.8292  0.4975 -0.4776
   39TMC2    C6  608   0.291   0.862   1.892 -0.5622  0.0065 -0.2099
   39TMC2     C  609   0.219   0.460   1.893  0.1624  0.0589  0.7001
   39TMC2     O  610   0.106   0.450   1.943  0.1842  0.9019 -0.0177
   39TMC2     H  611   0.143   0.639   2.089  1.7899 -3.5305 -0.6337
   39TMC2    H1  612   0.389   0.565   1.739 -2.2003  0.2809 -1.2671
   39TMC2    H2  613   0.281   0.968   1.872  0.7940 -0.2267 -2.1419
   39TMC2    C7  614   0.415   0.812   1.672  0.4154 -0.5780  0.6495
   39TMC2    C8  615   0.131   0.896   2.074  1.2349 -0.2377 -0.7670
   39TMC2    O1  616   0.412   0.730   1.584 -0.2670 -0.4879 -0.1417
   39TMC2    O2  617   0.154   1.018   2.080 -0.3030  0.3435  0.0059
   39TMC2    O5  618   0.007   0.840   2.081  0.3668 -0.2833  0.2688
   39TMC2    H5  619   4.729   0.748   2.052 -0.2853 -0.1341  0.1368
   40MPD2     C  620   0.372   0.155   1.778 -0.5543 -0.5406  0.6477
   40MPD2    C1  621   0.263   0.235   1.809 -0.0287  0.3181 -0.9412
   40MPD2    C2  622   0.133   0.188   1.783  0.3087 -0.2589 -0.6071
   40MPD2    C3  623   0.115   0.069   1.736 -0.2815  0.0447 -0.2698
   40MPD2    C4  624   0.223   4.721   1.725 -0.0443 -0.2105  0.3469
   40MPD2    C5  625   0.343   0.028   1.751 -0.7623  0.3727 -0.7751
   40MPD2     H  626   0.054   0.262   1.787  2.2982  1.9858 -2.4370
   40MPD2    H1  627   0.217   4.617   1.693  1.4709 -1.0347  2.7453
   40MPD2    H2  628   0.475   0.187   1.776 -0.1725 -1.8580 -0.2913
   40MPD2    H3  629   0.430   4.701   1.744 -0.2778  0.7974  1.4360
   40MPD2     N  630   4.725   0.015   1.704 -0.2712  0.5357 -0.3732
   40MPD2    H5  631   4.732   4.661   1.661 -1.5573  0.0054  0.5324
   40MPD2    N1  632   0.301   0.368   1.832 -0.1441 -0.1790 -0.0451
   40MPD2    H7  633   0.400   0.390   1.827 -0.5865  0.9933 -3.6375
   41TMC2    C1  634   3.718   3.751  14.015 -0.2198  0.6416  0.0947
   41TMC2    C2  635   3.608   3.761  14.084  0.4083 -0.4932  0.3877
   41TMC2    C3  636   3.487   3.744  14.022 -0.0039  0.3003  0.1733
   41TMC2    C4  637   3.719   3.710  13.882 -0.6147 -0.2146 -0.3880
   41TMC2    C5  638   3.594   3.687  13.829  0.1409 -0.7440  0.6553
   41TMC2    C6  639   3.474   3.694  13.899  0.3629 -0.5777  0.7682
   41TMC2     C  640   3.846   3.747  14.076  0.9064  0.0238 -0.3517
   41TMC2     O  641   3.942   3.776  14.009 -0.2246 -0.2946  0.3283
   41TMC2     H  642   3.604   3.801  14.185 -0.2451  1.0716 -0.2641
   41TMC2    H1  643   3.806   3.733  13.820 -1.7085 -0.0239 -1.8472
   41TMC2    H2  644   3.379   3.659  13.861  0.3922  3.2707 -2.7523
   41TMC2    C7  645   3.582   3.623  13.696  0.5459  0.2730 -0.5149
   41TMC2    C8  646   3.363   3.802  14.077 -0.1044 -0.1743 -0.0073
   41TMC2    O1  647   3.470   3.622  13.649  0.0480 -0.0764  0.0205
   41TMC2    O2  648   3.252   3.760  14.036  0.0344 -0.3216 -0.3504
   41TMC2    O5  649   3.391   3.925  14.124  0.0985  0.5352 -0.1670
   41TMC2    H5  650   3.484   3.950  14.107 -0.4433  2.9743  0.4011
   42MPD2     C  651   4.035   3.795  14.310 -0.1668  0.2258  0.5364
   42MPD2    C1  652   3.932   3.698  14.306  0.2315 -0.0963 -0.1132
   42MPD2    C2  653   3.925   3.594  14.393 -0.1835 -0.6197  0.0331
   42MPD2    C3  654   4.022   3.585  14.495 -0.0856 -0.1197  0.9735
   42MPD2    C4  655   4.114   3.686  14.504 -0.1499 -0.7193  0.6169
   42MPD2    C5  656   4.121   3.790  14.417 -0.1731  0.0232 -0.1264
   42MPD2     H  657   3.848   3.518  14.384 -1.0180  0.2600 -0.3274
   42MPD2    H1  658   4.175   3.689  14.594 -0.4860  2.0636  0.7594
   42MPD2    H2  659   4.046   3.860  14.225  2.3968 -0.1225  0.6122
   42MPD2    H3  660   4.197   3.866  14.436 -0.7654  0.1103  1.9398
   42MPD2     N  661   4.031   3.479  14.583 -0.2082  0.2816  0.0496
   42MPD2    H5  662   4.088   3.489  14.667 -0.8033 -2.5218  0.7709
   42MPD2    N1  663   3.830   3.710  14.208 -0.3204 -0.2906  0.6323
   42MPD2    H7  664   3.745   3.657  14.224 -0.9219  0.5822  0.2971
   43TMC2    C1  665   0.677   0.841   0.390  0.0206  0.3693 -0.2502
   43TMC2    C2  666   0.628   0.713   0.392 -0.3616  0.0459 -0.0738
   43TMC2    C3  667   0.596   0.657   0.515 -1.2023  0.4649 -0.3612
   43TMC2    C4  668   0.683   0.912   0.506 -0.0572 -0.2931 -0.1844
   43TMC2    C5  669   0.670   0.856   0.627 -0.7466  0.3850 -0.2028
   43TMC2    C6  670   0.620   0.728   0.628  0.1856  0.1882  0.2401
   43TMC2     C  671   0.728   0.894   0.263  0.0017  0.5568 -0.9531
   43TMC2     O  672   0.759   0.810   0.182  0.0731  0.0038  0.7660
   43TMC2     H  673   0.624   0.652   0.302  4.3397 -0.6658  0.1885
   43TMC2    H1  674   0.741   1.004   0.499  1.2250 -1.2146 -1.6691
   43TMC2    H2  675   0.591   0.677   0.720 -2.1326  1.6087  0.3043
   43TMC2    C7  676   0.789   0.861   0.707 -0.0984 -0.7203 -0.2170
   43TMC2    C8  677   0.612   0.516   0.530  0.2867 -0.5441  0.2204
   43TMC2    O1  678   0.824   0.753   0.752  0.1361  0.2597  0.4798
   43TMC2    O2  679   0.706   0.446   0.496  0.1797  0.0654 -0.3596
   43TMC2    O5  680   0.504   0.475   0.599  0.5611 -0.2662  0.0043
   43TMC2    H5  681   0.425   0.533   0.594  1.3060  0.8560  1.3104
   44MPD2     C  682   0.935   1.288   0.002 -0.3136  0.0724 -0.6191
   44MPD2    C1  683   0.967   1.154   0.005  0.3073  0.1987 -0.2980
   44MPD2    C2  684   0.886   1.062   0.075  0.6460  0.5359 -0.5008
   44MPD2    C3  685   0.788   1.110   0.159 -0.1026 -0.9934  0.0682
   44MPD2    C4  686   0.757   1.238   0.161 -0.6491 -0.0696  0.1640
   44MPD2    C5  687   0.826   1.328   0.078 -0.8179  0.8001 -0.1813
   44MPD2     H  688   0.913   0.957   0.077 -2.6245 -0.2637  1.2799
   44MPD2    H1  689   0.677   1.266   0.228 -2.4313  0.4017 -2.1638
   44MPD2    H2  690   0.992   1.354  17.686 -2.4800  2.7718  0.2340
   44MPD2    H3  691   0.794   1.431   0.078 -3.1002  0.0900 -0.0571
   44MPD2     N  692   0.723   1.032   0.254 -0.2411  0.2695  0.5187
   44MPD2    H5  693   0.675   1.089   0.323 -1.5552 -1.3410  0.9271
   44MPD2    N1  694   1.083   1.098  17.697  0.5257  0.5595 -0.0627
   44MPD2    H7  695   1.093   0.998  17.711  0.6743  0.6998  0.8169
   45TMC2    C1  696   1.615   3.978   9.679  0.3611  0.4997 -0.8846
   45TMC2    C2  697   1.475   3.993   9.686 -0.0206 -0.1856  0.2028
   45TMC2    C3  698   1.425   4.078   9.782  0.1428 -0.6890  0.4238
   45TMC2    C4  699   1.693   4.060   9.757 -0.7338  0.1619 -0.6629
   45TMC2    C5  700   1.640   4.144   9.846  0.4829 -0.3033 -0.0978
   45TMC2    C6  701   1.506   4.154   9.860 -0.3574 -0.0499  0.5791
   45TMC2     C  702   1.672   3.868   9.607 -0.0644 -0.1444 -0.0185
   45TMC2     O  703   1.785   3.887   9.565  0.2852  0.4766  0.0044
   45TMC2     H  704   1.402   3.941   9.625 -1.6068 -0.5798  2.4333
   45TMC2    H1  705   1.800   4.061   9.740 -0.8432 -2.2151 -1.4419
   45TMC2    H2  706   1.473   4.204   9.950 -2.3420  0.6667 -0.5487
   45TMC2    C7  707   1.725   4.238   9.914 -0.4613  0.9839  0.0605
   45TMC2    C8  708   1.285   4.098   9.790 -0.0498  0.1282 -0.4769
   45TMC2    O1  709   1.688   4.286  10.020 -0.3192  0.1716 -0.4082
   45TMC2    O2  710   1.211   4.006   9.751  0.2551 -0.4514  0.4999
   45TMC2    O5  711   1.259   4.231   9.783  0.1169 -0.6269 -0.3838
   45TMC2    H5  712   1.337   4.290   9.778  0.4663 -0.8745  2.1426
   46MPD2     C  713   1.734   3.635   9.444 -0.4293  0.0508 -0.0632
   46MPD2    C1  714   1.609   3.656   9.503  1.2058  0.3006 -0.7436
   46MPD2    C2  715   1.515   3.560   9.517 -0.4153  0.6433 -0.3351
   46MPD2    C3  716   1.536   3.438   9.465 -0.3728  0.5050  0.4807
   46MPD2    C4  717   1.658   3.409   9.404  0.1291  0.5668 -0.4715
   46MPD2    C5  718   1.748   3.513   9.384  0.8234 -0.1826  0.3013
   46MPD2     H  719   1.419   3.586   9.561 -0.8956 -0.2355 -0.8695
   46MPD2    H1  720   1.680   3.321   9.345 -1.3016 -0.5733  0.6669
   46MPD2    H2  721   1.817   3.704   9.438  0.0405 -0.6269 -1.5141
   46MPD2    H3  722   1.838   3.499   9.326  0.1774  0.5422 -0.8594
   46MPD2     N  723   1.421   3.344   9.481 -0.3614  1.0659  0.2115
   46MPD2    H5  724   1.336   3.379   9.522  1.0889  4.6458  0.2275
   46MPD2    N1  725   1.577   3.774   9.572 -0.9825 -0.7284 -0.2079
   46MPD2    H7  726   1.486   3.780   9.617 -0.8219  1.1631 -0.1250
   47TMC2    C1  727   4.025   4.560   9.412  0.7189 -0.5796 -0.0337
   47TMC2    C2  728   4.028   4.667   9.332 -0.3701  0.4379  0.5770
   47TMC2    C3  729   3.924   4.700   9.251  0.2120  0.6301  0.2959
   47TMC2    C4  730   3.909   4.487   9.427 -0.7288 -0.3279 -0.9896
   47TMC2    C5  731   3.804   4.527   9.351  1.3057  0.0962  0.0787
   47TMC2    C6  732   3.803   4.634   9.264  1.0112 -0.5112  0.3174
   47TMC2     C  733   4.158   4.514   9.451 -0.0350 -0.0060  0.0555
   47TMC2     O  734   4.248   4.584   9.407 -0.1092  0.8526 -0.0381
   47TMC2     H  735   4.113   4.734   9.331 -0.0205 -0.0450 -2.1278
   47TMC2    H1  736   3.905   4.391   9.479  1.3637 -0.0743 -0.3883
   47TMC2    H2  737   3.727   4.651   9.188  1.3603 -0.6751 -0.0657
   47TMC2    C7  738   3.670   4.500   9.411  0.4427 -0.3198 -0.1346
   47TMC2    C8  739   3.928   0.080   9.156 -0.2577 -0.5164 -0.3370
   47TMC2    O1  740   3.668   4.408   9.493 -0.1238  0.1700 -0.1486
   47TMC2    O2  741   3.846   0.084   9.063 -0.0378  0.2973  0.1115
   47TMC2    O5  742   3.988   0.184   9.206  0.3874  0.0356  0.3371
   47TMC2    H5  743   4.025   0.166   9.295 -0.8042  1.2052  1.0800
   48MPD2     C  744   4.372   4.417   9.612  0.2646 -0.2879  0.2920
   48MPD2    C1  745   4.269   4.335   9.579 -0.9439  0.4701  0.4192
   48MPD2    C2  746   4.274   4.205   9.617  0.1125  0.1059  0.4202
   48MPD2    C3  747   4.378   4.157   9.693  0.3733 -0.1234  0.6062
   48MPD2    C4  748   4.480   4.238   9.731  1.0423 -0.0531  0.4790
   48MPD2    C5  749   4.475   4.370   9.684 -0.1936  0.5525  0.2524
   48MPD2     H  750   4.202   4.138   9.573 -0.1091  0.7399 -0.1754
   48MPD2    H1  751   4.568   4.214   9.789  0.5379 -1.4217  0.6810
   48MPD2    H2  752   4.370   4.524   9.597 -1.9752 -0.4542 -0.6097
   48MPD2    H3  753   4.553   4.439   9.711 -0.0486  1.1614 -1.6955
   48MPD2     N  754   4.376   4.021   9.724  0.4646 -0.3360  0.0194
   48MPD2    H5  755   4.288   3.974   9.706  0.1550 -0.0128  0.7050
   48MPD2    N1  756   4.165   4.386   9.495  0.2196 -0.0607 -0.4731
   48MPD2    H7  757   4.081   4.330   9.484 -1.2461  1.9707  0.3740
   49TMC2    C1  758   3.389   1.813  10.809 -0.3748  0.2394  0.0112
   49TMC2    C2  759   3.490   1.887  10.874 -0.3064 -0.9238 -0.5747
   49TMC2    C3  760   3.527   2.000  10.816 -0.1535 -0.4808  0.3062
   49TMC2    C4  761   3.350   1.845  10.684  0.3229  0.3210  0.1206
   49TMC2    C5  762   3.394   1.967  10.634 -0.7093 -0.6798  0.3151
   49TMC2    C6  763   3.473   2.050  10.705 -0.3754 -0.3812  1.0385
   49TMC2     C  764   3.357   1.680  10.858 -0.6234  0.2643  0.0543
   49TMC2     O  765   3.442   1.629  10.925  0.2642  0.0197 -0.3635
   49TMC2     H  766   3.515   1.870  10.978  1.1261  2.0144 -0.4343
   49TMC2    H1  767   3.298   1.773  10.623 -1.5978  0.7579  1.2301
   49TMC2    H2  768   3.500   2.150  10.672 -0.8319 -0.4595  0.4125
   49TMC2    C7  769   3.341   2.019  10.516 -0.5673 -0.2443 -0.0149
   49TMC2    C8  770   3.596   2.101  10.900 -0.2128 -0.2060  0.3213
   49TMC2    O1  771   3.378   2.129  10.474  0.7179 -0.3166 -0.1975
   49TMC2    O2  772   3.607   2.088  11.023  0.0806 -0.1402 -0.3527
   49TMC2    O5  773   3.684   2.157  10.817 -0.1976  0.5497  0.2746
   49TMC2    H5  774   3.677   2.118  10.727 -0.8359  0.9897  0.1390
   50MPD2     C  775   3.225   1.438  10.975 -0.1446  0.5367 -0.2556
   50MPD2    C1  776   3.175   1.512  10.870  0.0684 -0.1028 -1.0137
   50MPD2    C2  777   3.056   1.481  10.806 -0.5210  0.0226 -0.6856
   50MPD2    C3  778   2.974   1.387  10.865 -0.5253 -0.4689  0.4410
   50MPD2    C4  779   3.016   1.319  10.976  0.2321  0.4342  0.1320
   50MPD2    C5  780   3.144   1.343  11.026  0.0166  0.2736 -0.0597
   50MPD2     H  781   3.035   1.537  10.715 -0.3159  0.7790 -0.2712
   50MPD2    H1  782   2.953   1.249  11.030  0.9563 -0.5681 -0.3148
   50MPD2    H2  783   3.323   1.456  11.016  0.6134 -1.6978 -1.0385
   50MPD2    H3  784   3.170   1.286  11.115  0.6042 -1.0496 -1.0780
   50MPD2     N  785   2.854   1.349  10.821 -0.4546 -0.1479  0.4559
   50MPD2    H5  786   2.805   1.283  10.880 -1.8703 -0.5467 -1.1767
   50MPD2    N1  787   3.236   1.627  10.825  0.0186 -0.3100 -0.1974
   50MPD2    H7  788   3.187   1.672  10.748  0.4758 -0.5295 -0.6165
   51TMC2    C1  789   1.658   0.391   0.782 -0.3337  0.1115 -0.3130
   51TMC2    C2  790   1.647   0.519   0.824  0.1566  0.1459  0.2805
   51TMC2    C3  791   1.727   0.614   0.767 -0.1028 -0.1089 -0.2376
   51TMC2    C4  792   1.743   0.358   0.684  0.1819  0.2332  0.4020
   51TMC2    C5  793   1.799   0.459   0.617 -0.6070 -0.1282  0.2711
   51TMC2    C6  794   1.799   0.588   0.658 -0.2314 -0.3015  0.1165
   51TMC2     C  795   1.578   0.285   0.835  0.3288 -0.2040 -0.0597
   51TMC2     O  796   1.591   0.179   0.778  0.0605 -0.0829 -0.1889
   51TMC2     H  797   1.594   0.543   0.916  0.1611 -0.4966  0.4476
   51TMC2    H1  798   1.764   0.258   0.651 -0.8801  0.0218  0.3560
   51TMC2    H2  799   1.875   0.659   0.630 -0.5808  0.6864  1.6534
   51TMC2    C7  800   1.908   0.429   0.530 -0.7084  0.0231 -0.5957
   51TMC2    C8  801   1.727   0.751   0.813  1.3264  0.1339 -0.5083
   51TMC2    O1  802   1.994   0.514   0.504  0.8740  0.0287  0.3604
   51TMC2    O2  803   1.678   0.789   0.920 -0.3680  0.2117  0.6376
   51TMC2    O5  804   1.710   0.818   0.694  0.2214 -0.6357 -0.4502
   51TMC2    H5  805   1.724   0.757   0.619 -0.5823 -0.7346 -0.5296
   52MPD2     C  806   1.234   0.065   1.145 -0.1525  0.1313 -0.1457
   52MPD2    C1  807   1.309   0.008   1.042 -0.2583  0.1371  0.5495
   52MPD2    C2  808   1.396   0.089   0.973  0.3486 -0.3426  0.0979
   52MPD2    C3  809   1.417   0.220   1.013  0.0239 -0.2200  0.3028
   52MPD2    C4  810   1.341   0.273   1.118  0.0873 -0.4644  0.2926
   52MPD2    C5  811   1.248   0.198   1.181 -0.4851 -0.0680  0.3590
   52MPD2     H  812   1.454   0.050   0.890 -0.8582  3.1023 -2.3607
   52MPD2    H1  813   1.336   0.380   1.134 -0.5151 -0.5373  0.5681
   52MPD2    H2  814   1.149   0.015   1.189 -0.5921  1.5871  0.6307
   52MPD2    H3  815   1.175   0.243   1.248 -0.8839  3.2070 -2.2528
   52MPD2     N  816   1.499   0.317   0.945 -0.6946  0.3196  0.2164
   52MPD2    H5  817   1.496   0.412   0.980  0.6652 -0.0965  1.4962
   52MPD2    N1  818   1.307   4.611   0.998 -0.0416  0.3622  0.4847
   52MPD2    H7  819   1.357   4.592   0.912  1.1383 -2.9683  1.9191
   53TMC2    C1  820   3.111   2.600  11.883 -0.2901 -0.5475  0.0148
   53TMC2    C2  821   3.163   2.482  11.921 -0.5351  0.1242 -0.5285
   53TMC2    C3  822   3.111   2.419  12.029 -0.1217  0.0067  0.4052
   53TMC2    C4  823   3.020   2.657  11.968 -0.3876 -0.0077  0.7764
   53TMC2    C5  824   2.965   2.594  12.077  0.2958  0.5126 -0.4325
   53TMC2    C6  825   3.006   2.469  12.108  0.2264 -0.2947  0.1746
   53TMC2     C  826   3.176   2.670  11.785  0.5737 -0.2082  0.2064
   53TMC2     O  827   3.296   2.669  11.776  0.1065  0.0888  0.1266
   53TMC2     H  828   3.240   2.434  11.861  0.7319  0.4491  0.8712
   53TMC2    H1  829   2.998   2.762  11.949  0.9727  0.0578 -0.4532
   53TMC2    H2  830   2.939   2.407  12.167  0.4429 -0.0627  0.6671
   53TMC2    C7  831   2.854   2.661  12.134 -0.0771  0.0611  0.0476
   53TMC2    C8  832   3.150   2.290  12.077  0.4476  0.7935  0.1099
   53TMC2    O1  833   2.801   2.758  12.075  0.3679 -0.0148 -0.2072
   53TMC2    O2  834   3.202   2.202  12.005  0.1674  0.3846  0.4108
   53TMC2    O5  835   3.161   2.293  12.209 -0.2176  0.4900  0.6482
   53TMC2    H5  836   3.145   2.385  12.241 -4.0168  0.0987 -0.1054
   54MPD2     C  837   3.245   2.898  11.612 -0.3302 -0.1035  0.1478
   54MPD2    C1  838   3.116   2.846  11.621  0.0798  0.0850 -0.0581
   54MPD2    C2  839   3.014   2.920  11.559  0.5976 -0.2328  0.1928
   54MPD2    C3  840   3.043   3.014  11.469 -0.4272 -0.0356  0.5866
   54MPD2    C4  841   3.171   3.048  11.445  0.0614  0.0865 -0.3450
   54MPD2    C5  842   3.278   2.998  11.518  0.3384 -0.5502 -0.0827
   54MPD2     H  843   2.913   2.887  11.578 -0.1899  1.3398 -1.2685
   54MPD2    H1  844   3.202   3.118  11.369 -1.6386 -1.0282 -2.0903
   54MPD2    H2  845   3.333   2.875  11.672  1.0467  0.5432 -1.6350
   54MPD2    H3  846   3.381   3.027  11.499  0.3295 -0.7409 -0.4283
   54MPD2     N  847   2.940   3.088  11.403 -0.9501 -0.1513 -0.5927
   54MPD2    H5  848   2.960   3.174  11.354 -0.9544 -0.6400 -1.4574
   54MPD2    N1  849   3.083   2.744  11.718 -0.3306 -0.0773 -0.1662
   54MPD2    H7  850   2.984   2.725  11.730  0.1001  0.7622  4.8581
   55TMC2    C1  851   3.528   1.526   0.270  0.1990 -0.4341  0.2157
   55TMC2    C2  852   3.605   1.629   0.230  0.5736 -0.1964 -0.0351
   55TMC2    C3  853   3.739   1.609   0.220  0.4274 -0.1145  0.2474
   55TMC2    C4  854   3.576   1.408   0.310 -1.0721 -0.4325  0.2521
   55TMC2    C5  855   3.709   1.387   0.289 -0.3767 -0.0904 -0.1055
   55TMC2    C6  856   3.791   1.485   0.254  0.0316  0.1344 -0.6249
   55TMC2     C  857   3.390   1.549   0.285 -0.0192  0.6296 -0.3203
   55TMC2     O  858   3.338   1.492   0.379 -0.6299 -0.5471  0.0442
   55TMC2     H  859   3.571   1.728   0.203  1.2480  0.2830  0.8877
   55TMC2    H1  860   3.508   1.327   0.332  0.7653 -2.2176 -0.5891
   55TMC2    H2  861   3.898   1.468   0.242 -0.1622 -1.1973 -0.4345
   55TMC2    C7  862   3.772   1.263   0.324 -0.1966 -0.4036 -0.4194
   55TMC2    C8  863   3.817   1.718   0.190  0.2301 -0.2739 -0.2853
   55TMC2    O1  864   3.895   1.268   0.311 -0.7787  0.8635  0.3153
   55TMC2    O2  865   3.788   1.836   0.212  0.2230  0.2314  0.4439
   55TMC2    O5  866   3.901   1.682   0.095 -0.3518  0.2115 -0.3283
   55TMC2    H5  867   3.895   1.589   0.066 -0.5909  0.2498 -0.4040
   56MPD2     C  868   3.185   1.779   0.099 -0.4597 -0.5281 -0.6072
   56MPD2    C1  869   3.206   1.684   0.188 -0.2958  0.1118 -0.4470
   56MPD2    C2  870   3.095   1.620   0.245  0.2643  0.0321 -0.5603
   56MPD2    C3  871   2.962   1.653   0.214 -0.4507  0.8105  0.5403
   56MPD2    C4  872   2.944   1.759   0.128  0.2337  0.2085  0.2007
   56MPD2    C5  873   3.058   1.814   0.072 -0.9222  0.2806  0.6217
   56MPD2     H  874   3.117   1.545   0.320  0.6808  0.5964 -0.1260
   56MPD2    H1  875   2.847   1.795   0.095 -0.5096 -0.5032  1.6302
   56MPD2    H2  876   3.267   1.832   0.051 -1.2453  0.8889 -0.3909
   56MPD2    H3  877   3.043   1.896   0.002 -1.0138  1.2866  1.8002
   56MPD2     N  878   2.859   1.565   0.257  0.7202 -0.0265  0.3990
   56MPD2    H5  879   2.885   1.479   0.303  1.4272 -0.0408 -0.0323
   56MPD2    N1  880   3.338   1.653   0.211  0.2814 -0.1568 -0.3049
   56MPD2    H7  881   3.411   1.703   0.161  0.5952  1.5096  1.8118
   57TMC2    C1  882   3.015   1.860  13.874  0.3684 -0.0653 -0.1693
   57TMC2    C2  883   3.087   1.833  13.981  0.5626  0.3835  0.0886
   57TMC2    C3  884   3.184   1.742  13.979 -0.4571  0.0466  0.4201
   57TMC2    C4  885   3.046   1.806  13.753 -0.5460  0.2323 -1.0150
   57TMC2    C5  886   3.132   1.703  13.758  0.5500 -0.0212  0.1264
   57TMC2    C6  887   3.205   1.670  13.868  0.4492  0.0328 -0.8097
   57TMC2     C  888   2.867   1.864  13.904 -0.6205  0.1737  0.2920
   57TMC2     O  889   2.830   1.945  13.986 -0.1065  0.1156 -0.0440
   57TMC2     H  890   3.050   1.867  14.077 -0.6150 -2.1855  0.5450
   57TMC2    H1  891   2.983   1.825  13.667 -0.5064  2.1019 -0.6272
   57TMC2    H2  892   3.258   1.576  13.871  0.6727  0.2453  1.7019
   57TMC2    C7  893   3.076   1.593  13.687  0.0553 -0.5705 -0.2466
   57TMC2    C8  894   3.217   1.683  14.107 -0.0428 -0.0814  0.0171
   57TMC2    O1  895   2.956   1.590  13.667  0.4613  0.3803  0.2586
   57TMC2    O2  896   3.149   1.695  14.208  0.2758  0.7934 -0.3293
   57TMC2    O5  897   3.353   1.675  14.113  0.9040  0.5015 -0.4171
   57TMC2    H5  898   3.397   1.655  14.027 -0.7591 -2.2830 -0.6426
   58MPD2     C  899   2.401   1.781  13.711  0.0812 -0.7057  0.2632
   58MPD2    C1  900   2.444   1.888  13.789 -0.2373  0.2113  0.2559
   58MPD2    C2  901   2.576   1.878  13.835 -0.3549 -0.1413  0.0586
   58MPD2    C3  902   2.665   1.781  13.790  0.5484  0.7347  0.7182
   58MPD2    C4  903   2.619   1.688  13.708  0.0538  0.7353  0.4619
   58MPD2    C5  904   2.487   1.681  13.667 -0.2256  0.4426  0.8513
   58MPD2     H  905   2.614   1.953  13.903 -0.3866 -0.6945  0.6817
   58MPD2    H1  906   2.683   1.603  13.688  1.5421  1.9183  0.2715
   58MPD2    H2  907   2.296   1.765  13.690 -0.2237 -0.2666  1.4968
   58MPD2    H3  908   2.442   1.597  13.614  2.0016 -0.3598  0.2223
   58MPD2     N  909   2.799   1.779  13.817 -0.1748 -0.0154 -0.0670
   58MPD2    H5  910   2.867   1.716  13.775  0.2516 -0.1951  0.9073
   58MPD2    N1  911   2.355   1.997  13.827 -0.1199  0.2010 -0.0739
   58MPD2    H7  912   2.396   2.068  13.887  1.1225  1.4283 -2.3668
   59TMC2    C1  913   0.202   1.737  12.904 -0.1434 -0.4996 -0.6869
   59TMC2    C2  914   0.184   1.608  12.863 -0.0084  0.4410  1.1123
   59TMC2    C3  915   0.240   1.567  12.745 -0.0577  0.1326  0.1476
   59TMC2    C4  916   0.251   1.830  12.817  0.3731  0.4327 -0.0791
   59TMC2    C5  917   0.292   1.787  12.692 -0.3597  0.2476 -0.4437
   59TMC2    C6  918   0.289   1.657  12.658  0.2578 -0.2198 -0.0828
   59TMC2     C  919   0.207   1.752  13.043 -0.1073  0.6918 -0.3168
   59TMC2     O  920   0.108   1.716  13.104  0.5878 -0.1245  0.2899
   59TMC2     H  921   0.135   1.533  12.924 -1.0928  1.8238  1.9486
   59TMC2    H1  922   0.267   1.933  12.847 -0.6345  0.4940  0.2561
   59TMC2    H2  923   0.326   1.621  12.562 -0.3405 -1.4290  0.1431
   59TMC2    C7  924   0.367   1.881  12.605 -0.5138  0.0160  0.1311
   59TMC2    C8  925   0.182   1.445  12.705  0.2446 -0.3072 -0.0191
   59TMC2    O1  926   0.432   1.822  12.517  0.3382  0.2313  0.4508
   59TMC2    O2  927   0.064   1.413  12.713 -0.5980 -0.1263 -0.5785
   59TMC2    O5  928   0.256   1.410  12.603 -0.0103 -0.2159 -0.0535
   59TMC2    H5  929   0.349   1.440  12.606  0.3382 -1.2544 -0.5478
   60MPD2     C  930   0.249   1.879  13.312  1.2898  0.3811 -0.6667
   60MPD2    C1  931   0.340   1.878  13.206  0.2967  0.4829 -0.2703
   60MPD2    C2  932   0.456   1.955  13.231  0.3169 -0.7872 -0.0911
   60MPD2    C3  933   0.480   2.016  13.357 -0.4184  0.0045 -0.1050
   60MPD2    C4  934   0.390   2.006  13.458 -0.3923 -0.3132  0.3730
   60MPD2    C5  935   0.275   1.943  13.428  0.5018  0.4324  0.2620
   60MPD2     H  936   0.541   1.941  13.166  1.4274  0.5214  1.0554
   60MPD2    H1  937   0.409   2.058  13.551 -0.1392 -0.1770  0.2458
   60MPD2    H2  938   0.149   1.843  13.294  0.6339 -0.3268  4.3626
   60MPD2    H3  939   0.194   1.962  13.497 -0.2795 -1.8437 -0.0167
   60MPD2     N  940   0.596   2.092  13.397 -0.1795  0.2636 -0.2328
   60MPD2    H5  941   0.599   2.125  13.493 -1.6044 -0.5996  0.1092
   60MPD2    N1  942   0.314   1.827  13.084 -0.8977 -0.2294  0.6830
   60MPD2    H7  943   0.386   1.845  13.015 -0.7288  2.3757  1.5118
   61TMC2    C1  944   4.605   3.157  15.856  0.2582 -0.4827  0.5228
   61TMC2    C2  945   4.515   3.053  15.860 -0.1918  0.4058 -0.0154
   61TMC2    C3  946   4.378   3.081  15.850  0.2337  0.9853 -0.1014
   61TMC2    C4  947   4.565   3.291  15.857  0.3516 -0.2264  0.1583
   61TMC2    C5  948   4.430   3.311  15.857  0.7382  0.4421  0.1279
   61TMC2    C6  949   4.344   3.213  15.846 -0.0455 -0.3106 -0.0775
   61TMC2     C  950   4.727   3.122  15.796  0.4121 -0.0012  0.3723
   61TMC2     O  951   0.043   3.014  15.815  0.4307  0.2383 -0.3750
   61TMC2     H  952   4.547   2.949  15.854 -0.5767  0.2596  0.4855
   61TMC2    H1  953   4.636   3.373  15.864  1.4191 -1.3403  2.2564
   61TMC2    H2  954   4.238   3.229  15.830  0.4814  2.0643 -1.0791
   61TMC2    C7  955   4.396   3.448  15.836 -0.7015 -0.2286  0.1798
   61TMC2    C8  956   4.298   2.981  15.773  0.2876 -0.2920 -0.5265
   61TMC2    O1  957   4.489   3.522  15.808 -0.2000  0.0381  0.2659
   61TMC2    O2  958   4.314   2.951  15.655  0.1672  0.0307 -0.2838
   61TMC2    O5  959   4.176   2.996  15.822  0.7966 -0.5071  0.1120
   61TMC2    H5  960   4.183   3.019  15.917  0.0642  0.9243 -0.1829
   62MPD2     C  961   0.193   3.111  15.573 -0.9856 -0.2371 -0.4366
   62MPD2    C1  962   0.091   3.209  15.588  0.3845  0.4422 -0.5005
   62MPD2    C2  963   0.100   3.319  15.502 -0.0048 -0.1016 -0.0882
   62MPD2    C3  964   0.202   3.327  15.404  0.6703 -0.6151 -0.2456
   62MPD2    C4  965   0.295   3.232  15.391 -0.0150 -0.1196  0.5758
   62MPD2    C5  966   0.289   3.119  15.471  0.1984 -0.1527  0.7201
   62MPD2     H  967   0.024   3.396  15.501 -1.1514 -1.2548 -1.5159
   62MPD2    H1  968   0.370   3.247  15.313 -3.1296  0.0763 -2.3994
   62MPD2    H2  969   0.206   3.034  15.648 -1.4816 -0.1009 -0.2133
   62MPD2    H3  970   0.365   3.042  15.461 -0.0151 -0.5564  2.2144
   62MPD2     N  971   0.193   3.446  15.324  0.1836 -0.9738 -0.0432
   62MPD2    H5  972   0.103   3.492  15.328  1.3477  1.4081 -0.8293
   62MPD2    N1  973   0.004   3.215  15.693 -0.1295 -1.2334 -0.4078
   62MPD2    H7  974   4.680   3.295  15.696 -1.5906 -2.3375 -0.8387
   63TMC2    C1  975   4.433   3.784  10.717  0.4950 -0.3301 -0.6071
   63TMC2    C2  976   4.540   3.798  10.799 -0.1152 -0.1380  0.5440
   63TMC2    C3  977   4.630   3.892  10.777  0.3379  0.5072  0.3993
   63TMC2    C4  978   4.428   3.857  10.599 -0.0052 -0.8759 -0.3777
   63TMC2    C5  979   4.510   3.962  10.582 -0.4186 -0.7779 -0.1136
   63TMC2    C6  980   4.613   3.981  10.670  0.0318 -0.7370  0.7842
   63TMC2     C  981   4.358   3.666  10.748  0.3153  0.3831  0.2980
   63TMC2     O  982   4.413   3.568  10.798 -0.0401  0.0567  0.3005
   63TMC2     H  983   4.546   3.739  10.889  2.5059 -0.9460 -0.1572
   63TMC2    H1  984   4.348   3.839  10.528  0.7255  0.1359 -1.4467
   63TMC2    H2  985   4.682   4.065  10.664 -0.1009 -0.4666  2.8323
   63TMC2    C7  986   4.444   4.076  10.519  0.2568 -0.0209 -0.3807
   63TMC2    C8  987   4.700   3.942  10.893 -0.1949  0.9501  0.2867
   63TMC2    O1  988   4.326   4.060  10.494 -0.5141 -0.2817 -0.1560
   63TMC2    O2  989   4.712   4.063  10.907  0.3748 -0.1202 -0.5981
   63TMC2    O5  990   0.014   3.846  10.970  0.2491  0.3353 -0.7986
   63TMC2    H5  991   0.005   3.759  10.926 -0.6800 -0.5678  1.1811
   64MPD2     C  992   3.929   3.385  10.759 -0.0965  0.0591  0.2903
   64MPD2    C1  993   4.062   3.351  10.773 -0.6376 -0.6152  0.0401
   64MPD2    C2  994   4.161   3.445  10.765 -0.0660  0.1453  0.2776
   64MPD2    C3  995   4.128   3.578  10.737 -0.2633  0.1060 -0.1151
   64MPD2    C4  996   3.999   3.609  10.721  0.3817  0.0966  0.0207
   64MPD2    C5  997   3.901   3.513  10.724  0.6513 -0.1911 -0.1152
   64MPD2     H  998   4.265   3.414  10.775 -0.1966 -0.4384 -0.1609
   64MPD2    H1  999   3.958   3.706  10.695 -0.6590 -0.3513  0.0345
   64MPD2    H2 1000   3.848   3.313  10.756  1.1692 -1.3859  0.8880
   64MPD2    H3 1001   3.798   3.547  10.712  0.5958 -0.2443  0.2327
   64MPD2     N 1002   4.221   3.682  10.719 -0.4422 -0.3708  0.2679
   64MPD2    H5 1003   4.188   3.775  10.696 -1.7191 -0.2883  2.4472
   64MPD2    N1 1004   4.103   3.213  10.795  0.1434 -0.3756  0.3561
   64MPD2    H7 1005   4.203   3.195  10.790 -0.0448 -1.6222  0.8848
   65TMC2    C1 1006   0.820   3.400  15.843  0.8236  0.3291 -0.2381
   65TMC2    C2 1007   0.848   3.368  15.711  0.7736  0.0626  0.2609
   65TMC2    C3 1008   0.821   3.457  15.618 -0.1325 -0.0482 -0.2425
   65TMC2    C4 1009   0.756   3.516  15.880  0.3816  0.4978 -0.6926
   65TMC2    C5 1010   0.732   3.605  15.781 -0.4524  0.1526  0.6939
   65TMC2    C6 1011   0.757   3.573  15.650  0.6302 -0.0758  0.7043
   65TMC2     C 1012   0.852   3.310  15.955  0.7110  0.1821 -0.5665
   65TMC2     O 1013   0.861   3.356  16.068  0.7973 -0.2411  0.7065
   65TMC2     H 1014   0.907   3.282  15.680 -0.7781 -0.2524 -1.7780
   65TMC2    H1 1015   0.741   3.535  15.985  1.1768 -2.6473 -0.0288
   65TMC2    H2 1016   0.714   3.636  15.574  0.8482  1.0723  1.5275
   65TMC2    C7 1017   0.658   3.723  15.807 -0.4779  0.7558  0.9231
   65TMC2    C8 1018   0.896   3.444  15.495  0.1421 -0.6780  0.9751
   65TMC2    O1 1019   0.682   3.812  15.723 -0.1968  0.1979  0.1298
   65TMC2    O2 1020   0.945   3.336  15.462 -0.2248 -0.0923  0.3492
   65TMC2    O5 1021   0.881   3.557  15.418 -0.5139 -0.1377 -0.2822
   65TMC2    H5 1022   0.862   3.640  15.467 -1.8705 -1.1676  0.9640
   66MPD2     C 1023   0.959   3.067  16.098 -0.4432  0.2055 -0.0886
   66MPD2    C1 1024   0.876   3.069  15.990  0.0072  0.5740  0.8918
   66MPD2    C2 1025   0.810   2.956  15.944 -0.1117  0.6518 -0.3008
   66MPD2    C3 1026   0.825   2.839  16.015  0.1543  0.1413 -1.0883
   66MPD2    C4 1027   0.895   2.844  16.130  0.3948  0.4569 -0.3940
   66MPD2    C5 1028   0.968   2.953  16.168 -0.3347  0.4937 -0.0788
   66MPD2     H 1029   0.742   2.977  15.863 -0.5074 -0.7524 -0.3230
   66MPD2    H1 1030   0.896   2.755  16.191 -2.3117  1.4286  1.0869
   66MPD2    H2 1031   0.995   3.164  16.130  1.3423 -0.9442  1.3874
   66MPD2    H3 1032   1.044   2.952  16.246  1.2748  1.1210 -1.6268
   66MPD2     N 1033   0.757   2.713  15.985 -0.1648  0.0260 -0.3433
   66MPD2    H5 1034   0.742   2.642  16.055 -0.9284  0.1659 -0.3627
   66MPD2    N1 1035   0.857   3.180  15.910  0.1448  0.1365  0.1772
   66MPD2    H7 1036   0.814   3.172  15.818  0.1386 -1.6715  0.3350
   67TMC2    C1 1037   0.850   2.543  14.610  0.1132 -0.1875  0.1405
   67TMC2    C2 1038   0.748   2.618  14.656  0.4807  0.4213 -0.0228
   67TMC2    C3 1039   0.757   2.678  14.775  0.4005 -0.2286 -0.0647
   67TMC2    C4 1040   0.972   2.541  14.679 -0.1150  0.4172 -0.1419
   67TMC2    C5 1041   0.977   2.623  14.791  0.2465 -0.2862  0.3625
   67TMC2    C6 1042   0.870   2.682  14.854 -0.7027  0.3099  0.1380
   67TMC2     C 1043   0.831   2.456  14.492  0.5719  0.6417 -0.7134
   67TMC2     O 1044   0.908   2.366  14.488  0.1462 -0.1298  0.3366
   67TMC2     H 1045   0.650   2.618  14.609  0.1648  1.2267  0.6364
   67TMC2    H1 1046   1.050   2.471  14.652  1.0721  1.4410  0.6210
   67TMC2    H2 1047   0.883   2.751  14.936 -1.9847 -0.2482  0.8188
   67TMC2    C7 1048   1.109   2.653  14.844  0.3208  0.1538  0.4335
   67TMC2    C8 1049   0.635   2.727  14.822 -0.6418  0.1762 -0.0048
   67TMC2    O1 1050   1.197   2.630  14.764 -0.1483  0.3733  0.2599
   67TMC2    O2 1051   0.570   2.802  14.753 -0.0388 -0.8438 -0.0509
   67TMC2    O5 1052   0.639   2.719  14.957  0.2588  0.4529 -0.6511
   67TMC2    H5 1053   0.704   2.652  14.988  0.6197  0.5942 -1.1066
   68MPD2     C 1054   0.729   2.308  14.252  0.7983  1.3297 -0.8270
   68MPD2    C1 1055   0.665   2.413  14.316 -0.0877  0.5078 -0.9929
   68MPD2    C2 1056   0.539   2.452  14.274 -0.4414 -0.7604 -0.6606
   68MPD2    C3 1057   0.476   2.388  14.171 -0.7996  0.1936 -0.5362
   68MPD2    C4 1058   0.538   2.285  14.113 -0.1393 -0.2677 -0.3533
   68MPD2    C5 1059   0.659   2.244  14.154 -0.2661  0.0746 -0.0123
   68MPD2     H 1060   0.486   2.539  14.312 -1.2209 -0.9395 -1.3538
   68MPD2    H1 1061   0.485   2.232  14.034  1.1327 -1.4318 -0.4406
   68MPD2    H2 1062   0.826   2.269  14.281  0.3000 -0.1514 -1.1143
   68MPD2    H3 1063   0.704   2.166  14.093 -1.2095  0.0850 -0.7216
   68MPD2     N 1064   0.343   2.429  14.134 -0.3286 -0.4018  0.0209
   68MPD2    H5 1065   0.299   2.381  14.056 -0.0389  0.7313 -0.8504
   68MPD2    N1 1066   0.720   2.485  14.419  0.5659  0.3949  0.5954
   68MPD2    H7 1067   0.663   2.567  14.440  0.9008  0.6942  0.3221
   69TMC2    C1 1068   2.801   3.125  12.120 -0.9762  0.3197  0.2509
   69TMC2    C2 1069   2.742   3.034  12.031  0.0035 -0.6047 -0.2188
   69TMC2    C3 1070   2.799   3.022  11.910  0.1759  0.3957 -0.0377
   69TMC2    C4 1071   2.895   3.213  12.081 -0.0003 -0.7360  0.2987
   69TMC2    C5 1072   2.955   3.195  11.960  0.0606  0.0630 -0.3224
   69TMC2    C6 1073   2.909   3.098  11.875 -0.7751  0.0919 -0.1440
   69TMC2     C 1074   2.761   3.117  12.261  0.3594  0.7631  0.2323
   69TMC2     O 1075   2.648   3.072  12.279 -0.4190  0.6447  0.5180
   69TMC2     H 1076   2.651   2.984  12.062 -0.5469 -0.6996 -1.9587
   69TMC2    H1 1077   2.923   3.293  12.149  0.7710 -1.6099  1.0049
   69TMC2    H2 1078   2.953   3.097  11.776 -1.2836 -1.7911 -0.3407
   69TMC2    C7 1079   3.056   3.284  11.917  0.7112 -0.1775 -0.1754
   69TMC2    C8 1080   2.730   2.951  11.803  0.2310 -0.0736  0.0956
   69TMC2    O1 1081   3.119   3.261  11.810  0.2541  0.0028 -0.3568
   69TMC2    O2 1082   2.680   3.014  11.712  0.1466  0.0855  0.1549
   69TMC2    O5 1083   2.665   2.847  11.874  0.5190  0.2780 -0.3640
   69TMC2    H5 1084   2.725   2.819  11.947  1.4853  1.3258 -0.7577
   70MPD2     C 1085   2.933   3.252  12.549  0.7819 -0.5527 -0.4749
   70MPD2    C1 1086   2.841   3.181  12.486  0.2441  0.0700 -0.6815
   70MPD2    C2 1087   2.725   3.143  12.552 -0.5434  0.0861 -0.3662
   70MPD2    C3 1088   2.717   3.161  12.687 -0.1877 -0.3625  0.0412
   70MPD2    C4 1089   2.824   3.215  12.751  0.2195 -1.0136 -0.3875
   70MPD2    C5 1090   2.934   3.267  12.685 -0.5755 -0.5096  0.5900
   70MPD2     H 1091   2.645   3.089  12.502  0.2480  0.0699 -1.6153
   70MPD2    H1 1092   2.831   3.218  12.859 -1.5259  0.8494 -0.3258
   70MPD2    H2 1093   3.018   3.294  12.497  1.9520 -0.7636  1.2846
   70MPD2    H3 1094   3.015   3.310  12.742  0.3995 -1.8241  0.1920
   70MPD2     N 1095   2.610   3.120  12.766  0.4011 -0.4003 -0.4732
   70MPD2    H5 1096   2.614   3.146  12.864 -0.7798  2.2496 -1.1311
   70MPD2    N1 1097   2.862   3.156  12.347  0.0735  0.7832 -0.2998
   70MPD2    H7 1098   2.949   3.188  12.306  2.2553 -0.4818  3.3285
   71TMC2    C1 1099   0.175   4.420   1.982 -0.3500 -0.7581  0.1936
   71TMC2    C2 1100   0.280   4.507   2.016 -0.8824  0.3719 -0.7391
   71TMC2    C3 1101   0.242   4.635   2.073  0.4426  0.2187 -1.0603
   71TMC2    C4 1102   0.041   4.453   2.001 -0.1322 -0.6726 -0.2672
   71TMC2    C5 1103   0.012   4.576   2.058  0.8447 -0.6424 -0.3519
   71TMC2    C6 1104   0.112   4.663   2.098  0.3076  0.1947  0.1656
   71TMC2     C 1105   0.206   4.314   1.893  0.6461  0.2347  0.3143
   71TMC2     O 1106   0.304   4.337   1.822 -0.8716 -0.2730 -0.1145
   71TMC2     H 1107   0.383   4.492   1.988 -0.3936 -0.3045  1.4087
   71TMC2    H1 1108   4.697   4.388   1.972  0.4152 -1.8451  0.8411
   71TMC2    H2 1109   0.079   0.023   2.132 -0.2964 -0.2193  0.7611
   71TMC2    C7 1110   4.611   4.626   2.068  0.2357  0.2748  0.3689
   71TMC2    C8 1111   0.352   4.723   2.108 -0.6520  1.1061 -0.3998
   71TMC2    O1 1112   4.593   4.718   2.141  0.5461 -0.0287 -0.3249
   71TMC2    O2 1113   0.467   4.689   2.084  0.8634 -0.7440 -0.2893
   71TMC2    O5 1114   0.311   0.095   2.180  0.0352 -0.3221  0.2587
   71TMC2    H5 1115   0.217   0.120   2.168 -0.4420 -2.3100 -0.1544
   72MPD2     C 1116   4.719   3.948   1.614  0.4412 -0.1361 -0.4938
   72MPD2    C1 1117   0.072   4.039   1.575  0.2356 -0.0488 -0.0224
   72MPD2    C2 1118   0.132   4.118   1.671 -0.7239  0.3053  0.4865
   72MPD2    C3 1119   0.094   4.109   1.804 -0.4022  0.0834  0.0001
   72MPD2    C4 1120   0.005   4.013   1.839 -0.5125 -0.1805 -0.0750
   72MPD2    C5 1121   4.687   3.935   1.746 -0.0514  0.4533 -0.3323
   72MPD2     H 1122   0.198   4.199   1.644 -2.2827  0.6962 -2.1668
   72MPD2    H1 1123   4.713   4.008   1.943  0.9652 -0.6325  0.3225
   72MPD2    H2 1124   4.684   3.881   1.536  0.6357 -1.2838  0.3867
   72MPD2    H3 1125   4.612   3.867   1.784 -1.3386  1.2977 -1.3433
   72MPD2     N 1126   0.120   4.204   1.907 -0.5204  0.1992 -0.2855
   72MPD2    H5 1127   0.059   4.203   1.988  2.4279  1.1573  1.9358
   72MPD2    N1 1128   0.122   4.042   1.445 -0.1918 -0.0040 -0.6198
   72MPD2    H7 1129   0.192   4.116   1.439 -1.7908  1.5419 -0.0813
   73TMC2    C1 1130   4.611   1.549  14.377 -0.5151  1.6383  0.2011
   73TMC2    C2 1131   4.655   1.594  14.496  0.4683 -0.5542  0.0166
   73TMC2    C3 1132   4.707   1.495  14.573 -0.0917 -0.6785  0.3742
   73TMC2    C4 1133   4.604   1.416  14.340 -0.1976 -0.2746  0.1632
   73TMC2    C5 1134   4.670   1.321  14.410  0.9707 -0.0466  0.2012
   73TMC2    C6 1135   4.712   1.360  14.534  0.5891 -0.0949  0.0153
   73TMC2     C 1136   4.600   1.645  14.271 -0.5193 -0.2231  0.0400
   73TMC2     O 1137   4.684   1.733  14.260  0.0695 -0.1927  1.0438
   73TMC2     H 1138   4.657   1.700  14.519  1.0259 -0.3479 -0.9970
   73TMC2    H1 1139   4.570   1.391  14.240  0.3144  0.7876 -0.2673
   73TMC2    H2 1140   0.040   1.296  14.593  0.0455 -1.1307 -0.5078
   73TMC2    C7 1141   0.044   1.256  14.341 -0.3279 -0.7579  0.6728
   73TMC2    C8 1142   0.007   1.527  14.705 -0.3113  0.3230 -0.2676
   73TMC2    O1 1143   0.124   1.182  14.397 -0.0945  0.9571 -0.3130
   73TMC2    O2 1144   0.097   1.605  14.725  0.0805 -0.1673 -0.5157
   73TMC2    O5 1145   4.730   1.425  14.781  0.3262  0.3679 -0.0897
   73TMC2    H5 1146   4.652   1.369  14.761  0.0182  1.1498 -1.1023
   74MPD2     C 1147   4.443   1.687  13.779  0.0506  0.6042 -0.7280
   74MPD2    C1 1148   4.565   1.705  13.835  0.0458 -0.1498 -0.2033
   74MPD2    C2 1149   4.584   1.692  13.973  0.2547  0.1050 -0.6875
   74MPD2    C3 1150   4.479   1.653  14.051  0.9641  0.8393  0.0917
   74MPD2    C4 1151   4.352   1.649  13.992 -0.6735  0.3763 -0.3027
   74MPD2    C5 1152   4.330   1.669  13.861  0.5028  0.2668  0.0854
   74MPD2     H 1153   4.686   1.708  14.005  0.7323  0.2359 -2.3001
   74MPD2    H1 1154   4.273   1.626  14.062  2.8629 -1.0528  3.2458
   74MPD2    H2 1155   4.430   1.698  13.672  1.4689 -0.9660 -1.0625
   74MPD2    H3 1156   4.231   1.659  13.818  0.6479  0.5123 -0.3059
   74MPD2     N 1157   4.484   1.627  14.191  0.2930  0.0985 -0.4369
   74MPD2    H5 1158   4.410   1.569  14.231 -1.3439  2.4737 -0.0428
   74MPD2    N1 1159   4.667   1.737  13.745 -0.0040 -0.5407 -0.0311
   74MPD2    H7 1160   4.641   1.768  13.652  0.1752 -0.5773 -0.0946
   75TMC2    C1 1161   0.114   2.507  14.168  0.3555 -0.2125 -1.1945
   75TMC2    C2 1162   0.025   2.465  14.259  0.1332  0.5105 -0.4736
   75TMC2    C3 1163   4.647   2.422  14.201 -0.3242  0.4463  0.1381
   75TMC2    C4 1164   0.097   2.504  14.029 -0.2191 -0.5916 -0.0438
   75TMC2    C5 1165   4.713   2.475  13.985  0.3602 -0.2526 -0.0209
   75TMC2    C6 1166   4.617   2.436  14.066 -0.6658  0.1084  0.1765
   75TMC2     C 1167   0.253   2.511  14.212  0.2241 -0.1923 -0.4418
   75TMC2     O 1168   0.266   2.531  14.332  0.4268  0.1723 -0.8136
   75TMC2     H 1169   0.045   2.475  14.366  1.2801  0.5262 -0.6925
   75TMC2    H1 1170   0.179   2.527  13.962  1.6714 -0.6375  2.2474
   75TMC2    H2 1171   4.517   2.416  14.029  0.5328  0.1675 -3.0800
   75TMC2    C7 1172   4.672   2.527  13.855 -0.4251  0.1571 -1.3977
   75TMC2    C8 1173   4.555   2.347  14.275  0.3970 -0.0902 -0.3532
   75TMC2    O1 1174   4.687   2.443  13.770 -0.2600  0.2369  0.0610
   75TMC2    O2 1175   4.436   2.352  14.265 -0.5643 -0.0080 -0.2608
   75TMC2    O5 1176   4.630   2.259  14.350  0.3864  0.1020  0.4608
   75TMC2    H5 1177   4.727   2.257  14.341  0.2179  0.9842 -1.5381
   76TMC2    C1 1178   4.236   2.641  12.276  0.4010  1.0336  0.0766
   76TMC2    C2 1179   4.372   2.655  12.286  0.3780  0.7800  0.3533
   76TMC2    C3 1180   4.430   2.621  12.404 -0.6335 -0.0332  0.3227
   76TMC2    C4 1181   4.159   2.606  12.382 -0.1912 -0.5420 -0.2390
   76TMC2    C5 1182   4.222   2.577  12.500  0.5762 -0.3398  0.3051
   76TMC2    C6 1183   4.361   2.582  12.515  0.5951 -0.1652  0.4446
   76TMC2     C 1184   4.165   2.694  12.161 -0.5869 -0.0852  0.5958
   76TMC2     O 1185   4.227   2.778  12.095 -0.5299 -0.4134 -0.3029
   76TMC2     H 1186   4.425   2.701  12.203  2.4212  0.7875  1.6568
   76TMC2    H1 1187   4.052   2.619  12.387 -0.2650 -2.6430  2.9595
   76TMC2    H2 1188   4.403   2.567  12.613 -2.8157 -1.0199  1.7857
   76TMC2    C7 1189   4.132   2.561  12.612  0.8430 -0.0131  0.4716
   76TMC2    C8 1190   4.574   2.581  12.403 -0.5283 -0.2748  0.2415
   76TMC2    O1 1191   4.023   2.511  12.598 -0.0857  0.0610 -0.2623
   76TMC2    O2 1192   4.614   2.530  12.507 -0.0972 -0.0688 -0.1464
   76TMC2    O5 1193   4.616   2.540  12.280  0.1625  0.1461  0.0471
   76TMC2    H5 1194   4.585   2.589  12.201 -1.7511  0.1651  0.8078
   77MPD2     C 1195   3.738   2.756  11.882  0.7157  0.5978 -0.5916
   77MPD2    C1 1196   3.843   2.840  11.903  0.1996 -0.1578  0.4128
   77MPD2    C2 1197   3.949   2.803  11.981 -0.0321  0.4912  0.1988
   77MPD2    C3 1198   3.952   2.680  12.044 -0.2727 -0.3290 -0.3046
   77MPD2    C4 1199   3.850   2.594  12.019  0.1752 -0.7046  0.2210
   77MPD2    C5 1200   3.748   2.629  11.934  0.3144  0.2628  0.1912
   77MPD2     H 1201   4.029   2.873  12.005  1.6288 -0.8400 -1.4715
   77MPD2    H1 1202   3.833   2.494  12.058  0.9608 -0.6686  0.6452
   77MPD2    H2 1203   3.649   2.789  11.830 -0.1845 -0.1738  0.4833
   77MPD2    H3 1204   3.666   2.561  11.914 -0.5824  1.1437  0.8618
   77MPD2     N 1205   4.046   2.626  12.137 -0.8321  0.0240  0.3306
   77MPD2    H5 1206   4.032   2.536  12.180 -0.5884  0.4668  1.3571
   77MPD2    N1 1207   3.832   2.969  11.849 -0.8512  0.3557  0.1798
   77MPD2    H7 1208   3.741   2.995  11.811 -0.2441  2.0632 -0.0968
   78TMC2    C1 1209   4.050   3.837   1.442 -0.3554  0.9553  0.1632
   78TMC2    C2 1210   3.990   3.826   1.317  0.2730  0.4384  0.3047
   78TMC2    C3 1211   4.035   3.722   1.237 -0.2990  0.1358  0.8383
   78TMC2    C4 1212   4.137   3.752   1.496  0.4128 -0.9175  0.4045
   78TMC2    C5 1213   4.182   3.658   1.411 -0.5169  0.1439 -0.1392
   78TMC2    C6 1214   4.133   3.640   1.281 -0.9438  0.0600  0.0913
   78TMC2     C 1215   3.975   3.929   1.534 -0.3791  0.0821  0.1686
   78TMC2     O 1216   3.859   3.965   1.508 -0.8012 -0.1089 -0.5813
   78TMC2     H 1217   3.914   3.896   1.283 -1.6292 -1.2785  1.0524
   78TMC2    H1 1218   4.174   3.761   1.598 -0.2172  0.8152  0.4763
   78TMC2    H2 1219   4.172   3.571   1.206 -1.0081  0.7756 -0.6086
   78TMC2    C7 1220   4.313   3.598   1.430  0.0276  0.2907 -0.7112
   78TMC2    C8 1221   4.016   3.722   1.093 -0.8876  0.5138  0.3529
   78TMC2    O1 1222   4.363   3.545   1.328  0.0076 -0.1245  0.1016
   78TMC2    O2 1223   4.101   3.667   1.026 -0.0761 -0.4153 -0.4339
   78TMC2    O5 1224   3.881   3.715   1.077 -0.2692  0.4501 -0.5024
   78TMC2    H5 1225   3.826   3.744   1.152 -1.3013 -0.4563 -0.9137
   79MPD1     C 1226   3.943   4.218   1.950 -0.1049 -0.5297  0.0206
   79MPD1    C1 1227   3.846   4.172   1.868  0.0668 -0.5808  0.2365
   79MPD1    C2 1228   3.890   4.113   1.751  0.2771 -0.4993 -0.1230
   79MPD1    C3 1229   4.023   4.068   1.730  0.1259 -0.5575  0.2306
   79MPD1    C4 1230   4.119   4.110   1.826 -0.1971 -0.3788 -0.1034
   79MPD1    C5 1231   4.079   4.185   1.930 -0.5275 -0.7380 -0.5405
   79MPD1     H 1232   3.817   4.088   1.675 -0.3364 -0.1097  0.3361
   79MPD1    H1 1233   4.223   4.082   1.811 -0.1589 -0.7404  0.8545
   79MPD1    H2 1234   3.924   4.276   2.039  1.7137 -1.7176  1.1801
   79MPD1    H3 1235   4.156   4.215   2.000  0.6078 -2.2117 -1.1604
   79MPD1     N 1236   4.058   3.976   1.634  0.0791  1.3563 -0.3838
   79MPD1    H5 1237   4.156   3.951   1.636 -0.3578 -0.3131 -0.1788
   79MPD1    N1 1238   3.714   4.232   1.877 -0.3870 -0.3330 -0.1014
   79MPD1    H6 1239   3.688   4.243   1.975 -0.4593 -0.1828 -0.1370
   79MPD1    H7 1240   3.651   4.178   1.819 -2.0607  0.5498  0.8909
   80TMC2    C1 1241   2.734   1.588  11.736 -0.0408  0.4074 -0.6163
   80TMC2    C2 1242   2.723   1.516  11.620 -0.3894 -0.2950 -0.0045
   80TMC2    C3 1243   2.695   1.381  11.635  0.1432 -0.0042  0.0780
   80TMC2    C4 1244   2.717   1.542  11.866 -0.0418 -0.1426 -0.2937
   80TMC2    C5 1245   2.682   1.409  11.865 -0.7189  0.3105  0.2351
   80TMC2    C6 1246   2.675   1.328  11.760  0.5423 -0.3230 -0.4263
   80TMC2     C 1247   2.792   1.721  11.727 -0.4105  0.0396 -0.5224
   80TMC2     O 1248   2.872   1.735  11.634 -0.0429 -0.8004 -0.0729
   80TMC2     H 1249   2.749   1.555  11.523  1.4819  0.8699  0.9699
   80TMC2    H1 1250   2.738   1.604  11.953 -3.4808 -0.9104  1.0753
   80TMC2    H2 1251   2.635   1.227  11.767 -1.0577  0.3257 -0.0879
   80TMC2    C7 1252   2.656   1.349  11.987  0.0688  0.1637  0.1150
   80TMC2    C8 1253   2.656   1.302  11.516  0.3480  0.0178  0.1849
   80TMC2    O1 1254   2.693   1.236  11.992  0.0677 -0.4495 -0.3215
   80TMC2    O2 1255   2.636   1.183  11.517  0.2425  0.4029 -0.0284
   80TMC2    O5 1256   2.604   1.389  11.428  0.2380 -0.3457  0.2185
   80TMC2    H5 1257   2.600   1.483  11.456 -1.1161 -0.8682  1.7576
   81MPD2     C 1258   2.912   1.982  11.788  0.0127  0.3501  0.6875
   81MPD2    C1 1259   2.787   1.942  11.833  0.1324  0.2168 -0.8785
   81MPD2    C2 1260   2.716   2.021  11.922 -0.6049  0.8317 -0.3845
   81MPD2    C3 1261   2.729   2.159  11.923  0.9368  0.1022 -0.1020
   81MPD2    C4 1262   2.846   2.206  11.867 -0.3368 -0.1914  0.1953
   81MPD2    C5 1263   2.934   2.116  11.804 -0.4130 -0.4497  0.4810
   81MPD2     H 1264   2.639   1.981  11.986 -1.1180  1.3808 -0.6609
   81MPD2    H1 1265   2.880   2.308  11.884  0.0416 -0.8104  3.2079
   81MPD2    H2 1266   2.990   1.921  11.745 -0.4068  0.2471  0.0715
   81MPD2    H3 1267   3.029   2.148  11.765 -0.6262  0.0928  0.4119
   81MPD2     N 1268   2.640   2.233  12.007  0.4055 -0.0339  0.2939
   81MPD2    H5 1269   2.563   2.184  12.051  0.5164 -2.0662 -1.7959
   81MPD2    N1 1270   2.747   1.808  11.819  0.2110 -0.0665  0.4217
   81MPD2    H7 1271   2.666   1.773  11.870 -0.8845  1.9485  0.0814
   82TMC2    C1 1272   1.355   2.229  10.908 -1.1940 -0.5228  0.7659
   82TMC2    C2 1273   1.483   2.241  10.959 -0.6240 -0.7972 -0.6206
   82TMC2    C3 1274   1.537   2.132  11.028  0.1293  0.6810  0.1790
   82TMC2    C4 1275   1.283   2.115  10.915  0.3708 -0.4021 -0.0117
   82TMC2    C5 1276   1.331   2.018  10.997  0.5575  0.3458  1.0102
   82TMC2    C6 1277   1.460   2.024  11.053  0.1506 -0.1834  0.0442
   82TMC2     C 1278   1.296   2.336  10.826 -0.2454  0.6183  0.9232
   82TMC2     O 1279   1.225   2.301  10.735 -0.4594  0.3479 -0.1912
   82TMC2     H 1280   1.539   2.333  10.952 -0.5158 -0.8700 -0.7243
   82TMC2    H1 1281   1.182   2.125  10.877 -0.4182 -0.7844  1.9585
   82TMC2    H2 1282   1.486   1.949  11.127 -1.6754 -1.3563 -0.4848
   82TMC2    C7 1283   1.244   1.904  11.030 -0.2967  0.7322 -0.0375
   82TMC2    C8 1284   1.657   2.158  11.114  0.6831 -0.1004 -0.0321
   82TMC2    O1 1285   1.271   1.828  11.120 -0.0381 -0.3113 -0.7359
   82TMC2    O2 1286   1.726   2.261  11.091 -0.2743 -0.0951  0.0519
   82TMC2    O5 1287   1.629   2.121  11.241  0.0589 -0.0019 -0.1241
   82TMC2    H5 1288   1.545   2.074  11.259  0.3101 -0.7156 -0.7768
   83MPD2     C 1289   1.182   2.817  10.760 -0.5773  0.1211  0.0551
   83MPD2    C1 1290   1.156   2.707  10.681 -0.2123  0.1776  1.0005
   83MPD2    C2 1291   1.207   2.583  10.708  0.0369 -0.2109  0.1323
   83MPD2    C3 1292   1.298   2.577  10.810 -0.4707  0.4170 -0.1312
   83MPD2    C4 1293   1.338   2.689  10.886  0.2862 -0.0399  0.1379
   83MPD2    C5 1294   1.284   2.808  10.853  0.5164 -0.2274  0.3878
   83MPD2     H 1295   1.194   2.499  10.641  0.9509 -1.0245  0.9885
   83MPD2    H1 1296   1.410   2.676  10.966  0.2535 -0.7452  0.0526
   83MPD2    H2 1297   1.138   2.911  10.728  1.6860  0.8197 -1.0131
   83MPD2    H3 1298   1.313   2.897  10.908 -0.8373  1.2614 -1.3049
   83MPD2     N 1299   1.340   2.457  10.861 -1.0565  0.5904  0.1468
   83MPD2    H5 1300   1.396   2.457  10.946 -2.3678  0.4815  1.0135
   83MPD2    N1 1301   1.072   2.739  10.566  0.2013 -0.7332  0.6937
   83MPD2    H7 1302   1.040   2.835  10.564 -2.8957 -1.7780  0.2130
   84TMC2    C1 1303   2.450   1.302  10.787 -1.0105  0.2252  0.1497
   84TMC2    C2 1304   2.396   1.270  10.666 -0.1128 -0.0452 -0.6069
   84TMC2    C3 1305   2.481   1.269  10.560 -0.5271 -0.4630  0.2245
   84TMC2    C4 1306   2.583   1.338  10.807  0.2891  0.1631 -0.2060
   84TMC2    C5 1307   2.659   1.326  10.695 -0.0435 -0.3300 -0.1708
   84TMC2    C6 1308   2.614   1.302  10.564 -0.3189  0.7973  0.5332
   84TMC2     C 1309   2.354   1.317  10.904 -1.0258  0.2393 -0.2959
   84TMC2     O 1310   2.408   1.311  11.016  0.3669  0.0084 -0.0170
   84TMC2     H 1311   2.291   1.245  10.668 -0.6333  2.0575 -1.5046
   84TMC2    H1 1312   2.607   1.371  10.907 -0.5577  1.4774 -0.4272
   84TMC2    H2 1313   2.690   1.295  10.488  0.4557 -0.3632  1.4313
   84TMC2    C7 1314   2.803   1.373  10.699  0.8742 -0.1308 -0.3693
   84TMC2    C8 1315   2.423   1.224  10.429 -0.3173 -0.7911 -0.2499
   84TMC2    O1 1316   2.847   1.407  10.590  0.5450  0.0330  0.0634
   84TMC2    O2 1317   2.304   1.196  10.414  0.6623 -0.4075 -0.1348
   84TMC2    O5 1318   2.501   1.278  10.328  0.4760  0.0770  0.2193
   84TMC2    H5 1319   2.587   1.325  10.336 -0.8537  2.2452  1.5389
   85TMC2    C1 1320   2.962   4.657  16.044 -0.6537  0.0648 -0.6197
   85TMC2    C2 1321   2.987   0.054  16.065 -0.8319 -0.0646  0.4060
   85TMC2    C3 1322   3.021   0.137  15.962 -0.2626 -0.4966  0.4181
   85TMC2    C4 1323   2.978   4.604  15.917  0.3767  0.6696  0.5717
   85TMC2    C5 1324   3.015   4.689  15.815  0.6545  0.1980  0.9719
   85TMC2    C6 1325   3.028   0.090  15.834  0.1443  1.1781  0.3181
   85TMC2     C 1326   2.888   4.595  16.153 -0.4309 -0.0258 -0.0538
   85TMC2     O 1327   2.887   4.651  16.262  0.0075  0.6599 -0.4077
   85TMC2     H 1328   2.977   0.094  16.166 -0.4542 -1.3077  0.9345
   85TMC2    H1 1329   2.955   4.501  15.896  0.9986  0.3047  1.6430
   85TMC2    H2 1330   3.043   0.163  15.756  2.6896  0.3227 -0.0068
   85TMC2    C7 1331   3.021   4.641  15.675 -1.0220  0.1886 -0.7226
   85TMC2    C8 1332   3.056   0.281  15.977  0.1124 -0.3277 -0.5339
   85TMC2    O1 1333   3.063   4.525  15.659  0.3023  0.1233 -0.1203
   85TMC2    O2 1334   3.040   0.362  15.887  0.3517  0.1887  0.3062
   85TMC2    O5 1335   3.041   0.308  16.110 -0.1939  0.4330  0.0128
   85TMC2    H5 1336   3.055   0.233  16.171  1.0908 -0.0854 -0.9173
   86MPD2     C 1337   2.646   4.211  16.397  0.7030  0.0232 -0.2640
   86MPD2    C1 1338   2.635   4.188  16.262  0.5469  0.4793 -0.5713
   86MPD2    C2 1339   2.695   4.274  16.170 -0.9058  0.0341 -0.1205
   86MPD2    C3 1340   2.765   4.386  16.216  0.3244 -0.4646  0.1326
   86MPD2    C4 1341   2.778   4.409  16.350 -0.0586 -0.4034 -0.3634
   86MPD2    C5 1342   2.722   4.319  16.434 -0.1835 -0.2027  0.5034
   86MPD2     H 1343   2.693   4.256  16.063 -1.3150 -0.3923 -0.0443
   86MPD2    H1 1344   2.849   4.483  16.385  0.0450 -0.0410 -1.3317
   86MPD2    H2 1345   2.600   4.149  16.473 -0.5709  0.2366 -0.8566
   86MPD2    H3 1346   2.749   4.335  16.537  1.4932 -1.1111  0.2015
   86MPD2     N 1347   2.826   4.474  16.121  0.0582  0.1743  0.2258
   86MPD2    H5 1348   2.830   4.445  16.023 -0.0001  0.6008  0.0976
   86MPD2    N1 1349   2.568   4.082  16.207  0.1695  0.1478  0.7512
   86MPD2    H7 1350   2.563   4.083  16.106 -1.3178  1.1442  0.8379
   87TMC2    C1 1351   0.207   2.450   1.127 -0.8409 -0.1003  0.1403
   87TMC2    C2 1352   0.286   2.444   1.243 -0.5148  0.7536 -0.0482
   87TMC2    C3 1353   0.237   2.481   1.366  0.2744  0.9469 -0.4278
   87TMC2    C4 1354   0.079   2.497   1.135  0.2093 -0.0760  0.1654
   87TMC2    C5 1355   0.036   2.543   1.256 -0.2861 -0.0552  0.0876
   87TMC2    C6 1356   0.116   2.545   1.364 -0.0981 -1.0573  0.0070
   87TMC2     C 1357   0.267   2.409   0.995  0.0065 -0.5712  0.1625
   87TMC2     O 1358   0.197   2.441   0.899  0.5200 -0.1715  0.0192
   87TMC2     H 1359   0.388   2.406   1.244 -1.1891 -1.0821 -1.5563
   87TMC2    H1 1360   0.011   2.500   1.051 -0.3320  3.4525  0.7426
   87TMC2    H2 1361   0.083   2.580   1.461  0.6246 -1.0347  0.2391
   87TMC2    C7 1362   4.636   2.588   1.254  0.2438 -0.1652  0.1002
   87TMC2    C8 1363   0.338   2.532   1.458 -0.2203  0.0177  0.3055
   87TMC2    O1 1364   4.586   2.629   1.149 -0.4428 -0.1309 -0.3521
   87TMC2    O2 1365   0.460   2.538   1.432 -0.7771 -0.5071 -0.6641
   87TMC2    O5 1366   0.296   2.515   1.583  0.0157  0.6695 -0.1210
   87TMC2    H5 1367   0.202   2.489   1.596 -0.0003  1.3009  1.0835
   88MPD2     C 1368   4.372   2.603   1.507 -0.0567  0.1797 -0.2189
   88MPD2    C1 1369   4.455   2.654   1.406  0.2834 -0.0845  0.3851
   88MPD2    C2 1370   4.427   2.773   1.344  0.4381  0.1390 -0.3855
   88MPD2    C3 1371   4.304   2.830   1.365 -0.3497  0.2459  0.8112
   88MPD2    C4 1372   4.217   2.768   1.458  1.0125  0.5241  0.0751
   88MPD2    C5 1373   4.247   2.653   1.525  0.4251  0.4085 -0.0288
   88MPD2     H 1374   4.505   2.825   1.290  0.7997  1.3126  1.2741
   88MPD2    H1 1375   4.124   2.812   1.494  0.5508 -0.7316  0.4005
   88MPD2    H2 1376   4.404   2.519   1.568 -0.8643 -0.5817 -0.8350
   88MPD2    H3 1377   4.189   2.619   1.610  0.2066  0.9901  0.0539
   88MPD2     N 1378   4.260   2.950   1.293 -0.1886  0.0214 -0.0577
   88MPD2    H5 1379   4.163   2.980   1.294 -0.6115 -1.3373  0.0753
   88MPD2    N1 1380   4.575   2.583   1.379  0.7249  0.1995  0.1619
   88MPD2    H7 1381   4.597   2.502   1.436  0.4201  1.0602  1.5217
   89TMC2    C1 1382   1.007   1.406   1.631 -0.0146  0.6219 -0.4419
   89TMC2    C2 1383   0.963   1.428   1.755 -1.1976  0.4911  0.0870
   89TMC2    C3 1384   1.014   1.540   1.831  0.6903  0.0487  0.1319
   89TMC2    C4 1385   1.103   1.477   1.580 -0.0761  0.6282 -0.4057
   89TMC2    C5 1386   1.152   1.583   1.655 -0.3467 -0.3080 -0.3134
   89TMC2    C6 1387   1.115   1.617   1.782 -0.2035 -0.2727 -0.0594
   89TMC2     C 1388   0.946   1.301   1.549  0.8335 -0.3913  0.6234
   89TMC2     O 1389   1.009   1.264   1.451  0.9214  0.5000 -0.6812
   89TMC2     H 1390   0.899   1.356   1.804 -1.2869 -0.3968 -1.3453
   89TMC2    H1 1391   1.110   1.473   1.472 -0.9502  1.4047 -0.4895
   89TMC2    H2 1392   1.157   1.695   1.845 -1.6795 -0.2848  0.9241
   89TMC2    C7 1393   1.260   1.665   1.591  0.8513  0.3812  0.5749
   89TMC2    C8 1394   0.943   1.559   1.956 -0.3984  0.2817 -0.2310
   89TMC2    O1 1395   1.264   1.781   1.633  0.1282 -0.1339 -0.1922
   89TMC2    O2 1396   0.878   1.469   2.013  0.7013  0.1597 -0.0707
   89TMC2    O5 1397   0.946   1.685   1.990 -0.4794  0.4875  0.8454
   89TMC2    H5 1398   0.990   1.745   1.926  3.7562 -1.9126  1.4841
   90MPD2     C 1399   0.623   0.907   1.476  0.6261 -0.0408  0.7142
   90MPD2    C1 1400   0.582   0.971   1.591  0.0827  0.0065 -0.2077
   90MPD2    C2 1401   0.650   1.089   1.627 -0.2128  0.5114 -0.0927
   90MPD2    C3 1402   0.755   1.136   1.556 -0.0875  0.2023  0.2861
   90MPD2    C4 1403   0.784   1.078   1.431  0.1987 -0.4721 -0.2579
   90MPD2    C5 1404   0.716   0.964   1.394  0.4182  0.0539  0.7073
   90MPD2     H 1405   0.632   1.143   1.719  0.4847 -0.1624  0.4425
   90MPD2    H1 1406   0.863   1.119   1.370  0.8786  0.6884  1.3899
   90MPD2    H2 1407   0.570   0.825   1.429  1.0831  0.8988 -1.4562
   90MPD2    H3 1408   0.754   0.905   1.312 -2.6710 -1.5687  0.4376
   90MPD2     N 1409   0.831   1.246   1.604  0.2560  0.0336 -0.4548
   90MPD2    H5 1410   0.808   1.289   1.693 -2.4677  1.3471 -1.8065
   90MPD2    N1 1411   0.486   0.931   1.682 -0.0982  0.7483 -0.1619
   90MPD2    H7 1412   0.478   0.985   1.767  0.9265 -2.0889  1.7573
   91TMC2    C1 1413   2.464   0.648  16.161  0.4708 -0.2448  0.2899
   91TMC2    C2 1414   2.514   0.637  16.283 -0.4040  0.8459 -0.1265
   91TMC2    C3 1415   2.429   0.626  16.388 -0.5374  0.7885  0.2339
   91TMC2    C4 1416   2.329   0.644  16.142 -0.9274 -0.2222  0.0073
   91TMC2    C5 1417   2.247   0.615  16.246 -0.2735 -0.3616 -0.0142
   91TMC2    C6 1418   2.299   0.605  16.372 -0.2256 -0.2165  0.0580
   91TMC2     C 1419   2.559   0.674  16.055  0.1051 -0.7543  0.8593
   91TMC2     O 1420   2.513   0.738  15.959 -0.0025 -0.1959  0.4504
   91TMC2     H 1421   2.620   0.653  16.302 -0.5310 -1.7734  2.6652
   91TMC2    H1 1422   2.301   0.670  16.040  0.1349  3.5294  0.6865
   91TMC2    H2 1423   2.230   0.606  16.456 -0.6501  0.0123 -0.2953
   91TMC2    C7 1424   2.115   0.557  16.217 -0.7136 -0.7983  0.4028
   91TMC2    C8 1425   2.478   0.569  16.512  0.4729 -0.1818  0.6731
   91TMC2    O1 1426   2.066   0.497  16.316 -0.6400  0.0417 -0.1131
   91TMC2    O2 1427   2.414   0.507  16.592  0.5888  0.0314  0.7960
   91TMC2    O5 1428   2.607   0.599  16.526 -0.2551 -0.6163  0.1671
   91TMC2    H5 1429   2.635   0.683  16.484 -2.1950 -0.1545 -0.2026
   92MPD2     C 1430   2.805   0.787  15.952  0.4878  0.0691 -0.2752
   92MPD2    C1 1431   2.806   0.676  16.026 -0.1161 -0.3718 -0.4850
   92MPD2    C2 1432   2.925   0.628  16.073 -0.3834 -0.5029  0.0299
   92MPD2    C3 1433   3.047   0.689  16.057  0.4683 -0.2862  0.3318
   92MPD2    C4 1434   3.045   0.808  16.000  0.5543  0.2440 -0.1462
   92MPD2    C5 1435   2.926   0.852  15.940 -0.4046  0.7215  0.3346
   92MPD2     H 1436   2.924   0.537  16.131 -0.7588  0.4760  1.5612
   92MPD2    H1 1437   3.134   0.870  15.995  0.2018  0.7226 -0.4441
   92MPD2    H2 1438   2.712   0.830  15.917  0.9677 -0.1304 -1.7752
   92MPD2    H3 1439   2.942   0.936  15.873 -0.8323  1.5134  1.2188
   92MPD2     N 1440   3.156   0.628  16.115 -0.3937  0.1080 -0.2432
   92MPD2    H5 1441   3.157   0.532  16.145  0.5626  0.5843  1.2187
   92MPD2    N1 1442   2.684   0.627  16.077  0.0734 -0.2823 -0.5472
   92MPD2    H7 1443   2.695   0.556  16.149 -1.4159 -0.1023 -0.1528
   93TMC2    C1 1444   4.597   0.654  14.503 -0.0555 -0.0434  0.4201
   93TMC2    C2 1445   4.519   0.769  14.496  0.2360 -0.1355 -0.0362
   93TMC2    C3 1446   4.589   0.880  14.456 -0.7805  0.0317 -0.8917
   93TMC2    C4 1447   4.725   0.649  14.462 -0.0379 -0.4583 -0.2819
   93TMC2    C5 1448   0.048   0.764  14.418 -0.0116  0.2973  0.1693
   93TMC2    C6 1449   4.726   0.882  14.413  0.0412 -0.4067  0.1866
   93TMC2     C 1450   4.531   0.528  14.532 -0.0772 -0.3024 -0.1749
   93TMC2     O 1451   4.604   0.438  14.573  0.0971 -0.1934 -0.4655
   93TMC2     H 1452   4.420   0.773  14.539 -0.1810  2.3133 -1.2305
   93TMC2    H1 1453   0.043   0.556  14.471 -0.2797 -0.2662  3.3042
   93TMC2    H2 1454   0.040   0.970  14.376  1.6234 -1.1950  0.5175
   93TMC2    C7 1455   0.152   0.734  14.313 -0.3616  0.4873  0.7257
   93TMC2    C8 1456   4.533   1.001  14.517 -0.3719  0.4287 -0.4253
   93TMC2    O1 1457   0.215   0.629  14.321 -0.2901 -0.4520 -0.1066
   93TMC2    O2 1458   4.512   1.010  14.641 -0.5540 -0.3048  0.3807
   93TMC2    O5 1459   4.427   1.039  14.435  0.2227  0.2267 -0.2154
   93TMC2    H5 1460   4.462   1.025  14.344 -0.7121 -1.5032 -0.3201
   94MPD2     C 1461   4.347   0.290  14.539 -0.5238 -0.8862 -0.1427
   94MPD2    C1 1462   4.311   0.420  14.491 -0.7038  0.9807 -0.3957
   94MPD2    C2 1463   4.192   0.430  14.425  0.3346 -0.2247  0.0887
   94MPD2    C3 1464   4.112   0.318  14.401  0.3011 -0.2703 -0.0543
   94MPD2    C4 1465   4.153   0.196  14.452  0.3562  0.0872 -0.5506
   94MPD2    C5 1466   4.271   0.180  14.513  0.5514 -0.7958 -0.1678
   94MPD2     H 1467   4.166   0.525  14.380 -2.6016 -0.8341  0.5055
   94MPD2    H1 1468   4.097   0.109  14.419 -3.3420  2.8014 -1.4903
   94MPD2    H2 1469   4.444   0.275  14.587 -0.5789  0.0434  0.2584
   94MPD2    H3 1470   4.308   0.080  14.532 -1.1436 -1.5607 -0.8774
   94MPD2     N 1471   3.993   0.316  14.321  0.0455 -0.6781 -0.0585
   94MPD2    H5 1472   3.944   0.229  14.306 -4.1206  1.8727 -1.2292
   94MPD2    N1 1473   4.398   0.531  14.491  0.1322 -0.4218  0.3173
   94MPD2    H7 1474   4.364   0.616  14.447  0.7275 -0.1249  0.4287
   95TMC2    C1 1475   0.151   2.309  16.747 -0.3002  0.0525  0.4632
   95TMC2    C2 1476   0.189   2.407  16.830 -0.1075 -0.0238  0.5303
   95TMC2    C3 1477   0.167   2.391  16.964 -0.3522  0.2237 -0.8121
   95TMC2    C4 1478   0.084   2.199  16.794  1.2067  0.0942  0.1471
   95TMC2    C5 1479   0.083   2.182  16.936  0.2250  0.5433 -0.2790
   95TMC2    C6 1480   0.126   2.279  17.021 -0.4555 -0.0406  0.2476
   95TMC2     C 1481   0.164   2.335  16.604 -0.2435 -0.0950  0.2527
   95TMC2     O 1482   0.215   2.439  16.578  0.0102 -0.0920 -0.2961
   95TMC2     H 1483   0.240   2.494  16.791  0.5852 -0.7927 -0.3069
   95TMC2    H1 1484   0.041   2.123  16.728  0.1382 -0.2791  1.2653
   95TMC2    H2 1485   0.110   2.278  17.128  0.1776 -2.2295  0.3245
   95TMC2    C7 1486   0.028   2.055  16.975 -0.5201  0.3469  0.3297
   95TMC2    C8 1487   0.173   2.503  17.057  0.2864  0.5007 -0.5935
   95TMC2    O1 1488   0.034   1.972  16.885  0.5263 -0.2301 -0.6076
   95TMC2    O2 1489   0.082   2.520  17.140  0.0901  0.3235 -0.1314
   95TMC2    O5 1490   0.302   2.531  17.085 -0.6780 -0.4746  0.0078
   95TMC2    H5 1491   0.349   2.460  17.036  2.4198  0.3559  1.7832
   96MPD2     C 1492   0.181   2.137  16.139  0.1563  0.8941  0.5416
   96MPD2    C1 1493   0.223   2.260  16.185  0.3542  0.6006  0.2728
   96MPD2    C2 1494   0.193   2.298  16.313  0.3807  0.3566  0.9998
   96MPD2    C3 1495   0.125   2.213  16.393 -0.4420  0.6540 -0.4494
   96MPD2    C4 1496   0.098   2.087  16.348 -0.3217  0.1124  0.1111
   96MPD2    C5 1497   0.111   2.051  16.217  0.3636  0.7869  0.0648
   96MPD2     H 1498   0.229   2.392  16.356  0.5070  0.1973  1.2449
   96MPD2    H1 1499   0.036   2.024  16.412 -1.4356  1.1788  0.0932
   96MPD2    H2 1500   0.199   2.125  16.033  0.1771 -0.5642  0.7081
   96MPD2    H3 1501   0.076   1.951  16.193 -1.1985  1.0241  1.3698
   96MPD2     N 1502   0.103   2.240  16.529  0.1039 -0.3487 -0.1778
   96MPD2    H5 1503   0.040   2.172  16.571  1.2447 -1.4155 -0.1843
   96MPD2    N1 1504   0.283   2.351  16.087 -0.4750 -0.1187 -0.4967
   96MPD2    H7 1505   0.286   2.319  15.990  0.3973  0.3077 -0.6086
   97TMC2    C1 1506   2.194   4.045   0.068 -0.5628 -0.1484 -0.0373
   97TMC2    C2 1507   2.307   3.975   0.102  0.1464  0.2234  0.2871
   97TMC2    C3 1508   2.424   4.032   0.073  0.1738  0.1673 -0.1130
   97TMC2    C4 1509   2.194   4.155  17.734  0.6019 -0.2044 -0.5055
   97TMC2    C5 1510   2.320   4.201  17.699 -0.0987  0.3654  0.0929
   97TMC2    C6 1511   2.433   4.150   0.009 -0.3811 -0.3388  0.3001
   97TMC2     C 1512   2.060   4.010   0.127 -0.0418 -0.3284 -0.5106
   97TMC2     O 1513   1.968   4.088   0.112  0.0259  0.3215  0.4695
   97TMC2     H 1514   2.315   3.883   0.159 -2.6661  0.4926  1.1274
   97TMC2    H1 1515   2.102   4.210  17.714  0.4584 -1.2091 -2.4904
   97TMC2    H2 1516   2.529   4.201   0.007 -0.3622 -0.2702  2.4898
   97TMC2    C7 1517   2.322   4.334  17.647 -0.9243 -0.3743  0.4023
   97TMC2    C8 1518   2.548   3.985   0.126 -0.1634  0.4388  0.6201
   97TMC2    O1 1519   2.427   4.393  17.643 -0.1129 -0.5328 -0.1717
   97TMC2    O2 1520   2.553   3.904   0.218 -0.0136 -0.5292  0.7423
   97TMC2    O5 1521   2.631   3.989   0.020 -0.2621 -0.1786 -0.4195
   97TMC2    H5 1522   2.614   4.056  17.700 -1.7876  1.3398  1.3965
   98MPD2     C 1523   1.771   3.713   0.444  0.0978 -0.4474  0.0231
   98MPD2    C1 1524   1.738   3.828   0.375 -0.3617  0.6652 -0.6486
   98MPD2    C2 1525   1.831   3.893   0.293  0.2882  0.0091 -0.6469
   98MPD2    C3 1526   1.954   3.835   0.273 -0.5129  0.1494 -0.3744
   98MPD2    C4 1527   1.979   3.717   0.346  0.5571 -0.1922 -0.3853
   98MPD2    C5 1528   1.887   3.650   0.418 -0.0274  0.5150 -0.1980
   98MPD2     H 1529   1.795   3.987   0.254  2.0181  1.7097  1.8339
   98MPD2    H1 1530   2.079   3.674   0.342  0.1921 -1.1465  0.9642
   98MPD2    H2 1531   1.701   3.664   0.511  0.0816  0.1344  0.4282
   98MPD2    H3 1532   1.910   3.556   0.468  1.7071 -0.4376 -2.8363
   98MPD2     N 1533   2.059   3.891   0.190  0.4195  0.1679 -0.3170
   98MPD2    H5 1534   2.144   3.835   0.189  1.2384  1.4105  1.3960
   98MPD2    N1 1535   1.614   3.882   0.411 -0.3832 -0.3019 -0.1104
   98MPD2    H7 1536   1.569   3.846   0.494  1.2361  1.1582  1.4024
   99TMC2    C1 1537   1.262   1.502   0.952  0.2533 -0.3377  0.1353
   99TMC2    C2 1538   1.351   1.600   0.910  1.0086  0.3470 -0.4848
   99TMC2    C3 1539   1.322   1.723   0.962 -0.1493  0.5664 -0.1136
   99TMC2    C4 1540   1.160   1.518   1.044 -0.7247 -1.1798 -0.6203
   99TMC2    C5 1541   1.140   1.647   1.089  0.5884 -0.2361 -0.3732
   99TMC2    C6 1542   1.216   1.755   1.044 -0.3458  0.5649  0.8218
   99TMC2     C 1543   1.279   1.368   0.907 -0.0814 -0.5492  0.4164
   99TMC2     O 1544   1.391   1.324   0.877 -0.5380  0.1480 -0.1559
   99TMC2     H 1545   1.436   1.577   0.846  0.9810 -0.0198 -0.3932
   99TMC2    H1 1546   1.116   1.435   1.097  0.4046  0.2794  2.6211
   99TMC2    H2 1547   1.200   1.853   1.088  0.5142  0.5416  1.1890
   99TMC2    C7 1548   1.037   1.668   1.193  0.6420  0.2115 -0.0060
   99TMC2    C8 1549   1.387   1.834   0.900  0.0355  0.4293 -0.2942
   99TMC2    O1 1550   1.064   1.753   1.278  0.1096  0.0498  0.7016
   99TMC2    O2 1551   1.410   1.938   0.961 -0.2446  0.4187 -0.1273
   99TMC2    O5 1552   1.409   1.807   0.768  0.0679 -0.0530  0.9171
   99TMC2    H5 1553   1.375   1.718   0.746  1.0298 -0.0332 -0.6674
  100MPD2     C 1554   1.226   1.086   0.863 -0.2011  0.1387  0.3130
  100MPD2    C1 1555   1.129   1.185   0.857  0.3996 -0.0872  0.1971
  100MPD2    C2 1556   1.002   1.154   0.813  0.8222  0.5669 -0.2570
  100MPD2    C3 1557   0.976   1.020   0.779 -0.0914  0.1550 -0.0220
  100MPD2    C4 1558   1.074   0.913   0.799  0.5178 -0.2445  0.0214
  100MPD2    C5 1559   1.198   0.954   0.836  0.7004  1.2027 -0.2490
  100MPD2     H 1560   0.937   1.235   0.779  0.5699  0.3875 -0.2023
  100MPD2    H1 1561   1.059   0.809   0.771  1.1089 -0.6800  1.3621
  100MPD2    H2 1562   1.333   1.103   0.873  0.0649 -1.5487  0.2886
  100MPD2    H3 1563   1.277   0.880   0.846 -2.1222 -1.7373  0.4705
  100MPD2     N 1564   0.842   0.985   0.728 -0.6217 -0.3823  0.4300
  100MPD2    H5 1565   0.776   1.059   0.707  0.8171  0.7183 -0.2049
  100MPD2    N1 1566   1.159   1.320   0.873 -0.5120 -0.2354  0.3529
  100MPD2    H7 1567   1.076   1.377   0.881 -1.2854 -1.3223 -0.0050
  101TMC2    C1 1568   1.315   3.054  12.959  0.3630  0.4560 -0.6946
  101TMC2    C2 1569   1.243   3.151  13.022 -0.0719 -0.1128  0.0747
  101TMC2    C3 1570   1.260   3.281  12.981  0.6488 -0.9633 -0.4000
  101TMC2    C4 1571   1.391   3.082  12.851 -0.1156 -0.4193  0.0161
  101TMC2    C5 1572   1.396   3.213  12.808  0.4226 -0.9343  1.0705
  101TMC2    C6 1573   1.334   3.318  12.876  0.3581 -0.4680 -0.3570
  101TMC2     C 1574   1.275   2.922  12.998  0.1470  0.1629 -0.5925
  101TMC2     O 1575   1.165   2.916  13.057 -0.3531 -0.6584 -0.7529
  101TMC2     H 1576   1.190   3.131  13.114 -2.0696  1.1993 -0.7986
  101TMC2    H1 1577   1.451   3.009  12.797  1.8872  0.1498  1.4675
  101TMC2    H2 1578   1.349   3.422  12.851 -1.0191 -0.1507  0.1708
  101TMC2    C7 1579   1.470   3.242  12.691 -0.5191  0.7842 -0.4441
  101TMC2    C8 1580   1.155   3.367  13.018 -0.1428  0.4500 -0.1947
  101TMC2    O1 1581   1.535   3.152  12.643 -0.5603 -0.4042 -0.3835
  101TMC2    O2 1582   1.127   3.463  12.944 -0.1237  0.3791  0.1921
  101TMC2    O5 1583   1.172   3.383  13.152  0.0248  0.0179 -0.1640
  101TMC2    H5 1584   1.234   3.318  13.191  0.3835  0.3055 -0.2564
  102MPD2     C 1585   1.480   2.603  12.989 -0.5246  0.0234  0.9001
  102MPD2    C1 1586   1.374   2.691  13.022 -0.6135 -0.2153 -0.6931
  102MPD2    C2 1587   1.273   2.645  13.105  0.1864  0.6100  0.1096
  102MPD2    C3 1588   1.270   2.519  13.165  0.3771  0.2916  0.5524
  102MPD2    C4 1589   1.374   2.432  13.128  0.2537 -0.0967  0.5299
  102MPD2    C5 1590   1.474   2.480  13.054  0.4417  0.6233  0.7472
  102MPD2     H 1591   1.189   2.709  13.128  0.1104  0.0202  1.4370
  102MPD2    H1 1592   1.384   2.330  13.165 -1.6448  0.6642  3.1218
  102MPD2    H2 1593   1.576   2.632  12.948 -0.1873  0.5133  2.0225
  102MPD2    H3 1594   1.554   2.410  13.030 -1.9384 -1.7089 -0.3674
  102MPD2     N 1595   1.154   2.481  13.248 -1.2516  0.2804 -0.4497
  102MPD2    H5 1596   1.091   2.553  13.284  0.1014  0.6772  1.1627
  102MPD2    N1 1597   1.372   2.824  12.962 -0.5325  0.3051  0.3725
  102MPD2    H7 1598   1.455   2.857  12.915 -0.4227 -0.8680 -0.2557
  103TMC2    C1 1599   4.275   2.998  13.271  0.0033  0.2503 -0.1343
  103TMC2    C2 1600   4.410   3.015  13.312  0.0917 -0.3155 -0.0515
  103TMC2    C3 1601   4.423   3.102  13.419  0.9774  0.5195  0.3760
  103TMC2    C4 1602   4.170   3.072  13.306  0.1647  0.5475  0.1613
  103TMC2    C5 1603   4.194   3.166  13.408 -0.2019 -0.9001  0.4453
  103TMC2    C6 1604   4.321   3.181  13.457 -0.1966  0.6450 -0.2474
  103TMC2     C 1605   4.256   2.890  13.181 -0.4516  0.1002  0.2117
  103TMC2     O 1606   4.360   2.842  13.130  0.1160 -0.3503 -0.0590
  103TMC2     H 1607   4.485   2.940  13.289  0.6222  0.6704 -1.5843
  103TMC2    H1 1608   4.076   3.051  13.257  2.1134 -1.3050 -2.8444
  103TMC2    H2 1609   4.347   3.263  13.523 -0.1423  1.2487 -1.0255
  103TMC2    C7 1610   4.096   3.264  13.451 -0.3139 -0.2063 -0.8038
  103TMC2    C8 1611   4.560   3.147  13.446 -0.1500 -0.0275  0.3106
  103TMC2    O1 1612   4.138   3.354  13.521  0.3649 -0.1146 -0.0676
  103TMC2    O2 1613   4.592   3.182  13.559 -0.5173  0.3079  0.1621
  103TMC2    O5 1614   4.615   3.168  13.327  0.0848  0.2839 -0.5997
  103TMC2    H5 1615   4.550   3.183  13.255 -0.3723  1.4300  0.0537
  104MPD2     C 1616   3.953   2.704  13.073  0.0935 -0.2102  0.4525
  104MPD2    C1 1617   4.087   2.745  13.071  0.4823  0.0620 -0.3731
  104MPD2    C2 1618   4.161   2.718  12.953  0.5413  0.2845 -0.2726
  104MPD2    C3 1619   4.109   2.638  12.851 -0.1399  0.3373  0.5842
  104MPD2    C4 1620   3.986   2.582  12.872  0.0916  0.0353  0.0534
  104MPD2    C5 1621   3.905   2.628  12.976  0.6490 -0.2812  0.4582
  104MPD2     H 1622   4.255   2.770  12.937  1.7221 -2.0733 -0.9992
  104MPD2    H1 1623   3.931   2.534  12.792  0.6511  1.6255 -1.2887
  104MPD2    H2 1624   3.884   2.725  13.155  0.3429  2.5089 -0.0194
  104MPD2    H3 1625   3.805   2.585  12.980  0.5991 -0.2114 -0.1312
  104MPD2     N 1626   4.180   2.621  12.725  0.3831  0.0085 -0.0791
  104MPD2    H5 1627   4.273   2.662  12.729  0.6321 -0.2899 -3.4568
  104MPD2    N1 1628   4.130   2.840  13.168  0.9923  1.0591 -0.1848
  104MPD2    H7 1629   4.056   2.869  13.232  0.4282 -0.7796  0.0023
  105TMC2    C1 1630   0.708   2.298   0.126  0.4871 -0.0085  0.2721
  105TMC2    C2 1631   0.684   2.435   0.114  0.1124  0.2514 -0.1063
  105TMC2    C3 1632   0.635   2.498   0.220 -0.1521 -0.2219  0.3852
  105TMC2    C4 1633   0.668   2.230   0.242 -0.5783  0.4243 -0.1352
  105TMC2    C5 1634   0.601   2.293   0.339 -0.1144 -0.0062 -0.4724
  105TMC2    C6 1635   0.594   2.433   0.342  0.4376  0.7905  1.6467
  105TMC2     C 1636   0.791   2.228   0.019 -0.2864  0.1641 -0.8918
  105TMC2     O 1637   0.801   2.109   0.031 -0.0110  0.7107 -0.5334
  105TMC2     H 1638   0.699   2.485   0.019  1.0886  1.7796  0.8615
  105TMC2    H1 1639   0.688   2.123   0.244 -1.9856  0.1337 -2.2040
  105TMC2    H2 1640   0.531   2.490   0.410  0.5283  0.8399  1.6890
  105TMC2    C7 1641   0.582   2.208   0.463 -0.3678 -0.3795 -0.4167
  105TMC2    C8 1642   0.589   2.636   0.197  0.3510  0.0918 -0.9895
  105TMC2    O1 1643   0.638   2.098   0.471  0.7034  0.6917  0.6657
  105TMC2    O2 1644   0.507   2.685   0.268 -0.3724 -0.3230 -0.1260
  105TMC2    O5 1645   0.681   2.699   0.127  0.1156  0.1131 -0.1882
  105TMC2    H5 1646   0.769   2.662   0.108 -0.1007 -0.5262  0.0519
  106MPD2     C 1647   1.142   2.208  17.384  1.0946  0.4672  0.3774
  106MPD2    C1 1648   1.100   2.342  17.402  0.0878 -0.9579  0.0798
  106MPD2    C2 1649   1.011   2.376  17.503 -0.6456 -0.2295 -0.0550
  106MPD2    C3 1650   0.955   2.280  17.587 -0.0148 -0.0409  0.6264
  106MPD2    C4 1651   1.010   2.157  17.574  0.0694  0.4163  0.0358
  106MPD2    C5 1652   1.103   2.123  17.481  0.7475 -0.7999  0.8379
  106MPD2     H 1653   0.981   2.480  17.511 -1.4384 -0.4972  0.5172
  106MPD2    H1 1654   0.989   2.068  17.631  1.9583 -0.6103 -0.8683
  106MPD2    H2 1655   1.234   2.185  17.331  1.3711  2.8352 -0.1933
  106MPD2    H3 1656   1.152   2.027  17.487  2.3756  0.0270  0.9852
  106MPD2     N 1657   0.856   2.316  17.684 -0.1602 -0.0330 -0.8968
  106MPD2    H5 1658   0.845   2.416  17.695  0.4853 -0.3158  2.2887
  106MPD2    N1 1659   1.143   2.450  17.319  1.0366  0.0055 -0.1326
  106MPD2    H7 1660   1.127   2.548  17.340 -1.4179 -0.4895  0.3248
  107TMC2    C1 1661   1.980   1.519  11.763  0.2871  0.9503  0.8185
  107TMC2    C2 1662   2.115   1.525  11.778  0.7011  0.2287 -0.5314
  107TMC2    C3 1663   2.192   1.524  11.662  0.1195  0.3325 -0.5264
  107TMC2    C4 1664   1.923   1.500  11.646 -0.3939 -0.2532 -0.2661
  107TMC2    C5 1665   2.004   1.481  11.532  0.0008  0.4878  0.3724
  107TMC2    C6 1666   2.142   1.507  11.532 -0.0375  0.0445 -0.0354
  107TMC2     C 1667   1.894   1.523  11.880  0.0953 -0.3823  0.2214
  107TMC2     O 1668   1.774   1.531  11.864 -0.5781 -0.5989  0.4019
  107TMC2     H 1669   2.166   1.547  11.872  0.8762 -0.0253 -0.5666
  107TMC2    H1 1670   1.818   1.479  11.634 -0.6618  0.9568 -0.1116
  107TMC2    H2 1671   2.212   1.507  11.449 -0.6454  1.6134 -0.5677
  107TMC2    C7 1672   1.941   1.475  11.394  0.2003 -0.6416 -0.4005
  107TMC2    C8 1673   2.338   1.553  11.672  0.3307  0.3464 -0.1801
  107TMC2    O1 1674   1.828   1.515  11.378 -0.0318 -1.0317  0.4283
  107TMC2    O2 1675   2.403   1.554  11.567  0.1870  0.0337 -0.1530
  107TMC2    O5 1676   2.382   1.489  11.788 -0.4857  0.3950  0.1570
  107TMC2    H5 1677   2.309   1.474  11.851  0.4526  0.4034  1.2388
  108MPD2     C 1678   1.942   1.381  12.212  0.1901 -0.3196 -0.1864
  108MPD2    C1 1679   1.890   1.469  12.118  0.4944  0.8438  0.1114
  108MPD2    C2 1680   1.774   1.539  12.157 -0.4036  0.0509  0.3920
  108MPD2    C3 1681   1.715   1.518  12.281 -0.4301  0.5896 -0.0621
  108MPD2    C4 1682   1.763   1.423  12.366  0.0050  0.7311 -0.0770
  108MPD2    C5 1683   1.882   1.359  12.335 -0.4086 -0.2962 -0.0839
  108MPD2     H 1684   1.726   1.610  12.090 -0.3429  0.1358  0.4389
  108MPD2    H1 1685   1.717   1.397  12.460  0.5945  0.2647  0.0870
  108MPD2    H2 1686   2.039   1.332  12.206  1.1457  1.4535  0.9460
  108MPD2    H3 1687   1.920   1.284  12.403  2.2505  2.0100  0.9835
  108MPD2     N 1688   1.596   1.592  12.324  0.1692 -0.5890 -0.1736
  108MPD2    H5 1689   1.560   1.557  12.412 -0.0075  0.8770  0.3365
  108MPD2    N1 1690   1.958   1.495  11.992  0.1087  0.0048  0.3582
  108MPD2    H7 1691   2.050   1.454  11.980 -0.4554 -0.6626 -1.6483
  109TMC2    C1 1692   0.556   3.150   0.301  0.5137 -0.5152  0.7789
  109TMC2    C2 1693   0.613   3.084   0.196  0.5241  0.6341  0.6019
  109TMC2    C3 1694   0.746   3.110   0.162  0.5670 -0.2973 -0.0920
  109TMC2    C4 1695   0.620   3.248   0.369  0.2091  0.3086 -0.0903
  109TMC2    C5 1696   0.743   3.280   0.321 -0.9807 -0.5710  0.5009
  109TMC2    C6 1697   0.809   3.219   0.220  0.2560  0.6329 -0.4497
  109TMC2     C 1698   0.433   3.094   0.363  0.2353  0.6422 -0.4543
  109TMC2     O 1699   0.357   3.014   0.304 -0.4526 -0.2397  0.3329
  109TMC2     H 1700   0.566   2.992   0.163 -2.4331  3.0482 -1.8977
  109TMC2    H1 1701   0.571   3.316   0.438 -0.7080 -0.3187 -0.1209
  109TMC2    H2 1702   0.905   3.252   0.182 -1.0966  1.8537 -2.8002
  109TMC2    C7 1703   0.813   3.394   0.385 -0.0472 -0.3006  0.0451
  109TMC2    C8 1704   0.781   3.067   0.028  0.3865 -0.2447 -0.5113
  109TMC2    O1 1705   0.905   3.445   0.322  0.7607  0.2229 -0.4222
  109TMC2    O2 1706   0.706   3.040  17.683  0.1012  0.4034 -0.0171
  109TMC2    O5 1707   0.910   3.041   0.034 -0.0351 -0.3400 -0.4535
  109TMC2    H5 1708   0.960   3.037   0.118 -0.5538  2.1836 -0.0273
  110MPD2     C 1709   0.087   3.082   0.735  0.0830  0.3408  0.2618
  110MPD2    C1 1710   0.197   3.142   0.790  1.0344  0.2129 -0.0728
  110MPD2    C2 1711   0.308   3.161   0.712 -0.6886  0.7809  0.0265
  110MPD2    C3 1712   0.306   3.120   0.580  0.4359  0.2927  0.8286
  110MPD2    C4 1713   0.192   3.061   0.532  0.4095  0.1562  0.5104
  110MPD2    C5 1714   0.090   3.044   0.607  0.1528 -0.5965 -0.6586
  110MPD2     H 1715   0.396   3.213   0.749  1.0694 -1.2880 -1.2231
  110MPD2    H1 1716   0.171   3.025   0.431  1.8292  1.4028 -0.2237
  110MPD2    H2 1717   0.003   3.059   0.798  0.0883 -0.9556 -0.2045
  110MPD2    H3 1718   0.003   2.992   0.568 -0.0351 -2.6138  2.4525
  110MPD2     N 1719   0.421   3.136   0.495  0.2265  0.0269 -0.6100
  110MPD2    H5 1720   0.506   3.182   0.528 -1.4308  2.0590  0.7711
  110MPD2    N1 1721   0.189   3.164   0.928 -0.1537 -0.4483 -0.2174
  110MPD2    H7 1722   0.097   3.145   0.968 -0.1280  0.4199  0.2828
  111TMC2    C1 1723   2.361   4.077  11.682  0.3441 -0.1078 -0.1998
  111TMC2    C2 1724   2.471   4.103  11.614  0.3442 -0.8413  0.2448
  111TMC2    C3 1725   2.586   4.049  11.656 -0.2769  0.8272 -0.5624
  111TMC2    C4 1726   2.358   3.992  11.786 -0.1711 -0.0691  0.3005
  111TMC2    C5 1727   2.477   3.933  11.822 -0.4432 -0.7014  0.8906
  111TMC2    C6 1728   2.592   3.969  11.761  0.4315 -0.3537  0.0939
  111TMC2     C 1729   2.237   4.124  11.623 -0.9364 -0.2612 -0.3755
  111TMC2     O 1730   2.230   4.153  11.504  0.2699 -0.8254  0.4843
  111TMC2     H 1731   2.459   4.150  11.517 -0.4044 -2.4366 -0.4342
  111TMC2    H1 1732   2.263   3.947  11.812  0.0796 -0.8117 -0.0855
  111TMC2    H2 1733   2.682   3.911  11.777 -1.0877 -2.1692  2.1049
  111TMC2    C7 1734   2.474   3.808  11.899  0.0608  0.2460 -0.0167
  111TMC2    C8 1735   2.705   4.063  11.574  0.4696  0.3705 -1.1366
  111TMC2    O1 1736   2.364   3.787  11.955 -0.6367 -0.3243 -0.2411
  111TMC2    O2 1737   2.785   3.970  11.584  0.0203 -0.0393 -0.7033
  111TMC2    O5 1738   2.740   4.190  11.577  0.2475  0.5910 -0.3550
  111TMC2    H5 1739   2.675   4.263  11.576 -1.5076 -1.0134 -3.4547
  112MPD2     C 1740   1.731   4.196  11.690  0.3087  0.7885 -0.1805
  112MPD2    C1 1741   1.805   4.160  11.577  0.0305  0.1235  0.3551
  112MPD2    C2 1742   1.941   4.158  11.585 -0.7466  0.2009 -0.0387
  112MPD2    C3 1743   2.006   4.178  11.707 -0.4021  0.3818 -0.1020
  112MPD2    C4 1744   1.935   4.210  11.818 -0.1028  0.1567 -0.3962
  112MPD2    C5 1745   1.800   4.214  11.810  0.2162 -0.0846  0.2957
  112MPD2     H 1746   1.988   4.142  11.488 -0.5874  0.3924  0.0066
  112MPD2    H1 1747   1.991   4.212  11.911  1.1210 -2.6891 -1.0549
  112MPD2    H2 1748   1.623   4.205  11.701  0.0153  0.3983 -2.6473
  112MPD2    H3 1749   1.745   4.251  11.896  0.3658  0.9290 -0.0470
  112MPD2     N 1750   2.143   4.144  11.725  0.3992 -0.1846 -0.1912
  112MPD2    H5 1751   2.183   4.142  11.818  1.1870 -0.8705 -0.5538
  112MPD2    N1 1752   1.745   4.117  11.456  0.2044 -0.2238 -1.0007
  112MPD2    H7 1753   1.809   4.118  11.377  1.5568  1.3267  0.1068
  113TMC2    C1 1754   4.180   1.140   0.730  0.3394 -0.6565  0.1526
  113TMC2    C2 1755   4.068   1.212   0.724 -0.1456  0.1482 -0.1076
  113TMC2    C3 1756   3.946   1.152   0.717  0.4132  0.0942 -0.5230
  113TMC2    C4 1757   4.179   1.007   0.695  0.3079  0.4819  0.1094
  113TMC2    C5 1758   4.053   0.952   0.668  0.3015  0.2279  0.4071
  113TMC2    C6 1759   3.935   1.017   0.694 -0.8251  0.8173 -0.9055
  113TMC2     C 1760   4.291   1.200   0.796  0.2657  0.2066  0.2032
  113TMC2     O 1761   4.288   1.318   0.827  0.0447 -0.1703 -0.0444
  113TMC2     H 1762   4.069   1.319   0.745  0.8983 -0.3752  2.4828
  113TMC2    H1 1763   4.265   0.942   0.705 -0.9553 -0.9980  1.3780
  113TMC2    H2 1764   3.835   0.974   0.691 -1.2145  1.6399  0.0392
  113TMC2    C7 1765   4.060   0.812   0.658 -0.8431 -0.2228 -0.0996
  113TMC2    C8 1766   3.834   1.237   0.742 -0.4686  0.4756 -0.6632
  113TMC2    O1 1767   4.167   0.766   0.614 -0.5600  0.4600 -0.1863
  113TMC2    O2 1768   3.732   1.180   0.772 -0.1585  0.2438 -0.3230
  113TMC2    O5 1769   3.843   1.336   0.658  0.2502  0.2958  0.0038
  113TMC2    H5 1770   3.930   1.361   0.619  0.5226 -0.0200  0.4128
  114MPD2     C 1771   0.017   1.200   1.030 -0.1959 -0.4218 -0.1757
  114MPD2    C1 1772   4.676   1.306   0.992  0.0894  0.3241 -0.2225
  114MPD2    C2 1773   4.557   1.285   0.922  0.1166 -0.3164  0.4549
  114MPD2    C3 1774   4.521   1.154   0.886  0.2003  1.1284 -0.1542
  114MPD2    C4 1775   4.603   1.049   0.935 -0.1333  0.2126 -0.9649
  114MPD2    C5 1776   4.717   1.074   1.009 -0.2889 -0.8388 -0.5404
  114MPD2     H 1777   4.510   1.372   0.877  1.6342  0.1300 -0.2740
  114MPD2    H1 1778   4.576   0.945   0.919  0.3318  0.2507 -1.9921
  114MPD2    H2 1779   0.111   1.207   1.084 -0.9569 -1.1473  1.2517
  114MPD2    H3 1780   0.038   0.985   1.028  0.3749 -0.1683  0.5318
  114MPD2     N 1781   4.399   1.114   0.822  0.6524  0.0382  0.2340
  114MPD2    H5 1782   4.381   1.015   0.812  1.5642 -0.1502  0.5221
  114MPD2    N1 1783   4.705   1.438   1.021  0.8127 -0.1484 -0.1803
  114MPD2    H7 1784   4.638   1.506   0.984 -1.3894 -2.1048  0.2497
  115TMC2    C1 1785   0.452   3.840   0.142  0.5271 -0.2843 -0.0982
  115TMC2    C2 1786   0.585   3.811   0.165  0.3730  0.1690 -0.9912
  115TMC2    C3 1787   0.672   3.915   0.177  0.1771  0.4270  0.0657
  115TMC2    C4 1788   0.406   3.969   0.139  0.3204  0.4246 -0.0208
  115TMC2    C5 1789   0.506   4.067   0.148 -0.1464  0.3893 -0.4002
  115TMC2    C6 1790   0.637   4.047   0.159  0.4774  0.4689 -0.0067
  115TMC2     C 1791   0.380   3.743   0.057  0.3795  0.2932  0.3239
  115TMC2     O 1792   0.448   3.680  17.727  0.5696  0.4722  0.1963
  115TMC2     H 1793   0.615   3.707   0.171  0.7443  0.2104 -2.0195
  115TMC2    H1 1794   0.307   3.986   0.098  0.0277  0.8265  0.8621
  115TMC2    H2 1795   0.714   4.124   0.157  1.2092 -0.3054 -1.3844
  115TMC2    C7 1796   0.462   4.209   0.133  0.5558  0.3320 -1.0292
  115TMC2    C8 1797   0.817   3.901   0.170  0.0307 -0.0795  0.0009
  115TMC2    O1 1798   0.352   4.225   0.175 -0.0122 -0.3443 -0.5391
  115TMC2    O2 1799   0.889   3.980   0.105 -0.5085  0.5035  0.0463
  115TMC2    O5 1800   0.856   3.841   0.286  0.2122  0.3289  0.0906
  115TMC2    H5 1801   0.787   3.833   0.355  0.6663 -0.3980  0.4578
  116MPD2     C 1802   4.707   3.477  17.698  0.3558 -0.4431  0.8542
  116MPD2    C1 1803   0.078   3.505  17.618  0.7176  0.4803  1.1241
  116MPD2    C2 1804   0.178   3.595  17.667 -0.0973  0.0085 -0.5975
  116MPD2    C3 1805   0.160   3.642   0.049  0.3418  0.6364 -0.1652
  116MPD2    C4 1806   0.045   3.623   0.124 -0.1935 -0.3624  0.2659
  116MPD2    C5 1807   4.685   3.545   0.063  0.7803  0.2757 -0.4766
  116MPD2     H 1808   0.256   3.636  17.604 -0.6476  1.5108 -0.3056
  116MPD2    H1 1809   0.027   3.666   0.222 -0.0937  1.2921 -0.4379
  116MPD2    H2 1810   4.630   3.405  17.672  2.4018 -2.0445 -0.7067
  116MPD2    H3 1811   4.594   3.533   0.121  0.0405 -0.0934 -1.6944
  116MPD2     N 1812   0.257   3.724   0.106 -0.1800 -0.6007 -0.3384
  116MPD2    H5 1813   0.235   3.776   0.190  0.3743 -0.2651 -0.4053
  116MPD2    N1 1814   0.093   3.444  17.490  0.3122  0.1068  0.0984
  116MPD2    H7 1815   0.015   3.391  17.453  1.4513 -1.1848 -0.4892
  117TMC2    C1 1816   3.964   1.490  14.733 -0.2275 -0.3107 -0.6801
  117TMC2    C2 1817   3.847   1.519  14.794  0.9097  0.2770 -0.3848
  117TMC2    C3 1818   3.840   1.610  14.888 -0.7138  0.6816 -0.2024
  117TMC2    C4 1819   4.083   1.537  14.768  0.6638  0.4504 -0.9015
  117TMC2    C5 1820   4.069   1.651  14.848  0.1509 -0.4143 -0.4315
  117TMC2    C6 1821   3.951   1.693  14.907 -0.9276  0.1612  0.0173
  117TMC2     C 1822   3.966   1.372  14.650 -0.4239 -0.1860  0.7111
  117TMC2     O 1823   4.076   1.315  14.652 -0.2689 -0.3434 -0.0012
  117TMC2     H 1824   3.755   1.467  14.770  1.1244 -1.6480  3.0740
  117TMC2    H1 1825   4.178   1.510  14.722  1.5069 -0.7511  1.5123
  117TMC2    H2 1826   3.940   1.790  14.955 -3.1330 -0.9275  1.6855
  117TMC2    C7 1827   4.185   1.740  14.852 -0.6725 -0.1191 -0.7856
  117TMC2    C8 1828   3.720   1.640  14.948  0.0774 -0.2890  0.3885
  117TMC2    O1 1829   4.209   1.808  14.953 -0.4642  0.5969 -0.6684
  117TMC2    O2 1830   3.612   1.597  14.900 -0.1938  0.1201 -0.1183
  117TMC2    O5 1831   3.762   1.634  15.079 -0.1569  0.0443  0.4425
  117TMC2    H5 1832   3.855   1.647  15.108  0.3794 -0.7757 -0.9372
  118MPD2     C 1833   4.442   1.862  14.780 -0.4051  0.0916  1.0315
  118MPD2    C1 1834   4.350   1.815  14.686 -0.4881  0.1355 -0.6040
  118MPD2    C2 1835   4.370   1.850  14.548 -0.0493  0.0507 -0.5270
  118MPD2    C3 1836   4.474   1.929  14.513 -0.4081  0.3216 -0.3512
  118MPD2    C4 1837   4.545   1.987  14.610  0.3799 -0.0181 -0.4107
  118MPD2    C5 1838   4.539   1.951  14.735 -0.3159 -0.0613 -0.6395
  118MPD2     H 1839   4.301   1.814  14.473  0.2180  0.5328 -1.0066
  118MPD2    H1 1840   4.612   2.068  14.584  0.9351 -1.0495 -2.1709
  118MPD2    H2 1841   4.446   1.844  14.886  3.4579 -1.8951  0.5735
  118MPD2    H3 1842   4.603   1.996  14.809 -1.2219 -0.8822  0.6576
  118MPD2     N 1843   4.494   1.980  14.387 -0.0663  0.1690  0.2734
  118MPD2    H5 1844   4.574   2.040  14.370 -0.1430  0.2505  0.2003
  118MPD2    N1 1845   4.241   1.741  14.725 -0.0729  0.2470 -0.2476
  118MPD2    H7 1846   4.181   1.697  14.657 -1.6312  0.3697  1.0554
  119TMC2    C1 1847   2.226   2.087  13.337 -0.0727 -0.4418 -0.6530
  119TMC2    C2 1848   2.294   2.107  13.224  0.1668 -0.6505 -0.2683
  119TMC2    C3 1849   2.239   2.066  13.109 -0.2651  0.1264  0.0056
  119TMC2    C4 1850   2.111   2.021  13.344 -0.5450 -0.1891  0.1242
  119TMC2    C5 1851   2.066   1.969  13.227 -0.8566  0.1798  0.2228
  119TMC2    C6 1852   2.131   1.975  13.110 -0.6169 -0.0975  0.2129
  119TMC2     C 1853   2.255   2.171  13.449 -0.5900  0.3127 -0.2505
  119TMC2     O 1854   2.164   2.208  13.525 -0.1001  0.7292  0.9075
  119TMC2     H 1855   2.363   2.190  13.227 -0.1530 -0.4888  2.4541
  119TMC2    H1 1856   2.075   2.006  13.445  1.2904  0.4107  0.8628
  119TMC2    H2 1857   2.095   1.922  13.023 -0.3110  0.0824 -0.0231
  119TMC2    C7 1858   1.935   1.908  13.224 -0.3493 -0.1763  0.2951
  119TMC2    C8 1859   2.334   2.057  12.995 -0.4343 -0.0839 -0.1733
  119TMC2    O1 1860   1.892   1.866  13.119 -0.4029 -0.7346  0.6961
  119TMC2    O2 1861   2.454   2.032  12.994  0.2843 -0.1588 -0.5649
  119TMC2    O5 1862   2.248   2.048  12.893 -0.0087  0.4615 -0.3302
  119TMC2    H5 1863   2.161   2.087  12.913 -0.0594  0.0354  0.2907
  120MPD2     C 1864   2.592   2.370  13.777  0.9304 -0.0100  0.2998
  120MPD2    C1 1865   2.458   2.397  13.768  0.1973 -0.8180 -0.0247
  120MPD2    C2 1866   2.384   2.334  13.661  0.2216 -0.1696 -0.4564
  120MPD2    C3 1867   2.450   2.249  13.569  0.3669 -0.3321  0.2250
  120MPD2    C4 1868   2.578   2.218  13.596 -1.0293  0.2056  0.1742
  120MPD2    C5 1869   2.647   2.277  13.694 -0.0425 -0.7570 -0.1930
  120MPD2     H 1870   2.280   2.359  13.649  0.3854  2.3192  3.4541
  120MPD2    H1 1871   2.638   2.149  13.539  1.0794  1.3434  1.0112
  120MPD2    H2 1872   2.653   2.411  13.857  3.2662  0.8361 -1.8967
  120MPD2    H3 1873   2.756   2.277  13.696 -0.0612  0.4387  0.7779
  120MPD2     N 1874   2.388   2.187  13.462  0.1501 -1.2412 -0.6993
  120MPD2    H5 1875   2.452   2.140  13.400  2.5964  1.8144 -0.4794
  120MPD2    N1 1876   2.401   2.471  13.877  0.3202 -0.1925  0.0803
  120MPD2    H7 1877   2.472   2.526  13.924 -0.0044 -0.3480  0.7448
  121TMC2    C1 1878   3.404   4.567  14.300  0.7401  0.3984  0.4150
  121TMC2    C2 1879   3.462   4.458  14.357 -0.2148  0.2467  0.4700
  121TMC2    C3 1880   3.387   4.343  14.368  0.1192  0.5701  0.4817
  121TMC2    C4 1881   3.278   4.563  14.255 -0.3405  0.1682  1.0775
  121TMC2    C5 1882   3.203   4.449  14.279 -0.9482  0.0984 -1.3528
  121TMC2    C6 1883   3.251   4.335  14.336 -0.5498 -0.1782  0.0810
  121TMC2     C 1884   3.490   4.665  14.237 -0.1565 -0.0805  0.0318
  121TMC2     O 1885   3.573   4.724  14.308 -0.1152 -0.1405 -0.1649
  121TMC2     H 1886   3.565   4.463  14.390 -0.6194  4.7201  1.0879
  121TMC2    H1 1887   3.232   4.642  14.197 -3.3478 -0.3982  2.6710
  121TMC2    H2 1888   3.198   4.241  14.341 -0.8162  0.0323  1.2569
  121TMC2    C7 1889   3.061   4.462  14.239 -0.2350  0.6005  0.2404
  121TMC2    C8 1890   3.469   4.222  14.368  0.0024  0.7360 -0.3196
  121TMC2    O1 1891   3.019   4.569  14.199  0.3922  0.2194 -0.4319
  121TMC2    O2 1892   3.579   4.223  14.313 -0.1067 -0.5672 -0.2403
  121TMC2    O5 1893   3.389   4.115  14.397 -0.5462  0.2120 -0.0896
  121TMC2    H5 1894   3.305   4.134  14.443 -1.6575 -3.2308 -0.7024
  122MPD2     C 1895   3.655   0.069  14.023 -0.2453 -0.0565 -0.1076
  122MPD2    C1 1896   3.549   4.729  13.995 -0.4416  0.6680 -0.4369
  122MPD2    C2 1897   3.518   4.695  13.859 -0.4966  0.4886 -0.6149
  122MPD2    C3 1898   3.596   0.018  13.758  0.2657 -0.1839 -0.1582
  122MPD2    C4 1899   3.699   0.102  13.794  0.1886 -0.1833  0.0155
  122MPD2    C5 1900   3.733   0.123  13.927  0.3088 -0.1614 -0.0097
  122MPD2     H 1901   3.436   4.630  13.831 -0.6972  1.0319 -1.2881
  122MPD2    H1 1902   3.769   0.140  13.721 -0.1401 -2.4327 -1.4707
  122MPD2    H2 1903   3.687   0.074  14.127  1.7218  0.0217 -0.7112
  122MPD2    H3 1904   3.819   0.176  13.968 -1.4229  1.3500  1.6564
  122MPD2     N 1905   3.570   4.736  13.618 -0.2455 -0.1264  0.3725
  122MPD2    H5 1906   3.648   0.027  13.559 -1.5861  0.8772 -0.8808
  122MPD2    N1 1907   3.484   4.649  14.103  0.3241  0.3940  0.1572
  122MPD2    H7 1908   3.401   4.597  14.076  0.1888 -0.1498  1.6506
  123TMC2    C1 1909   3.111   2.219  10.680  0.5842 -0.6665 -0.4168
  123TMC2    C2 1910   3.219   2.272  10.746 -0.4047  0.4679 -0.0038
  123TMC2    C3 1911   3.270   2.396  10.714 -0.1274 -0.4759 -1.0980
  123TMC2    C4 1912   3.055   2.292  10.580 -0.3442 -0.5745 -0.2417
  123TMC2    C5 1913   3.111   2.417  10.543 -0.5101 -0.0978  0.1524
  123TMC2    C6 1914   3.217   2.471  10.612  0.3500 -0.4051  0.2814
  123TMC2     C 1915   3.030   2.137  10.763 -0.4578 -0.2068  1.5216
  123TMC2     O 1916   3.076   2.038  10.817 -0.3209  0.2738 -0.3297
  123TMC2     H 1917   3.263   2.228  10.835  1.0239  0.6884 -0.5995
  123TMC2    H1 1918   2.972   2.255  10.520  1.8806 -3.4892 -1.5252
  123TMC2    H2 1919   3.265   2.565  10.589  0.9841 -0.7000  0.4107
  123TMC2    C7 1920   3.023   2.506  10.466 -0.5251  1.0157 -0.4992
  123TMC2    C8 1921   3.380   2.456  10.784  0.5517 -0.4833  0.1040
  123TMC2    O1 1922   2.915   2.459  10.438 -0.1351  0.4878 -0.3267
  123TMC2    O2 1923   3.465   2.384  10.832 -0.4941  0.2295 -0.6433
  123TMC2    O5 1924   3.345   2.578  10.816  0.8917 -1.0836 -0.5952
  123TMC2    H5 1925   3.249   2.592  10.798  1.0979 -0.1193 -0.9079
  124MPD2     C 1926   2.569   2.024  10.955 -0.2851 -0.0754  0.1793
  124MPD2    C1 1927   2.563   2.125  10.864  0.6481  0.3267  0.1514
  124MPD2    C2 1928   2.676   2.162  10.793 -0.9178 -0.1792  0.5095
  124MPD2    C3 1929   2.797   2.114  10.821 -0.1410 -0.6854  0.2417
  124MPD2    C4 1930   2.806   2.013  10.921  0.0080 -0.2469 -0.6260
  124MPD2    C5 1931   2.691   1.977  10.991  0.0938 -0.4209 -0.5525
  124MPD2     H 1932   2.676   2.236  10.714 -1.8362 -0.0282  0.6495
  124MPD2    H1 1933   2.901   1.969  10.949 -0.0168  1.1030  1.5245
  124MPD2    H2 1934   2.482   1.990  11.010 -0.4134 -1.9150 -1.2054
  124MPD2    H3 1935   2.700   1.894  11.060  3.3646 -0.2537 -0.7806
  124MPD2     N 1936   2.901   2.173  10.748  0.2400 -0.0513 -0.6806
  124MPD2    H5 1937   2.878   2.252  10.689 -1.9918 -1.0154 -1.1087
  124MPD2    N1 1938   2.428   2.166  10.828 -0.2347 -0.3381  0.0654
  124MPD2    H7 1939   2.349   2.117  10.867 -0.8457 -0.5765 -1.4738
  125TMC2    C1 1940   3.133   4.368  10.170  0.4768 -0.3958 -0.0576
  125TMC2    C2 1941   3.137   4.234  10.136 -0.1697 -0.5355 -0.7438
  125TMC2    C3 1942   3.189   4.194  10.016  1.2277  0.6389 -0.3378
  125TMC2    C4 1943   3.180   4.460  10.083 -0.4039  0.2504  0.6545
  125TMC2    C5 1944   3.213   4.417   9.959 -0.1970  0.6812 -0.7101
  125TMC2    C6 1945   3.220   4.287   9.917  0.0081  0.5185 -0.1860
  125TMC2     C 1946   3.068   4.413  10.292 -0.1682  0.7276 -0.1140
  125TMC2     O 1947   2.984   4.341  10.338  0.1058  1.0210 -0.2175
  125TMC2     H 1948   3.097   4.152  10.195 -0.5439 -0.9661 -1.5986
  125TMC2    H1 1949   3.158   4.564  10.107  0.4750  0.7406 -0.6469
  125TMC2    H2 1950   3.259   4.254   9.821 -0.7119  1.4847 -0.8110
  125TMC2    C7 1951   3.207   4.518   9.854  1.0375  0.5320  0.2706
  125TMC2    C8 1952   3.159   4.064   9.970  0.1792 -0.6580 -0.3774
  125TMC2    O1 1953   3.129   4.607   9.869  0.1027  0.0665 -0.4878
  125TMC2    O2 1954   3.061   4.016  10.022  0.0708 -0.2258 -0.8299
  125TMC2    O5 1955   3.275   3.998   9.963  0.0982 -0.1959 -0.2485
  125TMC2    H5 1956   3.357   4.040   9.928  0.2414 -0.9092 -0.7580
  126MPD1     C 1957   3.043   4.732  10.704 -0.2316 -0.7687 -0.1197
  126MPD1    C1 1958   3.133   0.048  10.614 -0.4455 -1.0124 -0.3192
  126MPD1    C2 1959   3.152   4.718  10.491  0.2072  0.7895 -0.0233
  126MPD1    C3 1960   3.088   4.598  10.467 -0.1457  0.3196  0.2048
  126MPD1    C4 1961   3.001   4.550  10.556  0.2193 -0.1629 -0.3487
  126MPD1    C5 1962   2.988   4.614  10.674  0.1578 -0.7575  0.0842
  126MPD1     H 1963   3.227   0.017  10.422  0.3360  1.2879  0.3858
  126MPD1    H1 1964   2.954   4.457  10.527  1.2286 -0.9203  0.4734
  126MPD1    H2 1965   3.033   0.014  10.810 -0.9971  1.0148 -0.5264
  126MPD1    H3 1966   2.920   4.569  10.746  0.0650  0.5277  0.8051
  126MPD1     N 1967   3.122   4.527  10.342  0.0994  0.0621 -0.0442
  126MPD1    H5 1968   3.199   4.572  10.293 -0.9287  0.7870 -1.0040
  126MPD1    N1 1969   3.211   0.160  10.646  0.1195 -0.3965 -0.2773
  126MPD1    H6 1970   3.220   0.225  10.568  0.8002 -0.9848 -0.6816
  126MPD1    H7 1971   3.174   0.212  10.725  0.8671 -1.2804  0.6411
  127TMC2    C1 1972   3.863   2.958  10.117  0.4899  0.0633 -0.3454
  127TMC2    C2 1973   3.923   2.908  10.234 -0.2596  0.2159  0.6313
  127TMC2    C3 1974   3.859   2.813  10.305 -0.3997 -0.7967 -0.4981
  127TMC2    C4 1975   3.740   2.928  10.079  0.1314 -0.2922 -0.6954
  127TMC2    C5 1976   3.678   2.823  10.152  0.5136  0.1615  0.4764
  127TMC2    C6 1977   3.735   2.764  10.260  0.7465  0.8696  0.5829
  127TMC2     C 1978   3.940   3.060  10.041  0.3769  0.3619 -0.5647
  127TMC2     O 1979   4.024   3.122  10.107 -0.1392  0.1589  0.1692
  127TMC2     H 1980   4.019   2.948  10.262  1.0615 -1.7303 -1.0765
  127TMC2    H1 1981   3.700   2.955   9.981 -0.3827  0.4347 -0.2809
  127TMC2    H2 1982   3.690   2.676  10.306 -0.5471  1.0598 -0.3181
  127TMC2    C7 1983   3.546   2.791  10.112 -0.4278  0.5258 -0.1587
  127TMC2    C8 1984   3.926   2.741  10.414  0.0321  0.3883 -0.4414
  127TMC2    O1 1985   3.490   2.872  10.039  0.1350  0.2446  0.1139
  127TMC2    O2 1986   3.922   2.618  10.432  0.2527  0.0537 -0.1221
  127TMC2    O5 1987   3.976   2.829  10.498 -0.3974  0.1704 -0.1553
  127TMC2    H5 1988   3.975   2.922  10.465 -0.8020  0.7289  1.4380
  128MPD2     C 1989   3.906   3.151   9.675 -0.0820 -0.5055 -0.6825
  128MPD2    C1 1990   3.959   3.154   9.802  0.1021 -0.0374  0.8015
  128MPD2    C2 1991   4.056   3.248   9.834 -0.0158 -0.3266  0.1614
  128MPD2    C3 1992   4.108   3.335   9.738  0.6074 -0.0547  0.2609
  128MPD2    C4 1993   4.056   3.327   9.608  0.5203 -1.1065 -0.1237
  128MPD2    C5 1994   3.952   3.241   9.587 -0.1427  0.0776  0.4046
  128MPD2     H 1995   4.102   3.242   9.932  0.2290  0.5639  0.0925
  128MPD2    H1 1996   4.101   3.382   9.527  0.0253 -1.9442 -0.9647
  128MPD2    H2 1997   3.825   3.082   9.657  0.1268 -0.7766 -0.5780
  128MPD2    H3 1998   3.920   3.246   9.484 -0.6403  0.9026  0.6086
  128MPD2     N 1999   4.215   3.423   9.772  0.4297 -0.6958 -0.0246
  128MPD2    H5 2000   4.252   3.410   9.866 -1.8503 -1.4928  0.7683
  128MPD2    N1 2001   3.905   3.064   9.904 -0.2073 -0.0099  0.1486
  128MPD2    H7 2002   3.839   2.996   9.869  0.2911  1.0288 -2.7846
  129TMC2    C1 2003   0.444   3.900   1.444  0.0072  0.4078  0.2160
  129TMC2    C2 2004   0.483   3.992   1.536  0.0812 -0.5007 -0.1192
  129TMC2    C3 2005   0.449   3.972   1.666  0.0461 -0.1390  0.2826
  129TMC2    C4 2006   0.366   3.791   1.478 -0.4599 -0.0292 -0.0598
  129TMC2    C5 2007   0.332   3.775   1.612  0.7359 -0.0830 -0.1610
  129TMC2    C6 2008   0.381   3.866   1.706  0.2714  0.4290  0.2702
  129TMC2     C 2009   0.473   3.910   1.300  0.1696  0.1060  0.5331
  129TMC2     O 2010   0.401   3.846   1.224 -0.7220 -0.0379  0.5113
  129TMC2     H 2011   0.547   4.073   1.503 -0.5149 -0.7711 -1.9503
  129TMC2    H1 2012   0.332   3.716   1.407 -0.2639 -1.3069  1.1973
  129TMC2    H2 2013   0.370   3.855   1.813  0.9762 -1.9877  0.1085
  129TMC2    C7 2014   0.325   3.643   1.657 -0.2883 -0.5862  0.8116
  129TMC2    C8 2015   0.521   4.029   1.774  0.3784 -0.8468 -0.8411
  129TMC2    O1 2016   0.353   3.548   1.576 -0.4369 -0.1371 -0.0584
  129TMC2    O2 2017   0.543   3.984   1.887 -0.1274 -0.0301  0.3878
  129TMC2    O5 2018   0.564   4.151   1.727 -0.3014  0.0693 -0.0733
  129TMC2    H5 2019   0.507   4.186   1.655 -1.8085  0.6428  1.3855
  130MPD2     C 2020   0.582   3.956   1.034 -0.4577 -0.1847 -0.3787
  130MPD2    C1 2021   0.655   3.982   1.146  0.0530  0.1938  0.1461
  130MPD2    C2 2022   0.776   4.042   1.125  0.0682 -0.0090 -0.3998
  130MPD2    C3 2023   0.835   4.046   1.005  0.5406  0.6001 -0.1738
  130MPD2    C4 2024   0.761   4.021   0.899 -0.7836  0.1846  0.5079
  130MPD2    C5 2025   0.629   3.993   0.915  0.5534  0.3404 -0.0325
  130MPD2     H 2026   0.836   4.072   1.210  2.9094 -1.6693 -1.8198
  130MPD2    H1 2027   0.799   4.034   0.798 -1.1644 -0.6957  0.2493
  130MPD2    H2 2028   0.488   3.903   1.027 -0.1299 -0.6982 -0.8258
  130MPD2    H3 2029   0.570   3.985   0.824  0.0354  0.8489  0.2583
  130MPD2     N 2030   0.973   4.082   1.003  0.3240  0.5471 -0.5953
  130MPD2    H5 2031   1.013   4.098   1.094 -0.0426 -1.0085 -0.1587
  130MPD2    N1 2032   0.597   3.971   1.279 -0.3315  0.3092  0.3676
  130MPD2    H7 2033   0.654   4.004   1.356  0.7273  0.0985 -0.3309
  131TMC2    C1 2034   1.957   3.050  10.992 -0.5301  0.0228  0.7170
  131TMC2    C2 2035   1.951   3.025  11.125  0.4883 -0.4768  0.0962
  131TMC2    C3 2036   1.940   3.126  11.219  0.3396 -0.0404  0.2500
  131TMC2    C4 2037   1.954   3.174  10.943 -0.4962  0.2381  0.5874
  131TMC2    C5 2038   1.942   3.280  11.033  0.0025 -0.2135  0.1629
  131TMC2    C6 2039   1.942   3.256  11.172 -0.1357 -0.0477  0.1800
  131TMC2     C 2040   1.995   2.933  10.906 -0.1646  0.6974 -0.1158
  131TMC2     O 2041   2.048   2.833  10.957  0.1623 -0.1986  0.0815
  131TMC2     H 2042   1.960   2.923  11.161 -1.5548 -0.2366  1.2968
  131TMC2    H1 2043   1.958   3.190  10.836 -0.1786  0.1150  0.5797
  131TMC2    H2 2044   1.907   3.329  11.244  0.4201  0.1268  0.2748
  131TMC2    C7 2045   1.906   3.408  10.987  0.6667  0.3670 -0.7677
  131TMC2    C8 2046   1.920   3.092  11.357 -0.6862  0.1779 -0.6159
  131TMC2    O1 2047   1.869   3.494  11.065 -0.0742  0.0731 -0.3758
  131TMC2    O2 2048   1.876   2.987  11.403 -0.3363 -0.3448  0.2025
  131TMC2    O5 2049   1.945   3.204  11.432 -0.4835  0.7291 -0.4917
  131TMC2    H5 2050   1.997   3.271  11.383  0.6514  1.1832  1.3599
  132MPD2     C 2051   1.887   2.900  10.549  0.3913 -0.2108 -0.3080
  132MPD2    C1 2052   1.934   2.860  10.672 -0.3457 -0.9581  0.0668
  132MPD2    C2 2053   1.979   2.731  10.682  0.1419  0.1300  0.2555
  132MPD2    C3 2054   1.967   2.644  10.577  0.8274  0.3746 -0.0161
  132MPD2    C4 2055   1.918   2.688  10.457 -0.1312 -0.0738 -0.4495
  132MPD2    C5 2056   1.891   2.825  10.442  0.7112 -0.1926  0.0492
  132MPD2     H 2057   2.016   2.692  10.776  1.3209 -0.4992 -0.4715
  132MPD2    H1 2058   1.924   2.630  10.366  0.6200  0.1947 -0.5777
  132MPD2    H2 2059   1.861   3.002  10.522 -3.1755 -1.0318  0.0670
  132MPD2    H3 2060   1.863   2.859  10.343  1.0046  0.6815  0.2696
  132MPD2     N 2061   2.022   2.522  10.596 -0.4601  0.0045 -0.7665
  132MPD2    H5 2062   2.063   2.492  10.684 -0.2112  1.8187 -0.2583
  132MPD2    N1 2063   1.950   2.950  10.780 -0.1550  0.6128 -0.7135
  132MPD2    H7 2064   1.887   3.030  10.776  1.8978  2.2800  0.5341
  133TMC2    C1 2065   1.408   2.062   9.436 -0.1614  0.2246 -1.1919
  133TMC2    C2 2066   1.406   1.980   9.324 -0.8254 -0.4413 -0.3007
  133TMC2    C3 2067   1.501   1.881   9.321  0.5728 -0.6147  0.3700
  133TMC2    C4 2068   1.500   2.061   9.529  0.0186  0.4650 -0.4410
  133TMC2    C5 2069   1.604   1.973   9.507  1.1878  0.5121  1.0894
  133TMC2    C6 2070   1.609   1.887   9.405 -0.5281 -0.0298  0.3627
  133TMC2     C 2071   1.286   2.134   9.472  0.6773 -0.6796  0.1086
  133TMC2     O 2072   1.186   2.063   9.451 -0.4020 -0.0659  0.6288
  133TMC2     H 2073   1.323   1.973   9.254 -1.4293  1.7629  0.1905
  133TMC2    H1 2074   1.480   2.103   9.626  0.3484  0.1571 -0.2415
  133TMC2    H2 2075   1.689   1.814   9.397 -0.2135  0.4281 -0.6965
  133TMC2    C7 2076   1.697   1.962   9.608  0.1795  0.2761  0.4798
  133TMC2    C8 2077   1.497   1.794   9.198 -0.6238  0.3240 -1.1248
  133TMC2    O1 2078   1.745   1.851   9.620  0.5056 -0.3097 -0.0691
  133TMC2    O2 2079   1.440   1.838   9.098  0.0275 -0.0521  0.0996
  133TMC2    O5 2080   1.518   1.664   9.231  0.1961  0.2890  0.5853
  133TMC2    H5 2081   1.554   1.641   9.319  2.0466 -0.4015 -0.3665
  134MPD2     C 2082   1.075   2.325   9.558  0.6968  0.3449  0.0895
  134MPD2    C1 2083   1.208   2.359   9.543  0.0591  0.2649  0.7212
  134MPD2    C2 2084   1.250   2.492   9.563  0.2731 -0.0617  0.0408
  134MPD2    C3 2085   1.151   2.581   9.602 -0.2321  0.0811  0.0551
  134MPD2    C4 2086   1.016   2.540   9.626  0.2719  0.2855 -0.7481
  134MPD2    C5 2087   0.983   2.415   9.599  0.6681  0.2889 -0.0984
  134MPD2     H 2088   1.354   2.519   9.553  0.4793 -0.8907 -0.0680
  134MPD2    H1 2089   0.942   2.614   9.654  0.7982  1.2432 -1.8368
  134MPD2    H2 2090   1.035   2.226   9.541  1.8815 -0.3263  1.1896
  134MPD2    H3 2091   0.879   2.386   9.611 -0.0351  2.3970 -1.0240
  134MPD2     N 2092   1.171   2.721   9.622  0.6699  0.3902  0.3462
  134MPD2    H5 2093   1.097   2.772   9.671  0.9647 -0.3013  1.5130
  134MPD2    N1 2094   1.308   2.265   9.512  0.1359 -0.6430  0.1874
  134MPD2    H7 2095   1.404   2.297   9.509 -0.1777  0.1720 -1.3194
  135TMC2    C1 2096   3.534   0.154  10.670  0.1460  0.0426  0.9512
  135TMC2    C2 2097   3.520   0.208  10.803  0.1171  0.2249  1.5263
  135TMC2    C3 2098   3.459   0.139  10.900 -0.2563 -0.4429 -0.1889
  135TMC2    C4 2099   3.513   0.016  10.650 -0.3884  1.0801  0.1789
  135TMC2    C5 2100   3.435   4.697  10.750 -1.0020 -0.5924  0.4517
  135TMC2    C6 2101   3.405   0.015  10.870  0.2061  0.7487 -0.2571
  135TMC2     C 2102   3.594   0.245  10.571 -0.3321  0.2100  0.0347
  135TMC2     O 2103   3.613   0.361  10.601 -0.3772 -0.6150  0.0887
  135TMC2     H 2104   3.548   0.312  10.816  0.1948 -0.0227  3.2870
  135TMC2    H1 2105   3.533   4.705  10.556  1.9285  2.3267  0.0191
  135TMC2    H2 2106   3.352   4.697  10.947 -0.7050  2.6242  0.4960
  135TMC2    C7 2107   3.414   4.553  10.746 -0.4477  0.1558  0.4867
  135TMC2    C8 2108   3.443   0.206  11.033  0.3296  0.1313 -0.4039
  135TMC2    O1 2109   3.509   4.484  10.715  0.0981  0.0774  0.2034
  135TMC2    O2 2110   3.440   0.329  11.037  0.3469  0.7172 -0.0959
  135TMC2    O5 2111   3.509   0.125  11.118  0.3292 -0.5821 -0.4480
  135TMC2    H5 2112   3.510   0.032  11.087  0.9817 -0.2781 -1.3147
  136MPD2     C 2113   3.672   0.383  10.321  0.0434 -0.6505  0.3290
  136MPD2    C1 2114   3.592   0.273  10.326 -0.3949  1.2352 -0.3391
  136MPD2    C2 2115   3.536   0.223  10.210 -0.1705 -0.0273 -0.2197
  136MPD2    C3 2116   3.561   0.283  10.087  0.1422  0.0375  0.5093
  136MPD2    C4 2117   3.634   0.402  10.088  0.6954 -0.5351 -0.2546
  136MPD2    C5 2118   3.691   0.450  10.206 -0.0431 -0.1808  0.0768
  136MPD2     H 2119   3.468   0.139  10.222 -2.0874  1.5044 -0.2684
  136MPD2    H1 2120   3.664   0.446   9.993  0.1123  1.2107  0.3748
  136MPD2    H2 2121   3.716   0.434  10.405 -3.2413  4.7445 -1.2734
  136MPD2    H3 2122   3.756   0.536  10.210  0.4237 -0.6241  2.1222
  136MPD2     N 2123   3.522   0.226   9.963  0.2317  0.4450 -0.0519
  136MPD2    H5 2124   3.560   0.284   9.889 -0.4044  0.5334 -0.3049
  136MPD2    N1 2125   3.565   0.196  10.444 -0.5257 -0.0833 -0.6335
  136MPD2    H7 2126   3.521   0.105  10.439  0.3227 -0.6102  1.6002
  137TMC2    C1 2127   2.818   3.071   9.546  0.0543 -0.5474 -0.0392
  137TMC2    C2 2128   2.873   2.965   9.482  0.0078 -0.4282 -0.1077
  137TMC2    C3 2129   2.802   2.849   9.486  0.9257 -0.0060 -0.0467
  137TMC2    C4 2130   2.687   3.077   9.592 -0.3192  0.0976  0.1103
  137TMC2    C5 2131   2.618   2.963   9.584  0.2654  0.4071 -0.4672
  137TMC2    C6 2132   2.672   2.847   9.530 -0.1024 -0.0008 -0.5283
  137TMC2     C 2133   2.895   3.191   9.569  0.2608 -0.8483 -0.4200
  137TMC2     O 2134   2.834   3.293   9.597  0.1287  0.0383 -0.0782
  137TMC2     H 2135   2.976   2.959   9.450  0.2161 -2.3325  0.9362
  137TMC2    H1 2136   2.646   3.164   9.643  0.7230  0.8017 -0.2650
  137TMC2    H2 2137   2.618   2.753   9.535  1.1567 -0.8040 -1.9806
  137TMC2    C7 2138   2.482   2.960   9.627 -0.0566 -0.4325 -0.4111
  137TMC2    C8 2139   2.872   2.730   9.442 -0.3139 -0.0806 -0.0596
  137TMC2    O1 2140   2.422   2.857   9.600 -0.4286  0.7827 -0.3269
  137TMC2    O2 2141   2.993   2.731   9.434 -0.4245  0.2225  0.0162
  137TMC2    O5 2142   2.794   2.624   9.427 -0.0687 -0.2473  0.1939
  137TMC2    H5 2143   2.699   2.640   9.446 -1.1314 -3.7045 -2.2032
  138MPD2     C 2144   3.254   3.256   9.603  0.3017 -0.2025  0.4014
  138MPD2    C1 2145   3.119   3.271   9.634  0.4475  0.0366 -0.7236
  138MPD2    C2 2146   3.088   3.383   9.709  0.1593  0.5961 -0.5790
  138MPD2    C3 2147   3.185   3.463   9.775  0.0566  0.3327 -0.4366
  138MPD2    C4 2148   3.317   3.450   9.732  0.0751 -0.6029  0.0701
  138MPD2    C5 2149   3.351   3.342   9.648  0.3182 -0.6301  0.2283
  138MPD2     H 2150   2.984   3.405   9.729 -0.1140 -1.5088  0.3125
  138MPD2    H1 2151   3.395   3.516   9.767 -0.3299 -0.5263  0.8271
  138MPD2    H2 2152   3.283   3.174   9.538 -1.1066 -0.9038  0.6636
  138MPD2    H3 2153   3.457   3.325   9.634  0.3900 -0.5515  0.6716
  138MPD2     N 2154   3.138   3.552   9.873 -0.4604 -0.1145  0.0088
  138MPD2    H5 2155   3.039   3.575   9.883 -0.0971  1.4783  0.0271
  138MPD2    N1 2156   3.033   3.177   9.573  0.3039 -0.0316 -0.5195
  138MPD2    H7 2157   3.074   3.097   9.526  1.2652  0.3921 -0.4185
  139TMC2    C1 2158   4.115   1.931  13.455  0.4468  0.7529  0.1569
  139TMC2    C2 2159   4.213   2.023  13.439  0.0455  0.8613  0.7350
  139TMC2    C3 2160   4.196   2.148  13.495  1.1816 -0.3131 -0.0073
  139TMC2    C4 2161   3.989   1.966  13.488  0.3904 -0.5671 -0.4689
  139TMC2    C5 2162   3.970   2.098  13.528 -0.4194 -0.1693 -0.4986
  139TMC2    C6 2163   4.072   2.188  13.535 -0.7898  0.0420  1.3343
  139TMC2     C 2164   4.154   1.793  13.484 -0.9565  1.1787 -0.6999
  139TMC2     O 2165   4.265   1.756  13.449 -0.5164 -0.0890 -0.0771
  139TMC2     H 2166   4.312   1.988  13.411 -0.1374  2.2298 -1.5888
  139TMC2    H1 2167   3.906   1.896  13.490 -0.7970  0.8150 -0.8784
  139TMC2    H2 2168   4.049   2.292  13.557 -1.8318  0.0048  0.4530
  139TMC2    C7 2169   3.836   2.150  13.542 -0.7720  0.2805 -0.7684
  139TMC2    C8 2170   4.309   2.241  13.513  0.0740  0.4511 -0.8151
  139TMC2    O1 2171   3.823   2.273  13.573 -0.2754  0.0184 -0.0336
  139TMC2    O2 2172   4.405   2.251  13.438  0.6628  0.7510  0.0854
  139TMC2    O5 2173   4.280   2.322  13.616 -0.2330  0.4015 -0.8009
  139TMC2    H5 2174   4.206   2.292  13.674 -1.1000  1.3759 -1.3988
  140MPD2     C 2175   3.991   1.551  13.699  0.4158 -0.4289  0.1928
  140MPD2    C1 2176   4.083   1.593  13.608 -0.5810  0.7567 -0.2083
  140MPD2    C2 2177   4.167   1.500  13.552 -0.3027 -0.3422  0.0254
  140MPD2    C3 2178   4.161   1.366  13.597  0.4918  0.3783  0.4621
  140MPD2    C4 2179   4.079   1.336  13.700  0.0383 -0.1969  0.6054
  140MPD2    C5 2180   4.000   1.425  13.751  0.1424 -0.0581 -0.9239
  140MPD2     H 2181   4.228   1.535  13.470  0.1808 -3.1387 -0.8137
  140MPD2    H1 2182   4.075   1.235  13.741  1.0982  0.3056  1.9175
  140MPD2    H2 2183   3.919   1.617  13.746  2.8571  1.5284  1.2243
  140MPD2    H3 2184   3.922   1.398  13.821  0.5467  0.6277 -0.2193
  140MPD2     N 2185   4.233   1.268  13.524 -0.0542 -0.4674  0.0298
  140MPD2    H5 2186   4.286   1.309  13.448 -1.5329  0.7953 -0.3094
  140MPD2    N1 2187   4.074   1.731  13.573  0.0761  0.3115 -0.5707
  140MPD2    H7 2188   4.006   1.787  13.624  2.5130  1.1853  1.7213
  141TMC2    C1 2189   4.000   3.272  14.676  0.2004 -0.4995  0.1266
  141TMC2    C2 2190   3.994   3.136  14.659 -1.0843 -0.1190 -0.4734
  141TMC2    C3 2191   3.990   3.062  14.777  0.3909 -0.7173  1.0131
  141TMC2    C4 2192   3.999   3.331  14.797 -0.7532 -0.1003  0.2394
  141TMC2    C5 2193   3.985   3.249  14.907 -0.3563  0.2054 -0.4490
  141TMC2    C6 2194   3.986   3.116  14.897  0.2589 -0.9657  0.5530
  141TMC2     C 2195   3.980   3.352  14.557 -0.4174 -0.4497 -0.6702
  141TMC2     O 2196   3.938   3.301  14.456  0.8814  0.4268  0.0952
  141TMC2     H 2197   4.014   3.087  14.565 -0.0628  3.2172 -1.9783
  141TMC2    H1 2198   3.992   3.437  14.819  3.4413  0.6344 -2.1749
  141TMC2    H2 2199   3.967   3.053  14.983 -0.2261  0.0024  1.1562
  141TMC2    C7 2200   4.040   3.297  15.034  0.1315  0.0233 -0.4786
  141TMC2    C8 2201   3.973   2.918  14.782 -0.5893 -0.2209 -0.0034
  141TMC2    O1 2202   4.016   3.230  15.136  0.1389 -0.1614  0.1109
  141TMC2    O2 2203   3.988   2.850  14.882 -0.3290  0.1356  0.7476
  141TMC2    O5 2204   3.901   2.879  14.671  0.4634  0.0183  0.3115
  141TMC2    H5 2205   3.873   2.943  14.602 -0.4586  0.0596  0.7247
  142TMC2    C1 2206   2.306   2.520  10.252  0.7279 -0.7642  0.2066
  142TMC2    C2 2207   2.243   2.605  10.174  0.0246 -0.1251 -1.0317
  142TMC2    C3 2208   2.275   2.736  10.168  0.3485  0.1841  0.2656
  142TMC2    C4 2209   2.411   2.568  10.329 -0.6013 -0.4384  0.6938
  142TMC2    C5 2210   2.444   2.700  10.313 -0.1879 -0.0189  0.3549
  142TMC2    C6 2211   2.385   2.786  10.229 -0.1290  0.2744 -0.5176
  142TMC2     C 2212   2.272   2.378  10.246 -1.0659  0.6900 -0.0337
  142TMC2     O 2213   2.164   2.352  10.196  0.9044 -0.0760  0.4414
  142TMC2     H 2214   2.156   2.569  10.120 -0.4925 -0.0681 -0.2413
  142TMC2    H1 2215   2.470   2.503  10.392 -0.4960 -0.4799  0.5505
  142TMC2    H2 2216   2.402   2.893  10.233 -1.3768  0.4566 -0.0075
  142TMC2    C7 2217   2.573   2.723  10.378  0.0858 -0.2756  0.5750
  142TMC2    C8 2218   2.183   2.814  10.095  0.1627 -0.4450  0.4231
  142TMC2    O1 2219   2.594   2.650  10.472 -0.4469  0.0349 -0.0013
  142TMC2    O2 2220   2.117   2.776  10.002 -0.1491 -0.6124 -0.1301
  142TMC2    O5 2221   2.153   2.903  10.188 -0.2622 -0.7535  0.1060
  142TMC2    H5 2222   2.212   2.899  10.266 -1.5201 -0.9764  1.0561
  143MPD2     C 2223   2.344   1.876  10.349 -0.5946 -0.3755 -0.5554
  143MPD2    C1 2224   2.235   1.946  10.302 -0.5064 -0.6761  0.6420
  143MPD2    C2 2225   2.238   2.089  10.293 -0.4550  0.8785 -0.2732
  143MPD2    C3 2226   2.351   2.156  10.331  0.2907 -0.1559  0.8839
  143MPD2    C4 2227   2.456   2.082  10.380  0.3255  0.0359  0.7254
  143MPD2    C5 2228   2.458   1.944  10.394  0.0634  0.5593 -0.6958
  143MPD2     H 2229   2.153   2.139  10.249 -1.2229  0.0108  0.2292
  143MPD2    H1 2230   2.540   2.135  10.424  0.1200  1.0118 -0.0758
  143MPD2    H2 2231   2.336   1.768  10.348 -3.1227 -0.1982 -0.9273
  143MPD2    H3 2232   2.540   1.882  10.427 -2.3752 -2.3141  0.0044
  143MPD2     N 2233   2.367   2.298  10.312 -0.1030  0.0658 -0.6644
  143MPD2    H5 2234   2.451   2.344  10.346 -0.4925  1.4804 -1.6151
  143MPD2    N1 2235   2.120   1.867  10.256  0.5345 -0.5486  0.3313
  143MPD2    H7 2236   2.126   1.767  10.244 -0.8422 -0.7696  1.5110
  144TMC2    C1 2237   4.655   0.009   0.868 -0.0978 -0.2977  0.1310
  144TMC2    C2 2238   4.553   0.052   0.943 -0.2368  0.1222 -0.0070
  144TMC2    C3 2239   4.589   0.138   1.043  0.5184 -0.0578 -0.1887
  144TMC2    C4 2240   0.041   0.078   0.872 -0.1457 -0.5447  0.2051
  144TMC2    C5 2241   0.059   0.184   0.949 -0.1490  0.1901  0.1647
  144TMC2    C6 2242   4.700   0.216   1.043  0.0358 -0.4039  0.6936
  144TMC2     C 2243   4.637   4.661   0.753 -0.5474 -0.0307  0.8970
  144TMC2     O 2244   4.714   4.685   0.661  0.1658 -0.1896  0.1201
  144TMC2     H 2245   4.458   0.002   0.961 -0.3295 -0.2013 -1.4327
  144TMC2    H1 2246   0.120   0.039   0.808 -1.5172 -0.1190 -1.7210
  144TMC2    H2 2247   4.707   0.301   1.110  2.1721 -0.1080  0.0968
  144TMC2    C7 2248   0.194   0.239   0.948  0.5590 -0.6470  0.5290
  144TMC2    C8 2249   4.485   0.194   1.122 -0.0280  0.1626  0.0892
  144TMC2    O1 2250   0.285   0.179   0.891  0.1504  0.1653  0.2001
  144TMC2    O2 2251   4.500   0.241   1.231 -0.2790 -0.4307  0.4037
  144TMC2    O5 2252   4.363   0.173   1.069  0.5992 -0.4146  0.5482
  144TMC2    H5 2253   4.364   0.148   0.975 -1.0413  0.3379  0.3404
  145MPD2     C 2254   4.320   4.492   0.404 -0.2858  0.4284 -0.1675
  145MPD2    C1 2255   4.406   4.599   0.395 -0.2909  0.2709 -0.4624
  145MPD2    C2 2256   4.479   4.629   0.511  0.0508  0.4148  0.0351
  145MPD2    C3 2257   4.458   4.556   0.631 -0.5352 -0.3050  0.3389
  145MPD2    C4 2258   4.379   4.451   0.631  0.0912 -0.8086  0.8035
  145MPD2    C5 2259   4.319   4.410   0.518  0.0787 -0.2593 -0.5716
  145MPD2     H 2260   4.545   4.714   0.501  0.6857 -0.1081 -0.2087
  145MPD2    H1 2261   4.357   4.386   0.715 -0.3747 -1.2892  0.3044
  145MPD2    H2 2262   4.260   4.459   0.320  1.9543 -0.1555 -1.5534
  145MPD2    H3 2263   4.245   4.330   0.519  0.0478 -0.2543 -1.7664
  145MPD2     N 2264   4.514   4.601   0.754  0.5212  0.0680  0.4844
  145MPD2    H5 2265   4.464   4.574   0.838  1.1892  1.2580  1.2586
  145MPD2    N1 2266   4.406   4.685   0.288 -0.1856 -0.0002  0.0848
  145MPD2    H7 2267   4.477   0.019   0.280 -0.1395  0.1575  2.0456
  146TMC2    C1 2268   1.955   4.393  12.642  0.3864  0.1103  0.7645
  146TMC2    C2 2269   1.992   4.521  12.605 -0.7179 -0.4750  0.5011
  146TMC2    C3 2270   2.100   4.540  12.524 -0.3507  0.0666  0.6627
  146TMC2    C4 2271   2.036   4.286  12.621 -0.7917  0.0203  1.0416
  146TMC2    C5 2272   2.143   4.305  12.536 -0.2565 -0.3599  0.2398
  146TMC2    C6 2273   2.171   4.428  12.482 -0.7459  0.3939 -0.7519
  146TMC2     C 2274   1.846   4.377  12.741 -0.4591  0.3470  0.4331
  146TMC2     O 2275   1.773   4.474  12.752  0.7894 -0.2642  0.3733
  146TMC2     H 2276   1.940   4.611  12.632 -0.3981 -0.1512  0.0442
  146TMC2    H1 2277   2.016   4.182  12.647 -3.0792  1.2016  3.8898
  146TMC2    H2 2278   2.269   4.432  12.436 -0.5770 -4.0638 -0.7359
  146TMC2    C7 2279   2.240   4.197  12.507 -0.1348 -0.0432 -0.0383
  146TMC2    C8 2280   2.160   4.666  12.521 -0.6753 -0.4697  0.4027
  146TMC2    O1 2281   2.310   4.211  12.410  0.2394  0.0874 -0.1226
  146TMC2    O2 2282   2.223   4.720  12.430 -0.3993  0.1762 -0.1287
  146TMC2    O5 2283   2.177   4.699  12.652  0.2113 -0.0285  0.3390
  146TMC2    H5 2284   2.114   4.665  12.719  0.4910 -2.2910 -0.5256
  147MPD2     C 2285   2.479   3.757  12.623  0.0101 -0.2985  0.2095
  147MPD2    C1 2286   2.397   3.781  12.727 -0.6961  0.5186  0.4648
  147MPD2    C2 2287   2.321   3.898  12.720  0.5487 -0.6312 -1.2709
  147MPD2    C3 2288   2.332   3.991  12.612 -0.5737 -0.7623 -0.0127
  147MPD2    C4 2289   2.419   3.954  12.507 -0.3286 -0.1639  0.0256
  147MPD2    C5 2290   2.495   3.838  12.520  0.4916  0.3396  0.8535
  147MPD2     H 2291   2.241   3.919  12.790  1.7820  0.4589 -0.1827
  147MPD2    H1 2292   2.432   4.018  12.421  2.5222 -0.6362  0.0927
  147MPD2    H2 2293   2.530   3.661  12.625 -1.0480 -0.8974 -1.7031
  147MPD2    H3 2294   2.559   3.804  12.439  0.5583  2.5056 -0.0096
  147MPD2     N 2295   2.246   4.105  12.608 -0.5385  0.2314 -0.2450
  147MPD2    H5 2296   2.185   4.109  12.689 -1.1104  0.9918 -0.7272
  147MPD2    N1 2297   2.386   3.686  12.824  0.2806  0.4063 -0.7459
  147MPD2    H7 2298   2.440   3.601  12.813  2.0620  1.4434 -0.0403
  148TMC2    C1 2299   1.082   3.453  11.053 -0.1385  0.1577 -0.3470
  148TMC2    C2 2300   1.091   3.486  11.184  0.1948 -0.2714  0.0306
  148TMC2    C3 2301   1.207   3.457  11.252  0.6530  0.5787 -0.0328
  148TMC2    C4 2302   1.183   3.392  10.987 -0.9467 -0.2801  0.1751
  148TMC2    C5 2303   1.297   3.355  11.056 -0.1221  0.0860 -1.1931
  148TMC2    C6 2304   1.310   3.382  11.191 -0.9919 -0.7779  0.3653
  148TMC2     C 2305   0.970   3.511  10.982  0.0637  0.3476  0.7643
  148TMC2     O 2306   0.901   3.593  11.044 -0.0713 -0.0811 -0.4789
  148TMC2     H 2307   1.017   3.546  11.236  0.9967  0.4085  0.3949
  148TMC2    H1 2308   1.195   3.382  10.879 -2.1800 -2.1330  0.1981
  148TMC2    H2 2309   1.398   3.347  11.244  0.6180  0.1775 -1.7019
  148TMC2    C7 2310   1.389   3.266  10.990  0.7626  0.9844  0.4094
  148TMC2    C8 2311   1.214   3.478  11.396 -0.4664  0.3106 -0.3671
  148TMC2    O1 2312   1.379   3.250  10.870  0.6886 -0.1804 -0.6213
  148TMC2    O2 2313   1.322   3.479  11.445 -0.0601  0.1628  0.1884
  148TMC2    O5 2314   1.108   3.419  11.456 -0.0252 -0.5481  0.3161
  148TMC2    H5 2315   1.034   3.392  11.397  0.3738 -2.0104  0.4911
  149MPD2     C 2316   0.770   3.588  10.787  0.2061 -0.0524  0.4167
  149MPD2    C1 2317   0.856   3.483  10.764 -0.3792 -1.6166 -0.1461
  149MPD2    C2 2318   0.857   3.395  10.654 -0.4812  0.2543  0.4668
  149MPD2    C3 2319   0.751   3.421  10.563  0.6204  0.5294  0.0815
  149MPD2    C4 2320   0.669   3.528  10.585 -0.4409 -0.2857  0.0679
  149MPD2    C5 2321   0.686   3.614  10.690  0.0900  0.1428  0.3888
  149MPD2     H 2322   0.912   3.302  10.648  0.0948  0.3591  4.1820
  149MPD2    H1 2323   0.590   3.546  10.512 -0.9446 -3.0188 -0.0496
  149MPD2    H2 2324   0.768   3.647  10.878 -0.8455 -1.0769  1.0581
  149MPD2    H3 2325   0.612   3.692  10.709 -0.2931  0.2948 -1.7447
  149MPD2     N 2326   0.725   3.352  10.442  0.4675 -0.1141  0.3613
  149MPD2    H5 2327   0.647   3.379  10.383 -0.7230  0.2419  2.0963
  149MPD2    N1 2328   0.960   3.448  10.857 -0.2780  0.4546  0.1124
  149MPD2    H7 2329   1.024   3.374  10.830  2.1690  2.8557 -0.7616
  150TMC2    C1 2330   3.639   2.095  12.170  0.4663 -0.2709 -0.4271
  150TMC2    C2 2331   3.548   2.198  12.162 -0.2495 -0.4054  0.0117
  150TMC2    C3 2332   3.593   2.319  12.192 -0.0014  0.1976 -0.0956
  150TMC2    C4 2333   3.768   2.116  12.207  0.0648  0.2616  0.0675
  150TMC2    C5 2334   3.806   2.243  12.231  0.2994 -0.8526 -0.0437
  150TMC2    C6 2335   3.720   2.348  12.235 -0.0028 -0.2784  0.4434
  150TMC2     C 2336   3.589   1.962  12.165  0.2013  0.1102 -0.5111
  150TMC2     O 2337   3.649   1.873  12.223  0.0579  0.6103 -0.1275
  150TMC2     H 2338   3.446   2.184  12.128 -0.8928  3.4301  0.3369
  150TMC2    H1 2339   3.828   2.026  12.216 -0.2841  0.0833  0.6556
  150TMC2    H2 2340   3.746   2.444  12.279 -0.3573  0.1959 -0.3831
  150TMC2    C7 2341   3.940   2.269  12.274  0.7175  0.0874 -0.1512
  150TMC2    C8 2342   3.522   2.441  12.153  0.2513  0.4064  0.5443
  150TMC2    O1 2343   3.983   2.374  12.234 -0.5298  0.0358 -0.4369
  150TMC2    O2 2344   3.531   2.545  12.216  0.4905 -0.6723 -0.5164
  150TMC2    O5 2345   3.423   2.407  12.063 -0.2106 -0.8932  0.0047
  150TMC2    H5 2346   3.453   2.332  12.008  0.2586 -0.1998 -0.6882
  151MPD2     C 2347   3.360   1.584  11.912 -0.1403  0.3738 -0.0029
  151MPD2    C1 2348   3.340   1.702  11.842  0.3499 -0.1325  0.0950
  151MPD2    C2 2349   3.392   1.823  11.893  0.5361  0.1486 -0.0863
  151MPD2    C3 2350   3.457   1.824  12.014 -0.5311 -0.2420 -0.0949
  151MPD2    C4 2351   3.461   1.714  12.085  0.1862 -0.2277  0.9549
  151MPD2    C5 2352   3.425   1.593  12.034  0.1232 -0.5481 -0.3892
  151MPD2     H 2353   3.374   1.914  11.838 -0.1288 -1.1443 -1.9792
  151MPD2    H1 2354   3.482   1.712  12.191  0.2666  1.5562  0.9665
  151MPD2    H2 2355   3.311   1.492  11.884 -0.1659  0.6944 -1.0184
  151MPD2    H3 2356   3.432   1.511  12.104  0.0975 -0.9901 -0.9048
  151MPD2     N 2357   3.504   1.949  12.062 -0.3409 -0.3407  0.2019
  151MPD2    H5 2358   3.491   2.025  11.996 -0.9106 -0.8883 -0.3189
  151MPD2    N1 2359   3.284   1.690  11.712  0.4080 -0.1256 -0.0549
  151MPD2    H7 2360   3.278   1.594  11.681 -0.4814  0.0688 -0.4745
  152TMC2    C1 2361   2.974   1.922  13.235 -0.9930 -0.1098 -1.0553
  152TMC2    C2 2362   2.949   2.030  13.305  0.6216 -0.4969  0.0862
  152TMC2    C3 2363   3.058   2.107  13.333 -0.1287  0.2902  0.5904
  152TMC2    C4 2364   3.100   1.888  13.182  0.3034 -0.3169 -0.8987
  152TMC2    C5 2365   3.205   1.963  13.213  0.0995  0.0079 -0.7975
  152TMC2    C6 2366   3.186   2.072  13.294 -0.0208  0.7905 -0.5117
  152TMC2     C 2367   2.857   1.839  13.192  0.2902  0.5423  0.4331
  152TMC2     O 2368   2.866   1.782  13.083  0.1972  0.2103 -0.0436
  152TMC2     H 2369   2.850   2.064  13.334  1.8873  1.2949  2.3348
  152TMC2    H1 2370   3.114   1.796  13.126 -1.0460 -0.4147 -1.0787
  152TMC2    H2 2371   3.260   2.141  13.334  0.8115  0.5042 -1.5603
  152TMC2    C7 2372   3.340   1.910  13.195  0.3226 -0.5426  0.3054
  152TMC2    C8 2373   3.051   2.233  13.396  0.7188 -0.0305 -0.3308
  152TMC2    O1 2374   3.348   1.790  13.164 -0.2941  0.1678  1.3397
  152TMC2    O2 2375   3.130   2.273  13.481 -0.4197 -0.8152 -0.4992
  152TMC2    O5 2376   2.919   2.274  13.385  0.1250  0.1898 -0.3977
  152TMC2    H5 2377   2.890   2.239  13.298  0.0674 -1.4786  0.2901
  153MPD2     C 2378   2.536   1.826  13.362  0.2074  0.4513 -0.3200
  153MPD2    C1 2379   2.617   1.818  13.257 -1.1436  0.9483  0.2673
  153MPD2    C2 2380   2.567   1.774  13.131 -0.3859 -0.8996  0.1867
  153MPD2    C3 2381   2.439   1.731  13.125 -0.6337  0.8039 -0.2799
  153MPD2    C4 2382   2.363   1.729  13.242 -0.3402  0.0582  0.1140
  153MPD2    C5 2383   2.404   1.784  13.361 -0.0147 -0.1870 -0.0946
  153MPD2     H 2384   2.631   1.778  13.043  1.1513 -1.6758  1.2801
  153MPD2    H1 2385   2.264   1.685  13.249 -1.2514  2.0875  0.1393
  153MPD2    H2 2386   2.566   1.876  13.453  0.9660 -1.6803  0.6050
  153MPD2    H3 2387   2.335   1.789  13.445  2.3866 -1.8130  1.9939
  153MPD2     N 2388   2.382   1.701  12.995  0.6494 -0.5792  0.2059
  153MPD2    H5 2389   2.448   1.708  12.918 -0.3492 -0.7043 -0.6604
  153MPD2    N1 2390   2.751   1.853  13.279 -0.2955 -0.2010 -0.4192
  153MPD2    H7 2391   2.769   1.889  13.373  0.8109  0.6752 -0.9715
  154TMC2    C1 2392   0.302   1.939   0.612 -0.4185 -0.1913 -0.2598
  154TMC2    C2 2393   0.294   1.916   0.746  0.2565 -0.3466  0.4584
  154TMC2    C3 2394   0.372   1.837   0.812 -0.4701 -0.0816  0.5612
  154TMC2    C4 2395   0.389   1.870   0.539 -0.0457  0.6833  0.1855
  154TMC2    C5 2396   0.480   1.786   0.610  0.7494 -0.2676  0.4884
  154TMC2    C6 2397   0.468   1.765   0.745 -0.3997 -0.6991  0.4678
  154TMC2     C 2398   0.176   1.994   0.553 -0.6915 -0.1288  0.2788
  154TMC2     O 2399   0.089   2.036   0.627  0.7432 -0.0821  0.5157
  154TMC2     H 2400   0.235   1.990   0.799  1.4872  0.9904 -0.0395
  154TMC2    H1 2401   0.398   1.888   0.432 -2.8622  2.2591  0.1822
  154TMC2    H2 2402   0.507   1.670   0.780  0.5549  0.4460  2.5150
  154TMC2    C7 2403   0.590   1.723   0.543  0.6823 -0.4251 -0.4998
  154TMC2    C8 2404   0.348   1.828   0.952  0.1676 -0.5819  0.1310
  154TMC2    O1 2405   0.632   1.607   0.570  0.1409  0.0456  0.0849
  154TMC2    O2 2406   0.264   1.888   1.015 -0.0595  0.0242 -0.7955
  154TMC2    O5 2407   0.470   1.788   1.001  0.3391  0.0150 -0.5272
  154TMC2    H5 2408   0.527   1.761   0.926  1.9958 -0.4603  0.9072
  155MPD2     C 2409   0.050   1.985   0.206 -0.0827  0.1343 -0.6128
  155MPD2    C1 2410   0.052   2.020   0.341  0.4802 -0.4047 -0.6133
  155MPD2    C2 2411   4.686   2.095   0.389  0.9842 -0.0718  0.1245
  155MPD2    C3 2412   4.573   2.128   0.308 -0.8152 -0.3424  0.1411
  155MPD2    C4 2413   4.578   2.102   0.176  0.3061 -0.0189 -0.1161
  155MPD2    C5 2414   4.687   2.037   0.127  0.0184  0.2741  0.2122
  155MPD2     H 2415   4.674   2.110   0.495  0.2878 -0.5124  0.1075
  155MPD2    H1 2416   4.495   2.119   0.109 -0.6643  1.5699  1.5221
  155MPD2    H2 2417   0.132   1.926   0.166  0.0048  0.7922 -1.4027
  155MPD2    H3 2418   4.695   2.028   0.019 -1.5542  1.4811 -0.0013
  155MPD2     N 2419   4.461   2.190   0.364 -0.3551 -0.2062 -0.2830
  155MPD2    H5 2420   4.457   2.187   0.465  2.3229  0.9771 -0.1493
  155MPD2    N1 2421   0.161   1.974   0.421 -0.0378 -0.2578  0.6551
  155MPD2    H7 2422   0.239   1.923   0.380 -0.4856 -1.5465  1.4006
  156TMC2    C1 2423   3.951   4.148  11.553  0.4594  0.2437  0.1140
  156TMC2    C2 2424   3.878   4.041  11.509 -0.1467  0.4331  0.0454
  156TMC2    C3 2425   3.791   4.068  11.400  0.6481  0.5116 -0.1586
  156TMC2    C4 2426   3.939   4.272  11.492 -0.2093  0.3650  1.1645
  156TMC2    C5 2427   3.852   4.287  11.386  0.0036  0.0655  0.4969
  156TMC2    C6 2428   3.785   4.183  11.334 -0.1547 -0.7004  0.4465
  156TMC2     C 2429   3.964   4.163  11.696 -0.0417  0.2968  0.4253
  156TMC2     O 2430   3.926   4.270  11.736  0.0362 -0.1712  0.3042
  156TMC2     H 2431   3.908   3.948  11.556 -0.7753  0.4828  0.5498
  156TMC2    H1 2432   4.002   4.352  11.530  1.6386 -0.9222  0.7648
  156TMC2    H2 2433   3.733   4.197  11.240  1.8328  0.5609 -0.4703
  156TMC2    C7 2434   3.814   4.427  11.352 -0.0732 -0.6093  0.0794
  156TMC2    C8 2435   3.754   3.955  11.319 -0.7707 -0.1476  0.3914
  156TMC2    O1 2436   3.899   4.512  11.385  0.2955 -0.4833 -0.0071
  156TMC2    O2 2437   3.721   3.960  11.197  0.0986  0.1857  0.4369
  156TMC2    O5 2438   3.754   3.842  11.391 -0.2672  0.4378 -0.1283
  156TMC2    H5 2439   3.763   3.853  11.488 -0.3762 -2.5743  0.2475
  157MPD2     C 2440   4.101   3.936  11.955 -0.8185  0.1066  0.3134
  157MPD2    C1 2441   4.028   4.042  11.901 -0.3867  0.6200  0.2117
  157MPD2    C2 2442   3.960   4.125  11.987 -0.1519  0.6794 -0.0588
  157MPD2    C3 2443   3.972   4.104  12.122 -0.4756  0.1601  0.4449
  157MPD2    C4 2444   4.028   3.990  12.175  0.2530 -0.5006  0.0557
  157MPD2    C5 2445   4.093   3.904  12.087  0.4819  0.2650 -0.4058
  157MPD2     H 2446   3.916   4.218  11.952 -1.6209  0.5033  1.3173
  157MPD2    H1 2447   4.026   3.957  12.278 -1.2341 -0.9984 -0.1281
  157MPD2    H2 2448   4.151   3.885  11.874 -2.4006  0.5361 -0.9289
  157MPD2    H3 2449   4.134   3.813  12.131 -1.8341  0.1101  1.4036
  157MPD2     N 2450   3.900   4.189  12.201 -0.8560  0.1023 -0.0474
  157MPD2    H5 2451   3.845   4.267  12.167 -0.7455  0.0319 -0.3830
  157MPD2    N1 2452   4.023   4.058  11.763 -0.0132  0.7280  0.9784
  157MPD2    H7 2453   4.074   3.999  11.698 -1.4133 -0.5336  1.0433
  158TMC2    C1 2454   4.218   3.418  14.256 -0.4552 -0.8383  0.2893
  158TMC2    C2 2455   4.287   3.527  14.218 -0.3031  0.2207 -0.2014
  158TMC2    C3 2456   4.240   3.590  14.107 -0.3654  0.2046  0.2512
  158TMC2    C4 2457   4.114   3.366  14.182  0.2330 -0.1841  0.4528
  158TMC2    C5 2458   4.078   3.425  14.062 -0.5182  0.0297 -0.2908
  158TMC2    C6 2459   4.139   3.547  14.022 -0.5629 -0.4721  0.5773
  158TMC2     C 2460   4.281   3.360  14.378 -0.5151  0.2052  0.1109
  158TMC2     O 2461   4.331   3.443  14.453 -0.3686  0.1742  0.0413
  158TMC2     H 2462   4.381   3.555  14.263  0.1528  0.3371 -1.2175
  158TMC2    H1 2463   4.054   3.287  14.225 -0.0849 -0.0070  0.3334
  158TMC2    H2 2464   4.118   3.593  13.927 -1.8326 -0.0330  1.0577
  158TMC2    C7 2465   3.956   3.403  13.997  0.7665  0.4886 -0.7155
  158TMC2    C8 2466   4.308   3.712  14.077  0.1666 -0.2868  0.2429
  158TMC2    O1 2467   3.926   3.483  13.912 -0.0351 -0.7638  0.1925
  158TMC2    O2 2468   4.407   3.746  14.137 -0.1973  0.6667 -0.2773
  158TMC2    O5 2469   4.222   3.785  14.004  0.6095  0.4485  0.4326
  158TMC2    H5 2470   4.131   3.750  13.994  0.7704  0.1765 -0.1317
  159MPD2     C 2471   4.381   3.025  14.744  0.0804 -0.4163 -0.2119
  159MPD2    C1 2472   4.316   2.956  14.646 -0.3204 -0.4358 -0.2417
  159MPD2    C2 2473   4.284   3.021  14.530  0.1252 -0.2473 -0.4434
  159MPD2    C3 2474   4.313   3.151  14.506  0.2876  0.5185  0.1494
  159MPD2    C4 2475   4.379   3.218  14.610  0.0699  0.0375  0.1294
  159MPD2    C5 2476   4.416   3.154  14.724  0.4268  0.1441  0.0632
  159MPD2     H 2477   4.222   2.962  14.463  1.6997 -0.1386 -1.9960
  159MPD2    H1 2478   4.404   3.323  14.601 -0.4600  0.0733 -0.9159
  159MPD2    H2 2479   4.416   2.972  14.832 -0.2574 -0.2358  0.0314
  159MPD2    H3 2480   4.470   3.213  14.797 -2.2414 -0.0155  2.1734
  159MPD2     N 2481   4.264   3.223  14.391  0.0801  0.0656 -0.1941
  159MPD2    H5 2482   4.215   3.175  14.317 -0.1127 -1.6685  1.0381
  159MPD2    N1 2483   4.265   2.821  14.660  0.1402  0.0335  0.3950
  159MPD2    H7 2484   4.197   2.805  14.586 -0.5724 -0.4253  1.1476
  160TMC2    C1 2485   3.263   0.872   1.201 -0.2767  0.5539 -0.3165
  160TMC2    C2 2486   3.370   0.792   1.231  0.2419 -0.2669  0.7303
  160TMC2    C3 2487   3.489   0.856   1.231  0.2330  0.5112  0.3864
  160TMC2    C4 2488   3.272   1.003   1.166 -0.2925 -0.0242  0.2933
  160TMC2    C5 2489   3.398   1.058   1.164  0.2085 -0.2406  0.9960
  160TMC2    C6 2490   3.507   0.984   1.194  0.2161 -0.2151  0.1537
  160TMC2     C 2491   3.137   0.822   1.242  0.5376 -0.0551 -0.2965
  160TMC2     O 2492   3.149   0.772   1.356  0.5067  0.1076 -0.1814
  160TMC2     H 2493   3.360   0.687   1.256  0.5304 -0.3702  0.4193
  160TMC2    H1 2494   3.179   1.054   1.141  0.2939  0.6108 -0.5932
  160TMC2    H2 2495   3.607   1.024   1.195  0.5650 -1.1268  1.1802
  160TMC2    C7 2496   3.408   1.188   1.096  0.2913  0.5213  0.4555
  160TMC2    C8 2497   3.611   0.783   1.257  0.2770  0.6218  0.2175
  160TMC2    O1 2498   3.309   1.213   1.027 -0.6464 -0.7650 -0.9910
  160TMC2    O2 2499   3.714   0.810   1.196 -0.7901  1.0278  0.8337
  160TMC2    O5 2500   3.581   0.657   1.297  0.5772  0.5929  0.2469
  160TMC2    H5 2501   3.508   0.652   1.363 -0.6148 -2.2593 -1.3080
  161MPD2     C 2502   2.854   0.802   1.302  0.3771 -0.0308 -0.2254
  161MPD2    C1 2503   2.900   0.844   1.183  0.1428  0.9580 -0.5851
  161MPD2    C2 2504   2.810   0.867   1.077 -0.0889  0.1313 -0.2029
  161MPD2    C3 2505   2.673   0.859   1.095 -0.5213  0.9370 -0.2353
  161MPD2    C4 2506   2.632   0.819   1.221  0.4042  0.0775 -0.5862
  161MPD2    C5 2507   2.720   0.787   1.316  0.4277  0.0690 -0.1582
  161MPD2     H 2508   2.851   0.891   0.979 -0.8938  0.8065 -0.3735
  161MPD2    H1 2509   2.526   0.800   1.235  0.5491  0.5682  1.2209
  161MPD2    H2 2510   2.927   0.786   1.380 -0.0942  2.4903  0.7301
  161MPD2    H3 2511   2.679   0.760   1.412 -1.9130 -0.1481 -1.2182
  161MPD2     N 2512   2.570   0.869   0.998  0.0973 -0.3184  0.4283
  161MPD2    H5 2513   2.476   0.875   1.033 -0.1034 -0.6583 -0.0537
  161MPD2    N1 2514   3.035   0.855   1.150  0.0566  0.4433  0.0131
  161MPD2    H7 2515   3.056   0.897   1.061 -0.6422 -0.1217 -0.4153
  162TMC2    C1 2516   0.476   2.748   0.721  0.3525  0.3072 -0.2143
  162TMC2    C2 2517   0.407   2.700   0.607 -0.4000  0.7452 -0.5276
  162TMC2    C3 2518   0.269   2.672   0.605 -0.0768 -0.6591  0.4454
  162TMC2    C4 2519   0.402   2.788   0.824 -0.2824  1.4441  0.0229
  162TMC2    C5 2520   0.262   2.767   0.819  0.1887 -0.1813 -0.4649
  162TMC2    C6 2521   0.197   2.700   0.714 -0.3531 -0.5211  0.1651
  162TMC2     C 2522   0.621   2.750   0.715 -0.4028 -0.0116  0.5854
  162TMC2     O 2523   0.672   2.736   0.605 -0.2005  0.3084  0.0420
  162TMC2     H 2524   0.459   2.667   0.518  0.8328  2.3531 -0.4215
  162TMC2    H1 2525   0.450   2.839   0.907 -0.8913 -1.2039  2.0304
  162TMC2    H2 2526   0.094   2.670   0.729 -0.6845  0.6816  0.2983
  162TMC2    C7 2527   0.177   2.810   0.931  0.4193 -0.0051  0.0047
  162TMC2    C8 2528   0.233   2.553   0.527 -0.2828  0.5125  0.0135
  162TMC2    O1 2529   0.058   2.812   0.905 -0.5432  0.2481 -0.1614
  162TMC2    O2 2530   0.321   2.474   0.487 -0.0541  0.8323  0.1603
  162TMC2    O5 2531   0.095   2.548   0.509  0.2927  0.0497  0.1828
  162TMC2    H5 2532   0.054   2.634   0.532 -2.2109 -1.5568  1.7378
  163MPD2     C 2533   1.062   2.681   0.941 -0.4158 -1.0215  0.1506
  163MPD2    C1 2534   1.036   2.714   0.806  0.1010  0.5521  0.3171
  163MPD2    C2 2535   0.908   2.744   0.774 -0.5077 -0.1515 -0.5124
  163MPD2    C3 2536   0.807   2.761   0.871  0.2310 -0.3816 -0.3425
  163MPD2    C4 2537   0.840   2.750   1.001  0.3088  0.1195  0.2364
  163MPD2    C5 2538   0.969   2.716   1.032 -0.7837 -0.3034 -0.8253
  163MPD2     H 2539   0.883   2.751   0.669 -1.6785 -3.0133 -0.4524
  163MPD2    H1 2540   0.763   2.762   1.077  0.3325 -0.9637  0.4290
  163MPD2    H2 2541   1.161   2.646   0.969 -0.0990 -0.9283 -0.8301
  163MPD2    H3 2542   0.993   2.698   1.136 -3.9636  0.0229 -0.0339
  163MPD2     N 2543   0.673   2.763   0.841  0.1459  0.6688 -0.1406
  163MPD2    H5 2544   0.610   2.771   0.921 -0.3520 -0.7403 -0.4057
  163MPD2    N1 2545   1.137   2.704   0.708 -0.0553  0.2416 -0.0587
  163MPD2    H7 2546   1.228   2.673   0.741 -0.4747 -0.0438  0.8255
  164TMC2    C1 2547   2.220   3.538  11.215  0.1190  0.4135 -0.6349
  164TMC2    C2 2548   2.212   3.574  11.082  0.3619  0.1968  0.4248
  164TMC2    C3 2549   2.127   3.674  11.042 -0.4151 -1.0465  0.0763
  164TMC2    C4 2550   2.148   3.611  11.308  0.0715  1.3914 -0.6413
  164TMC2    C5 2551   2.062   3.707  11.263  0.2589  0.6159  0.0027
  164TMC2    C6 2552   2.052   3.738  11.132 -0.0272  0.2434  0.8492
  164TMC2     C 2553   2.245   3.395  11.239  0.2823  0.1503  0.1676
  164TMC2     O 2554   2.167   3.342  11.318  0.2110  0.1160  0.0135
  164TMC2     H 2555   2.272   3.526  11.006 -0.1702 -1.9011  1.3312
  164TMC2    H1 2556   2.145   3.587  11.414  0.5680 -0.6445 -1.0870
  164TMC2    H2 2557   1.986   3.823  11.116 -0.1635  0.6295  3.4213
  164TMC2    C7 2558   1.948   3.740  11.345 -0.3972 -0.1637 -0.0258
  164TMC2    C8 2559   2.133   3.729  10.911  0.1894 -0.1897 -0.3748
  164TMC2    O1 2560   1.842   3.777  11.296 -0.3152 -0.1292 -0.5762
  164TMC2    O2 2561   2.211   3.678  10.832 -0.3755 -0.0255 -0.3895
  164TMC2    O5 2562   2.116   3.862  10.930  0.5321  0.1550  0.2961
  164TMC2    H5 2563   2.029   3.872  10.975  0.7802  1.5478  0.4396
  165TMC2    C1 2564   2.549   0.216   0.383  0.5473  0.0879 -0.4837
  165TMC2    C2 2565   2.593   0.147   0.274 -0.6983 -1.4242 -0.6914
  165TMC2    C3 2566   2.719   0.091   0.294  0.7453 -0.3938 -0.2435
  165TMC2    C4 2567   2.609   0.216   0.504 -0.4610  0.0756  0.8489
  165TMC2    C5 2568   2.728   0.154   0.522  0.6842 -0.0365  0.1305
  165TMC2    C6 2569   2.789   0.099   0.410 -0.5042  0.1868  0.3259
  165TMC2     C 2570   2.413   0.268   0.383  0.5550  0.2249  0.0321
  165TMC2     O 2571   2.382   0.354   0.463  0.1136 -0.8181  0.4097
  165TMC2     H 2572   2.547   0.176   0.180  1.2683  0.5547 -1.0451
  165TMC2    H1 2573   2.555   0.265   0.585 -1.0184 -0.1556  0.6151
  165TMC2    H2 2574   2.889   0.057   0.417  0.0256  1.5106  0.7446
  165TMC2    C7 2575   2.815   0.190   0.635 -0.5709 -0.6757 -0.3642
  165TMC2    C8 2576   2.790   0.030   0.183 -0.5534  0.1947  0.3303
  165TMC2    O1 2577   2.924   0.133   0.638 -0.8748  0.2457 -0.0979
  165TMC2    O2 2578   2.908   4.730   0.175  0.1966  0.2350 -0.7295
  165TMC2    O5 2579   2.704   0.009   0.082  0.1044 -0.0192  0.4493
  165TMC2    H5 2580   2.612   0.030   0.111 -0.6934 -2.8273 -0.1075
  166MPD2     C 2581   1.925   0.145   0.292  0.0951  0.3728  0.7718
  166MPD2    C1 2582   1.974   0.249   0.365  0.2490 -0.1465  0.5247
  166MPD2    C2 2583   2.104   0.269   0.367  1.3574 -0.0760 -0.9145
  166MPD2    C3 2584   2.188   0.181   0.298  0.1772  0.2171 -0.2001
  166MPD2    C4 2585   2.140   0.075   0.228 -0.3686  0.6001  0.1931
  166MPD2    C5 2586   2.005   0.065   0.216  0.3589 -0.3876  0.5223
  166MPD2     H 2587   2.147   0.351   0.422  0.2010  1.0613 -1.7062
  166MPD2    H1 2588   2.199   0.005   0.170 -1.4668 -1.0724  1.1067
  166MPD2    H2 2589   1.819   0.135   0.270 -0.1754  0.2077  2.1454
  166MPD2    H3 2590   1.963   4.724   0.154 -0.0995 -0.9062  1.5059
  166MPD2     N 2591   2.336   0.194   0.295 -0.0827 -0.3181 -0.5442
  166MPD2    H5 2592   2.376   0.120   0.237  0.7725 -0.2653 -0.0136
  166MPD2    N1 2593   1.887   0.316   0.457 -0.1659 -0.2283  0.0616
  166MPD2    H7 2594   1.795   0.274   0.464 -2.2116  4.5375  2.2124
  167TMC2    C1 2595   0.796   2.968  13.132  0.3840  0.3178  0.7534
  167TMC2    C2 2596   0.712   2.992  13.233  0.7262  0.2285  0.0344
  167TMC2    C3 2597   0.671   2.881  13.308  0.0215 -0.2273 -0.0773
  167TMC2    C4 2598   0.816   2.833  13.091  0.6116 -1.1078  0.2314
  167TMC2    C5 2599   0.782   2.724  13.174  0.0280  0.1250 -0.1094
  167TMC2    C6 2600   0.705   2.753  13.282  0.0617  0.4754  0.7822
  167TMC2     C 2601   0.807   3.072  13.039 -0.0521  0.3412 -0.1916
  167TMC2     O 2602   0.729   3.166  13.043  0.2690  0.6779  0.2393
  167TMC2     H 2603   0.672   3.090  13.257 -2.9411 -1.0396 -0.8081
  167TMC2    H1 2604   0.860   2.818  12.993  1.8107  1.3733  0.3751
  167TMC2    H2 2605   0.670   2.670  13.343  0.5050 -0.8080 -0.7150
  167TMC2    C7 2606   0.798   2.585  13.139 -0.5449  0.8684 -0.4490
  167TMC2    C8 2607   0.548   2.885  13.375  0.2587 -0.5587  0.0294
  167TMC2    O1 2608   0.716   2.510  13.191  0.2369 -0.3053  0.3671
  167TMC2    O2 2609   0.440   2.921  13.326 -0.4571  0.2308  0.0903
  167TMC2    O5 2610   0.557   2.806  13.481 -0.0839  0.3480 -0.1856
  167TMC2    H5 2611   0.651   2.783  13.499 -0.4616 -0.3547  0.9275
  168MPD2     C 2612   0.883   3.253  12.810 -0.4495 -0.3042  0.4163
  168MPD2    C1 2613   0.939   3.131  12.842 -0.7228 -0.6883 -0.0081
  168MPD2    C2 2614   1.044   3.082  12.769  0.1168 -0.4454 -0.1943
  168MPD2    C3 2615   1.072   3.145  12.648  0.1046 -0.0850  0.3401
  168MPD2    C4 2616   1.014   3.268  12.617 -0.3622  0.0672 -0.3396
  168MPD2    C5 2617   0.925   3.321  12.696 -0.3881 -0.4145 -0.4147
  168MPD2     H 2618   1.092   2.989  12.798  0.6846  0.7797  2.6953
  168MPD2    H1 2619   1.014   3.322  12.523  2.6197 -0.3275 -0.5687
  168MPD2    H2 2620   0.811   3.296  12.879  0.2079  0.5574  0.5720
  168MPD2    H3 2621   0.871   3.409  12.663  0.2417 -1.3017 -3.7985
  168MPD2     N 2622   1.177   3.093  12.563 -0.1175 -0.2810  0.4411
  168MPD2    H5 2623   1.177   3.140  12.473  0.0905  2.3268  1.8097
  168MPD2    N1 2624   0.904   3.046  12.950  0.0875  0.0700  0.4179
  168MPD2    H7 2625   0.967   2.969  12.968 -1.5000 -2.0020 -2.7755
  169MPD1     C 2626   2.820   2.839   9.856  0.3136 -0.1681 -0.4275
  169MPD1    C1 2627   2.825   2.707   9.814  0.7074  0.0469  0.1641
  169MPD1    C2 2628   2.949   2.653   9.787 -0.8746 -0.2587 -0.1414
  169MPD1    C3 2629   3.060   2.736   9.767 -0.1755  0.6030 -0.1815
  169MPD1    C4 2630   3.045   2.871   9.782 -0.4392  0.0562  0.8712
  169MPD1    C5 2631   2.931   2.921   9.833 -0.2463  0.2107 -0.5392
  169MPD1     H 2632   2.969   2.546   9.784 -1.1164 -0.2862 -0.7681
  169MPD1    H1 2633   3.129   2.928   9.745  0.4154 -1.4831  0.4484
  169MPD1    H2 2634   2.728   2.883   9.894  0.3534  0.8640 -1.5034
  169MPD1    H3 2635   2.936   3.025   9.862  2.5700 -0.2915  0.7875
  169MPD1     N 2636   3.179   2.673   9.725 -0.1798 -0.5628 -0.0121
  169MPD1    H5 2637   3.179   2.572   9.712 -1.6951 -0.3268 -1.9790
  169MPD1    N1 2638   2.712   2.625   9.828  0.7053 -0.3829  0.5872
  169MPD1    H6 2639   2.625   2.677   9.822 -0.1318 -1.6281  1.9442
  169MPD1    H7 2640   2.728   2.536   9.781 -0.9493 -0.6473  0.5462
  170MPD1     C 2641   2.138   4.075  14.235 -0.6186  0.1431 -0.3057
  170MPD1    C1 2642   2.024   4.139  14.207 -0.2966  0.4089  0.0496
  170MPD1    C2 2643   2.037   4.268  14.155  0.6090  0.5037  0.8134
  170MPD1    C3 2644   2.153   4.344  14.153 -0.5830  0.0038  1.3366
  170MPD1    C4 2645   2.262   4.280  14.207 -0.3354 -0.0852  0.4962
  170MPD1    C5 2646   2.255   4.139  14.238  0.2220 -0.6639 -0.4297
  170MPD1     H 2647   1.948   4.325  14.132 -0.3211 -0.0834  2.8913
  170MPD1    H1 2648   2.346   4.345  14.232 -1.2468  0.9265  0.9378
  170MPD1    H2 2649   2.137   3.969  14.261 -2.7083  0.0284 -0.8003
  170MPD1    H3 2650   2.344   4.095  14.283  1.9059  1.2616 -1.8678
  170MPD1     N 2651   2.151   4.477  14.111  0.0035 -0.0909  0.4926
  170MPD1    H5 2652   2.057   4.509  14.090  1.3109  2.5554 -1.3733
  170MPD1    N1 2653   1.902   4.067  14.202  0.0526  0.0397  0.4822
  170MPD1    H6 2654   1.815   4.121  14.203  0.9730  1.5970 -2.0223
  170MPD1    H7 2655   1.889   3.984  14.259  2.4678 -0.9180 -0.3719
  171MPD1     C 2656   0.201   1.366  16.147 -0.3694 -0.3178  0.3751
  171MPD1    C1 2657   0.225   1.236  16.183 -0.1401  0.6291  0.2818
  171MPD1    C2 2658   0.355   1.191  16.200  0.2612 -0.5549  0.4983
  171MPD1    C3 2659   0.455   1.271  16.168  0.1008  0.1595 -0.0926
  171MPD1    C4 2660   0.433   1.400  16.123  0.5993  0.0506 -0.5245
  171MPD1    C5 2661   0.308   1.444  16.111  0.0114  0.7578  0.2333
  171MPD1     H 2662   0.366   1.094  16.245 -0.1339 -0.4352  0.8515
  171MPD1    H1 2663   0.513   1.470  16.099  1.7188 -1.8942 -2.4616
  171MPD1    H2 2664   0.099   1.402  16.148 -0.1329  0.3557  0.2583
  171MPD1    H3 2665   0.299   1.541  16.065  1.0950  1.0573  0.6453
  171MPD1     N 2666   0.588   1.230  16.182 -0.2404 -0.6521  0.1411
  171MPD1    H5 2667   0.659   1.292  16.144 -1.6067  0.5358 -0.4906
  171MPD1    N1 2668   0.122   1.155  16.231  0.5313 -0.5840 -0.4460
  171MPD1    H6 2669   0.163   1.062  16.232 -1.8386 -1.6341  0.0350
  171MPD1    H7 2670   0.040   1.156  16.170  0.0165 -2.5649  0.2098
  172MPD1     C 2671   4.000   0.137   0.345 -0.6209  0.3359  0.2121
  172MPD1    C1 2672   4.097   0.077   0.424 -1.1689  0.1575 -1.2095
  172MPD1    C2 2673   4.204   0.148   0.468  0.9230 -0.0536  0.2332
  172MPD1    C3 2674   4.231   0.273   0.425  0.1966 -0.0194  0.7423
  172MPD1    C4 2675   4.140   0.331   0.333 -0.0736  0.6620  0.0386
  172MPD1    C5 2676   4.026   0.261   0.296 -0.4998  0.5583 -0.0842
  172MPD1     H 2677   4.262   0.111   0.552  0.1326 -1.7372  0.0406
  172MPD1    H1 2678   4.151   0.428   0.285  2.6598  0.8395  1.0706
  172MPD1    H2 2679   3.903   0.091   0.327 -0.0496 -1.3785  1.5054
  172MPD1    H3 2680   3.950   0.315   0.241 -0.0519  2.0569  0.7692
  172MPD1     N 2681   4.339   0.353   0.470 -0.4878 -0.2452 -0.0583
  172MPD1    H5 2682   4.334   0.449   0.437 -1.3556 -0.6935 -1.1810
  172MPD1    N1 2683   4.071   4.683   0.475 -0.2100 -0.2044 -0.2069
  172MPD1    H6 2684   4.145   4.621   0.508 -2.1501 -1.3082  2.1095
  172MPD1    H7 2685   3.996   4.635   0.424 -1.3327 -0.1980  1.4139
  173MPD1     C 2686   0.844   1.108  14.099  0.0322  0.1073  0.4948
  173MPD1    C1 2687   0.954   1.032  14.124 -0.4245  0.0742 -1.0693
  173MPD1    C2 2688   0.947   0.906  14.180  0.2994  0.2185  0.7146
  173MPD1    C3 2689   0.822   0.850  14.198  0.0289 -0.5689 -0.6440
  173MPD1    C4 2690   0.708   0.919  14.159  0.3552 -0.1113  0.4416
  173MPD1    C5 2691   0.720   1.046  14.111 -0.7238  0.6631 -0.3488
  173MPD1     H 2692   1.040   0.857  14.208  0.2888  0.8574  1.8607
  173MPD1    H1 2693   0.607   0.887  14.181 -0.0111  0.7559  0.0257
  173MPD1    H2 2694   0.843   1.205  14.050  1.3742 -0.4388 -0.6186
  173MPD1    H3 2695   0.629   1.096  14.076 -0.8181  0.2828 -0.6501
  173MPD1     N 2696   0.816   0.726  14.271  0.2301  0.6405  0.0453
  173MPD1    H5 2697   0.900   0.691  14.315 -0.7180  1.6784  2.6833
  173MPD1    N1 2698   1.086   1.082  14.099  0.8941 -0.7714 -0.1128
  173MPD1    H6 2699   1.162   1.014  14.104  1.1318 -0.5233 -0.3059
  173MPD1    H7 2700   1.073   1.125  14.008  1.0514 -0.6781 -0.0927
  174MPD1     C 2701   0.431   4.532  14.147 -0.4152 -0.3141  0.4628
  174MPD1    C1 2702   0.555   4.538  14.215 -0.1845  0.2085 -0.0548
  174MPD1    C2 2703   0.609   4.660  14.258  0.5001  0.3272  0.4290
  174MPD1    C3 2704   0.543   0.043  14.237 -0.0932 -0.2330 -0.5779
  174MPD1    C4 2705   0.424   0.031  14.161 -0.2937  0.1539 -0.6991
  174MPD1    C5 2706   0.366   4.651  14.125 -0.0367  0.1082 -0.5003
  174MPD1     H 2707   0.707   4.662  14.305  0.7744  1.5362 -0.1849
  174MPD1    H1 2708   0.366   0.120  14.139 -0.1854  0.3381 -0.2552
  174MPD1    H2 2709   0.376   4.440  14.128 -0.2477 -0.4134  0.4651
  174MPD1    H3 2710   0.266   4.644  14.084  1.2186 -0.3119 -3.4810
  174MPD1     N 2711   0.572   0.168  14.293  0.2303  0.3552  0.0658
  174MPD1    H5 2712   0.502   0.235  14.265  0.2262  0.2600 -0.1558
  174MPD1    N1 2713   0.626   4.422  14.256 -0.0420 -0.3461 -0.5304
  174MPD1    H6 2714   0.571   4.336  14.263 -0.9403  0.3389  0.8908
  174MPD1    H7 2715   0.697   4.432  14.329 -1.1809  0.7402  0.4302
  175MPD1     C 2716   4.584   1.435  15.660  0.8697 -0.3105  0.1698
  175MPD1    C1 2717   4.658   1.338  15.719  0.5400 -0.4504  0.5207
  175MPD1    C2 2718   4.614   1.280  15.838 -0.0164  0.1550  0.2437
  175MPD1    C3 2719   4.498   1.307  15.895 -0.0087  0.3360 -0.1229
  175MPD1    C4 2720   4.419   1.403  15.828  0.6760 -0.0834  0.2708
  175MPD1    C5 2721   4.466   1.466  15.715  1.4967  0.0538  0.2432
  175MPD1     H 2722   4.684   1.214  15.888 -0.5288 -0.1812  0.5173
  175MPD1    H1 2723   4.323   1.431  15.869  1.5614  0.9222  1.6206
  175MPD1    H2 2724   4.611   1.492  15.571 -0.2296 -2.7323 -1.7173
  175MPD1    H3 2725   4.408   1.544  15.668 -0.2025 -0.5730  1.3034
  175MPD1     N 2726   4.451   1.248  16.025  0.0198 -0.3996  0.3234
  175MPD1    H5 2727   4.377   1.292  16.078 -1.7248 -0.9932 -1.5753
  175MPD1    N1 2728   0.051   1.319  15.678 -0.3086  0.4013  0.1435
  175MPD1    H6 2729   0.094   1.230  15.701 -0.4547  0.1574 -0.5381
  175MPD1    H7 2730   0.070   1.339  15.580 -2.0436  0.5997 -0.1666
  176MPD1     C 2731   0.750   3.461  16.523 -0.1836 -0.0231  0.6000
  176MPD1    C1 2732   0.667   3.458  16.630  0.1603  0.2169 -1.0244
  176MPD1    C2 2733   0.738   3.470  16.748  0.8528  0.3679 -0.2648
  176MPD1    C3 2734   0.880   3.475  16.757 -0.2833 -0.1146 -0.0145
  176MPD1    C4 2735   0.955   3.454  16.642 -0.3125  0.8217 -0.0748
  176MPD1    C5 2736   0.887   3.457  16.525 -0.0018 -0.4696  0.5088
  176MPD1     H 2737   0.684   3.482  16.841  1.3629 -0.3775  0.1213
  176MPD1    H1 2738   1.063   3.451  16.643 -0.4854 -4.2128  0.4551
  176MPD1    H2 2739   0.707   3.433  16.427  1.1670  1.6758 -0.5039
  176MPD1    H3 2740   0.935   3.446  16.428  1.4143 -0.6380  1.2310
  176MPD1     N 2741   0.928   3.500  16.891  0.6514 -0.0496  0.9498
  176MPD1    H5 2742   0.866   3.517  16.970 -0.1008 -1.1211  0.5871
  176MPD1    N1 2743   0.527   3.471  16.628  0.6807  0.1392  0.2832
  176MPD1    H6 2744   0.489   3.418  16.706  2.1615 -0.9958  0.2345
  176MPD1    H7 2745   0.496   3.428  16.541 -0.3017 -0.5744  0.9876
  177MPD1     C 2746   0.065   3.185  10.307 -0.0698 -0.4122  0.1765
  177MPD1    C1 2747   4.667   3.166  10.281  0.0878 -0.3584 -0.3109
  177MPD1    C2 2748   4.609   3.259  10.204 -0.2200 -0.3072  0.3502
  177MPD1    C3 2749   4.675   3.370  10.149  0.6259  0.0813 -0.0011
  177MPD1    C4 2750   0.073   3.383  10.166 -0.2944 -0.3614 -0.2338
  177MPD1    C5 2751   0.124   3.290  10.253 -0.4736 -0.0710 -0.2013
  177MPD1     H 2752   4.506   3.259  10.173 -0.7510 -1.4524  2.1081
  177MPD1    H1 2753   0.131   3.462  10.121 -0.6621 -0.0187 -0.1095
  177MPD1    H2 2754   0.117   3.111  10.366  3.0088  0.8346 -1.0135
  177MPD1    H3 2755   0.226   3.312  10.285 -0.6371 -0.3682  0.5190
  177MPD1     N 2756   4.595   3.445  10.054 -0.3849 -0.3543  0.1710
  177MPD1    H5 2757   4.505   3.407  10.028 -1.1851  1.0878  0.8160
  177MPD1    N1 2758   4.602   3.043  10.305  0.2519  0.0755  0.2334
  177MPD1    H6 2759   4.505   3.072  10.320  0.8239  1.8363  0.5286
  177MPD1    H7 2760   4.637   2.999  10.389 -1.6719 -0.8218  0.5494
  178MPD1     C 2761   2.974   3.236   0.371 -0.0928  0.1108  0.1321
  178MPD1    C1 2762   2.917   3.196   0.252 -0.4712 -0.2530 -0.3256
  178MPD1    C2 2763   2.865   3.291   0.161  1.1988  0.4424  0.2541
  178MPD1    C3 2764   2.891   3.426   0.190 -0.2193  0.1740  0.8469
  178MPD1    C4 2765   2.964   3.459   0.300  0.3174  0.1315 -0.3092
  178MPD1    C5 2766   2.994   3.368   0.397  0.7202 -0.1209 -0.4541
  178MPD1     H 2767   2.812   3.256   0.073  0.7709  1.0337  0.2714
  178MPD1    H1 2768   2.978   3.564   0.324 -0.8811  0.8483 -2.7501
  178MPD1    H2 2769   2.998   3.166   0.451 -0.0783 -1.1877 -1.0162
  178MPD1    H3 2770   3.050   3.408   0.481 -1.8318 -0.3779  1.3630
  178MPD1     N 2771   2.854   3.528   0.095 -0.2379 -0.1571 -0.0149
  178MPD1    H5 2772   2.883   3.624   0.113  2.6571 -0.8436 -1.0540
  178MPD1    N1 2773   2.883   3.064   0.220  0.2022  0.7085 -0.2333
  178MPD1    H6 2774   2.871   3.050   0.120 -0.2229  1.4912 -0.2913
  178MPD1    H7 2775   2.945   2.996   0.264  2.9069  2.4715 -1.2934
  179MPD1     C 2776   2.140   3.292  15.898 -0.8244 -0.1427 -0.0432
  179MPD1    C1 2777   2.009   3.275  15.881 -0.2997  0.4327  0.5659
  179MPD1    C2 2778   1.953   3.148  15.884  0.0796  0.1048  0.6763
  179MPD1    C3 2779   2.037   3.036  15.898  0.0396  0.2295  0.7888
  179MPD1    C4 2780   2.172   3.053  15.924 -0.6553  0.5629 -0.0590
  179MPD1    C5 2781   2.219   3.183  15.914  1.0064 -0.3469 -0.8443
  179MPD1     H 2782   1.854   3.132  15.844  0.6953  0.4338 -0.9784
  179MPD1    H1 2783   2.240   2.971  15.940 -0.4357  0.6105 -0.7239
  179MPD1    H2 2784   2.183   3.391  15.901 -0.8094 -0.1471 -0.1082
  179MPD1    H3 2785   2.325   3.190  15.935  1.3733 -2.0449 -2.1365
  179MPD1     N 2786   1.996   2.899  15.898  0.6399 -0.2575  0.0772
  179MPD1    H5 2787   2.058   2.828  15.935  1.1397  0.3261  0.3596
  179MPD1    N1 2788   1.927   3.374  15.826 -0.1145 -0.2225 -0.0436
  179MPD1    H6 2789   1.960   3.470  15.840 -1.8480  0.4255 -0.3607
  179MPD1    H7 2790   1.833   3.369  15.864 -0.6654 -1.3526 -1.6019
  180MPD1     C 2791   0.802   3.809  15.129 -0.0758 -0.0147  0.2407
  180MPD1    C1 2792   0.922   3.871  15.080  0.2328  0.1735 -0.2811
  180MPD1    C2 2793   0.957   3.842  14.947  0.3690 -0.4552 -0.5430
  180MPD1    C3 2794   0.868   3.779  14.858  0.2898  0.1215  0.2894
  180MPD1    C4 2795   0.748   3.733  14.908  0.0796 -0.3741 -0.7074
  180MPD1    C5 2796   0.719   3.740  15.044 -0.0779 -1.1298  0.4838
  180MPD1     H 2797   1.056   3.866  14.911 -0.0373 -1.7189 -2.5390
  180MPD1    H1 2798   0.666   3.690  14.851 -1.8471  1.6767  0.5740
  180MPD1    H2 2799   0.780   3.814  15.235 -0.9160 -0.2661  0.0759
  180MPD1    H3 2800   0.628   3.685  15.065 -1.5285  0.7862 -0.7800
  180MPD1     N 2801   0.914   3.759  14.728  0.7786  0.5694 -0.2672
  180MPD1    H5 2802   1.003   3.799  14.701  0.1962  1.9310 -0.1809
  180MPD1    N1 2803   1.027   3.921  15.163 -0.8546  0.5588 -0.1681
  180MPD1    H6 2804   1.077   3.991  15.109 -0.2870 -0.9846 -1.6357
  180MPD1    H7 2805   1.009   3.964  15.254  1.5053 -2.4181  1.6754
  181MPD1     C 2806   4.028   2.012   9.420  0.1431  0.0706  0.0999
  181MPD1    C1 2807   3.958   2.085   9.515 -0.5985  0.4071  0.1805
  181MPD1    C2 2808   3.981   2.042   9.648  0.1747  0.9319 -0.1373
  181MPD1    C3 2809   4.055   1.933   9.689  0.8794 -0.6943 -0.3248
  181MPD1    C4 2810   4.105   1.848   9.586 -0.2285 -0.9201 -0.2295
  181MPD1    C5 2811   4.094   1.898   9.459  0.0905  0.5417  0.1471
  181MPD1     H 2812   3.949   2.113   9.724 -3.9853 -0.1388 -0.9217
  181MPD1    H1 2813   4.160   1.756   9.604  0.4048 -0.5203 -0.1252
  181MPD1    H2 2814   4.028   2.044   9.316  1.6307 -3.2308 -0.9072
  181MPD1    H3 2815   4.140   1.840   9.380 -0.8024  0.0766 -0.0286
  181MPD1     N 2816   4.069   1.890   9.823  0.0101  0.1228  0.3477
  181MPD1    H5 2817   4.119   1.802   9.833  0.8373  0.5627  0.0173
  181MPD1    N1 2818   3.917   2.220   9.490  0.2206  0.0896 -0.2043
  181MPD1    H6 2819   3.841   2.264   9.541  1.1551 -0.4216  1.6218
  181MPD1    H7 2820   3.878   2.223   9.396  2.6103  0.1340 -1.1896
  182MPD1     C 2821   4.157   4.549   1.063 -1.1289  0.2949 -0.3753
  182MPD1    C1 2822   4.208   4.456   0.980  0.8109  0.2807  0.3507
  182MPD1    C2 2823   4.128   4.414   0.882  0.4650 -0.2590  0.5073
  182MPD1    C3 2824   3.993   4.462   0.864  0.0571 -0.0950  0.2722
  182MPD1    C4 2825   3.944   4.544   0.958  1.0490  0.1368  0.1214
  182MPD1    C5 2826   4.020   4.582   1.061  0.3959  0.3088  0.1532
  182MPD1     H 2827   4.170   4.333   0.824 -0.2542 -0.0517 -0.3149
  182MPD1    H1 2828   3.840   4.575   0.957  1.0502  0.1413  0.1417
  182MPD1    H2 2829   4.216   4.583   1.147 -0.3712  0.5163 -0.9978
  182MPD1    H3 2830   3.978   4.636   1.145 -0.5266  0.2451 -0.2747
  182MPD1     N 2831   3.906   4.420   0.764 -0.0579  0.9187 -1.1349
  182MPD1    H5 2832   3.812   4.457   0.759 -0.3191  0.2608 -1.1607
  182MPD1    N1 2833   4.346   4.423   0.982 -0.0739 -0.2848  0.2937
  182MPD1    H6 2834   4.361   4.326   0.956  3.0758  0.0570  0.8926
  182MPD1    H7 2835   4.390   4.441   1.072 -2.0832 -1.5641  1.5193
  183MPD1     C 2836   0.178   0.234   9.238  0.8935  0.4784  0.2217
  183MPD1    C1 2837   0.206   0.197   9.371  0.0538 -0.7830 -0.1051
  183MPD1    C2 2838   0.246   0.296   9.459  0.0522  0.7699 -0.4319
  183MPD1    C3 2839   0.256   0.428   9.422 -0.0639  0.4860  0.9904
  183MPD1    C4 2840   0.239   0.463   9.289 -0.7554  0.0789  0.7273
  183MPD1    C5 2841   0.200   0.364   9.197  0.0223 -0.2225 -0.2765
  183MPD1     H 2842   0.260   0.276   9.564 -1.6142  2.4408  0.1176
  183MPD1    H1 2843   0.241   0.566   9.254  0.2566  0.0449  0.6985
  183MPD1    H2 2844   0.138   0.152   9.179  0.8821  0.7346 -0.1258
  183MPD1    H3 2845   0.172   0.386   9.095 -0.3847  0.5367 -0.0007
  183MPD1     N 2846   0.275   0.524   9.520 -0.5927 -0.0974  0.2467
  183MPD1    H5 2847   0.304   0.496   9.614  1.0580  1.8817  0.3279
  183MPD1    N1 2848   0.180   0.071   9.409 -0.1256  0.6337 -0.4383
  183MPD1    H6 2849   0.185   0.005   9.331 -1.2215  1.8345 -1.5187
  183MPD1    H7 2850   0.237   0.049   9.490  0.4556 -0.3468 -1.1004
  184MPD1     C 2851   3.601   3.105  10.441 -0.1077  0.3144  0.3474
  184MPD1    C1 2852   3.545   3.091  10.311  0.3170 -0.2936 -0.1047
  184MPD1    C2 2853   3.597   3.174  10.216 -0.0911  0.9962 -0.9920
  184MPD1    C3 2854   3.702   3.261  10.238 -0.3313 -0.1867  0.0908
  184MPD1    C4 2855   3.760   3.256  10.363 -0.3400  0.2350 -0.3876
  184MPD1    C5 2856   3.714   3.181  10.460 -0.3484 -0.3559 -0.2503
  184MPD1     H 2857   3.567   3.161  10.113  0.0219  0.0246 -0.8972
  184MPD1    H1 2858   3.843   3.323  10.381  0.6906 -1.6658  1.9632
  184MPD1    H2 2859   3.553   3.053  10.523 -2.3878 -0.1844 -1.3036
  184MPD1    H3 2860   3.749   3.196  10.561 -1.7049 -0.1354  0.1813
  184MPD1     N 2861   3.753   3.347  10.144 -0.1376  0.1169 -0.1881
  184MPD1    H5 2862   3.841   3.390  10.168 -0.2040 -0.4902  1.1649
  184MPD1    N1 2863   3.427   3.019  10.291  0.0361  0.2301  0.1686
  184MPD1    H6 2864   3.404   2.953  10.364 -1.1136  1.7553  1.1947
  184MPD1    H7 2865   3.409   3.003  10.192  2.6151  0.0856 -0.2677
  185MPD1     C 2866   3.834   3.661   9.086  0.0621 -0.0885 -0.2180
  185MPD1    C1 2867   3.823   3.539   9.145 -0.7146 -0.5779 -0.0138
  185MPD1    C2 2868   3.819   3.529   9.282 -0.0652 -0.0489  0.3041
  185MPD1    C3 2869   3.827   3.637   9.365  0.2388  1.2191  0.3560
  185MPD1    C4 2870   3.855   3.758   9.308  0.6014 -0.2621 -0.3996
  185MPD1    C5 2871   3.868   3.766   9.174 -0.4760 -0.1020  0.0855
  185MPD1     H 2872   3.809   3.433   9.332  2.2839 -1.1580 -1.3285
  185MPD1    H1 2873   3.881   3.843   9.369 -0.4670 -0.7878  0.7972
  185MPD1    H2 2874   3.834   3.682   8.979  1.6423  0.8535 -0.0291
  185MPD1    H3 2875   3.867   3.866   9.133 -1.3144  0.2191  0.9054
  185MPD1     N 2876   3.820   3.635   9.504  0.1967  0.6995 -0.3343
  185MPD1    H5 2877   3.843   3.720   9.554 -0.5094  1.0022 -0.5221
  185MPD1    N1 2878   3.801   3.425   9.057 -0.0144  0.2532 -0.6514
  185MPD1    H6 2879   3.839   3.436   8.963 -0.7824  0.7612 -0.8991
  185MPD1    H7 2880   3.831   3.338   9.099  1.9790  0.9001 -0.7437
  186MPD1     C 2881   1.683   3.617  15.945 -0.6875 -0.0102  0.1332
  186MPD1    C1 2882   1.644   3.496  15.991  0.3071  0.8890  0.5263
  186MPD1    C2 2883   1.716   3.433  16.087  0.7472  0.1317  0.3473
  186MPD1    C3 2884   1.831   3.486  16.140 -0.1306  0.3558 -0.5204
  186MPD1    C4 2885   1.870   3.610  16.086  0.2490 -0.2183  0.4533
  186MPD1    C5 2886   1.791   3.678  15.998 -0.2627 -0.6893 -0.6151
  186MPD1     H 2887   1.675   3.341  16.127  2.0068 -0.1459  1.0162
  186MPD1    H1 2888   1.965   3.655  16.113  1.7828 -2.7855 -0.6564
  186MPD1    H2 2889   1.619   3.684  15.890 -0.8886 -1.4549 -1.3763
  186MPD1    H3 2890   1.830   3.772  15.962 -1.1800 -0.1261 -0.1419
  186MPD1     N 2891   1.911   3.416  16.231 -0.5162  0.2756 -0.1126
  186MPD1    H5 2892   2.008   3.446  16.241  0.0615 -1.4911 -0.3955
  186MPD1    N1 2893   1.524   3.442  15.935 -0.0073  0.0406  0.6553
  186MPD1    H6 2894   1.490   3.354  15.975  0.4224 -0.5000 -0.1731
  186MPD1    H7 2895   1.452   3.511  15.919  0.7436 -0.2930 -4.0649
  187MPD1     C 2896   1.625   3.827   0.055  0.0661 -0.3197  0.2429
  187MPD1    C1 2897   1.492   3.828   0.047  0.3305  0.0249  0.4769
  187MPD1    C2 2898   1.434   3.933  17.723  0.0035 -0.2893  0.1335
  187MPD1    C3 2899   1.512   4.029  17.664  0.0443 -0.2484 -0.5394
  187MPD1    C4 2900   1.649   4.013  17.670  0.6233  0.1506 -0.1187
  187MPD1    C5 2901   1.707   3.914  17.740  0.3896  0.0084  0.7853
  187MPD1     H 2902   1.326   3.940  17.718  0.2145  2.3900 -0.9375
  187MPD1    H1 2903   1.720   4.067  17.609  0.4686 -0.5177 -0.8936
  187MPD1    H2 2904   1.672   3.742   0.104 -3.6556 -2.7573 -0.4184
  187MPD1    H3 2905   1.813   3.891  17.730  1.0431  2.4968  2.0126
  187MPD1     N 2906   1.460   4.133  17.583 -0.0857 -0.8983  0.0309
  187MPD1    H5 2907   1.523   4.211  17.572  0.8828 -1.2467  3.0509
  187MPD1    N1 2908   1.420   3.715   0.078  0.0307  0.3880 -0.1118
  187MPD1    H6 2909   1.464   3.658   0.150 -1.3008 -1.8682 -1.0658
  187MPD1    H7 2910   1.323   3.734   0.101  0.3108 -1.0616  2.2203
  188MPD1     C 2911   1.635   0.224  10.314  0.8965 -0.1735  0.2633
  188MPD1    C1 2912   1.721   0.147  10.241 -0.1511 -0.4738 -0.1247
  188MPD1    C2 2913   1.712   0.010  10.257 -0.3069 -0.5658 -0.3043
  188MPD1    C3 2914   1.631   4.694  10.356  0.2206  0.1931 -0.6059
  188MPD1    C4 2915   1.539   0.034  10.420  1.1858 -0.1778  1.0407
  188MPD1    C5 2916   1.547   0.173  10.400  0.3624  0.5139  0.7848
  188MPD1     H 2917   1.770   4.680  10.195 -0.1210 -2.0900  1.5373
  188MPD1    H1 2918   1.473   4.735  10.498  0.2732 -2.9234 -1.0328
  188MPD1    H2 2919   1.631   0.328  10.283 -0.0652 -0.7645 -1.6134
  188MPD1    H3 2920   1.473   0.238  10.448 -0.4633 -0.3275  0.6542
  188MPD1     N 2921   1.635   4.552  10.388  0.2502 -0.1590  0.1744
  188MPD1    H5 2922   1.559   4.533  10.453  2.5492 -2.3115  2.2577
  188MPD1    N1 2923   1.791   0.199  10.128 -0.1552 -0.1401  0.4956
  188MPD1    H6 2924   1.878   0.150  10.112 -0.4401 -0.6630  0.5403
  188MPD1    H7 2925   1.810   0.298  10.138  1.7575 -0.8472  3.9222
  189MPD1     C 2926   3.323   0.521  17.726 -0.0131 -0.2836  0.6117
  189MPD1    C1 2927   3.247   0.628  17.695  0.2880 -0.3893 -0.2765
  189MPD1    C2 2928   3.121   0.604  17.643  0.6219  0.5410 -0.2715
  189MPD1    C3 2929   3.084   0.470  17.621  0.2458 -0.3797  0.1079
  189MPD1    C4 2930   3.167   0.366  17.647  0.1757 -0.0633 -0.7505
  189MPD1    C5 2931   3.289   0.395  17.699  0.2094  0.2344 -0.8357
  189MPD1     H 2932   3.057   0.688  17.616  0.9771  0.6595 -0.7516
  189MPD1    H1 2933   3.136   0.263  17.631  0.8165 -0.3563 -0.0742
  189MPD1    H2 2934   3.425   0.541   0.009  0.8247 -0.2690 -1.9844
  189MPD1    H3 2935   3.362   0.317  17.716  0.4006  0.2919 -1.3772
  189MPD1     N 2936   2.955   0.456  17.571  0.0772 -0.0912 -1.1180
  189MPD1    H5 2937   2.892   0.535  17.584  2.4837  1.8461 -1.1227
  189MPD1    N1 2938   3.282   0.756  17.740 -0.3454  0.3826 -0.0540
  189MPD1    H6 2939   3.238   0.830  17.686 -0.3713  0.7245  0.4294
  189MPD1    H7 2940   3.382   0.770  17.744 -0.4414  1.0811 -0.0541
  190MPD1     C 2941   2.101   4.618  15.194  0.1474 -0.2574 -0.2255
  190MPD1    C1 2942   2.024   4.566  15.292 -0.2728  0.1781  0.5978
  190MPD1    C2 2943   2.077   4.462  15.368  0.5326  0.3647 -0.1929
  190MPD1    C3 2944   2.208   4.422  15.355  0.0833 -0.2396 -0.5033
  190MPD1    C4 2945   2.287   4.478  15.262  0.0530 -0.1934  0.8359
  190MPD1    C5 2946   2.235   4.578  15.188 -0.3535 -0.0829 -0.4895
  190MPD1     H 2947   2.018   4.425  15.451 -0.8612 -1.1718 -1.8821
  190MPD1    H1 2948   2.394   4.469  15.245  0.3025  0.7526  1.9486
  190MPD1    H2 2949   2.061   4.706  15.146  0.1875  0.4205  0.9908
  190MPD1    H3 2950   2.296   4.629  15.115  0.5549 -0.7806 -0.2303
  190MPD1     N 2951   2.261   4.331  15.448 -0.3410 -0.1349 -0.2488
  190MPD1    H5 2952   2.210   4.315  15.534  0.6648 -1.1624  0.1639
  190MPD1    N1 2953   1.884   4.595  15.289 -0.4545  0.2443  0.3847
  190MPD1    H6 2954   1.851   4.589  15.385  0.8429  0.1623  0.8273
  190MPD1    H7 2955   1.873   4.694  15.268 -0.5402  0.4365  1.3194
  191MPD1     C 2956   1.276   0.251  12.675 -0.4251  0.4188  0.2926
  191MPD1    C1 2957   1.177   0.336  12.706 -0.1572 -0.9117  0.2093
  191MPD1    C2 2958   1.203   0.472  12.680  0.1809 -0.7886 -0.1354
  191MPD1    C3 2959   1.321   0.510  12.630 -0.5089  0.0999  0.0435
  191MPD1    C4 2960   1.421   0.420  12.607 -0.0464 -0.6993 -0.2631
  191MPD1    C5 2961   1.398   0.286  12.627 -0.5502  0.8178  0.5940
  191MPD1     H 2962   1.131   0.550  12.704 -0.4402 -0.9983 -1.3102
  191MPD1    H1 2963   1.517   0.453  12.568 -1.0079  2.7734  0.3721
  191MPD1    H2 2964   1.265   0.143  12.678 -0.9088  0.3996 -2.2529
  191MPD1    H3 2965   1.467   0.215  12.584 -0.1904  1.3746  0.2466
  191MPD1     N 2966   1.339   0.652  12.625  0.3855  0.0657  0.4488
  191MPD1    H5 2967   1.254   0.706  12.635 -0.4657 -1.5708  2.1260
  191MPD1    N1 2968   1.051   0.291  12.747  0.6583 -0.5323  0.4548
  191MPD1    H6 2969   1.064   0.212  12.809  0.3454 -1.5154 -0.7324
  191MPD1    H7 2970   0.994   0.364  12.790  0.6560 -0.9041  1.0758
  192MPD1     C 2971   0.897   1.504  12.507  0.3646  0.5177  0.7738
  192MPD1    C1 2972   0.877   1.380  12.451 -0.2303  0.4741  1.2437
  192MPD1    C2 2973   0.973   1.287  12.466 -0.1651 -0.8197  0.3735
  192MPD1    C3 2974   1.091   1.310  12.542 -0.4573 -0.1309  0.0564
  192MPD1    C4 2975   1.100   1.427  12.607  0.0427 -0.4156 -0.8240
  192MPD1    C5 2976   1.004   1.525  12.591 -0.3647 -0.1367  0.4826
  192MPD1     H 2977   0.969   1.201  12.400 -2.0366 -1.1434  0.9196
  192MPD1    H1 2978   1.189   1.454  12.661  1.2877 -1.0510 -2.5613
  192MPD1    H2 2979   0.836   1.589  12.479  1.6044  1.4038  0.7212
  192MPD1    H3 2980   1.006   1.615  12.651 -2.9456  0.3348 -0.1454
  192MPD1     N 2981   1.200   1.226  12.544  0.2575  0.1008 -0.3148
  192MPD1    H5 2982   1.281   1.258  12.596  1.0842 -0.7843 -1.0419
  192MPD1    N1 2983   0.784   1.368  12.346  0.0092 -0.7239  0.1009
  192MPD1    H6 2984   0.744   1.275  12.343  0.9466 -1.1203 -0.3233
  192MPD1    H7 2985   0.711   1.436  12.365  0.4459 -0.5823  1.2253
  193MPD1     C 2986   0.848   0.880  16.479  0.3494  0.3812 -0.2221
  193MPD1    C1 2987   0.763   0.980  16.530 -0.2192 -0.7470 -0.2541
  193MPD1    C2 2988   0.825   1.098  16.571  0.6597 -0.0182  0.1260
  193MPD1    C3 2989   0.960   1.112  16.559 -0.8220  0.4100 -0.0283
  193MPD1    C4 2990   1.041   1.011  16.526  0.0360  0.3320  0.4964
  193MPD1    C5 2991   0.982   0.902  16.477 -0.4719 -0.1930 -0.1020
  193MPD1     H 2992   0.763   1.184  16.594  2.0853  1.4184 -1.4558
  193MPD1    H1 2993   1.148   1.020  16.542  0.0434  0.4165  0.4010
  193MPD1    H2 2994   0.804   0.799  16.423  1.4127  0.1742 -0.7677
  193MPD1    H3 2995   1.044   0.822  16.438 -1.7529 -1.4368  0.4563
  193MPD1     N 2996   1.031   1.233  16.577  0.6549 -0.3585 -0.2957
  193MPD1    H5 2997   1.132   1.222  16.578  0.5578 -1.2080 -0.1086
  193MPD1    N1 2998   0.626   0.970  16.528 -0.1544  0.3221  0.3422
  193MPD1    H6 2999   0.589   0.945  16.436  1.9045 -0.7592 -0.1856
  193MPD1    H7 3000   0.580   1.054  16.562 -2.3538 -0.5496 -0.4574
  194MPD1     C 3001   3.469   3.332  17.462  0.0753  0.7742  1.0851
  194MPD1    C1 3002   3.427   3.275  17.341 -0.0327 -0.5192  0.6031
  194MPD1    C2 3003   3.481   3.154  17.293  0.1792 -0.5182  0.6361
  194MPD1    C3 3004   3.572   3.082  17.369  0.4375 -0.1682 -0.0049
  194MPD1    C4 3005   3.598   3.133  17.495 -0.0095 -0.3056  0.4199
  194MPD1    C5 3006   3.546   3.253  17.544  0.2660  0.2544 -0.4029
  194MPD1     H 3007   3.445   3.127  17.195  1.0875 -0.1416  0.1964
  194MPD1    H1 3008   3.657   3.081  17.569 -3.6081 -2.4386  1.8044
  194MPD1    H2 3009   3.432   3.425  17.502  0.2369  0.8458  1.0680
  194MPD1    H3 3010   3.565   3.287  17.645  2.9042  0.2892 -0.9207
  194MPD1     N 3011   3.628   2.962  17.331  0.6506  0.1366 -0.3291
  194MPD1    H5 3012   3.696   2.923  17.395 -1.6285 -2.3101  0.5664
  194MPD1    N1 3013   3.350   3.361  17.260  0.1171 -0.5267 -0.5120
  194MPD1    H6 3014   3.288   3.421  17.314 -2.0110 -0.9120 -2.5258
  194MPD1    H7 3015   3.290   3.316  17.191 -1.4617 -0.0788  0.5746
  195MPD1     C 3016   1.125   0.502   0.164  0.3678 -0.3340  0.0395
  195MPD1    C1 3017   1.017   0.454   0.234  0.1183 -0.0004  0.4165
  195MPD1    C2 3018   1.012   0.317   0.234  0.4276 -1.3362  0.5014
  195MPD1    C3 3019   1.105   0.234   0.170 -0.0028  0.2351  0.2090
  195MPD1    C4 3020   1.216   0.288   0.104  0.6069 -0.1684  0.1745
  195MPD1    C5 3021   1.220   0.425   0.102 -0.4505 -0.2563 -0.2374
  195MPD1     H 3022   0.923   0.274   0.280  0.0970 -1.9280 -0.7130
  195MPD1    H1 3023   1.298   0.235   0.057  1.2093  2.1991 -1.4607
  195MPD1    H2 3024   1.144   0.608   0.155  1.3578 -0.6495 -1.5341
  195MPD1    H3 3025   1.304   0.477   0.056  0.0904  0.7525  1.8804
  195MPD1     N 3026   1.092   0.087   0.165  0.3156  0.5666  0.6928
  195MPD1    H5 3027   1.155   0.043   0.098 -0.4485  0.1571  0.2387
  195MPD1    N1 3028   0.914   0.540   0.289  0.1798  0.5155  0.1272
  195MPD1    H6 3029   0.948   0.635   0.305  2.7008 -0.3325 -0.2815
  195MPD1    H7 3030   0.860   0.498   0.364  1.7281 -2.6403 -0.5504
  196MPD1     C 3031   4.674   3.735   0.501  1.3817 -0.4615  0.0923
  196MPD1    C1 3032   0.050   3.808   0.500 -0.8762  0.3769 -0.4367
  196MPD1    C2 3033   0.110   3.836   0.626 -0.3627  0.0694 -0.8200
  196MPD1    C3 3034   0.040   3.812   0.741  0.0262 -0.4815  0.1549
  196MPD1    C4 3035   4.658   3.747   0.732  0.7000 -0.6095  0.1492
  196MPD1    C5 3036   4.611   3.703   0.614 -0.1417 -0.0612 -0.3103
  196MPD1     H 3037   0.211   3.875   0.627 -1.0816  1.8293  3.0502
  196MPD1    H1 3038   4.588   3.753   0.815 -1.2706 -0.1176 -1.5544
  196MPD1    H2 3039   4.622   3.704   0.411 -0.9201  0.2853  1.1641
  196MPD1    H3 3040   4.513   3.656   0.616 -0.3453  0.3549 -0.8277
  196MPD1     N 3041   0.086   3.871   0.861  0.0889 -0.5829  0.0259
  196MPD1    H5 3042   0.020   3.857   0.937  1.4905 -0.4310  1.2680
  196MPD1    N1 3043   0.117   3.828   0.382  0.4840  0.2462  0.2596
  196MPD1    H6 3044   0.167   3.915   0.400  2.0136 -0.2572 -1.5902
  196MPD1    H7 3045   0.048   3.851   0.310  1.8126  2.1951 -0.3796
  197MPD1     C 3046   4.088   1.264  17.261 -0.3429 -0.4306 -0.0123
  197MPD1    C1 3047   4.090   1.334  17.143  0.0248  0.0131 -0.2246
  197MPD1    C2 3048   4.202   1.411  17.112  0.8395 -0.4600 -0.0633
  197MPD1    C3 3049   4.292   1.434  17.210  0.5444 -0.3038  0.6417
  197MPD1    C4 3050   4.291   1.364  17.329 -0.0865 -0.6937  0.2498
  197MPD1    C5 3051   4.189   1.278  17.349  0.7500  0.7335  0.0013
  197MPD1     H 3052   4.199   1.457  17.014  0.4629  0.3122  0.3127
  197MPD1    H1 3053   4.367   1.363  17.406 -0.7664  0.3745  0.9409
  197MPD1    H2 3054   4.016   1.185  17.280 -0.8357 -0.1729 -0.8212
  197MPD1    H3 3055   4.199   1.210  17.433  0.4708 -1.8864 -2.1255
  197MPD1     N 3056   4.404   1.509  17.176 -0.6824  0.3498  0.5130
  197MPD1    H5 3057   4.408   1.546  17.082  1.2391  0.2935  0.5737
  197MPD1    N1 3058   3.999   1.298  17.042 -0.1827 -0.4827  0.1798
  197MPD1    H6 3059   3.975   1.381  16.989  0.6299 -1.2252 -1.3430
  197MPD1    H7 3060   3.911   1.263  17.078  0.0987  1.7090  2.9966
  198MPD1     C 3061   1.511   0.525  14.678  0.0364 -0.0832 -0.2771
  198MPD1    C1 3062   1.638   0.579  14.696 -0.4899 -0.7769  0.6043
  198MPD1    C2 3063   1.686   0.559  14.823 -0.1586 -0.1247  0.2001
  198MPD1    C3 3064   1.616   0.494  14.926 -0.1471 -0.1755 -0.2943
  198MPD1    C4 3065   1.493   0.440  14.900  0.3577  0.5912  0.2317
  198MPD1    C5 3066   1.437   0.460  14.778 -0.3076  0.1690 -0.4250
  198MPD1     H 3067   1.788   0.591  14.841 -0.1536 -0.3727  0.6039
  198MPD1    H1 3068   1.440   0.377  14.971 -0.8468 -1.1821 -2.2524
  198MPD1    H2 3069   1.459   0.532  14.584 -0.5139  0.5397  0.0734
  198MPD1    H3 3070   1.336   0.427  14.758  0.0232 -1.3680  0.4553
  198MPD1     N 3071   1.683   0.483  15.055  0.3333 -0.3158 -0.0958
  198MPD1    H5 3072   1.783   0.499  15.053  0.1955  0.8871  1.8768
  198MPD1    N1 3073   1.717   0.625  14.590 -0.1914 -0.5766 -0.4775
  198MPD1    H6 3074   1.750   0.718  14.614 -0.6371 -0.9215  1.5211
  198MPD1    H7 3075   1.657   0.636  14.509 -1.5302  1.8894  0.8507
  199MPD1     C 3076   3.918   1.307  10.861  0.2999 -0.6869 -0.4572
  199MPD1    C1 3077   3.991   1.407  10.802 -0.9710  0.7862 -0.6806
  199MPD1    C2 3078   3.957   1.447  10.678 -0.1925 -0.1146  0.1144
  199MPD1    C3 3079   3.861   1.382  10.607 -0.0344  0.0612  0.3123
  199MPD1    C4 3080   3.798   1.270  10.663 -0.3155  0.0849 -0.0574
  199MPD1    C5 3081   3.836   1.230  10.784  0.2033  0.0009 -0.7002
  199MPD1     H 3082   4.013   1.531  10.638 -0.7607  0.2495  0.0826
  199MPD1    H1 3083   3.722   1.209  10.616 -0.5416  0.9369 -0.7868
  199MPD1    H2 3084   3.929   1.273  10.963 -0.4213  0.2538 -0.0693
  199MPD1    H3 3085   3.809   1.132  10.822  0.7335  0.0069 -0.3069
  199MPD1     N 3086   3.828   1.420  10.475  0.8159  0.4543  0.2454
  199MPD1    H5 3087   3.770   1.356  10.423 -0.2596  1.5356  0.1205
  199MPD1    N1 3088   4.075   1.495  10.874  0.1007 -0.3127  0.4505
  199MPD1    H6 3089   4.124   1.445  10.948 -0.3566  0.6781  1.4247
  199MPD1    H7 3090   4.152   1.524  10.815 -0.2669 -0.2923 -0.0224
  200MPD1     C 3091   2.526   1.320  15.091 -0.7675 -0.3927 -0.5695
  200MPD1    C1 3092   2.518   1.306  14.953 -0.0429  0.2137 -0.0788
  200MPD1    C2 3093   2.626   1.311  14.871  0.2236  0.2005  0.2897
  200MPD1    C3 3094   2.753   1.327  14.928  0.5323  0.2877 -0.2704
  200MPD1    C4 3095   2.762   1.347  15.070 -0.4168 -0.1734 -0.2050
  200MPD1    C5 3096   2.649   1.345  15.147  0.3855 -0.4916  0.3325
  200MPD1     H 3097   2.618   1.317  14.763  0.1777  2.0516  0.3855
  200MPD1    H1 3098   2.851   1.352  15.131 -0.3301  1.9037 -0.5108
  200MPD1    H2 3099   2.444   1.327  15.161 -1.1272  0.5046 -1.0838
  200MPD1    H3 3100   2.641   1.357  15.255  1.4108 -0.7063  0.4274
  200MPD1     N 3101   2.859   1.341  14.842  0.6105  0.0254  0.4491
  200MPD1    H5 3102   2.838   1.310  14.748  0.7295 -0.2885  0.5277
  200MPD1    N1 3103   2.389   1.303  14.897 -0.1306 -0.1032 -0.9281
  200MPD1    H6 3104   2.318   1.278  14.966  1.8282 -0.5150  0.9586
  200MPD1    H7 3105   2.380   1.247  14.813  0.6789 -0.6061 -0.6787
  201MPD1     C 3106   0.999   0.558  12.965 -0.2240 -0.2762 -0.0351
  201MPD1    C1 3107   1.035   0.467  13.066  0.1009 -0.4163  0.1444
  201MPD1    C2 3108   0.966   0.350  13.069  0.4795 -0.9981 -0.6329
  201MPD1    C3 3109   0.852   0.331  13.001  0.7552  0.1006 -0.2947
  201MPD1    C4 3110   0.809   0.426  12.906  0.1931  0.1209 -0.5996
  201MPD1    C5 3111   0.889   0.538  12.881  0.0839 -0.2907 -0.3062
  201MPD1     H 3112   0.995   0.281  13.147 -1.0727  0.3256  1.1086
  201MPD1    H1 3113   0.727   0.416  12.835 -0.2461 -0.0652 -0.0662
  201MPD1    H2 3114   1.065   0.641  12.944 -0.7857 -0.0178 -0.7686
  201MPD1    H3 3115   0.873   0.609  12.801  0.6822 -0.5342 -0.6469
  201MPD1     N 3116   0.788   0.208  13.031  0.0946 -0.2961  0.0091
  201MPD1    H5 3117   0.827   0.148  13.102 -0.3874 -0.8283 -0.1760
  201MPD1    N1 3118   1.155   0.483  13.131  0.9729  0.5377  0.0102
  201MPD1    H6 3119   1.167   0.578  13.165  2.4388  0.6410 -0.7712
  201MPD1    H7 3120   1.151   0.425  13.215 -0.2175 -2.2345 -1.9391
  202MPD1     C 3121   0.110   4.304   9.600  0.9111 -0.3449 -0.4000
  202MPD1    C1 3122   0.116   4.441   9.608 -0.7972 -0.4390 -0.6271
  202MPD1    C2 3123   0.222   4.473   9.689  0.3741 -0.2325  0.1498
  202MPD1    C3 3124   0.284   4.384   9.778  0.1396 -0.2256 -0.1286
  202MPD1    C4 3125   0.265   4.251   9.767 -0.3880 -0.4032  0.7005
  202MPD1    C5 3126   0.177   4.211   9.674 -0.1962  0.3972 -0.0585
  202MPD1     H 3127   0.256   4.575   9.697 -0.9016  0.2840 -1.1089
  202MPD1    H1 3128   0.303   4.177   9.837  2.0992  0.5491  0.3495
  202MPD1    H2 3129   0.046   4.266   9.520 -0.0079 -0.7485  0.5324
  202MPD1    H3 3130   0.149   4.106   9.666 -2.7113  0.9981  0.5330
  202MPD1     N 3131   0.385   4.421   9.873 -0.1389 -0.0507  0.4522
  202MPD1    H5 3132   0.442   4.348   9.914  0.1184 -0.3870 -0.4959
  202MPD1    N1 3133   0.095   4.512   9.490  0.3096  0.0887 -0.3907
  202MPD1    H6 3134   0.002   4.497   9.452 -0.0027 -0.4294  0.5933
  202MPD1    H7 3135   0.109   4.612   9.496  3.2118 -0.4445  1.4646
  203MPD1     C 3136   4.071   1.016  12.109 -0.3406  0.3880  0.9569
  203MPD1    C1 3137   4.007   0.916  12.046 -0.1847  0.0521 -0.0343
  203MPD1    C2 3138   4.025   0.784  12.090  0.2108  0.1491  0.0170
  203MPD1    C3 3139   4.083   0.759  12.212 -0.1385  0.1562  0.3611
  203MPD1    C4 3140   4.132   0.867  12.288 -0.1998  0.3122  0.2295
  203MPD1    C5 3141   4.129   0.989  12.228 -0.1638  0.6353  0.4047
  203MPD1     H 3142   3.980   0.701  12.037  0.6193 -0.2350  0.2759
  203MPD1    H1 3143   4.198   0.868  12.374  0.0564 -0.0962  0.0344
  203MPD1    H2 3144   4.088   1.114  12.064 -1.1145  1.2881  2.6393
  203MPD1    H3 3145   4.166   1.070  12.290 -0.3292 -1.0825  2.7545
  203MPD1     N 3146   4.100   0.623  12.250 -0.4837  0.4347 -0.0451
  203MPD1    H5 3147   4.056   0.545  12.203  0.3132  0.8332 -1.4462
  203MPD1    N1 3148   3.958   0.940  11.918 -0.2875 -0.0613 -0.0830
  203MPD1    H6 3149   3.885   0.872  11.899 -0.4019  0.3330 -1.0421
  203MPD1    H7 3150   3.913   1.031  11.908  0.0310  0.0810 -0.2186
  204MPD1     C 3151   3.322   2.228  17.618 -0.1662  0.1958  0.0473
  204MPD1    C1 3152   3.260   2.174  17.503  0.4678  0.0715  0.6496
  204MPD1    C2 3153   3.297   2.046  17.474  0.4957 -0.3541  0.4535
  204MPD1    C3 3154   3.382   1.973  17.557  0.4214  0.6060  1.1395
  204MPD1    C4 3155   3.439   2.025  17.672 -0.2874  0.0807  1.0558
  204MPD1    C5 3156   3.401   2.151  17.700 -0.2858 -0.3228 -0.3354
  204MPD1     H 3157   3.249   2.002  17.387 -1.9365  2.4537  0.4012
  204MPD1    H1 3158   3.507   1.977  17.741  2.8538  2.6730 -0.2628
  204MPD1    H2 3159   3.296   2.324  17.663  1.5523  0.8547 -0.3394
  204MPD1    H3 3160   3.442   2.190   0.042  0.9968  1.1697 -1.5286
  204MPD1     N 3161   3.408   1.844  17.521  0.9163  0.5628 -0.5192
  204MPD1    H5 3162   3.379   1.819  17.427 -1.0803 -1.3673  0.6034
  204MPD1    N1 3163   3.152   2.242  17.444  0.4006 -0.6102 -0.5237
  204MPD1    H6 3164   3.152   2.243  17.342 -0.6517  1.5361 -0.4992
  204MPD1    H7 3165   3.133   2.335  17.480 -0.1058 -0.8215 -0.2421
  205MPD1     C 3166   2.983   0.925  16.825  0.4814 -0.4737 -0.0390
  205MPD1    C1 3167   2.967   0.915  16.961  0.1192  0.4860 -0.3209
  205MPD1    C2 3168   3.044   0.834  17.037 -0.2362  0.5832 -0.6354
  205MPD1    C3 3169   3.134   0.748  16.981 -0.7488 -0.4304  0.7221
  205MPD1    C4 3170   3.133   0.742  16.841  0.9150 -0.2894  0.1959
  205MPD1    C5 3171   3.062   0.832  16.765  0.1475 -0.3335 -0.3454
  205MPD1     H 3172   3.032   0.841  17.145 -0.0463  0.4285 -0.6015
  205MPD1    H1 3173   3.199   0.675  16.788  2.6494  1.9807 -0.5337
  205MPD1    H2 3174   2.928   1.000  16.768  1.2438 -0.8859 -1.3203
  205MPD1    H3 3175   3.074   0.833  16.657 -1.1477  0.6864 -0.4782
  205MPD1     N 3176   3.209   0.652  17.060 -0.1507  0.1323 -0.0128
  205MPD1    H5 3177   3.258   0.582  17.004 -2.3148 -1.5052  0.1081
  205MPD1    N1 3178   2.884   1.006  17.024  0.5667 -0.9104  0.2117
  205MPD1    H6 3179   2.807   1.042  16.967  1.5874  1.0699  0.0852
  205MPD1    H7 3180   2.860   0.958  17.111  1.3032  0.6824  1.3032
  206MPD1     C 3181   3.931   3.325  17.399  0.6901  0.4700 -0.2247
  206MPD1    C1 3182   4.016   3.231  17.335  0.2608  0.3380 -0.1091
  206MPD1    C2 3183   3.980   3.198  17.204  0.2505 -0.3327  0.1036
  206MPD1    C3 3184   3.850   3.220  17.164  0.3550 -0.3177 -0.3705
  206MPD1    C4 3185   3.770   3.312  17.236  0.3225 -0.6357 -0.3836
  206MPD1    C5 3186   3.812   3.361  17.358 -0.4962 -0.3702 -0.2016
  206MPD1     H 3187   4.050   3.141  17.143  0.9920  1.7337 -0.9454
  206MPD1    H1 3188   3.667   3.328  17.208  0.1059 -0.5029  0.4971
  206MPD1    H2 3189   3.958   3.354  17.500  1.9403 -2.0522  0.1648
  206MPD1    H3 3190   3.755   3.431  17.418 -0.0511 -1.3358  1.3289
  206MPD1     N 3191   3.786   3.165  17.050 -0.3748 -0.2037 -0.6800
  206MPD1    H5 3192   3.687   3.185  17.038  0.0714  1.2031 -1.9859
  206MPD1    N1 3193   4.139   3.207  17.391  0.1782 -0.0657 -0.4385
  206MPD1    H6 3194   4.131   3.197  17.492  3.3298  1.3656 -0.0548
  206MPD1    H7 3195   4.190   3.129  17.351 -3.1050 -1.5588 -1.6753
  207MPD1     C 3196   1.284   2.197   9.849  0.0310 -0.4461 -0.4202
  207MPD1    C1 3197   1.265   2.058   9.830  0.8631  0.1712 -0.4972
  207MPD1    C2 3198   1.355   1.976   9.896  0.3864  0.1727  0.0575
  207MPD1    C3 3199   1.457   2.020   9.971  0.1954  0.0555  0.1538
  207MPD1    C4 3200   1.478   2.155   9.980  0.1633  0.2245 -0.3296
  207MPD1    C5 3201   1.394   2.246   9.919  0.8521  0.2488 -0.5744
  207MPD1     H 3202   1.330   1.871   9.891 -0.6058  0.4115  0.0868
  207MPD1    H1 3203   1.557   2.198  10.040  0.6876  0.9446 -1.5206
  207MPD1    H2 3204   1.211   2.268   9.814  1.3021  0.5693 -0.9963
  207MPD1    H3 3205   1.405   2.354   9.926 -1.0669  0.4445 -0.4919
  207MPD1     N 3206   1.553   1.939  10.043 -0.1087  0.2994  0.0843
  207MPD1    H5 3207   1.599   1.994  10.115  0.0406  1.2064 -0.6990
  207MPD1    N1 3208   1.156   2.003   9.755  0.2285 -0.3609 -0.4391
  207MPD1    H6 3209   1.141   2.057   9.670  2.0683 -1.0908 -1.2230
  207MPD1    H7 3210   1.174   1.907   9.728  1.8358  0.2445 -1.4722
  208MPD1     C 3211   0.090   4.610   0.148 -0.0017 -0.3862 -0.6300
  208MPD1    C1 3212   4.733   4.513   0.167 -0.5799 -0.6740 -0.0540
  208MPD1    C2 3213   4.643   4.486   0.060  0.0830  0.5531  0.0708
  208MPD1    C3 3214   4.651   4.568  17.695 -0.4608  0.1812 -0.2157
  208MPD1    C4 3215   0.014   4.662  17.684  0.1450  0.2428 -0.6449
  208MPD1    C5 3216   0.099   4.688   0.034  0.5886  0.2232 -0.0144
  208MPD1     H 3217   4.565   4.412   0.070  0.2118  0.5835  1.3694
  208MPD1    H1 3218   0.010   4.734  17.603 -1.6800  0.2799 -0.5343
  208MPD1    H2 3219   0.164   4.627   0.226  0.9324 -0.8379 -1.4232
  208MPD1    H3 3220   0.160   0.039   0.025  0.5717  0.1085 -1.2273
  208MPD1     N 3221   4.554   4.541  17.593  0.8956 -0.1735 -0.0508
  208MPD1    H5 3222   4.489   4.464  17.609 -0.6342  0.8724 -1.2789
  208MPD1    N1 3223   4.732   4.438   0.282  0.3620 -0.0950 -0.7022
  208MPD1    H6 3224   0.070   4.449   0.349 -1.5166  0.4994  1.3471
  208MPD1    H7 3225   4.645   4.459   0.331  1.0611  0.5751  0.2568
  209MPD1     C 3226   1.736   1.213  11.522 -0.6388 -0.6874  0.8676
  209MPD1    C1 3227   1.868   1.179  11.508 -0.2399  0.2532  0.7770
  209MPD1    C2 3228   1.917   1.132  11.389  0.1466 -0.6877  0.0270
  209MPD1    C3 3229   1.836   1.100  11.284 -0.3973  0.3793 -0.5680
  209MPD1    C4 3230   1.702   1.125  11.301  0.6857  0.4803 -0.1378
  209MPD1    C5 3231   1.650   1.169  11.418  0.6435  0.3278 -0.0411
  209MPD1     H 3232   2.022   1.110  11.375  0.1085  0.8057 -2.5105
  209MPD1    H1 3233   1.641   1.100  11.215  0.5028  0.9658 -0.1478
  209MPD1    H2 3234   1.708   1.255  11.617  0.3067  1.2093  0.3223
  209MPD1    H3 3235   1.547   1.201  11.425 -0.4598 -3.3032  0.1106
  209MPD1     N 3236   1.895   1.042  11.171  0.3313  0.4911  0.7607
  209MPD1    H5 3237   1.996   1.038  11.170  0.3242  0.3411  0.6341
  209MPD1    N1 3238   1.959   1.195  11.611  0.9468  0.3228 -0.7494
  209MPD1    H6 3239   1.921   1.242  11.693  0.3392 -1.6447  0.1044
  209MPD1    H7 3240   2.018   1.117  11.637 -0.2724 -0.6916 -1.0405
  210MPD1     C 3241   2.766   0.972  10.786 -0.1270  0.1316  0.5321
  210MPD1    C1 3242   2.703   1.015  10.894  0.5330 -0.7852 -0.6873
  210MPD1    C2 3243   2.565   1.011  10.899  0.1586  0.1603  0.1127
  210MPD1    C3 3244   2.492   0.952  10.794  0.4146  0.2894 -0.2385
  210MPD1    C4 3245   2.558   0.894  10.690  0.2324 -0.6754 -0.0107
  210MPD1    C5 3246   2.696   0.909  10.682  0.6506  0.0170  0.2596
  210MPD1     H 3247   2.515   1.054  10.985  0.6093  1.9011 -0.4961
  210MPD1    H1 3248   2.515   0.849  10.602  0.7787 -0.4090 -0.4174
  210MPD1    H2 3249   2.871   0.982  10.761 -0.2673 -1.0916 -0.5502
  210MPD1    H3 3250   2.750   0.875  10.595 -0.1290 -1.4582  0.3624
  210MPD1     N 3251   2.352   0.948  10.800 -0.4097  0.0159  0.3220
  210MPD1    H5 3252   2.302   0.910  10.720  0.3349 -1.2396  0.4624
  210MPD1    N1 3253   2.779   1.083  10.991 -0.2641 -0.8772  0.3274
  210MPD1    H6 3254   2.864   1.029  11.009  0.9041  1.0184  0.4901
  210MPD1    H7 3255   2.716   1.087  11.071  0.2903  0.9503  0.6634
  211MPD1     C 3256   3.395   4.500  16.470  0.2187 -0.0453  0.5138
  211MPD1    C1 3257   3.494   4.582  16.527 -0.2559 -0.1637 -0.1813
  211MPD1    C2 3258   3.489   4.720  16.494 -0.3965  0.7645 -0.2913
  211MPD1    C3 3259   3.405   0.027  16.400  0.2204  0.2949 -0.7866
  211MPD1    C4 3260   3.303   4.684  16.352 -0.5538 -0.3038  0.0923
  211MPD1    C5 3261   3.304   4.561  16.391  0.2389 -0.1015  0.2099
  211MPD1     H 3262   3.569   0.045  16.531 -2.2651  2.3373  1.1030
  211MPD1    H1 3263   3.220   4.716  16.291 -0.6763  2.4348  1.6862
  211MPD1    H2 3264   3.379   4.402  16.512 -0.6581  1.1808  3.0644
  211MPD1    H3 3265   3.214   4.503  16.376 -0.5151  1.3058 -0.7793
  211MPD1     N 3266   3.423   0.164  16.372 -0.5000  0.6280  0.7277
  211MPD1    H5 3267   3.505   0.203  16.417  1.5629 -2.5172 -0.2945
  211MPD1    N1 3268   3.563   4.525  16.643  1.1246  0.6687  0.8818
  211MPD1    H6 3269   3.641   4.587  16.662  3.6001 -2.3262  0.4134
  211MPD1    H7 3270   3.593   4.429  16.634  0.7813  0.5398  1.0940
  212MPD1     C 3271   2.555   3.504  16.728  0.0212  0.3468  0.3364
  212MPD1    C1 3272   2.496   3.516  16.850  0.4192 -0.6180 -0.1896
  212MPD1    C2 3273   2.535   3.429  16.953 -0.1099 -0.4121  0.8487
  212MPD1    C3 3274   2.635   3.337  16.926  0.6268  0.5639 -0.2244
  212MPD1    C4 3275   2.698   3.336  16.804  0.2932 -0.3826 -0.3368
  212MPD1    C5 3276   2.652   3.410  16.705 -0.0486  0.7329  0.1662
  212MPD1     H 3277   2.472   3.415  17.039 -0.2889 -2.6648  0.3665
  212MPD1    H1 3278   2.777   3.264  16.790 -0.4732 -1.4732  0.9627
  212MPD1    H2 3279   2.530   3.576  16.651 -1.0963  1.1568  1.4350
  212MPD1    H3 3280   2.703   3.404  16.610  1.9406  2.9369  1.0820
  212MPD1     N 3281   2.672   3.230  17.015 -0.4549 -0.1121 -0.3075
  212MPD1    H5 3282   2.746   3.168  16.985 -0.6062 -0.2950 -0.2978
  212MPD1    N1 3283   2.398   3.618  16.873 -0.3173 -0.1231 -1.0845
  212MPD1    H6 3284   2.354   3.605  16.964  2.1990  0.6334  0.2117
  212MPD1    H7 3285   2.325   3.625  16.802 -2.3873  2.2757  1.2884
  213MPD1     C 3286   1.710   4.177  15.772  0.8205 -0.1882  0.1682
  213MPD1    C1 3287   1.588   4.130  15.806 -0.1480  0.7063 -0.0048
  213MPD1    C2 3288   1.484   4.157  15.715 -0.3397  0.2718 -0.1598
  213MPD1    C3 3289   1.495   4.260  15.619 -0.6038  0.1508  0.3887
  213MPD1    C4 3290   1.612   4.319  15.600 -0.3369 -1.0212 -0.1892
  213MPD1    C5 3291   1.716   4.274  15.679  0.2970 -0.0028  0.1544
  213MPD1     H 3292   1.388   4.107  15.711 -0.1252 -0.0447 -1.4005
  213MPD1    H1 3293   1.632   4.391  15.522  1.1876 -1.7188 -0.4355
  213MPD1    H2 3294   1.803   4.167  15.826 -0.2172 -2.1781  1.6175
  213MPD1    H3 3295   1.814   4.318  15.660  0.1563 -0.1080 -0.8110
  213MPD1     N 3296   1.378   4.288  15.539  0.4829 -0.1968 -0.1906
  213MPD1    H5 3297   1.295   4.238  15.568  0.7752 -2.1908 -2.7754
  213MPD1    N1 3298   1.589   4.008  15.874  0.2537  0.1885 -0.1748
  213MPD1    H6 3299   1.664   3.987  15.940  2.1753  0.7571 -2.1911
  213MPD1    H7 3300   1.502   3.978  15.918  0.4744 -1.3210 -0.7653
  214MPD1     C 3301   0.454   4.082  15.499  0.0461 -0.5856  0.2484
  214MPD1    C1 3302   0.546   3.993  15.451  0.1486 -0.4125  0.8305
  214MPD1    C2 3303   0.664   4.054  15.404  0.2793  0.7137 -0.7221
  214MPD1    C3 3304   0.697   4.184  15.440 -0.5232  0.3914  0.2522
  214MPD1    C4 3305   0.608   4.262  15.505 -0.5411  0.7794 -0.6187
  214MPD1    C5 3306   0.483   4.211  15.529  0.2746  0.7129 -0.0802
  214MPD1     H 3307   0.738   3.990  15.355 -0.4710 -2.0087  1.7435
  214MPD1    H1 3308   0.631   4.363  15.537 -1.5179  1.1329 -1.0239
  214MPD1    H2 3309   0.354   4.049  15.526  1.0025 -2.4656  1.4667
  214MPD1    H3 3310   0.413   4.271  15.585  1.9734  2.1033  0.5513
  214MPD1     N 3311   0.820   4.249  15.402 -0.3200  0.7006 -0.5610
  214MPD1    H5 3312   0.827   4.350  15.412  2.3490  0.2560  1.9525
  214MPD1    N1 3313   0.505   3.861  15.407  0.4955 -0.1872 -0.0339
  214MPD1    H6 3314   0.586   3.800  15.417  1.1236  0.5988 -0.3825
  214MPD1    H7 3315   0.430   3.824  15.466  0.6685  0.0423  0.3308
  215MPD1     C 3316   1.782   4.695  10.874  0.0041  0.6827  0.0512
  215MPD1    C1 3317   1.803   0.014  10.993  0.2986 -0.0526  0.4165
  215MPD1    C2 3318   1.759   0.141  11.012  0.5194  0.2357  0.5162
  215MPD1    C3 3319   1.696   0.220  10.911 -0.9747 -0.6041 -0.2571
  215MPD1    C4 3320   1.674   0.156  10.787  0.5284  0.8138  0.1418
  215MPD1    C5 3321   1.718   0.025  10.769  0.3978  0.6610 -0.3193
  215MPD1     H 3322   1.774   0.179  11.112 -1.7034 -2.0051  1.7054
  215MPD1    H1 3323   1.604   0.192  10.712 -0.1664 -1.1383 -0.1595
  215MPD1    H2 3324   1.803   4.590  10.859  2.5896  1.1701  0.4053
  215MPD1    H3 3325   1.685   4.702  10.686 -2.9063 -0.5419  1.8596
  215MPD1     N 3326   1.652   0.350  10.952 -0.3648  0.6208  0.4485
  215MPD1    H5 3327   1.671   0.374  11.049 -0.9070  3.5248 -0.1551
  215MPD1    N1 3328   1.832   4.672  11.106 -0.7893 -0.3809  0.5014
  215MPD1    H6 3329   1.870   4.722  11.186 -2.2860 -1.1299  1.6963
  215MPD1    H7 3330   1.886   4.589  11.083 -0.2463  0.2903 -0.6347
  216MPD1     C 3331   3.062   3.308  17.481  0.0096 -0.5253  0.2228
  216MPD1    C1 3332   3.018   3.221  17.379 -0.1935 -0.8267 -0.3517
  216MPD1    C2 3333   3.058   3.088  17.385 -0.2976 -0.4127  0.6486
  216MPD1    C3 3334   3.160   3.047  17.473  0.0736 -0.4627 -0.1578
  216MPD1    C4 3335   3.191   3.136  17.571 -0.5603 -0.8559 -0.7120
  216MPD1    C5 3336   3.141   3.257  17.580 -0.2706  0.1609 -0.3723
  216MPD1     H 3337   3.011   3.017  17.318 -0.2475 -0.7835  1.0050
  216MPD1    H1 3338   3.255   3.104  17.653 -0.8900 -2.0351 -0.9269
  216MPD1    H2 3339   3.012   3.404  17.489  0.8893 -0.1656  1.4641
  216MPD1    H3 3340   3.174   3.326  17.656  1.5679 -0.0289 -0.9808
  216MPD1     N 3341   3.205   2.913  17.459  0.4258  0.2839  0.6689
  216MPD1    H5 3342   3.155   2.862  17.387  2.1355 -0.6597  0.1444
  216MPD1    N1 3343   2.900   3.253  17.308  0.4197  0.2128 -0.3009
  216MPD1    H6 3344   2.900   3.208  17.217  1.3068 -3.2171  1.3818
  216MPD1    H7 3345   2.886   3.351  17.286 -0.8344  0.2360  0.6371
  217MPD1     C 3346   3.335   0.511   9.162  0.3440 -0.4322 -0.6334
  217MPD1    C1 3347   3.421   0.402   9.132 -0.0463 -0.0287  0.5583
  217MPD1    C2 3348   3.463   0.320   9.240 -0.4281  0.7787 -0.1058
  217MPD1    C3 3349   3.430   0.358   9.373  0.3858  0.4303 -0.1879
  217MPD1    C4 3350   3.351   0.464   9.396 -0.8459  0.1429  0.4834
  217MPD1    C5 3351   3.295   0.536   9.295 -0.4339  0.3478  0.0827
  217MPD1     H 3352   3.529   0.237   9.217 -0.0891  0.1893  2.9426
  217MPD1    H1 3353   3.322   0.497   9.495  0.4374  0.2138  0.8296
  217MPD1    H2 3354   3.306   0.579   9.082 -0.3601  1.5057  1.2829
  217MPD1    H3 3355   3.224   0.612   9.324 -1.1324 -0.5880  0.7894
  217MPD1     N 3356   3.478   0.287   9.487 -0.1598  0.5477  0.5439
  217MPD1    H5 3357   3.436   0.319   9.573  0.7771 -0.8528  1.5260
  217MPD1    N1 3358   3.483   0.389   9.007 -0.6700 -0.0484 -0.2694
  217MPD1    H6 3359   3.415   0.420   8.938  1.1677 -1.4860 -2.7358
  217MPD1    H7 3360   3.514   0.294   8.989  0.8284  0.5538 -0.9192
  218MPD1     C 3361   0.703   0.818  12.626  0.0763  0.6104  0.2266
  218MPD1    C1 3362   0.840   0.831  12.588  0.1297 -0.1826  0.1793
  218MPD1    C2 3363   0.904   0.723  12.546  0.1971 -0.6931 -0.1696
  218MPD1    C3 3364   0.842   0.606  12.520 -0.5451 -1.0477  0.8909
  218MPD1    C4 3365   0.706   0.592  12.542  0.0766  0.9718 -0.3527
  218MPD1    C5 3366   0.644   0.696  12.606  0.0700  0.5160 -0.5555
  218MPD1     H 3367   1.012   0.730  12.542  0.0439  1.8951  0.4475
  218MPD1    H1 3368   0.649   0.501  12.528 -1.9235  2.1110  0.3306
  218MPD1    H2 3369   0.649   0.904  12.663 -2.7164 -0.2956 -1.7088
  218MPD1    H3 3370   0.540   0.688  12.637 -0.0112  0.8322 -0.7357
  218MPD1     N 3371   0.924   0.503  12.468  0.2662  0.1597 -0.3078
  218MPD1    H5 3372   1.017   0.533  12.443  1.2418 -0.9247  1.9415
  218MPD1    N1 3373   0.911   0.947  12.615  0.1889 -0.5055  0.3436
  218MPD1    H6 3374   0.850   1.028  12.616  1.9857  0.8270  1.9932
  218MPD1    H7 3375   0.981   0.959  12.542  0.7893 -1.0136  0.8351
  219MPD1     C 3376   1.705   0.648  12.206 -0.5821 -0.1628  0.1428
  219MPD1    C1 3377   1.719   0.518  12.233 -0.2117  0.3450 -0.0532
  219MPD1    C2 3378   1.615   0.432  12.255 -0.1182 -0.3868  0.6440
  219MPD1    C3 3379   1.488   0.487  12.254 -0.0389  0.0099 -0.3656
  219MPD1    C4 3380   1.471   0.620  12.220  0.1143 -0.0955  0.1701
  219MPD1    C5 3381   1.582   0.694  12.191  0.0905  0.0966 -0.6271
  219MPD1     H 3382   1.641   0.329  12.278 -1.2017 -0.8846 -0.3476
  219MPD1    H1 3383   1.377   0.660  12.185  0.9759  1.5763 -0.2374
  219MPD1    H2 3384   1.789   0.716  12.190  0.4402 -1.3228  0.5693
  219MPD1    H3 3385   1.562   0.793  12.151  1.5229  0.6995  0.1625
  219MPD1     N 3386   1.369   0.412  12.263 -0.7765  0.5278 -0.7628
  219MPD1    H5 3387   1.280   0.459  12.249 -0.3548  1.8452  0.9280
  219MPD1    N1 3388   1.848   0.469  12.231 -0.7003  0.3159 -0.1329
  219MPD1    H6 3389   1.856   0.381  12.282  1.7560 -0.3060 -1.6073
  219MPD1    H7 3390   1.921   0.529  12.267  0.8747 -2.0394  0.5780
  220MPD1     C 3391   0.965   1.320   9.433 -0.6359  0.1287  0.1996
  220MPD1    C1 3392   0.868   1.253   9.514  0.7099 -0.8285  0.3266
  220MPD1    C2 3393   0.894   1.261   9.648 -0.4783 -0.5455  0.4740
  220MPD1    C3 3394   1.009   1.305   9.704  0.5717 -0.3226 -0.0549
  220MPD1    C4 3395   1.102   1.359   9.626 -0.6247 -0.0033 -0.4351
  220MPD1    C5 3396   1.081   1.368   9.489 -0.7774  0.2367 -0.3245
  220MPD1     H 3397   0.820   1.224   9.719 -1.6331 -1.9036 -1.4467
  220MPD1    H1 3398   1.199   1.384   9.666 -0.2931 -0.9940 -0.6069
  220MPD1    H2 3399   0.959   1.329   9.325 -0.2067 -1.4308  0.0555
  220MPD1    H3 3400   1.153   1.403   9.416 -0.6540  1.4369  0.3802
  220MPD1     N 3401   1.021   1.298   9.847 -0.3349  0.8451 -0.2015
  220MPD1    H5 3402   0.946   1.253   9.897 -0.3214  2.4938  1.3094
  220MPD1    N1 3403   0.746   1.215   9.465  0.2520 -0.3811  0.1290
  220MPD1    H6 3404   0.758   1.161   9.379  1.3969  0.7421 -0.4109
  220MPD1    H7 3405   0.707   1.149   9.533  1.5512  0.1080  1.3379
  221MPD1     C 3406   3.460   0.311  15.842  0.1662 -0.1955  0.3547
  221MPD1    C1 3407   3.575   0.324  15.916 -0.0002 -0.0623 -0.2213
  221MPD1    C2 3408   3.626   0.213  15.986 -0.0154 -0.2661 -0.6858
  221MPD1    C3 3409   3.552   0.095  15.987 -0.3782  0.5782 -0.0460
  221MPD1    C4 3410   3.439   0.083  15.907  0.2720  0.7215  0.0291
  221MPD1    C5 3411   3.393   0.193  15.840 -0.6276 -0.9202 -0.3489
  221MPD1     H 3412   3.717   0.220  16.045 -2.3586 -1.1511  3.0812
  221MPD1    H1 3413   3.374   4.734  15.910 -0.6760  1.3925 -0.9975
  221MPD1    H2 3414   3.418   0.398  15.793  0.6490  0.5281  1.2500
  221MPD1    H3 3415   3.307   0.180  15.775 -0.3024 -1.6920 -0.6286
  221MPD1     N 3416   3.592   4.719  16.073  0.1993 -0.2801 -0.2967
  221MPD1    H5 3417   3.538   4.636  16.054  0.6115 -0.9744  1.4912
  221MPD1    N1 3418   3.653   0.435  15.909 -0.5256 -0.0309  0.5142
  221MPD1    H6 3419   3.711   0.448  15.992  0.4722  0.6965 -0.2902
  221MPD1    H7 3420   3.599   0.521  15.905  0.3038  0.5702  2.3301
  222MPD1     C 3421   2.428   2.466   0.459  0.1529  0.2744 -0.4539
  222MPD1    C1 3422   2.302   2.455   0.513 -0.0957 -0.2391  0.1943
  222MPD1    C2 3423   2.239   2.569   0.562  0.2427  0.4017  0.3101
  222MPD1    C3 3424   2.305   2.689   0.566 -0.6088 -0.3243  0.4058
  222MPD1    C4 3425   2.432   2.703   0.511 -0.7373  0.3018  0.3492
  222MPD1    C5 3426   2.487   2.587   0.459  0.5104  0.2002  0.5141
  222MPD1     H 3427   2.139   2.555   0.602  0.4331  2.1313  1.3900
  222MPD1    H1 3428   2.482   2.800   0.511 -0.5914  0.2213 -1.4455
  222MPD1    H2 3429   2.482   2.382   0.418  1.1460  1.1610 -0.9762
  222MPD1    H3 3430   2.584   2.597   0.411 -0.2660  1.6699 -0.7669
  222MPD1     N 3431   2.248   2.813   0.627 -0.0487  0.0143  0.6467
  222MPD1    H5 3432   2.297   2.900   0.611 -1.3861  0.5890 -0.3174
  222MPD1    N1 3433   2.227   2.344   0.494 -0.3614 -0.1287 -0.4455
  222MPD1    H6 3434   2.150   2.339   0.561 -0.1313  1.4658 -0.0385
  222MPD1    H7 3435   2.290   2.264   0.498 -1.1868 -0.7071  1.1527
  223MPD1     C 3436   1.559   2.999   1.322  0.2308  0.6328 -0.0198
  223MPD1    C1 3437   1.663   2.902   1.316  0.3968  0.2121  0.0207
  223MPD1    C2 3438   1.749   2.921   1.204  0.6472  0.1263 -0.2535
  223MPD1    C3 3439   1.722   3.013   1.104  0.1998 -0.1306 -0.2619
  223MPD1    C4 3440   1.610   3.094   1.112 -0.2013 -0.6031  0.7651
  223MPD1    C5 3441   1.534   3.088   1.224 -0.2156  0.2556  1.0948
  223MPD1     H 3442   1.841   2.865   1.189  0.1330 -0.0152 -2.8596
  223MPD1    H1 3443   1.574   3.167   1.039 -0.0185 -1.3319 -0.0589
  223MPD1    H2 3444   1.482   3.009   1.398  1.0682  1.1889  0.7486
  223MPD1    H3 3445   1.450   3.155   1.238 -0.5746 -0.2889  1.5547
  223MPD1     N 3446   1.819   3.013   1.000 -0.2015  0.1057  0.4295
  223MPD1    H5 3447   1.899   2.952   0.992 -1.8669 -1.8812 -1.1823
  223MPD1    N1 3448   1.701   2.828   1.432 -0.2260  0.4630 -0.3305
  223MPD1    H6 3449   1.757   2.745   1.414 -0.1017  0.5884 -0.5278
  223MPD1    H7 3450   1.619   2.808   1.488 -1.0824 -1.5856 -2.3108
  224MPD1     C 3451   3.645   0.980   9.310  0.2650 -0.3214 -0.4620
  224MPD1    C1 3452   3.699   0.857   9.336 -0.2411  0.0880 -0.3036
  224MPD1    C2 3453   3.804   0.844   9.420 -0.7478  0.3678 -0.8142
  224MPD1    C3 3454   3.866   0.956   9.469 -0.3860  0.1122  0.3927
  224MPD1    C4 3455   3.807   1.075   9.443 -0.2630 -0.1379 -0.1543
  224MPD1    C5 3456   3.702   1.089   9.363 -0.3029 -0.7469  0.3602
  224MPD1     H 3457   3.844   0.745   9.442  0.1033  0.8700 -0.1209
  224MPD1    H1 3458   3.846   1.165   9.490  0.0332 -0.4231  0.1424
  224MPD1    H2 3459   3.555   0.987   9.250  0.4628  1.6787 -0.5120
  224MPD1    H3 3460   3.653   1.185   9.349  4.0639  0.9751 -3.0185
  224MPD1     N 3461   3.967   0.953   9.571  0.4133  0.2011  0.1802
  224MPD1    H5 3462   3.991   1.042   9.614 -2.5297  0.5628  1.1143
  224MPD1    N1 3463   3.633   0.739   9.291  0.2535 -0.0066 -0.1553
  224MPD1    H6 3464   3.691   0.655   9.297 -0.9916 -0.9438 -1.1209
  224MPD1    H7 3465   3.601   0.740   9.194  3.8273  0.1022 -1.3356
  225MPD1     C 3466   1.316   1.329  12.126 -0.3628  0.1328 -0.0905
  225MPD1    C1 3467   1.253   1.245  12.041  0.1576 -0.0415  0.2222
  225MPD1    C2 3468   1.123   1.261  12.018 -0.3081 -0.1515  0.0045
  225MPD1    C3 3469   1.042   1.346  12.092 -0.2643 -0.0223 -0.4024
  225MPD1    C4 3470   1.103   1.425  12.189  0.3571  0.6184  0.5197
  225MPD1    C5 3471   1.236   1.408  12.208 -0.0458 -0.2307  0.0983
  225MPD1     H 3472   1.084   1.200  11.937 -1.8956  1.5278 -0.4995
  225MPD1    H1 3473   1.051   1.487  12.261  1.4775  2.2467 -0.0590
  225MPD1    H2 3474   1.420   1.322  12.156 -0.4359  0.3782  0.2291
  225MPD1    H3 3475   1.284   1.448  12.297 -0.5095  1.0680 -0.2367
  225MPD1     N 3476   0.903   1.356  12.068 -0.0453 -0.4046  0.0154
  225MPD1    H5 3477   0.846   1.402  12.138  0.6953 -0.8725  0.9128
  225MPD1    N1 3478   1.318   1.168  11.949  0.0445 -0.7226  0.3647
  225MPD1    H6 3479   1.402   1.125  11.988  0.2789  0.0983  0.7629
  225MPD1    H7 3480   1.262   1.084  11.932 -2.0389  0.3901  1.7047
  226MPD1     C 3481   4.400   2.099  10.801  0.7702  0.1169  0.5294
  226MPD1    C1 3482   4.519   2.151  10.745 -0.5713 -0.1521 -0.8497
  226MPD1    C2 3483   4.562   2.101  10.615  0.1875  0.2267 -0.3626
  226MPD1    C3 3484   4.495   1.993  10.556 -0.1546  0.4861  0.1949
  226MPD1    C4 3485   4.376   1.939  10.618  0.4566 -0.2784  0.0083
  226MPD1    C5 3486   4.333   1.997  10.738 -0.2756  0.8362  0.3318
  226MPD1     H 3487   4.654   2.139  10.572 -0.4778  1.9789 -0.2191
  226MPD1    H1 3488   4.302   1.873  10.574  0.6588 -0.8304  0.4969
  226MPD1    H2 3489   4.367   2.141  10.895  1.6004 -0.1280  0.9387
  226MPD1    H3 3490   4.241   1.969  10.789  0.5238 -2.9052 -0.2825
  226MPD1     N 3491   4.543   1.943  10.431 -0.3528 -0.6090  0.3226
  226MPD1    H5 3492   4.624   1.989  10.389  1.0524 -1.6526  1.8846
  226MPD1    N1 3493   4.582   2.259  10.808  0.0256  0.5255 -0.1412
  226MPD1    H6 3494   4.544   2.272  10.901 -0.2666  1.7934 -0.4430
  226MPD1    H7 3495   4.673   2.217  10.829  0.4723  2.0544  0.9531
  227MPD1     C 3496   0.417   2.310  10.009 -0.0504  0.1169  0.3665
  227MPD1    C1 3497   0.356   2.307  10.135 -0.5480  0.5003 -0.3930
  227MPD1    C2 3498   0.269   2.202  10.174 -0.6096 -0.6387 -0.4734
  227MPD1    C3 3499   0.249   2.099  10.075  0.2802  0.0912 -0.7511
  227MPD1    C4 3500   0.294   2.110   9.950 -0.1801  0.1154 -0.5193
  227MPD1    C5 3501   0.388   2.211   9.918  0.4563 -0.3855  0.5053
  227MPD1     H 3502   0.218   2.197  10.270  0.1948 -1.3049 -0.0769
  227MPD1    H1 3503   0.280   2.034   9.874  2.2486 -2.1718  1.3025
  227MPD1    H2 3504   0.476   2.394   9.972  0.4907 -0.7505 -0.7380
  227MPD1    H3 3505   0.423   2.212   9.816  1.5711 -3.6551  0.8644
  227MPD1     N 3506   0.163   1.995  10.118 -0.1842  0.1365 -0.2499
  227MPD1    H5 3507   0.132   2.003  10.214 -0.2497 -1.1345 -0.1742
  227MPD1    N1 3508   0.372   2.416  10.221 -0.4027 -0.2324  0.9521
  227MPD1    H6 3509   0.465   2.456  10.210 -0.1151 -1.2595 -0.3462
  227MPD1    H7 3510   0.369   2.381  10.317 -0.6493 -1.0434  0.6488
  228MPD1     C 3511   2.801   2.979  13.323 -0.0040  0.5787 -0.3774
  228MPD1    C1 3512   2.702   3.010  13.412  0.6495 -0.0630  0.4836
  228MPD1    C2 3513   2.590   3.075  13.364  0.5807 -0.5933 -0.1578
  228MPD1    C3 3514   2.587   3.117  13.230  0.0406  0.3219 -0.3041
  228MPD1    C4 3515   2.685   3.075  13.142 -0.8681  0.1632 -0.2472
  228MPD1    C5 3516   2.791   3.009  13.191 -0.1965  0.4933  0.3046
  228MPD1     H 3517   2.526   3.114  13.442 -0.6954  0.5776 -1.7983
  228MPD1    H1 3518   2.691   3.085  13.034  0.5471  0.3312 -0.1479
  228MPD1    H2 3519   2.896   2.939  13.356  0.1830  0.5908 -0.8936
  228MPD1    H3 3520   2.866   2.971  13.122 -1.2629 -0.2108 -0.4741
  228MPD1     N 3521   2.474   3.189  13.182  0.3856  0.3662  0.0783
  228MPD1    H5 3522   2.393   3.194  13.243  0.1600 -0.8664 -0.1323
  228MPD1    N1 3523   2.700   2.969  13.542 -0.6448  0.5294 -0.2482
  228MPD1    H6 3524   2.637   3.031  13.594 -0.3660  0.1162  0.5793
  228MPD1    H7 3525   2.794   2.974  13.580 -0.8560 -0.7328  0.4175
  229MPD1     C 3526   1.942   2.690  14.608 -0.6684  0.4087  0.0495
  229MPD1    C1 3527   1.992   2.735  14.722  0.9094 -0.9693  0.4108
  229MPD1    C2 3528   2.030   2.638  14.815  0.6131  0.8088  0.5188
  229MPD1    C3 3529   1.998   2.504  14.798 -0.1504 -0.3904  0.3669
  229MPD1    C4 3530   1.946   2.456  14.683  0.2741  0.6358 -0.0433
  229MPD1    C5 3531   1.919   2.557  14.596  0.3406  0.5370  0.1118
  229MPD1     H 3532   2.092   2.668  14.898  1.6876  1.6042 -0.5562
  229MPD1    H1 3533   1.914   2.355  14.659  1.2786  0.6228 -1.2861
  229MPD1    H2 3534   1.910   2.741  14.518  1.9738 -1.6622 -2.0799
  229MPD1    H3 3535   1.869   2.529  14.504  2.7524 -1.5419 -0.5812
  229MPD1     N 3536   2.029   2.407  14.889 -0.0143 -0.2563 -0.1197
  229MPD1    H5 3537   2.014   2.309  14.865 -0.4421  0.0128 -0.9437
  229MPD1    N1 3538   2.027   2.867  14.734  0.4466 -0.2333 -0.2304
  229MPD1    H6 3539   2.026   2.903  14.829 -1.4973 -0.9803  0.0412
  229MPD1    H7 3540   1.968   2.927  14.676 -0.6228 -0.7071  0.3789
  230MPD1     C 3541   2.625   2.160  15.773 -0.1250  0.2934 -0.1874
  230MPD1    C1 3542   2.601   2.045  15.697 -0.0700  0.8333  0.5629
  230MPD1    C2 3543   2.500   2.041  15.596 -0.0918  0.4583  0.2498
  230MPD1    C3 3544   2.439   2.157  15.558  0.0634 -0.1631 -0.1819
  230MPD1    C4 3545   2.474   2.281  15.616  0.0859  0.4615 -0.6594
  230MPD1    C5 3546   2.561   2.278  15.727 -0.0110 -0.3448 -0.3771
  230MPD1     H 3547   2.482   1.942  15.554 -0.1585  0.5298  0.1106
  230MPD1    H1 3548   2.437   2.373  15.573  3.2761  2.2697  0.4867
  230MPD1    H2 3549   2.686   2.163  15.863  2.4856  2.2688 -2.0155
  230MPD1    H3 3550   2.584   2.374  15.773 -0.5292  0.2214 -1.3050
  230MPD1     N 3551   2.348   2.155  15.459 -0.4895 -0.6223  0.1996
  230MPD1    H5 3552   2.337   2.065  15.413  1.4346 -0.4387 -0.6372
  230MPD1    N1 3553   2.653   1.931  15.755  0.2202  0.2485 -1.1219
  230MPD1    H6 3554   2.621   1.853  15.698 -0.0663 -0.5015  0.0651
  230MPD1    H7 3555   2.751   1.927  15.783  0.1489  0.8374 -0.7940
  231MPD1     C 3556   0.197   4.422  16.035  0.4958 -0.7123  0.1716
  231MPD1    C1 3557   0.139   4.378  15.920 -0.0439 -0.0664  0.0620
  231MPD1    C2 3558   0.185   4.429  15.801  0.5421 -0.4256  0.7517
  231MPD1    C3 3559   0.285   4.529  15.798  0.3662  0.1289  0.1715
  231MPD1    C4 3560   0.349   4.561  15.915 -0.2423 -0.3121 -0.0349
  231MPD1    C5 3561   0.300   4.511  16.030  0.1020  0.2095  0.2789
  231MPD1     H 3562   0.139   4.388  15.712  0.0314 -0.3809  0.9930
  231MPD1    H1 3563   0.431   4.628  15.934 -1.5791  0.8726  1.5315
  231MPD1    H2 3564   0.176   4.378  16.132  0.0159 -0.2518  0.2743
  231MPD1    H3 3565   0.336   4.553  16.123  0.2848 -1.1024  0.8042
  231MPD1     N 3566   0.332   4.584  15.676 -0.3745  0.3143 -0.8199
  231MPD1    H5 3567   0.303   4.540  15.589  1.9685 -0.0534 -1.4049
  231MPD1    N1 3568   0.026   4.289  15.925  0.4339  0.1935 -0.1812
  231MPD1    H6 3569   4.701   4.327  15.996 -0.5270 -2.3014  0.2808
  231MPD1    H7 3570   4.715   4.305  15.837 -0.4603 -1.3634  0.0254
  232MPD1     C 3571   2.437   1.614  17.307 -0.0068  0.2006 -0.4545
  232MPD1    C1 3572   2.397   1.551  17.426 -0.7108 -0.2347 -0.0012
  232MPD1    C2 3573   2.267   1.561  17.461  0.0033 -0.0203 -0.3726
  232MPD1    C3 3574   2.173   1.629  17.382 -0.8531 -0.6714 -0.1863
  232MPD1    C4 3575   2.213   1.672  17.258 -0.3915  0.4758  0.2111
  232MPD1    C5 3576   2.347   1.665  17.222 -0.1019  0.0566 -0.1029
  232MPD1     H 3577   2.241   1.517  17.556  0.4998  1.3146  0.3772
  232MPD1    H1 3578   2.149   1.729  17.192 -0.2297 -0.8256 -1.0718
  232MPD1    H2 3579   2.541   1.616  17.276 -0.1249 -1.8361 -1.0096
  232MPD1    H3 3580   2.376   1.710  17.128  1.0496 -0.7249 -0.1203
  232MPD1     N 3581   2.033   1.630  17.424  0.0135 -0.4753  0.3643
  232MPD1    H5 3582   2.008   1.595  17.516 -1.0021  2.8983  1.3609
  232MPD1    N1 3583   2.497   1.513  17.517 -0.6533  0.3809  0.5065
  232MPD1    H6 3584   2.572   1.464  17.469 -2.7034 -1.4350 -0.8358
  232MPD1    H7 3585   2.470   1.457  17.598 -0.7392  0.6221  0.6450
  233MPD1     C 3586   2.288   0.147   0.898 -0.1703 -0.2080  0.0042
  233MPD1    C1 3587   2.341   0.210   1.011 -0.0298 -0.2001  0.8652
  233MPD1    C2 3588   2.482   0.189   1.036  0.1978  0.1623  1.0262
  233MPD1    C3 3589   2.561   0.120   0.945 -0.2143 -0.7875  0.1136
  233MPD1    C4 3590   2.497   0.081   0.826 -0.5816  0.3301 -0.0623
  233MPD1    C5 3591   2.362   0.086   0.800 -0.0638 -0.0940  0.2407
  233MPD1     H 3592   2.516   0.223   1.132  0.7301 -1.6341  1.4739
  233MPD1    H1 3593   2.559   0.036   0.750 -0.0225  2.7270 -1.0242
  233MPD1    H2 3594   2.180   0.158   0.886 -0.4630 -1.7557  1.2321
  233MPD1    H3 3595   2.302   0.040   0.723 -0.1705 -0.9131  0.8156
  233MPD1     N 3596   2.694   0.081   0.971 -0.2698 -0.6257  0.0775
  233MPD1    H5 3597   2.737   0.029   0.895  0.3908  1.1269 -0.7394
  233MPD1    N1 3598   2.255   0.256   1.112 -0.5388 -0.2531  0.5179
  233MPD1    H6 3599   2.308   0.306   1.183  1.0564  1.6427 -2.0411
  233MPD1    H7 3600   2.189   0.321   1.070  0.2258  1.5075  2.0186
  234MPD1     C 3601   0.405   4.212  10.356  0.4921  0.1607  0.1032
  234MPD1    C1 3602   0.359   4.159  10.231  0.4738  0.0046  0.3432
  234MPD1    C2 3603   0.268   4.236  10.159 -0.3948 -0.6979 -0.0451
  234MPD1    C3 3604   0.230   4.364  10.200  0.3377 -0.2582  0.4476
  234MPD1    C4 3605   0.282   4.417  10.317 -0.1738  0.4799 -0.7197
  234MPD1    C5 3606   0.372   4.344  10.393  0.2671 -0.9738 -0.2291
  234MPD1     H 3607   0.225   4.199  10.067  0.3089  1.9880 -1.4629
  234MPD1    H1 3608   0.258   4.520  10.340 -1.1615 -0.5887  2.9291
  234MPD1    H2 3609   0.476   4.165  10.423  1.2490 -0.6757 -1.3004
  234MPD1    H3 3610   0.394   4.398  10.484  1.5297 -0.0814 -1.0614
  234MPD1     N 3611   0.135   4.446  10.135  0.0254 -0.3671  0.3277
  234MPD1    H5 3612   0.115   4.540  10.167 -1.0698 -0.0779 -1.2125
  234MPD1    N1 3613   0.377   4.022  10.204 -0.2402 -0.1441 -0.4233
  234MPD1    H6 3614   0.374   3.996  10.105 -3.7812 -1.0112 -0.0736
  234MPD1    H7 3615   0.472   3.999  10.234 -0.5122 -2.9406 -1.6317
  235MPD1     C 3616   1.717   1.570  10.524  0.2499  0.1173  0.2198
  235MPD1    C1 3617   1.660   1.687  10.485 -0.7773 -0.2324 -0.5013
  235MPD1    C2 3618   1.726   1.806  10.509  0.3412 -0.1453 -0.4422
  235MPD1    C3 3619   1.850   1.803  10.565 -0.2623 -0.7463  1.1964
  235MPD1    C4 3620   1.899   1.687  10.620  0.3307 -0.6658 -0.7307
  235MPD1    C5 3621   1.835   1.569  10.600 -0.6511 -0.1601 -0.5784
  235MPD1     H 3622   1.698   1.903  10.470  0.7410 -0.5603 -1.7529
  235MPD1    H1 3623   1.994   1.685  10.673  1.1798 -0.1051 -2.2147
  235MPD1    H2 3624   1.665   1.481  10.489 -0.5869 -0.0451  1.8564
  235MPD1    H3 3625   1.879   1.472  10.621 -1.7798 -0.0760  2.1622
  235MPD1     N 3626   1.926   1.918  10.552 -0.3841 -0.8389  0.2467
  235MPD1    H5 3627   1.880   1.998  10.510  0.1973  0.1030  1.3888
  235MPD1    N1 3628   1.552   1.684  10.395  0.0656 -0.7342 -0.1007
  235MPD1    H6 3629   1.503   1.595  10.390 -2.9482  0.8295  1.6083
  235MPD1    H7 3630   1.492   1.763  10.370  2.8493  1.1889 -0.6983
  236MPD1     C 3631   0.119   3.093   9.702  0.3557  0.7054  0.2895
  236MPD1    C1 3632   0.110   3.126   9.837  0.1576  0.0867 -0.1222
  236MPD1    C2 3633   0.224   3.126   9.917  0.0268 -0.1820 -0.3748
  236MPD1    C3 3634   0.345   3.070   9.871 -0.3115 -0.5981 -0.2593
  236MPD1    C4 3635   0.353   3.033   9.740  0.8331 -0.4926  0.3390
  236MPD1    C5 3636   0.240   3.053   9.661  0.4556  0.2796  0.2199
  236MPD1     H 3637   0.213   3.160  10.020 -0.2688  2.4206 -1.2746
  236MPD1    H1 3638   0.441   2.990   9.693 -0.8105 -2.1509 -1.2306
  236MPD1    H2 3639   0.034   3.087   9.634 -0.9734 -0.3119  2.0379
  236MPD1    H3 3640   0.249   3.036   9.554  0.7069 -1.3040  0.4908
  236MPD1     N 3641   0.463   3.064   9.944  0.2559 -0.0340  0.5153
  236MPD1    H5 3642   0.540   3.018   9.896 -1.0682 -0.1269 -1.4776
  236MPD1    N1 3643   4.722   3.180   9.886 -0.2774  0.2624  0.3868
  236MPD1    H6 3644   4.718   3.200   9.986 -0.3851 -3.4438  1.1219
  236MPD1    H7 3645   4.640   3.121   9.878  0.4428 -0.7518  0.5283
  237MPD1     C 3646   1.050   0.904  15.307 -0.0568 -0.3854 -0.3728
  237MPD1    C1 3647   0.994   0.888  15.432 -0.1166  0.4273  0.1126
  237MPD1    C2 3648   0.858   0.861  15.442  0.4646 -0.7603  0.3471
  237MPD1    C3 3649   0.789   0.836  15.329 -0.4881  0.0752  0.1141
  237MPD1    C4 3650   0.846   0.855  15.208  0.3421  0.2463 -0.0764
  237MPD1    C5 3651   0.978   0.882  15.198  0.0317 -0.7491 -0.6438
  237MPD1     H 3652   0.820   0.854  15.543 -0.5454 -1.7049 -0.0951
  237MPD1    H1 3653   0.792   0.818  15.121 -0.4177  1.5087 -0.1288
  237MPD1    H2 3654   1.155   0.924  15.294  0.4680 -0.7969  3.2402
  237MPD1    H3 3655   1.032   0.890  15.105  1.3939 -0.1399  0.1863
  237MPD1     N 3656   0.652   0.796  15.331 -0.1320 -0.0086  0.1266
  237MPD1    H5 3657   0.611   0.790  15.238 -0.0671  0.7356  0.0533
  237MPD1    N1 3658   1.072   0.925  15.542 -0.3394  0.3313 -0.7837
  237MPD1    H6 3659   1.173   0.922  15.542 -0.3035  1.5932 -2.6715
  237MPD1    H7 3660   1.041   0.873  15.624 -0.4072  0.0915 -0.9585
  238MPD1     C 3661   2.555   4.499  14.891 -0.6045  0.4394 -0.1173
  238MPD1    C1 3662   2.502   4.612  14.842 -0.1813 -0.0154 -0.3278
  238MPD1    C2 3663   2.365   4.629  14.831  0.3656 -0.4522 -0.0109
  238MPD1    C3 3664   2.286   4.517  14.847 -0.2669  0.9763  0.0864
  238MPD1    C4 3665   2.340   4.390  14.878  0.0652 -0.4760  0.2074
  238MPD1    C5 3666   2.472   4.387  14.902  0.7728  0.4788 -0.2156
  238MPD1     H 3667   2.325   4.729  14.822 -0.5118 -0.7862  0.1978
  238MPD1    H1 3668   2.272   4.309  14.901  3.5857 -3.6372 -0.5408
  238MPD1    H2 3669   2.660   4.476  14.907 -1.2113 -2.1901  0.1745
  238MPD1    H3 3670   2.515   4.290  14.928  0.9099  0.8670  1.0268
  238MPD1     N 3671   2.148   4.521  14.842  0.0148 -0.3046 -0.7254
  238MPD1    H5 3672   2.098   4.433  14.857  2.6731 -1.5412  0.8136
  238MPD1    N1 3673   2.587   4.727  14.828  0.8409  0.2682 -0.3117
  238MPD1    H6 3674   2.680   4.702  14.796  0.9938 -0.7511  0.9257
  238MPD1    H7 3675   2.548   0.047  14.754  1.8030  1.6177  0.2322
  239MPD1     C 3676   2.626   1.043  15.623  0.2453 -0.4618  0.1520
  239MPD1    C1 3677   2.534   1.127  15.564 -0.7633 -0.0221  0.6899
  239MPD1    C2 3678   2.478   1.093  15.446 -0.2037 -0.1918 -0.2315
  239MPD1    C3 3679   2.503   0.968  15.386 -0.9674  0.7755  0.6089
  239MPD1    C4 3680   2.601   0.889  15.441 -0.0615  0.0140 -0.3087
  239MPD1    C5 3681   2.659   0.921  15.563  0.0085 -0.0040 -0.1801
  239MPD1     H 3682   2.410   1.169  15.409 -1.6440 -0.3271  2.1425
  239MPD1    H1 3683   2.617   0.787  15.407  1.2770  0.9399 -2.4585
  239MPD1    H2 3684   2.682   1.074  15.710  0.3049  1.6275 -0.6308
  239MPD1    H3 3685   2.711   0.844  15.619 -2.0750  1.3311  3.6264
  239MPD1     N 3686   2.449   0.929  15.260  0.5987 -0.7179  0.5280
  239MPD1    H5 3687   2.479   0.839  15.224  1.5420 -0.9060  1.7563
  239MPD1    N1 3688   2.532   1.261  15.608 -0.2366 -0.9874  0.6522
  239MPD1    H6 3689   2.562   1.285  15.703 -0.8914 -0.9466  0.8490
  239MPD1    H7 3690   2.447   1.312  15.585  1.0649  1.0919  0.5609
  240MPD1     C 3691   1.664   0.510  14.086 -0.2242  0.2164  0.0459
  240MPD1    C1 3692   1.761   0.459  14.178  0.7927 -1.7113 -0.3834
  240MPD1    C2 3693   1.718   0.393  14.291 -0.0944 -0.0424  0.4367
  240MPD1    C3 3694   1.588   0.349  14.301  0.4802  0.3003  0.6695
  240MPD1    C4 3695   1.494   0.398  14.214 -0.1608  0.5407 -0.2035
  240MPD1    C5 3696   1.526   0.471  14.100  0.0237 -0.0871  0.3817
  240MPD1     H 3697   1.795   0.367  14.364  1.6145  1.4924 -0.8370
  240MPD1    H1 3698   1.390   0.376  14.234 -0.3393  1.5924  0.0129
  240MPD1    H2 3699   1.704   0.560  13.998 -0.8971  0.0418 -0.3551
  240MPD1    H3 3700   1.444   0.502  14.036 -0.4721 -0.1225  0.9999
  240MPD1     N 3701   1.554   0.269  14.413 -0.0558 -0.2382  0.4775
  240MPD1    H5 3702   1.622   0.242  14.483 -0.2632  0.5543  0.9819
  240MPD1    N1 3703   1.889   0.504  14.168 -0.4387 -0.5293  0.2389
  240MPD1    H6 3704   1.961   0.443  14.207 -2.9192 -1.1298  3.8407
  240MPD1    H7 3705   1.918   0.547  14.080 -1.6773 -0.1057  0.0426
  241MPD1     C 3706   1.858   0.213  15.298  0.6439 -0.0014 -0.2280
  241MPD1    C1 3707   1.917   0.212  15.170  0.8351  0.3082 -0.7764
  241MPD1    C2 3708   1.826   0.180  15.070  0.2449  0.0912 -0.3862
  241MPD1    C3 3709   1.699   0.131  15.100 -0.2995  0.3572 -0.3428
  241MPD1    C4 3710   1.654   0.131  15.227  0.3701 -0.3241 -0.7740
  241MPD1    C5 3711   1.736   0.171  15.327  0.2772  1.1445  0.9994
  241MPD1     H 3712   1.859   0.178  14.967  2.8910  1.4475  0.4517
  241MPD1    H1 3713   1.555   0.093  15.252  0.2029 -0.7640 -2.1025
  241MPD1    H2 3714   1.914   0.246  15.385  2.2867 -0.2036 -1.2141
  241MPD1    H3 3715   1.702   0.166  15.430  0.1851  0.1490  0.9175
  241MPD1     N 3716   1.604   0.102  14.996  0.4966 -0.7059 -0.4605
  241MPD1    H5 3717   1.513   0.076  15.033 -0.2921  3.5283  0.6407
  241MPD1    N1 3718   2.034   0.282  15.143  0.2420 -0.6846 -1.0950
  241MPD1    H6 3719   2.085   0.234  15.069 -0.2672 -3.2599  0.2132
  241MPD1    H7 3720   2.103   0.275  15.217  1.5798 -0.9925 -2.3701
  242MPD1     C 3721   1.761   3.788  15.592  0.1975  0.6918  0.7762
  242MPD1    C1 3722   1.626   3.757  15.577 -0.1640  0.0746 -0.0257
  242MPD1    C2 3723   1.603   3.645  15.500 -0.2484 -0.2478  0.1368
  242MPD1    C3 3724   1.701   3.557  15.456  0.2412 -0.0166  0.1699
  242MPD1    C4 3725   1.835   3.598  15.470  0.0500 -0.5928 -0.5277
  242MPD1    C5 3726   1.855   3.711  15.539  0.3686  0.1049  0.0222
  242MPD1     H 3727   1.500   3.618  15.479 -0.6208  0.5982  0.9034
  242MPD1    H1 3728   1.918   3.531  15.451  0.2229 -0.2362 -1.0506
  242MPD1    H2 3729   1.796   3.872  15.651  0.3385  3.6919 -3.6123
  242MPD1    H3 3730   1.960   3.726  15.556  0.1237 -0.1557  1.7932
  242MPD1     N 3731   1.670   3.435  15.391  0.2469 -0.4985  0.5703
  242MPD1    H5 3732   1.747   3.384  15.349  0.8063  0.6911  0.1539
  242MPD1    N1 3733   1.525   3.844  15.617 -0.3467  0.9162 -0.1738
  242MPD1    H6 3734   1.549   3.882  15.709  0.4123 -0.2378  0.1010
  242MPD1    H7 3735   1.434   3.799  15.619  0.5397 -0.8083  1.2392
  243MPD1     C 3736   2.254   2.070  17.674  0.0169  0.3709  0.3785
  243MPD1    C1 3737   2.240   1.955  17.600  0.1806 -0.0296 -0.5015
  243MPD1    C2 3738   2.352   1.874  17.590  0.7639  0.2075 -1.0047
  243MPD1    C3 3739   2.481   1.927  17.626 -0.6184 -0.0632 -0.2765
  243MPD1    C4 3740   2.490   2.046  17.692 -0.3696  0.0909 -0.3119
  243MPD1    C5 3741   2.372   2.112  17.720 -0.2620 -0.0624 -0.3004
  243MPD1     H 3742   2.352   1.774  17.547 -0.4019 -0.5588  0.7980
  243MPD1    H1 3743   2.582   2.099  17.716  0.7391 -0.7627 -2.6233
  243MPD1    H2 3744   2.165   2.129  17.688 -0.7668 -0.3666 -1.5362
  243MPD1    H3 3745   2.385   2.198   0.036 -1.4454  0.6690 -1.0177
  243MPD1     N 3746   2.596   1.853  17.591  0.3385 -0.3071  0.3134
  243MPD1    H5 3747   2.585   1.753  17.573 -0.3035 -0.4466  1.5253
  243MPD1    N1 3748   2.119   1.898  17.571 -0.0849 -0.1185  0.3651
  243MPD1    H6 3749   2.068   1.962  17.510  0.4005  0.7265  0.8491
  243MPD1    H7 3750   2.135   1.815  17.513 -0.1791 -0.2985  0.5985
  244MPD1     C 3751   3.146   1.084   0.145  0.4480 -0.3103  0.5400
  244MPD1    C1 3752   3.246   1.180   0.120  0.5545 -0.3593 -0.0246
  244MPD1    C2 3753   3.215   1.291   0.048 -0.2882  0.2367 -0.2490
  244MPD1    C3 3754   3.080   1.306  17.748 -0.5480  0.1181 -0.0814
  244MPD1    C4 3755   2.987   1.207   0.012 -0.1024  0.1167 -0.1449
  244MPD1    C5 3756   3.027   1.095   0.082  0.8363  0.0259  0.3515
  244MPD1     H 3757   3.292   1.366   0.029  0.5576 -1.1017 -2.0876
  244MPD1    H1 3758   2.886   1.214  17.722 -1.1573 -1.0508  2.3626
  244MPD1    H2 3759   3.157   0.996   0.208 -0.6265 -0.4832  0.4865
  244MPD1    H3 3760   2.955   1.014   0.094  0.2064  0.3989 -0.9407
  244MPD1     N 3761   3.046   1.428  17.673 -0.3025 -0.0049 -0.1157
  244MPD1    H5 3762   3.123   1.492  17.685  0.6709 -1.3477  0.7464
  244MPD1    N1 3763   3.370   1.168   0.189 -0.0188  0.1569  0.4976
  244MPD1    H6 3764   3.435   1.234   0.146  1.5907  0.2600  3.0807
  244MPD1    H7 3765   3.407   1.073   0.194  0.1667  0.1563 -0.9379
  245MPD1     C 3766   0.246   2.340  13.288  0.1991  0.5828 -0.3104
  245MPD1    C1 3767   0.354   2.426  13.280  0.0635  0.0613  0.3690
  245MPD1    C2 3768   0.339   2.561  13.291  0.0985  0.0460  0.0043
  245MPD1    C3 3769   0.215   2.620  13.304 -0.1923  0.5900 -0.2066
  245MPD1    C4 3770   0.105   2.531  13.309 -0.7609  0.8332 -0.4883
  245MPD1    C5 3771   0.126   2.397  13.313  0.4981  0.0513  0.5725
  245MPD1     H 3772   0.427   2.622  13.308 -0.5614  1.0904 -0.3298
  245MPD1    H1 3773   0.007   2.569  13.334 -0.5021  2.1143 -1.4682
  245MPD1    H2 3774   0.260   2.233  13.299  0.3123  0.6062 -0.2198
  245MPD1    H3 3775   0.036   2.340  13.330 -0.6384  1.4044 -0.9242
  245MPD1     N 3776   0.209   2.756  13.340 -0.3497 -0.7116 -0.1605
  245MPD1    H5 3777   0.292   2.809  13.359  0.1357 -0.3993 -3.0827
  245MPD1    N1 3778   0.481   2.368  13.282 -0.5635 -0.4361 -0.2090
  245MPD1    H6 3779   0.557   2.427  13.249 -0.1014 -0.8458  0.1196
  245MPD1    H7 3780   0.487   2.285  13.223 -1.5700  0.0098 -0.9373
  246MPD1     C 3781   2.035   2.113   9.958  0.3619 -0.3338  0.0594
  246MPD1    C1 3782   1.948   2.221   9.939  0.2632 -0.0790 -0.1543
  246MPD1    C2 3783   1.835   2.195   9.852 -0.4181 -0.6479  0.2858
  246MPD1    C3 3784   1.833   2.088   9.767  0.5077 -0.1046  0.1770
  246MPD1    C4 3785   1.910   1.978   9.802  0.1731  0.1933  0.7369
  246MPD1    C5 3786   2.009   1.997   9.900 -0.5131 -0.0486 -0.3119
  246MPD1     H 3787   1.768   2.279   9.844 -0.3979 -0.6217  0.3899
  246MPD1    H1 3788   1.911   1.878   9.760  0.0038  1.4815 -2.3587
  246MPD1    H2 3789   2.113   2.114  10.033 -0.7435 -2.3248  1.2352
  246MPD1    H3 3790   2.080   1.916   9.913 -1.8889 -1.0794  0.6600
  246MPD1     N 3791   1.728   2.078   9.672 -0.5122 -0.2309 -0.0383
  246MPD1    H5 3792   1.675   2.163   9.652  2.0828  1.4094  0.0699
  246MPD1    N1 3793   1.974   2.344   9.998  0.3675 -1.1889 -0.1034
  246MPD1    H6 3794   2.033   2.354  10.080  2.0958  1.7518 -1.7061
  246MPD1    H7 3795   1.890   2.398  10.018  2.7876  2.1398  0.9248
  247MPD1     C 3796   4.334   1.830  17.143  0.2302  0.0319 -0.8507
  247MPD1    C1 3797   4.396   1.819  17.025 -0.6604  0.1978 -0.4815
  247MPD1    C2 3798   4.511   1.888  17.004  0.9800  0.0053 -1.1264
  247MPD1    C3 3799   4.561   1.978  17.094 -0.5939 -0.1008 -0.0978
  247MPD1    C4 3800   4.483   2.005  17.201 -0.0986 -0.2037 -0.2118
  247MPD1    C5 3801   4.364   1.936  17.226 -0.1263 -0.4449 -0.4202
  247MPD1     H 3802   4.569   1.875  16.913  1.4032  1.8695 -1.1262
  247MPD1    H1 3803   4.514   2.079  17.274  0.7184  0.8656 -1.6409
  247MPD1    H2 3804   4.244   1.775  17.169  0.6829 -0.7085 -0.8724
  247MPD1    H3 3805   4.301   1.956  17.313  0.2036 -0.1096 -0.2617
  247MPD1     N 3806   4.679   2.055  17.084 -0.1821  0.1114  0.1353
  247MPD1    H5 3807   4.679   2.133  17.150 -1.9615 -0.8870  1.3036
  247MPD1    N1 3808   4.366   1.709  16.948  0.0116 -1.0384 -0.6436
  247MPD1    H6 3809   4.268   1.682  16.960  0.0129 -1.3483 -1.3277
  247MPD1    H7 3810   4.388   1.720  16.849 -1.0949 -2.2708 -1.0390
  248MPD1     C 3811   0.966   1.731   0.197  0.4078 -0.5737 -0.1156
  248MPD1    C1 3812   0.928   1.858   0.218 -0.3426 -0.2303  0.2372
  248MPD1    C2 3813   0.827   1.883   0.312 -0.3374  0.4516 -0.2075
  248MPD1    C3 3814   0.755   1.775   0.369  0.2766  0.8273  0.4892
  248MPD1    C4 3815   0.785   1.650   0.328  0.0518 -0.0993  0.7097
  248MPD1    C5 3816   0.896   1.622   0.248  0.5139 -0.2901 -0.3085
  248MPD1     H 3817   0.794   1.982   0.342 -2.2568 -0.5482  0.9925
  248MPD1    H1 3818   0.726   1.561   0.348 -0.9927  0.2562 -0.8010
  248MPD1    H2 3819   1.040   1.703   0.123 -1.2399 -0.3789 -1.8321
  248MPD1    H3 3820   0.927   1.523   0.217 -0.7485 -0.4872 -0.9494
  248MPD1     N 3821   0.647   1.804   0.452  0.4794  0.1963 -0.0995
  248MPD1    H5 3822   0.623   1.903   0.458  2.5961  0.8315 -2.2047
  248MPD1    N1 3823   0.998   1.961   0.156  0.2528  0.4110  0.6812
  248MPD1    H6 3824   1.042   1.930   0.070  0.3968  3.0650 -0.2213
  248MPD1    H7 3825   0.943   2.046   0.142  1.8618  1.7196  2.2695
  249MPD1     C 3826   2.960   2.025  10.180 -0.2204  0.0797  0.1081
  249MPD1    C1 3827   2.936   1.926  10.267 -0.2082 -0.2635 -0.6756
  249MPD1    C2 3828   3.035   1.898  10.354 -0.5000  0.4386 -0.1695
  249MPD1    C3 3829   3.141   1.984  10.380  0.3025 -0.1829 -0.5447
  249MPD1    C4 3830   3.154   2.098  10.300 -0.8132 -0.4367  0.1768
  249MPD1    C5 3831   3.070   2.116  10.194 -0.0373 -0.5742 -0.3962
  249MPD1     H 3832   3.022   1.811  10.417  2.2788 -0.5029 -0.9257
  249MPD1    H1 3833   3.246   2.155  10.305 -1.6156  1.0529 -1.9301
  249MPD1    H2 3834   2.894   2.029  10.094  1.7654  0.1563 -1.4149
  249MPD1    H3 3835   3.092   2.179  10.108  0.7552  1.1953  1.1223
  249MPD1     N 3836   3.232   1.947  10.482 -0.4131 -0.3423 -0.2390
  249MPD1    H5 3837   3.205   1.873  10.545 -0.4620 -1.2653 -1.3554
  249MPD1    N1 3838   2.836   1.836  10.228 -0.4651  0.6692 -0.4709
  249MPD1    H6 3839   2.819   1.785  10.314 -2.8373  0.8337 -0.8253
  249MPD1    H7 3840   2.749   1.877  10.193 -1.5658 -0.6656  0.6808
  250MPD2     C 3841   3.595   0.477  13.483  0.7154 -0.0984  0.1295
  250MPD2    C1 3842   3.588   0.546  13.362 -0.2049  0.1844  0.2246
  250MPD2    C2 3843   3.518   0.491  13.249  0.3138 -0.3936  0.2388
  250MPD2    C3 3844   3.447   0.375  13.265  0.9762  0.4880  0.0001
  250MPD2    C4 3845   3.448   0.315  13.392 -0.3053  0.1476 -0.3157
  250MPD2    C5 3846   3.517   0.371  13.497 -0.9344  0.7353 -0.3908
  250MPD2     H 3847   3.523   0.540  13.152 -0.3120  1.6259  1.2212
  250MPD2    H1 3848   3.381   0.232  13.415  1.8892 -2.2237 -2.5437
  250MPD2    H2 3849   3.651   0.517  13.567  0.4287 -1.9288  1.1696
  250MPD2    H3 3850   3.508   0.332  13.597  1.8817  1.8328  0.2772
  250MPD2     N 3851   3.368   0.320  13.161 -0.1158 -0.1243 -0.6319
  250MPD2    H5 3852   3.308   0.243  13.190 -1.2618  1.0348  0.0931
  250MPD2    N1 3853   3.645   0.680  13.355 -0.1180 -0.4271  0.0458
  250MPD2    H7 3854   3.669   0.735  13.437 -0.0219 -0.2727 -0.0860
  251TMC3    C1 3855   3.664   0.890  13.261 -0.5159 -0.4865  0.0210
  251TMC3    C2 3856   3.568   0.958  13.334  0.6152 -0.0404 -0.3912
  251TMC3    C3 3857   3.593   1.087  13.363  0.1428  0.0147 -0.5970
  251TMC3    C4 3858   3.788   0.946  13.223  0.6924  0.4250 -0.0017
  251TMC3    C5 3859   3.798   1.081  13.239  0.3008 -0.1238  0.4599
  251TMC3    C6 3860   3.711   1.154  13.318  0.2642 -0.3772  0.5456
  251TMC3     C 3861   3.662   0.746  13.242  0.2634 -0.3338  0.8485
  251TMC3     O 3862   3.697   0.710  13.132 -0.4969 -0.2788 -0.0696
  251TMC3     H 3863   3.481   0.908  13.374 -0.1060  1.2482 -0.3712
  251TMC3    H1 3864   3.864   0.886  13.176  1.1130  1.1269 -0.2218
  251TMC3    H2 3865   3.730   1.261  13.329 -0.0304 -0.0967 -1.6785
  251TMC3    C7 3866   3.931   1.126  13.229 -0.5785 -0.7231 -0.5626
  251TMC3    C8 3867   3.492   1.167  13.437  0.3160  0.7601  0.2293
  251TMC3    O1 3868   4.020   1.044  13.234  0.0725  0.2047  0.1169
  251TMC3    O2 3869   3.529   1.275  13.472  0.6573  0.4733  0.3442
  252TMC3    C1 3870   3.421   2.647   9.696 -0.4043  0.1869 -0.5404
  252TMC3    C2 3871   3.539   2.704   9.742  0.3739 -0.3610 -0.1568
  252TMC3    C3 3872   3.640   2.622   9.766  0.0427  0.8708  0.1377
  252TMC3    C4 3873   3.405   2.510   9.680 -0.7712  0.3995 -0.2712
  252TMC3    C5 3874   3.511   2.435   9.726  0.8932 -0.7206 -0.0612
  252TMC3    C6 3875   3.634   2.485   9.761  0.9593  0.0170  0.4532
  252TMC3     C 3876   3.305   2.732   9.715 -0.3331  0.4265 -0.9845
  252TMC3     O 3877   3.337   2.847   9.737 -0.4970  0.4334 -0.2472
  252TMC3     H 3878   3.557   2.808   9.766 -0.8608 -0.0714 -0.5175
  252TMC3    H1 3879   3.312   2.460   9.655  0.4720 -1.6390 -0.7641
  252TMC3    H2 3880   3.719   2.419   9.773  0.4458 -0.3105  2.1729
  252TMC3    C7 3881   3.500   2.299   9.689 -0.0293  0.2734 -0.5571
  252TMC3    C8 3882   3.764   2.689   9.811 -0.0898 -0.0552 -0.3551
  252TMC3    O1 3883   3.429   2.269   9.593 -0.1920 -0.2684 -0.5331
  252TMC3    O2 3884   3.783   2.810   9.796  0.1284 -0.2634  0.2361
  253MPD2     C 3885   0.145   1.024  15.373 -0.3516  0.2581  0.0435
  253MPD2    C1 3886   0.005   1.006  15.364  0.0936  0.8446 -0.7116
  253MPD2    C2 3887   4.670   0.954  15.463  0.5703  0.0477 -0.7990
  253MPD2    C3 3888   4.736   0.919  15.580 -0.2726  0.1462 -0.4789
  253MPD2    C4 3889   0.133   0.937  15.591 -0.0170  0.0312  0.1039
  253MPD2    C5 3890   0.204   1.002  15.493  0.2789 -0.2185  0.0684
  253MPD2     H 3891   4.563   0.948  15.449  0.4922  0.9465 -0.6339
  253MPD2    H1 3892   0.189   0.915  15.681 -0.4775 -1.8447 -0.0686
  253MPD2    H2 3893   0.203   1.058  15.288 -0.6437  1.8589  0.4709
  253MPD2    H3 3894   0.310   1.020  15.507  0.4901 -1.2591 -0.1468
  253MPD2     N 3895   4.670   0.879  15.700 -1.2289  0.4666 -0.3376
  253MPD2    H5 3896   4.733   0.855  15.777 -0.9504  0.9288 -0.4224
  253MPD2    N1 3897   4.675   1.030  15.245 -0.3700  0.0010  0.1965
  253MPD2    H7 3898   4.579   1.002  15.232 -0.3238  0.5068 -1.3558
  254TMC3    C1 3899   4.506   0.822  15.846 -0.1232  0.1714 -0.3466
  254TMC3    C2 3900   4.374   0.837  15.884 -0.6521 -0.4260  0.8132
  254TMC3    C3 3901   4.329   0.793  16.004 -0.5302 -0.2336  0.4733
  254TMC3    C4 3902   4.590   0.772  15.940  0.4420 -0.3923  0.4190
  254TMC3    C5 3903   4.539   0.738  16.059 -0.1879 -0.0064  1.0856
  254TMC3    C6 3904   4.407   0.735  16.093 -0.3271 -0.0375 -0.0359
  254TMC3     C 3905   4.539   0.867  15.710  0.1319 -0.0624  0.1543
  254TMC3     O 3906   4.443   0.893  15.636  0.2670  0.5953 -0.6740
  254TMC3     H 3907   4.299   0.869  15.813  0.6502 -0.9822 -0.8081
  254TMC3    H1 3908   4.693   0.750  15.915  0.5710  0.3779  0.2781
  254TMC3    H2 3909   4.378   0.696  16.190  3.0614 -0.0345  0.9822
  254TMC3    C7 3910   4.633   0.705  16.171  0.6680 -0.0734 -0.1945
  254TMC3    C8 3911   4.198   0.834  16.051  0.1867  0.2592  0.6599
  254TMC3    O1 3912   4.586   0.629  16.256  0.5117  0.4200 -0.6071
  254TMC3    O2 3913   4.196   0.863  16.170  0.1190 -0.0933  0.1658
  255MPD2     C 3914   2.408   3.649  10.535  0.1940  0.4923  0.0723
  255MPD2    C1 3915   2.513   3.711  10.600 -0.2773  0.5441  0.2174
  255MPD2    C2 3916   2.637   3.719  10.541 -0.1613  0.2384 -0.2733
  255MPD2    C3 3917   2.657   3.684  10.409  0.8702  0.5389  0.2644
  255MPD2    C4 3918   2.548   3.637  10.344  0.0036 -0.0546 -0.2751
  255MPD2    C5 3919   2.432   3.611  10.406  0.0061  0.2207 -0.0561
  255MPD2     H 3920   2.723   3.762  10.592 -0.4216  0.7187 -0.2390
  255MPD2    H1 3921   2.555   3.603  10.241 -2.5114 -1.4794  0.0436
  255MPD2    H2 3922   2.311   3.631  10.580  0.4810 -1.9378 -0.2982
  255MPD2    H3 3923   2.349   3.563  10.354  1.0252 -0.1822 -1.3058
  255MPD2     N 3924   2.787   3.690  10.357 -0.0511 -0.2463 -0.1743
  255MPD2    H5 3925   2.865   3.717  10.416 -0.1977  1.6132 -0.8230
  255MPD2    N1 3926   2.486   3.781  10.722 -0.3841 -0.1691  0.2756
  255MPD2    H7 3927   2.391   3.793  10.754  0.3830  0.8332  2.1528
  256TMC3    C1 3928   2.558   3.921  10.897 -0.4255 -0.2200  0.0856
  256TMC3    C2 3929   2.680   3.957  10.940  0.3595 -0.0692  0.6242
  256TMC3    C3 3930   2.742   4.062  10.879  0.3310  0.9205  0.7718
  256TMC3    C4 3931   2.488   4.015  10.828 -0.3687 -0.5459  0.0178
  256TMC3    C5 3932   2.558   4.105  10.752  0.2702 -0.3502 -0.5657
  256TMC3    C6 3933   2.686   4.137  10.781  0.6684 -0.1473  0.1291
  256TMC3     C 3934   2.586   3.815  10.809  0.3092  0.1695  0.6460
  256TMC3     O 3935   2.698   3.765  10.813  0.3146  0.7541  0.4564
  256TMC3     H 3936   2.735   3.902  11.016  0.0104 -1.1132  0.1306
  256TMC3    H1 3937   2.387   3.987  10.798 -0.8594  1.3224 -0.0607
  256TMC3    H2 3938   2.753   4.192  10.716  1.3540 -0.1428  0.8501
  256TMC3    C7 3939   2.525   4.100  10.615  0.2354 -0.2553  0.0242
  256TMC3    C8 3940   2.892   4.059  10.872  0.1304  0.0505 -0.3556
  256TMC3    O1 3941   2.410   4.110  10.585  0.4864 -0.3779  0.1321
  256TMC3    O2 3942   2.936   3.947  10.889  0.6710 -0.5427  0.6274
  257MPD2     C 3943   1.836   0.390  13.446  0.1957  0.2590 -0.8138
  257MPD2    C1 3944   1.961   0.442  13.484  0.6250  0.2983  0.1151
  257MPD2    C2 3945   2.024   0.370  13.586 -0.1576 -0.0616 -0.0776
  257MPD2    C3 3946   1.962   0.267  13.645 -0.0906  0.0621  0.0740
  257MPD2    C4 3947   1.844   0.223  13.607  0.3799 -0.2866 -0.3874
  257MPD2    C5 3948   1.782   0.280  13.502 -0.2526  0.3495 -0.4017
  257MPD2     H 3949   2.121   0.397  13.626  0.5456 -1.1946 -1.0171
  257MPD2    H1 3950   1.794   0.145  13.664 -0.4815  0.6257  0.0987
  257MPD2    H2 3951   1.784   0.436  13.362 -1.3529 -0.8133 -0.4339
  257MPD2    H3 3952   1.689   0.239  13.466 -1.7886  1.6563  2.0323
  257MPD2     N 3953   2.035   0.217  13.753  0.7714 -0.0675 -0.0137
  257MPD2    H5 3954   2.126   0.259  13.771 -0.0301  0.6357  2.4384
  257MPD2    N1 3955   2.009   0.557  13.413 -0.0951 -0.1555  0.5987
  257MPD2    H7 3956   1.952   0.593  13.337 -0.2801  0.8036  1.1995
  258TMC3    C1 3957   2.086   0.105  13.961  0.0376  0.5370 -0.2339
  258TMC3    C2 3958   2.098   4.715  14.008 -0.1198 -0.1262 -0.1520
  258TMC3    C3 3959   2.201   4.697  14.098  0.2787  0.5596  0.4113
  258TMC3    C4 3960   2.160   0.210  14.010  0.3647  0.1409  0.4738
  258TMC3    C5 3961   2.243   0.189  14.118 -0.0701  0.2153  0.3702
  258TMC3    C6 3962   2.267   0.059  14.157  0.1027 -0.2889  0.8223
  258TMC3     C 3963   1.989   0.130  13.852  0.0801 -0.0535  0.1007
  258TMC3     O 3964   1.886   0.065  13.855 -0.2259 -0.0274  0.1327
  258TMC3     H 3965   2.048   4.640  13.947 -0.9184  1.4666 -1.4647
  258TMC3    H1 3966   2.139   0.308  13.968 -1.0146 -0.0479  0.7202
  258TMC3    H2 3967   2.319   0.036  14.249  0.1124  0.7947  1.0868
  258TMC3    C7 3968   2.256   0.285  14.222  0.1220  0.2852  0.0153
  258TMC3    C8 3969   2.257   4.563  14.117  0.6844  0.4657 -1.0791
  258TMC3    O1 3970   2.178   0.379  14.224  0.1829  0.3171 -0.4699
  258TMC3    O2 3971   2.372   4.551  14.156  0.2723 -0.2635  0.3204
  259MPD2     C 3972   0.886   2.475   0.575 -0.4400  0.4597  0.0927
  259MPD2    C1 3973   0.947   2.359   0.605 -0.3703  0.1716 -0.8003
  259MPD2    C2 3974   1.031   2.300   0.509 -0.1993  0.7011 -0.0093
  259MPD2    C3 3975   1.044   2.361   0.390 -0.0390  0.2590 -0.0083
  259MPD2    C4 3976   0.991   2.485   0.372  0.7135  0.0163 -0.4736
  259MPD2    C5 3977   0.908   2.545   0.460  0.2500  0.4151  0.1822
  259MPD2     H 3978   1.080   2.205   0.529  0.6679  1.5638  1.9369
  259MPD2    H1 3979   1.001   2.548   0.284  0.6832 -1.0258 -1.2221
  259MPD2    H2 3980   0.822   2.526   0.646  0.9442  1.9692  0.2562
  259MPD2    H3 3981   0.874   2.647   0.448  1.0900  0.4740 -1.7394
  259MPD2     N 3982   1.131   2.294   0.296  0.1642 -0.6268  0.1249
  259MPD2    H5 3983   1.169   2.203   0.320  0.3599 -1.1175 -2.0790
  259MPD2    N1 3984   0.940   2.307   0.737 -0.4758  0.3557 -0.0754
  259MPD2    H7 3985   0.903   2.370   0.808 -1.7819 -0.5673  0.0536
  260TMC3    C1 3986   1.265   2.283   0.104  0.0662  0.0555 -0.3857
  260TMC3    C2 3987   1.344   2.360   0.020 -0.0851 -1.0400  0.8944
  260TMC3    C3 3988   1.465   2.309  17.731  0.0226  1.2083 -1.1027
  260TMC3    C4 3989   1.300   2.164   0.145  0.2682 -0.2029  0.0764
  260TMC3    C5 3990   1.421   2.117   0.103 -0.0755 -0.6404 -0.4041
  260TMC3    C6 3991   1.505   2.190   0.027  0.3942 -0.7030 -0.0394
  260TMC3     C 3992   1.169   2.360   0.182  0.0651 -0.3234  0.0566
  260TMC3     O 3993   1.132   2.471   0.137 -0.1110 -0.2890  0.0453
  260TMC3     H 3994   1.338   2.468   0.018  1.2770 -0.9993 -0.2950
  260TMC3    H1 3995   1.231   2.091   0.185  0.7068 -0.2745  0.7141
  260TMC3    H2 3996   1.607   2.159   0.011  1.1461  0.8247  1.8577
  260TMC3    C7 3997   1.424   1.980   0.059  0.5203  0.3652 -0.0278
  260TMC3    C8 3998   1.482   2.315  17.588 -0.3917 -0.3996  0.6108
  260TMC3    O1 3999   1.480   1.959  17.704  0.5661 -0.0567 -0.8653
  260TMC3    O2 4000   1.468   2.423  17.534 -0.2026 -0.4133  0.4963
  261MPD2     C 4001   2.924   0.523  12.490  0.5078 -0.4883  0.4174
  261MPD2    C1 4002   3.061   0.493  12.491 -0.4927  0.1900 -0.1773
  261MPD2    C2 4003   3.138   0.559  12.393  0.5964 -0.0577 -0.1847
  261MPD2    C3 4004   3.065   0.630  12.294 -0.2125  0.1812  0.5084
  261MPD2    C4 4005   2.929   0.654  12.289 -0.2056  0.2042  0.3411
  261MPD2    C5 4006   2.861   0.594  12.389 -0.3685 -0.0830  0.1026
  261MPD2     H 4007   3.246   0.548  12.395  0.6833  0.8286 -0.0782
  261MPD2    H1 4008   2.872   0.722  12.226 -0.5494 -0.9967 -0.6330
  261MPD2    H2 4009   2.861   0.483  12.569  1.0693 -2.9590 -0.3977
  261MPD2    H3 4010   2.754   0.611  12.390  0.1100  3.0588 -0.9020
  261MPD2     N 4011   3.153   0.682  12.196  0.1376 -0.2096 -0.2278
  261MPD2    H5 4012   3.253   0.669  12.207 -0.2348 -0.9834  2.3077
  261MPD2    N1 4013   3.119   0.422  12.601 -0.4207  0.0152  0.0601
  261MPD2    H7 4014   3.220   0.427  12.609 -0.5419  0.6224  1.1514
  262TMC3    C1 4015   3.198   0.818  12.003 -0.3828 -0.8965  0.2637
  262TMC3    C2 4016   3.172   0.835  11.870 -0.0034  0.1173  0.4516
  262TMC3    C3 4017   3.276   0.886  11.791  0.6672 -0.4358  0.1659
  262TMC3    C4 4018   3.322   0.844  12.060  0.3030  0.1639  0.5273
  262TMC3    C5 4019   3.418   0.888  11.979  0.4004 -0.0115  0.4878
  262TMC3    C6 4020   3.396   0.912  11.846 -0.7611 -0.3295 -0.2440
  262TMC3     C 4021   3.100   0.739  12.079 -0.0086  0.2570  0.3225
  262TMC3     O 4022   2.992   0.728  12.028 -0.4096 -0.4061  0.4502
  262TMC3     H 4023   3.074   0.833  11.823 -1.0620 -0.4038  2.7213
  262TMC3    H1 4024   3.352   0.822  12.162  0.6142 -0.9140  0.1995
  262TMC3    H2 4025   3.477   0.958  11.791 -0.1568 -0.8222  0.2378
  262TMC3    C7 4026   3.520   0.968  12.045  0.5609  0.1605 -0.1348
  262TMC3    C8 4027   3.238   0.991  11.702 -0.1711  0.7494  0.7402
  262TMC3    O1 4028   3.551   0.935  12.160  0.0040  0.7204 -0.5270
  262TMC3    O2 4029   3.288   1.104  11.727  0.0629 -0.1624  0.1302
  263MPD2     C 4030   4.076   0.468  11.701 -0.0035 -0.1790 -0.0733
  263MPD2    C1 4031   4.102   0.432  11.572  0.0081  0.0243  0.0296
  263MPD2    C2 4032   4.139   0.530  11.479 -0.2724 -0.9497  0.4341
  263MPD2    C3 4033   4.147   0.664  11.515 -0.0606  0.1767 -0.1965
  263MPD2    C4 4034   4.121   0.694  11.644 -0.2473  0.2862  0.2848
  263MPD2    C5 4035   4.080   0.597  11.731 -1.0459 -0.2341  0.3450
  263MPD2     H 4036   4.153   0.501  11.376  0.5949 -1.8127  0.7968
  263MPD2    H1 4037   4.116   0.790  11.695 -3.4371  0.0516  0.3918
  263MPD2    H2 4038   4.054   0.393  11.776 -0.4226 -3.2555 -3.2856
  263MPD2    H3 4039   4.061   0.631  11.832  0.1400  3.2909 -0.6272
  263MPD2     N 4040   4.168   0.767  11.410 -0.3966 -0.2976  0.1179
  263MPD2    H5 4041   4.193   0.746  11.313 -0.6099 -0.5114  0.1081
  263MPD2    N1 4042   4.088   0.291  11.550 -0.7397  0.5794  0.4106
  263MPD2    H7 4043   4.048   0.246  11.633 -1.3544 -0.2534 -0.3273
  264TMC3    C1 4044   4.192   0.984  11.320  0.1910 -0.2821 -0.1195
  264TMC3    C2 4045   4.203   1.119  11.341  0.2965  0.0961 -0.5591
  264TMC3    C3 4046   4.216   1.195  11.236 -0.1715 -0.6877 -0.2118
  264TMC3    C4 4047   4.222   0.925  11.202  0.7679 -0.2707 -0.5043
  264TMC3    C5 4048   4.242   1.015  11.100  0.0618 -0.6622 -0.1637
  264TMC3    C6 4049   4.227   1.151  11.104  0.2917 -0.3183  0.4112
  264TMC3     C 4050   4.182   0.899  11.435  0.0913  0.7732  1.2171
  264TMC3     O 4051   4.194   0.949  11.547 -0.5792  0.2631  0.0835
  264TMC3     H 4052   4.176   1.157  11.438 -0.2338 -1.4120 -0.1190
  264TMC3    H1 4053   4.231   0.818  11.190 -1.1180 -0.4165 -0.7182
  264TMC3    H2 4054   4.233   1.216  11.017 -1.0323 -1.3271 -0.4376
  264TMC3    C7 4055   4.312   0.972  10.981  0.1825 -0.2853  0.2893
  264TMC3    C8 4056   4.222   1.340  11.246  0.4927  0.5323 -0.3435
  264TMC3    O1 4057   4.329   1.059  10.899  0.6024  0.4883 -0.1443
  264TMC3    O2 4058   4.193   1.402  11.147 -0.2678 -0.3720  0.0009
  265MPD2     C 4059   1.078   0.584  15.948  0.7287  0.9616  1.3648
  265MPD2    C1 4060   1.116   0.706  15.906 -0.1493  0.4730  0.7966
  265MPD2    C2 4061   1.170   0.729  15.774 -0.0369 -0.0848 -0.3849
  265MPD2    C3 4062   1.186   0.621  15.692  0.1145 -0.5238 -0.1094
  265MPD2    C4 4063   1.143   0.505  15.736 -0.1550  0.3171  0.1572
  265MPD2    C5 4064   1.104   0.483  15.867 -0.4405  0.2723 -0.3902
  265MPD2     H 4065   1.205   0.828  15.746 -2.4242  0.5536 -1.1218
  265MPD2    H1 4066   1.147   0.415  15.676  0.8146  0.5360 -0.1088
  265MPD2    H2 4067   1.028   0.569  16.043 -1.9784 -1.8504 -0.5409
  265MPD2    H3 4068   1.060   0.386  15.885 -2.1618  1.4593  1.7909
  265MPD2     N 4069   1.229   0.632  15.550  0.1972 -0.4650 -0.0111
  265MPD2    H5 4070   1.212   0.550  15.493 -2.0171 -1.2550  1.8125
  265MPD2    N1 4071   1.092   0.827  15.976 -0.2424 -0.0856  0.2778
  265MPD2    H7 4072   1.121   0.915  15.934  2.1138 -0.3945  1.2599
  266TMC3    C1 4073   0.961   0.967  16.111 -0.6066 -0.1643 -1.0390
  266TMC3    C2 4074   1.043   1.075  16.120  0.1785  1.1135  0.4443
  266TMC3    C3 4075   0.990   1.189  16.171  0.0252  0.4351 -0.9252
  266TMC3    C4 4076   0.827   0.975  16.129 -0.4749 -0.1775  0.6627
  266TMC3    C5 4077   0.774   1.090  16.191 -0.2415  0.0685  0.3972
  266TMC3    C6 4078   0.858   1.195  16.209  0.1845  0.5019  0.8685
  266TMC3     C 4079   1.010   0.835  16.086  0.0237  0.1515 -0.0283
  266TMC3     O 4080   0.947   0.745  16.142  0.6486  0.1393  0.3414
  266TMC3     H 4081   1.150   1.065  16.104  0.1888  1.4130  0.3205
  266TMC3    H1 4082   0.768   0.889  16.098  0.1411 -0.4047  0.1463
  266TMC3    H2 4083   0.821   1.287  16.254  2.1865  3.3910 -3.3813
  266TMC3    C7 4084   0.634   1.098  16.205  0.2121 -0.9358  0.7244
  266TMC3    C8 4085   1.088   1.290  16.211  0.5183  0.2769  0.9623
  266TMC3    O1 4086   0.583   0.992  16.240  0.1325  0.4279  0.4753
  266TMC3    O2 4087   1.206   1.257  16.219 -0.2522  0.3337  0.3265
  267MPD2     C 4088   3.723   2.227   0.235  0.2767 -0.0380  0.0589
  267MPD2    C1 4089   3.772   2.205   0.108  0.0023 -0.3246 -0.3883
  267MPD2    C2 4090   3.719   2.292   0.014 -0.0644  0.4227 -0.5367
  267MPD2    C3 4091   3.615   2.381   0.040 -0.0101  0.1363  0.6820
  267MPD2    C4 4092   3.563   2.392   0.169  0.0308 -0.4957  0.0131
  267MPD2    C5 4093   3.621   2.316   0.261 -0.4513 -0.5099 -0.4095
  267MPD2     H 4094   3.770   2.301  17.669  0.0810  0.6109 -0.4399
  267MPD2    H1 4095   3.486   2.462   0.200 -0.4844 -1.2145  0.3460
  267MPD2    H2 4096   3.757   2.167   0.319  0.4882 -2.3124 -1.6715
  267MPD2    H3 4097   3.591   2.332   0.364  0.0335 -0.7880 -0.2241
  267MPD2     N 4098   3.562   2.467  17.686  0.3125 -0.0444  0.2433
  267MPD2    H5 4099   3.481   2.519  17.716 -0.2889  1.6819 -4.3776
  267MPD2    N1 4100   3.862   2.096   0.091 -0.3834 -0.2023 -0.3427
  267MPD2    H7 4101   3.857   2.036   0.173 -0.6663  0.7594  0.3420
  268TMC3    C1 4102   4.036   1.963  17.722 -0.1793 -0.2049 -1.4703
  268TMC3    C2 4103   4.110   1.976  17.606 -0.2525 -0.1722  0.4756
  268TMC3    C3 4104   4.246   1.978  17.625  0.2002  0.3556  0.0113
  268TMC3    C4 4105   4.087   1.934   0.094  0.1477 -0.6532 -0.2497
  268TMC3    C5 4106   4.222   1.922   0.109 -0.4965  0.2735 -0.7876
  268TMC3    C6 4107   4.299   1.944  17.749 -0.9344  0.0341  0.4483
  268TMC3     C 4108   3.927   2.070  17.721 -0.0123  0.5437 -0.6239
  268TMC3     O 4109   3.905   2.126  17.617 -0.0043 -0.0192  0.1011
  268TMC3     H 4110   4.059   2.001  17.514 -0.6891  1.7041  1.2344
  268TMC3    H1 4111   4.018   1.920   0.176 -0.3129  0.8416 -0.3783
  268TMC3    H2 4112   4.406   1.951   0.009 -0.7247 -1.4362 -0.7630
  268TMC3    C7 4113   4.272   1.893   0.245  0.2990 -0.8419 -0.0414
  268TMC3    C8 4114   4.314   2.097  17.571  0.3778 -0.3741  0.3669
  268TMC3    O1 4115   4.176   1.900   0.327  0.1031 -0.0643  0.2642
  268TMC3    O2 4116   4.430   2.112  17.603 -0.0805 -0.5882 -0.1204
  269MPD2     C 4117   3.728   1.182  15.772 -0.5273  0.5306 -0.5140
  269MPD2    C1 4118   3.596   1.219  15.781 -0.5032  0.1985 -0.8886
  269MPD2    C2 4119   3.566   1.347  15.827  0.6399 -0.5861  0.0770
  269MPD2    C3 4120   3.668   1.437  15.867  0.1340 -0.0021 -0.3361
  269MPD2    C4 4121   3.797   1.396  15.846 -0.1856  0.1105 -0.4210
  269MPD2    C5 4122   3.826   1.276  15.800 -0.4807  0.4205  0.6042
  269MPD2     H 4123   3.464   1.380  15.844  0.9028  1.1211 -1.7094
  269MPD2    H1 4124   3.876   1.464  15.875  0.4153 -0.4239 -0.8325
  269MPD2    H2 4125   3.754   1.081  15.743  4.1241  1.8474 -0.9255
  269MPD2    H3 4126   3.930   1.248  15.800 -0.7568 -0.6091  0.9960
  269MPD2     N 4127   3.629   1.565  15.918 -0.2117  0.0837  0.3048
  269MPD2    H5 4128   3.529   1.581  15.930 -0.2230  0.4678 -0.3033
  269MPD2    N1 4129   3.497   1.117  15.756 -0.0527 -0.4333  0.1420
  269MPD2    H7 4130   3.533   1.030  15.720  1.1942  0.8527 -1.7145
  270TMC3    C1 4131   3.288   1.017  15.727 -0.0485  0.3386  0.0711
  270TMC3    C2 4132   3.184   1.029  15.639 -0.7340  0.3873  0.4892
  270TMC3    C3 4133   3.133   0.914  15.594 -0.1237  0.4513 -0.2623
  270TMC3    C4 4134   3.315   0.902  15.791  0.6129  0.5579  0.3232
  270TMC3    C5 4135   3.255   0.786  15.744  0.0701 -0.1074 -0.4476
  270TMC3    C6 4136   3.163   0.790  15.644  0.0219  0.7110 -0.1953
  270TMC3     C 4137   3.360   1.137  15.757  0.2581 -0.1976  0.6890
  270TMC3     O 4138   3.293   1.238  15.767 -0.1662  0.6462 -0.6174
  270TMC3     H 4139   3.157   1.127  15.600  0.6251  0.5459 -0.0544
  270TMC3    H1 4140   3.395   0.895  15.864 -1.5317  0.1523  2.6281
  270TMC3    H2 4141   3.121   0.706  15.591  0.1055 -0.2078  1.1771
  270TMC3    C7 4142   3.348   0.675  15.730  0.0500 -0.2338  0.6871
  270TMC3    C8 4143   3.117   0.908  15.455 -0.2204  0.0649  0.4892
  270TMC3    O1 4144   3.418   0.643  15.831  0.0571 -0.5421  0.6797
  270TMC3    O2 4145   3.166   1.006  15.399  0.0671 -0.7402  0.6358
  271MPD2     C 4146   2.900   0.855  13.810  0.2239  0.3542  0.3137
  271MPD2    C1 4147   2.834   0.871  13.930  0.7236 -1.1806  0.1742
  271MPD2    C2 4148   2.701   0.873  13.923 -0.3267 -0.2567 -0.9788
  271MPD2    C3 4149   2.622   0.867  13.805  0.8266  0.7563 -0.2487
  271MPD2    C4 4150   2.687   0.844  13.686 -0.2386 -0.4745 -0.4390
  271MPD2    C5 4151   2.829   0.835  13.698 -0.4806 -0.2026  0.1791
  271MPD2     H 4152   2.651   0.900  14.015  1.1897 -0.4616 -0.0942
  271MPD2    H1 4153   2.636   0.830  13.592 -0.0651  0.7001 -0.7042
  271MPD2    H2 4154   3.007   0.845  13.804  0.1217 -0.7917  0.3196
  271MPD2    H3 4155   2.888   0.814  13.610 -2.4178  2.1378 -1.6719
  271MPD2     N 4156   2.482   0.886  13.800 -0.2148 -0.2769 -0.0392
  271MPD2    H5 4157   2.444   0.915  13.711 -2.3018  0.8184  1.2089
  271MPD2    N1 4158   2.901   0.883  14.049 -0.0112  0.3441 -0.3278
  271MPD2    H7 4159   2.848   0.860  14.132  1.4286 -2.7832 -0.2737
  272TMC3    C1 4160   3.077   0.869  14.198 -0.0764  0.1671 -0.4560
  272TMC3    C2 4161   3.208   0.817  14.211 -0.4369  0.9982  1.0523
  272TMC3    C3 4162   3.239   0.757  14.330 -0.5866 -0.2371 -0.0251
  272TMC3    C4 4163   2.991   0.869  14.302  0.9502  0.2981 -0.7995
  272TMC3    C5 4164   3.042   0.831  14.423  0.3688  0.3396  0.8722
  272TMC3    C6 4165   3.162   0.769  14.442 -0.7818  0.2528  0.2073
  272TMC3     C 4166   3.031   0.910  14.072 -0.3353 -0.1700 -0.5558
  272TMC3     O 4167   3.116   0.950  13.991 -0.0235 -0.1903  0.5715
  272TMC3     H 4168   3.274   0.816  14.124 -0.1847 -0.6729  1.2577
  272TMC3    H1 4169   2.900   0.928  14.294  1.5522  1.5881  2.0569
  272TMC3    H2 4170   3.199   0.749  14.542 -0.6999  0.5218  0.2320
  272TMC3    C7 4171   2.981   0.896  14.538  0.3009 -0.0235  0.2180
  272TMC3    C8 4172   3.364   0.686  14.339 -0.1226 -1.0001 -0.0941
  272TMC3    O1 4173   2.871   0.945  14.521 -0.0963 -0.0988  0.0501
  272TMC3    O2 4174   3.448   0.693  14.248  0.8567 -0.3713  0.0600
  273MPD2     C 4175   4.256   3.500  11.916 -0.4339 -0.7890  0.1289
  273MPD2    C1 4176   4.378   3.522  11.974  0.3358  0.1026  0.1912
  273MPD2    C2 4177   4.462   3.617  11.924 -0.1651  0.2904  0.3056
  273MPD2    C3 4178   4.414   3.703  11.822 -0.3139 -0.0644  0.3794
  273MPD2    C4 4179   4.296   3.670  11.756 -0.2209  0.4474  0.1810
  273MPD2    C5 4180   4.222   3.569  11.807 -0.1768  0.3067  0.7770
  273MPD2     H 4181   4.560   3.626  11.969 -0.1657  0.4641  0.2709
  273MPD2    H1 4182   4.273   3.718  11.661 -0.8746 -2.1645 -0.9849
  273MPD2    H2 4183   4.198   3.419  11.958 -2.5090  0.6924  0.1099
  273MPD2    H3 4184   4.137   3.527  11.753  0.2500  0.4810 -0.0314
  273MPD2     N 4185   4.495   3.795  11.762  0.6287 -0.1556  0.0272
  273MPD2    H5 4186   4.476   3.832  11.670  0.3303  0.3018  0.2698
  273MPD2    N1 4187   4.408   3.434  12.087 -0.1972  0.6158  0.1782
  273MPD2    H7 4188   4.335   3.368  12.111  1.0263 -0.0418  2.0226
  274TMC3    C1 4189   4.677   3.917  11.723 -0.0513 -0.1399 -0.4689
  274TMC3    C2 4190   4.663   3.882  11.594  0.4767 -0.0993 -0.5653
  274TMC3    C3 4191   4.737   3.949  11.497 -0.4229 -1.0998 -0.0518
  274TMC3    C4 4192   0.034   4.006  11.769 -0.2256 -0.0502 -0.3086
  274TMC3    C5 4193   0.110   4.068  11.671  0.4040 -0.1770  0.1510
  274TMC3    C6 4194   0.095   4.038  11.535 -0.1831  0.4404  1.0060
  274TMC3     C 4195   4.605   3.847  11.831 -0.6537 -0.7691 -1.1173
  274TMC3     O 4196   4.635   3.853  11.949  0.2902 -0.8140  0.6126
  274TMC3     H 4197   4.602   3.798  11.562  1.5907 -0.6623 -1.2124
  274TMC3    H1 4198   0.039   4.035  11.874  0.6985 -0.8794 -0.1273
  274TMC3    H2 4199   0.151   4.098  11.463 -0.9580  0.0550  0.0737
  274TMC3    C7 4200   0.130   4.211  11.693  0.5376  0.1240 -0.0576
  274TMC3    C8 4201   4.665   3.992  11.374  0.2047 -0.3824  0.2981
  274TMC3    O1 4202   0.191   4.250  11.793 -1.0534  0.1327  0.2646
  274TMC3    O2 4203   4.677   4.110  11.348  0.1495  0.0320  0.6769
  275MPD2     C 4204   4.299   2.216  14.644 -0.4500 -0.2345  0.0410
  275MPD2    C1 4205   4.247   2.181  14.763  0.1171  0.1751 -0.1825
  275MPD2    C2 4206   4.129   2.109  14.761  0.1471 -0.4884 -0.0031
  275MPD2    C3 4207   4.058   2.081  14.646 -0.1028 -0.1194  0.7525
  275MPD2    C4 4208   4.117   2.128  14.527  0.1882  0.1506  0.7296
  275MPD2    C5 4209   4.238   2.198  14.521  0.0360 -0.0613 -0.0806
  275MPD2     H 4210   4.095   2.065  14.854 -0.8566  0.4074  0.0548
  275MPD2    H1 4211   4.077   2.098  14.431  0.1908 -0.5319  0.9411
  275MPD2    H2 4212   4.399   2.257  14.645 -0.8796  0.8604 -3.0312
  275MPD2    H3 4213   4.275   2.219  14.421  2.9146  0.1016  1.0099
  275MPD2     N 4214   3.941   2.009  14.641  0.0293 -0.1912 -0.4349
  275MPD2    H5 4215   3.904   1.997  14.547 -1.7858  1.2775  0.0901
  275MPD2    N1 4216   4.310   2.218  14.886 -0.3655 -0.8699 -0.3684
  275MPD2    H7 4217   4.267   2.181  14.971  0.9879 -0.5353  0.4535
  276TMC3    C1 4218   4.459   2.258  15.046  0.0695  0.1051 -0.3279
  276TMC3    C2 4219   4.393   2.160  15.122 -0.1192  0.1556 -1.1056
  276TMC3    C3 4220   4.399   2.165  15.251  0.4292  0.5981  0.0302
  276TMC3    C4 4221   4.530   2.357  15.104  0.1651 -0.6596  0.2031
  276TMC3    C5 4222   4.526   2.359  15.237  0.2565 -0.5104  0.8468
  276TMC3    C6 4223   4.462   2.268  15.314 -0.0006  0.1131 -0.0630
  276TMC3     C 4224   4.427   2.271  14.905 -0.5329 -0.1512  0.1291
  276TMC3     O 4225   4.509   2.318  14.829  0.0007 -0.6690 -0.4260
  276TMC3     H 4226   4.338   2.087  15.064  0.1818 -0.8685 -0.0906
  276TMC3    H1 4227   4.571   2.429  15.035 -1.3182  1.5912  1.7021
  276TMC3    H2 4228   4.451   2.277  15.422 -0.0401 -1.0549  0.0341
  276TMC3    C7 4229   4.619   2.439  15.316 -0.0597  0.3230 -0.2554
  276TMC3    C8 4230   4.342   2.050  15.334 -0.0384 -0.4763  0.6921
  276TMC3    O1 4231   4.642   2.399  15.430  0.1269  0.1786 -0.3612
  276TMC3    O2 4232   4.301   2.067  15.442  0.2129 -0.4264  0.5784
  277MPD2     C 4233   1.229   0.799  13.226  0.3484 -0.4860 -0.1705
  277MPD2    C1 4234   1.096   0.830  13.237 -0.0391 -0.1944 -0.8974
  277MPD2    C2 4235   1.017   0.777  13.332 -0.0228  0.4409  0.1928
  277MPD2    C3 4236   1.073   0.707  13.432  0.4996 -0.4694  0.0003
  277MPD2    C4 4237   1.208   0.669  13.425  0.2033 -0.7276  0.7630
  277MPD2    C5 4238   1.289   0.718  13.327 -0.6461  0.1343  0.5343
  277MPD2     H 4239   0.915   0.814  13.336 -0.0262  0.6176 -1.6558
  277MPD2    H1 4240   1.258   0.622  13.510  0.0163 -1.6020  0.3848
  277MPD2    H2 4241   1.287   0.833  13.141  0.5573  0.1385  0.2195
  277MPD2    H3 4242   1.393   0.688  13.329 -0.8294 -0.4375  1.2825
  277MPD2     N 4243   0.981   0.670  13.529  0.1791  0.0109 -0.8741
  277MPD2    H5 4244   0.894   0.721  13.526  1.0235  1.4605 -1.0173
  277MPD2    N1 4245   1.050   0.929  13.141  0.3016  0.6360 -0.3010
  277MPD2    H7 4246   1.121   0.967  13.079  0.5933  0.6328  0.0316
  278TMC3    C1 4247   0.913   0.579  13.742  0.6330 -0.3975 -0.5871
  278TMC3    C2 4248   0.898   0.462  13.811  0.3102  0.6046  0.7955
  278TMC3    C3 4249   0.790   0.444  13.895 -0.2904  0.9743  0.1426
  278TMC3    C4 4250   0.827   0.682  13.761 -0.2586  0.5329  0.1670
  278TMC3    C5 4251   0.724   0.665  13.856  0.0818 -0.1079 -0.4132
  278TMC3    C6 4252   0.701   0.541  13.921 -0.6177  0.6097  0.1266
  278TMC3     C 4253   1.014   0.587  13.640 -0.3711 -0.0795  0.1139
  278TMC3     O 4254   1.103   0.506  13.648 -0.4108 -0.3364 -0.1020
  278TMC3     H 4255   0.970   0.383  13.793 -0.2190  0.4366 -0.5942
  278TMC3    H1 4256   0.841   0.776  13.709 -1.3103  0.9687  0.6608
  278TMC3    H2 4257   0.613   0.519  13.981 -0.5879 -1.7785 -0.7395
  278TMC3    C7 4258   0.608   0.752  13.837  0.6527 -0.0828 -0.3875
  278TMC3    C8 4259   0.734   0.311  13.896  0.7294  0.2744 -0.5901
  278TMC3    O1 4260   0.604   0.826  13.741 -0.4398 -0.0338 -0.5680
  278TMC3    O2 4261   0.669   0.278  13.997 -0.9077 -0.0973 -0.2321
  279MPD2     C 4262   0.283   0.304   0.331 -0.0334  0.6769 -0.6652
  279MPD2    C1 4263   0.265   0.407   0.424  0.3639 -0.3555 -0.0195
  279MPD2    C2 4264   0.280   0.541   0.381  0.2004  0.4923  0.4228
  279MPD2    C3 4265   0.309   0.560   0.249 -0.0542 -0.5944  0.4928
  279MPD2    C4 4266   0.337   0.452   0.161 -0.3843 -0.3467 -0.3108
  279MPD2    C5 4267   0.324   0.326   0.205 -0.0765 -0.0197  0.8228
  279MPD2     H 4268   0.253   0.623   0.447 -2.3656 -0.8814  1.1079
  279MPD2    H1 4269   0.358   0.471   0.057  0.4749  0.0799 -0.0684
  279MPD2    H2 4270   0.256   0.201   0.354  1.9442 -0.2526 -2.4668
  279MPD2    H3 4271   0.345   0.254   0.127 -0.1879 -0.4352  1.1841
  279MPD2     N 4272   0.310   0.687   0.191 -0.4354 -0.1905  0.5907
  279MPD2    H5 4273   0.330   0.699   0.092 -2.8638  0.8782  0.2146
  279MPD2    N1 4274   0.198   0.376   0.542  0.4064 -0.2995  0.5794
  279MPD2    H7 4275   0.146   0.290   0.556 -0.2430 -0.0583 -0.3128
  280TMC3    C1 4276   0.023   0.474   0.665  0.3294 -0.0928  0.6509
  280TMC3    C2 4277   4.677   0.383   0.610  1.0176  0.0418 -0.4311
  280TMC3    C3 4278   4.556   0.421   0.555 -0.5227 -0.1027  0.5285
  280TMC3    C4 4279   4.721   0.609   0.669 -0.2694 -0.1185 -0.4331
  280TMC3    C5 4280   4.604   0.645   0.625  0.3358 -0.0780  0.0178
  280TMC3    C6 4281   4.520   0.553   0.571  0.0080 -0.0268 -0.3715
  280TMC3     C 4282   0.163   0.466   0.632 -0.7155 -0.0445 -0.5645
  280TMC3     O 4283   0.238   0.564   0.656  0.0037 -0.1619  0.3853
  280TMC3     H 4284   4.699   0.278   0.595 -3.4615 -0.8736 -0.4987
  280TMC3    H1 4285   0.037   0.692   0.713  0.1115 -0.7532  0.2915
  280TMC3    H2 4286   4.417   0.583   0.556 -0.9764 -2.6913  1.0289
  280TMC3    C7 4287   4.580   0.792   0.616 -0.7470  0.5693  0.2213
  280TMC3    C8 4288   4.447   0.321   0.554  0.1606 -0.0939  0.1681
  280TMC3    O1 4289   4.641   0.865   0.691  0.6610 -0.2725 -0.3742
  280TMC3    O2 4290   4.470   0.205   0.601 -0.0884 -0.3152 -0.5695
  281TMC3    C1 4291   4.313   1.057  13.452 -0.7164  0.7685 -0.5063
  281TMC3    C2 4292   4.373   1.122  13.350  0.1977  0.5029 -0.2780
  281TMC3    C3 4293   4.385   1.051  13.232 -0.5236 -0.4321 -0.7158
  281TMC3    C4 4294   4.284   0.926  13.443 -0.9434  0.2155  0.1914
  281TMC3    C5 4295   4.290   0.863  13.329 -0.2140 -0.7666  0.0422
  281TMC3    C6 4296   4.346   0.920  13.214 -0.1934 -0.2701  0.3231
  281TMC3     C 4297   4.236   1.134  13.548  0.6468 -0.7036  0.1773
  281TMC3     O 4298   4.170   1.070  13.627  0.3170  0.8545 -0.9324
  281TMC3     H 4299   4.406   1.224  13.367 -0.7601  0.3583  2.4720
  281TMC3    H1 4300   4.268   0.877  13.539 -1.0813  1.0423  0.5940
  281TMC3    H2 4301   4.350   0.865  13.121  1.9959 -0.6590  0.6261
  281TMC3    C7 4302   4.231   0.737  13.310  0.6363 -0.0295 -0.3199
  281TMC3    C8 4303   4.443   1.107  13.116  0.9238 -0.0047 -0.1925
  281TMC3    O1 4304   4.290   0.655  13.242 -0.8571  0.1426 -0.4770
  281TMC3    O2 4305   4.505   1.024  13.047 -0.2571  0.6036 -0.2916
  282MPD2     C 4306   1.430   2.740  15.242  0.1639 -0.1749  0.7969
  282MPD2    C1 4307   1.303   2.713  15.292 -0.0326 -0.1222 -0.2191
  282MPD2    C2 4308   1.204   2.690  15.200 -0.2106 -0.4454 -0.3912
  282MPD2    C3 4309   1.222   2.688  15.065 -0.0584 -0.0195 -0.2257
  282MPD2    C4 4310   1.355   2.708  15.023 -0.3458 -0.0474  0.4103
  282MPD2    C5 4311   1.460   2.731  15.108  0.2799  0.0060 -0.0454
  282MPD2     H 4312   1.105   2.674  15.243 -0.6439 -0.1093 -1.2536
  282MPD2    H1 4313   1.375   2.696  14.917 -0.6524  0.9027  0.2450
  282MPD2    H2 4314   1.517   2.757  15.304  1.0776 -1.2851 -0.1707
  282MPD2    H3 4315   1.563   2.738  15.075  0.0556  0.4222 -0.6528
  282MPD2     N 4316   1.107   2.667  14.980 -0.3409 -0.0693 -0.0789
  282MPD2    H5 4317   1.018   2.648  15.026 -0.4324 -0.8128 -0.5707
  282MPD2    N1 4318   1.270   2.715  15.430  0.2319  0.0889 -0.2861
  282MPD2    H7 4319   1.172   2.701  15.453  0.6509  1.8733  2.6167
  283TMC3    C1 4320   1.296   2.768  15.661  0.8909 -0.2536  0.2441
  283TMC3    C2 4321   1.332   2.880  15.726 -0.3368 -0.2632  0.0987
  283TMC3    C3 4322   1.282   2.882  15.852 -0.5248 -1.1457  0.0812
  283TMC3    C4 4323   1.226   2.667  15.708  0.1911  0.3672 -0.1120
  283TMC3    C5 4324   1.187   2.678  15.833 -0.3656  0.2331 -0.1388
  283TMC3    C6 4325   1.215   2.781  15.914 -0.0692 -0.6511  0.7236
  283TMC3     C 4326   1.361   2.750  15.529 -0.6372  0.6928 -0.0802
  283TMC3     O 4327   1.482   2.773  15.528 -0.0100 -0.0948  0.1431
  283TMC3     H 4328   1.399   2.951  15.681  0.2966 -1.5596 -0.9917
  283TMC3    H1 4329   1.205   2.587  15.638  3.4478  0.0267 -0.6883
  283TMC3    H2 4330   1.179   2.790  16.016 -1.5125  0.3026  0.1251
  283TMC3    C7 4331   1.095   2.574  15.883 -0.1046 -0.0866 -0.8482
  283TMC3    C8 4332   1.284   3.019  15.904 -0.2587  0.3214  0.0883
  283TMC3    O1 4333   1.091   2.549  16.001 -0.0039 -0.1757  0.4206
  283TMC3    O2 4334   1.269   3.039  16.019  0.1077 -0.3336  0.2758
  284MPD2     C 4335   4.401   1.431  12.201  0.5135  0.0963  0.4461
  284MPD2    C1 4336   4.479   1.453  12.091 -0.6390  0.2221  0.1318
  284MPD2    C2 4337   4.525   1.349  12.021  1.0289 -0.2463  0.2765
  284MPD2    C3 4338   4.484   1.221  12.055  0.4834  0.3294  0.9416
  284MPD2    C4 4339   4.387   1.199  12.151 -0.1166  0.2033  0.2135
  284MPD2    C5 4340   4.346   1.307  12.227 -0.4933 -0.8610  0.3329
  284MPD2     H 4341   4.593   1.364  11.938  0.8499  1.4332  0.4433
  284MPD2    H1 4342   4.360   1.095  12.166  1.0462 -0.5229 -2.6690
  284MPD2    H2 4343   4.368   1.515  12.262 -1.4057  0.3999 -1.0213
  284MPD2    H3 4344   4.270   1.295  12.303  0.6964  2.5119  2.0616
  284MPD2     N 4345   4.526   1.094  11.994 -1.0691  0.3777  0.4766
  284MPD2    H5 4346   4.461   1.021  12.020 -1.3782  0.7478  0.7386
  284MPD2    N1 4347   4.540   1.586  12.076  0.5066  0.1018 -0.3988
  284MPD2    H7 4348   4.615   1.596  12.008 -0.3293  1.4247 -1.1324
  285TMC3    C1 4349   4.583   1.813  12.077 -0.2193  0.4005  0.5265
  285TMC3    C2 4350   4.657   1.798  11.965  0.2102  0.3296  0.6225
  285TMC3    C3 4351   0.002   1.898  11.927  0.0638 -0.3647 -0.1863
  285TMC3    C4 4352   4.580   1.929  12.148  0.1041  0.1187  0.3948
  285TMC3    C5 4353   4.662   2.031  12.107  0.2348 -0.4603  0.4006
  285TMC3    C6 4354   0.012   2.007  12.008  0.1172 -0.5906  0.7361
  285TMC3     C 4355   4.498   1.704  12.130  0.4372 -0.2085 -1.2109
  285TMC3     O 4356   4.412   1.736  12.212  0.1184 -0.2825  0.7663
  285TMC3     H 4357   4.649   1.720  11.890 -1.0404 -0.0759  1.1794
  285TMC3    H1 4358   4.525   1.947  12.240  2.1785 -1.3009  1.9148
  285TMC3    H2 4359   0.081   2.085  11.980  0.6873 -2.2641 -2.5082
  285TMC3    C7 4360   4.609   2.170  12.119  1.3999  0.1732  0.1088
  285TMC3    C8 4361   0.049   1.915  11.794 -0.0569  0.2573  0.3037
  285TMC3    O1 4362   4.687   2.261  12.112 -0.1691  0.1938  0.3772
  285TMC3    O2 4363   4.722   1.849  11.715  0.5273  0.1012 -0.5996
  286MPD2     C 4364   3.680   0.194   1.687  0.2648 -1.0554 -0.4539
  286MPD2    C1 4365   3.735   0.200   1.557 -0.8424  0.3520  0.5353
  286MPD2    C2 4366   3.861   0.162   1.535  0.5712 -0.2311  0.0815
  286MPD2    C3 4367   3.942   0.120   1.639  0.9015 -0.8279 -0.3327
  286MPD2    C4 4368   3.887   0.113   1.769  0.5785  0.4447 -0.7287
  286MPD2    C5 4369   3.751   0.137   1.785 -0.3328 -0.0605 -0.1759
  286MPD2     H 4370   3.901   0.169   1.435  0.8774  0.8597  0.2812
  286MPD2    H1 4371   3.946   0.086   1.855  1.2260 -0.3567 -1.4230
  286MPD2    H2 4372   3.581   0.234   1.703  0.0466 -0.7298 -2.6507
  286MPD2    H3 4373   3.713   0.121   1.885 -1.8935 -1.2972 -0.9821
  286MPD2     N 4374   4.080   0.091   1.626 -0.0998  0.1192  0.0545
  286MPD2    H5 4375   4.127   0.071   1.714  0.5236 -2.7000 -0.9138
  286MPD2    N1 4376   3.667   0.242   1.440  0.6970  0.0864 -0.1411
  286MPD2    H7 4377   3.711   0.238   1.349  0.1673 -1.7276 -0.3226
  287TMC3    C1 4378   4.280   4.737   1.529 -0.5617 -0.1295  0.3093
  287TMC3    C2 4379   4.329   4.684   1.412 -0.8599  0.1259 -0.1149
  287TMC3    C3 4380   4.462   4.663   1.408  0.1746 -0.3874  0.5198
  287TMC3    C4 4381   4.364   0.039   1.636 -0.8946 -0.5107 -0.0180
  287TMC3    C5 4382   4.498   0.010   1.619 -0.4203  0.3383 -0.6167
  287TMC3    C6 4383   4.547   4.677   1.513 -0.0098 -0.6450 -0.5005
  287TMC3     C 4384   4.147   0.056   1.510 -0.1941  0.8664  0.2980
  287TMC3     O 4385   4.112   0.063   1.395  0.4043  1.1429  0.1538
  287TMC3     H 4386   4.265   4.645   1.334  0.5385 -0.9188 -0.7368
  287TMC3    H1 4387   4.331   0.111   1.710  3.0435 -1.5845  2.7704
  287TMC3    H2 4388   4.650   4.646   1.505  0.9743  2.8637 -1.6365
  287TMC3    C7 4389   4.597   0.068   1.710 -0.4117  0.3253 -0.0329
  287TMC3    C8 4390   4.507   4.585   1.294 -0.6041  0.0997  0.2537
  287TMC3    O1 4391   4.560   0.166   1.767  0.5431  0.5596 -0.0582
  287TMC3    O2 4392   4.428   4.516   1.230 -0.2107  0.2911  0.4626
  288TMC3    C1 4393   0.673   0.321  14.441  0.1511  0.4975 -0.9101
  288TMC3    C2 4394   0.743   0.341  14.559  0.1005  0.4424 -0.5801
  288TMC3    C3 4395   0.777   0.468  14.591  0.1481 -0.2588 -0.3860
  288TMC3    C4 4396   0.669   0.419  14.347  0.3099  0.5597  0.2570
  288TMC3    C5 4397   0.735   0.534  14.373  0.4942  0.5327 -0.0425
  288TMC3    C6 4398   0.776   0.567  14.497  0.1424  0.1062 -0.0358
  288TMC3     C 4399   0.667   0.185  14.392 -0.2752 -0.3701  0.1480
  288TMC3     O 4400   0.724   0.104  14.464 -0.1651  0.2503  0.5369
  288TMC3     H 4401   0.743   0.259  14.630 -0.6235  2.0604  1.2849
  288TMC3    H1 4402   0.640   0.403  14.244 -0.1405  2.2038  0.1290
  288TMC3    H2 4403   0.806   0.666  14.527 -2.8625  1.2597 -0.8131
  288TMC3    C7 4404   0.712   0.650  14.287  0.4831 -0.1945  0.3587
  288TMC3    C8 4405   0.805   0.512  14.728  0.2259 -0.3390  0.1200
  288TMC3    O1 4406   0.611   0.646  14.220  0.2259 -0.1026  0.1277
  288TMC3    O2 4407   0.861   0.620  14.741  0.2913  0.0845 -0.3883
  289MPD2     C 4408   1.203   4.317  14.877 -0.3062 -0.0179 -0.4982
  289MPD2    C1 4409   1.153   4.425  14.810 -0.9689 -0.2780 -0.4535
  289MPD2    C2 4410   1.025   4.423  14.763 -0.9849  0.1850 -0.2423
  289MPD2    C3 4411   0.945   4.312  14.773  0.6439  0.4800  0.2344
  289MPD2    C4 4412   1.003   4.196  14.821  0.0571 -0.3308 -0.2572
  289MPD2    C5 4413   1.134   4.197  14.872 -0.3116 -0.6134  0.2988
  289MPD2     H 4414   0.989   4.519  14.729  0.9890  1.2306  0.6218
  289MPD2    H1 4415   0.953   4.101  14.832 -0.4619 -0.3704 -2.9751
  289MPD2    H2 4416   1.302   4.299  14.919 -0.7313 -1.6895 -0.2200
  289MPD2    H3 4417   1.167   4.109  14.926  0.5033  0.8079  2.1043
  289MPD2     N 4418   0.810   4.301  14.735  0.5890  0.5139  0.0797
  289MPD2    H5 4419   0.768   4.209  14.747 -1.2237  1.3776  0.3935
  289MPD2    N1 4420   1.236   4.539  14.794 -0.5645  0.2541  0.4997
  289MPD2    H7 4421   1.317   4.542  14.855  0.8284 -0.2434 -1.3252
  290TMC3    C1 4422   0.611   4.380  14.640 -0.4769 -0.4726  0.0557
  290TMC3    C2 4423   0.550   4.484  14.569  0.6038 -0.1261  0.2149
  290TMC3    C3 4424   0.416   4.460  14.541 -0.2615  0.1383  0.2974
  290TMC3    C4 4425   0.552   4.256  14.673  0.7377 -0.9438 -0.2070
  290TMC3    C5 4426   0.417   4.245  14.636  0.1113  0.3845 -0.0609
  290TMC3    C6 4427   0.350   4.344  14.573 -0.4910 -0.0859 -0.5246
  290TMC3     C 4428   0.740   4.410  14.682  0.4679  0.0024  0.2532
  290TMC3     O 4429   0.775   4.521  14.650  0.9992  0.0521 -0.4799
  290TMC3     H 4430   0.595   4.577  14.539  0.4701  0.5927  2.1929
  290TMC3    H1 4431   0.600   4.177  14.729  1.3653 -0.0288  0.5355
  290TMC3    H2 4432   0.250   4.327  14.535 -0.9002  1.1302 -0.0021
  290TMC3    C7 4433   0.336   4.133  14.683 -0.4779 -0.3020  0.1453
  290TMC3    C8 4434   0.334   4.562  14.488  0.0616  1.1816  0.2119
  290TMC3    O1 4435   0.217   4.156  14.713  0.4136 -0.1422 -0.2939
  290TMC3    O2 4436   0.236   4.521  14.429 -0.7002  0.2378 -0.9549
  291MPD2     C 4437   0.444   4.174   0.613 -0.1019  0.3744 -0.3929
  291MPD2    C1 4438   0.538   4.093   0.559  0.3053  0.3652 -0.4871
  291MPD2    C2 4439   0.650   4.130   0.484  0.0161 -0.7925 -0.0813
  291MPD2    C3 4440   0.667   4.273   0.480  0.1582 -0.1713  0.5097
  291MPD2    C4 4441   0.572   4.357   0.539 -0.7944  0.7294  0.3330
  291MPD2    C5 4442   0.467   4.308   0.605  0.2466  0.0704  0.1384
  291MPD2     H 4443   0.712   4.058   0.432 -1.9665 -2.5514  0.0381
  291MPD2    H1 4444   0.577   4.465   0.530 -1.3341  0.8835  1.8485
  291MPD2    H2 4445   0.357   4.129   0.659 -0.7650 -0.1653 -2.2007
  291MPD2    H3 4446   0.396   4.372   0.655  1.2965 -0.0217  1.7229
  291MPD2     N 4447   0.766   4.346   0.405  0.7104  0.8042  0.2124
  291MPD2    H5 4448   0.751   4.446   0.402 -0.8352  0.4646 -2.8043
  291MPD2    N1 4449   0.498   3.956   0.578 -0.1939  0.1309 -0.0152
  291MPD2    H7 4450   0.413   3.937   0.630 -0.1477 -2.5360 -0.9252
  292TMC3    C1 4451   0.504   3.727   0.571  0.0674  0.4718  0.5328
  292TMC3    C2 4452   0.454   3.712   0.691  0.6436  0.2090 -1.0351
  292TMC3    C3 4453   0.356   3.620   0.717  0.3027  0.4215 -0.0218
  292TMC3    C4 4454   0.464   3.651   0.468  0.5777  0.0288  0.0899
  292TMC3    C5 4455   0.374   3.552   0.493  0.2454 -0.0219  0.1657
  292TMC3    C6 4456   0.312   3.534   0.617  0.5085  0.4635  0.6157
  292TMC3     C 4457   0.570   3.849   0.530 -0.5481 -0.0317  0.7475
  292TMC3     O 4458   0.658   3.838   0.449 -0.0833 -0.5688  0.2534
  292TMC3     H 4459   0.492   3.772   0.773 -0.7489 -1.8665  1.1507
  292TMC3    H1 4460   0.510   3.661   0.370  0.2058 -0.6499 -0.1560
  292TMC3    H2 4461   0.249   3.449   0.640 -0.4326  0.8040 -0.6538
  292TMC3    C7 4462   0.333   3.481   0.378 -1.0178  0.6100  0.0261
  292TMC3    C8 4463   0.315   3.601   0.856  0.3042 -0.2980 -0.7001
  292TMC3    O1 4464   0.414   3.463   0.292  0.1419  0.2292  0.4904
  292TMC3    O2 4465   0.398   3.640   0.936 -0.3952  0.5351 -0.4329
  293MPD2     C 4466   2.247   0.060  13.524  0.4033  0.8786 -0.5063
  293MPD2    C1 4467   2.310   0.176  13.480 -0.2320  0.2963 -0.8762
  293MPD2    C2 4468   2.397   0.229  13.570 -0.0918  0.4474  0.1862
  293MPD2    C3 4469   2.437   0.170  13.690 -0.4248 -0.4533 -0.1005
  293MPD2    C4 4470   2.375   0.062  13.732 -0.0974 -0.1616 -0.2988
  293MPD2    C5 4471   2.280   0.005  13.650  0.5399  0.9546 -0.7198
  293MPD2     H 4472   2.437   0.327  13.547 -1.6109  1.2841  1.1131
  293MPD2    H1 4473   2.410   0.016  13.824  2.7844  0.8933 -0.8456
  293MPD2    H2 4474   2.175   0.001  13.468  0.6235  1.3544 -1.2832
  293MPD2    H3 4475   2.235   4.649  13.680  2.3129  0.1544 -0.5800
  293MPD2     N 4476   2.538   0.237  13.761  0.1987 -0.4237  0.0350
  293MPD2    H5 4477   2.582   0.322  13.727 -2.5975  0.6562 -0.9308
  293MPD2    N1 4478   2.264   0.225  13.354  0.2179  0.2786  0.2996
  293MPD2    H7 4479   2.190   0.174  13.307 -0.7793  0.8211  1.2666
  294TMC3    C1 4480   2.274   0.352  13.148 -1.3321 -0.2374 -0.6625
  294TMC3    C2 4481   2.161   0.288  13.108 -0.1027  0.5389 -0.3727
  294TMC3    C3 4482   2.114   0.339  12.990 -0.0930  0.3109  0.5463
  294TMC3    C4 4483   2.325   0.471  13.087 -0.6047  0.4681  0.1348
  294TMC3    C5 4484   2.261   0.523  12.979  0.2768  0.7933  0.1980
  294TMC3    C6 4485   2.160   0.449  12.923 -0.8152  0.3180  0.5536
  294TMC3     C 4486   2.316   0.333  13.285 -0.3528 -0.6322  0.4032
  294TMC3     O 4487   2.394   0.407  13.333 -0.0268  0.5840 -0.3453
  294TMC3     H 4488   2.120   0.207  13.168 -1.3506  0.3884 -1.4230
  294TMC3    H1 4489   2.408   0.522  13.135 -1.5278  0.0928  2.1299
  294TMC3    H2 4490   2.107   0.490  12.839 -0.0238  1.7159  0.7348
  294TMC3    C7 4491   2.316   0.643  12.920  0.3965  0.0185  0.4569
  294TMC3    C8 4492   2.003   0.261  12.938  0.1110 -0.1995 -0.3874
  294TMC3    O1 4493   2.416   0.680  12.976 -0.3298  0.8883  1.1412
  294TMC3    O2 4494   1.955   0.178  13.016  0.0229  0.5622  0.0773
  295MPD2     C 4495   1.829   4.373   0.392 -0.2441  0.3840 -0.0915
  295MPD2    C1 4496   1.836   4.266   0.484 -0.4714  0.4830  0.4976
  295MPD2    C2 4497   1.734   4.233   0.569 -0.1061 -1.4406  0.1159
  295MPD2    C3 4498   1.622   4.322   0.569  0.2158  0.3517  0.0625
  295MPD2    C4 4499   1.617   4.433   0.490 -0.7597 -0.1562 -0.1028
  295MPD2    C5 4500   1.717   4.454   0.399  0.3057  0.2818  0.0308
  295MPD2     H 4501   1.749   4.166   0.653  1.9952 -0.8290  0.2503
  295MPD2    H1 4502   1.544   4.512   0.505  1.3775  2.1802 -2.0733
  295MPD2    H2 4503   1.907   4.392   0.320 -0.0187 -0.4890 -0.0714
  295MPD2    H3 4504   1.721   4.541   0.334 -1.2152  0.5699  0.3220
  295MPD2     N 4505   1.516   4.315   0.665 -0.2135  0.1591  0.1075
  295MPD2    H5 4506   1.470   4.403   0.682 -1.6679 -0.8294  1.3197
  295MPD2    N1 4507   1.962   4.190   0.496  0.4732 -0.0841 -0.1495
  295MPD2    H7 4508   1.969   4.100   0.542 -2.3517 -0.4426 -0.4209
  296TMC3    C1 4509   1.374   4.246   0.832 -0.2502 -0.2714 -0.2696
  296TMC3    C2 4510   1.375   4.355   0.914 -0.0755  0.0043 -0.2039
  296TMC3    C3 4511   1.264   4.375   0.990  0.1310  0.5559 -0.6332
  296TMC3    C4 4512   1.274   4.154   0.834 -0.4346 -0.0160 -0.2490
  296TMC3    C5 4513   1.167   4.181   0.912 -0.1117  0.4726  0.0555
  296TMC3    C6 4514   1.154   4.284   0.994 -0.4586  0.6432 -0.8207
  296TMC3     C 4515   1.491   4.214   0.753  0.0976  0.9094 -0.1632
  296TMC3     O 4516   1.530   4.099   0.749 -0.8242  0.2625  0.0881
  296TMC3     H 4517   1.456   4.427   0.927  0.2488 -0.3911 -0.0198
  296TMC3    H1 4518   1.285   4.060   0.780 -0.3890  0.7525 -1.5672
  296TMC3    H2 4519   1.070   4.316   1.054  0.0441 -1.0367  0.7488
  296TMC3    C7 4520   1.045   4.101   0.893 -0.3273 -0.2573 -0.4765
  296TMC3    C8 4521   1.240   4.503   1.054 -0.5025 -0.1162  0.2987
  296TMC3    O1 4522   1.034   4.052   0.781 -0.7698 -0.3030 -0.3624
  296TMC3    O2 4523   1.163   4.512   1.146 -0.6883  0.3457 -0.9751
  297MPD2     C 4524   0.066   1.072  16.724 -0.4975 -0.5812 -0.8516
  297MPD2    C1 4525   0.064   1.123  16.600  0.4034 -0.1752 -0.3827
  297MPD2    C2 4526   0.161   1.207  16.554  0.3146  0.3707 -0.5660
  297MPD2    C3 4527   0.271   1.218  16.635 -0.1549  0.3579 -0.4021
  297MPD2    C4 4528   0.279   1.145  16.753  0.7674  0.2651 -0.2043
  297MPD2    C5 4529   0.178   1.074  16.805 -0.0605 -0.1024 -0.9751
  297MPD2     H 4530   0.156   1.266  16.463 -0.9386  0.1587 -0.6384
  297MPD2    H1 4531   0.362   1.166  16.819 -1.8220  4.3699  1.7165
  297MPD2    H2 4532   4.724   1.021  16.778 -1.1460 -0.4724 -1.7193
  297MPD2    H3 4533   0.175   1.004  16.887  1.1995  0.6120 -0.3262
  297MPD2     N 4534   0.367   1.313  16.596  0.3634 -0.4016  0.5842
  297MPD2    H5 4535   0.351   1.367  16.511  1.9797  1.7086  1.6390
  297MPD2    N1 4536   4.694   1.105  16.519 -0.0450  0.0237  0.7195
  297MPD2    H7 4537   4.710   1.124  16.421  0.4646  0.8795  0.9670
  298TMC3    C1 4538   4.476   1.054  16.447  0.0782 -0.5622 -0.3362
  298TMC3    C2 4539   4.525   1.068  16.315 -0.2942 -0.0394 -0.1300
  298TMC3    C3 4540   4.443   1.112  16.214  0.7693 -0.3078  0.7110
  298TMC3    C4 4541   4.345   1.090  16.475 -0.0742  0.7653  0.0804
  298TMC3    C5 4542   4.274   1.139  16.378  0.2535  0.1384 -1.0593
  298TMC3    C6 4543   4.317   1.157  16.246 -0.1202 -0.1850 -0.5673
  298TMC3     C 4544   4.570   1.059  16.561  0.3807 -0.0209  0.4445
  298TMC3     O 4545   4.522   1.073  16.674 -0.4632  0.1462 -0.6165
  298TMC3     H 4546   4.622   1.027  16.289  0.4091 -0.1429  2.6558
  298TMC3    H1 4547   4.309   1.092  16.577 -0.8972 -1.8749 -0.1417
  298TMC3    H2 4548   4.259   1.209  16.171 -1.6064 -0.4063  0.4354
  298TMC3    C7 4549   4.162   1.214  16.419  1.3314 -0.0781 -0.2032
  298TMC3    C8 4550   4.515   1.154  16.096 -0.7308 -0.1395 -0.3795
  298TMC3    O1 4551   4.174   1.284  16.519 -0.3726 -0.3022  0.4478
  298TMC3    O2 4552   4.624   1.095  16.078  0.0861 -0.2487 -0.2079
  299MPD2     C 4553   1.183   1.743  10.215 -0.1867  0.1185 -0.0071
  299MPD2    C1 4554   1.111   1.680  10.310 -0.3361  0.2824 -0.4626
  299MPD2    C2 4555   0.984   1.628  10.283 -0.3830  0.4006  0.6347
  299MPD2    C3 4556   0.944   1.623  10.152 -0.4204 -0.4404  0.4761
  299MPD2    C4 4557   1.027   1.660  10.056 -0.1785  0.2455  0.0478
  299MPD2    C5 4558   1.137   1.735  10.083  0.6227  0.1633  0.6209
  299MPD2     H 4559   0.913   1.600  10.361 -1.2148  0.3794 -0.1342
  299MPD2    H1 4560   0.987   1.651   9.956 -1.1517  0.2409  0.4420
  299MPD2    H2 4561   1.285   1.778  10.229  0.1724 -1.8830  2.5944
  299MPD2    H3 4562   1.200   1.761   9.999 -0.2144 -0.9945 -0.3724
  299MPD2     N 4563   0.813   1.589  10.110  0.3663 -0.1112  0.1345
  299MPD2    H5 4564   0.800   1.580  10.010  2.3163 -2.8181  0.1444
  299MPD2    N1 4565   1.170   1.672  10.436 -0.0996 -0.2510  0.3669
  299MPD2    H7 4566   1.265   1.707  10.428 -0.6142  1.7228  2.8014
  300TMC3    C1 4567   0.594   1.509  10.130  0.1204  0.0725 -0.0832
  300TMC3    C2 4568   0.604   1.471  10.003 -0.4110  0.0021 -0.6315
  300TMC3    C3 4569   0.489   1.463   9.928  0.0493  0.0391 -0.4954
  300TMC3    C4 4570   0.471   1.547  10.181  0.2716 -0.2662 -0.4869
  300TMC3    C5 4571   0.357   1.506  10.115 -0.4440  0.0503 -0.5603
  300TMC3    C6 4572   0.367   1.462   9.985 -0.6649  0.3550 -0.1378
  300TMC3     C 4573   0.707   1.578  10.197 -0.0141  0.2958  0.2297
  300TMC3     O 4574   0.689   1.630  10.306 -0.1572 -0.1864  0.3105
  300TMC3     H 4575   0.693   1.436   9.954 -1.1014 -3.0334  0.3228
  300TMC3    H1 4576   0.461   1.578  10.285  3.0197 -0.9880  0.0046
  300TMC3    H2 4577   0.277   1.440   9.929  0.6741 -2.0377 -1.3384
  300TMC3    C7 4578   0.221   1.522  10.170 -0.5559  0.5750 -0.0713
  300TMC3    C8 4579   0.493   1.416   9.792 -0.6021 -0.5300  0.2492
  300TMC3    O1 4580   0.131   1.465  10.111  0.2104 -0.1643  0.3925
  300TMC3    O2 4581   0.425   1.318   9.778  0.5149  0.1920  0.2683
  301MPD2     C 4582   2.006   1.402   1.298  0.7078 -0.1022  0.1005
  301MPD2    C1 4583   2.082   1.470   1.212 -0.3251  0.5611 -0.6243
  301MPD2    C2 4584   2.161   1.410   1.118 -0.1057  0.0606 -0.0381
  301MPD2    C3 4585   2.160   1.270   1.110  0.1642 -0.0408  0.1728
  301MPD2    C4 4586   2.082   1.204   1.200 -0.0494  0.4986  0.1177
  301MPD2    C5 4587   2.001   1.265   1.292  0.3512 -0.1136  0.3119
  301MPD2     H 4588   2.214   1.468   1.043 -1.1245 -0.5853 -1.2619
  301MPD2    H1 4589   2.061   1.100   1.179  1.3706  0.5413 -1.5044
  301MPD2    H2 4590   1.936   1.447   1.367 -1.8859 -1.4295 -1.6408
  301MPD2    H3 4591   1.935   1.213   1.361 -1.1730 -0.7838 -1.6413
  301MPD2     N 4592   2.225   1.197   1.013 -0.4283 -0.0909 -0.1169
  301MPD2    H5 4593   2.229   1.097   1.028 -1.7631 -0.1820 -0.3452
  301MPD2    N1 4594   2.078   1.609   1.210  0.4109  0.2779 -0.4003
  301MPD2    H7 4595   2.144   1.654   1.148 -0.2040  2.0500  0.2314
  302TMC3    C1 4596   2.342   1.144   0.821 -0.1289  0.1914  0.0847
  302TMC3    C2 4597   2.406   1.039   0.880  0.1517 -0.3471  0.1995
  302TMC3    C3 4598   2.475   0.950   0.801  0.5764 -0.0888 -0.3961
  302TMC3    C4 4599   2.356   1.172   0.691  0.0597  0.0903  0.0895
  302TMC3    C5 4600   2.437   1.087   0.618  0.0926  0.6885  0.0798
  302TMC3    C6 4601   2.495   0.979   0.670 -0.2730 -0.1658  0.3177
  302TMC3     C 4602   2.273   1.247   0.896 -0.2024 -0.3505  0.3871
  302TMC3     O 4603   2.261   1.361   0.849 -0.1258  0.2278  0.2152
  302TMC3     H 4604   2.412   1.036   0.988 -0.0064  0.2742  0.2254
  302TMC3    H1 4605   2.298   1.253   0.647  0.0440  0.6818  1.2030
  302TMC3    H2 4606   2.552   0.906   0.614  1.1675  0.2762  1.2125
  302TMC3    C7 4607   2.404   1.076   0.472 -0.5821  0.1060  0.3163
  302TMC3    C8 4608   2.586   0.886   0.862 -0.1117 -0.6094 -0.1983
  302TMC3    O1 4609   2.435   0.976   0.404 -0.2307  0.1941 -0.0286
  302TMC3    O2 4610   2.685   0.869   0.791 -0.0038 -0.6496  0.3638
  303MPD2     C 4611   3.474   0.762  10.984 -0.0342 -0.4328  0.1507
  303MPD2    C1 4612   3.354   0.718  10.943  0.1180  0.3909  0.3395
  303MPD2    C2 4613   3.332   0.683  10.809 -0.2911 -0.6307  0.0394
  303MPD2    C3 4614   3.433   0.699  10.716 -0.9247 -0.1403 -0.0882
  303MPD2    C4 4615   3.544   0.764  10.758  0.5514  0.1069 -0.2548
  303MPD2    C5 4616   3.567   0.789  10.893 -0.8643  0.0434  0.0030
  303MPD2     H 4617   3.243   0.631  10.775 -1.0771 -0.8868  2.4346
  303MPD2    H1 4618   3.620   0.790  10.685 -0.1797  0.6880 -0.8008
  303MPD2    H2 4619   3.495   0.810  11.079  0.5921 -0.0558 -0.1757
  303MPD2    H3 4620   3.662   0.837  10.915 -0.7307  1.1163 -2.9944
  303MPD2     N 4621   3.425   0.651  10.584  0.0214  0.2169 -0.6511
  303MPD2    H5 4622   3.493   0.675  10.512  0.6995 -0.1369 -0.1336
  303MPD2    N1 4623   3.260   0.695  11.039 -0.3870  0.6030 -0.1910
  303MPD2    H7 4624   3.307   0.684  11.128 -0.9366 -1.1650 -0.1137
  304TMC3    C1 4625   3.063   0.605  11.126 -1.0469 -0.2013 -0.1225
  304TMC3    C2 4626   2.924   0.625  11.125  0.3047  0.2101  0.5088
  304TMC3    C3 4627   2.859   0.544  11.215 -0.2149  0.5320 -0.3285
  304TMC3    C4 4628   3.138   0.514  11.190 -0.6499 -0.1033  0.0671
  304TMC3    C5 4629   3.065   0.430  11.268 -0.1079  0.5916  0.0567
  304TMC3    C6 4630   2.928   0.441  11.281  0.9510 -0.0502  0.6007
  304TMC3     C 4631   3.125   0.663  11.012 -0.3193 -0.0941 -0.1183
  304TMC3     O 4632   3.057   0.657  10.909  0.5129  0.0641 -0.1706
  304TMC3     H 4633   2.877   0.693  11.054 -1.3424 -0.6615  0.7465
  304TMC3    H1 4634   3.232   0.482  11.148 -0.7654 -1.2096  0.6680
  304TMC3    H2 4635   2.880   0.372  11.350  2.1443 -2.7571 -1.2726
  304TMC3    C7 4636   3.105   0.286  11.271 -0.1845 -0.4697  0.3145
  304TMC3    C8 4637   2.741   0.478  11.161 -0.3677 -1.1533  0.0155
  304TMC3    O1 4638   3.222   0.253  11.296  0.4935  0.1113  0.4162
  304TMC3    O2 4639   2.737   0.360  11.185 -0.2302 -0.1943 -0.1560
  305MPD2     C 4640   0.607   2.665  14.023 -0.1926  0.9132  0.0414
  305MPD2    C1 4641   0.738   2.631  14.021  0.2256  0.0913 -0.6826
  305MPD2    C2 4642   0.779   2.566  13.901 -0.5784 -0.6790  0.0238
  305MPD2    C3 4643   0.693   2.537  13.804  0.0091  0.1864  1.1588
  305MPD2    C4 4644   0.559   2.562  13.818  0.5766  0.1195 -0.1308
  305MPD2    C5 4645   0.516   2.630  13.930 -0.0269 -0.2974  0.2105
  305MPD2     H 4646   0.884   2.545  13.886 -0.0337  2.4282 -0.5768
  305MPD2    H1 4647   0.489   2.525  13.744  0.8615  1.3595 -1.0130
  305MPD2    H2 4648   0.585   2.715  14.117  0.0680 -1.3244  1.2839
  305MPD2    H3 4649   0.412   2.658  13.942  0.0170  0.3007 -0.8305
  305MPD2     N 4650   0.720   2.460  13.687  0.5656 -0.4214  0.3183
  305MPD2    H5 4651   0.642   2.442  13.625 -0.5691 -0.0015  1.6128
  305MPD2    N1 4652   0.827   2.671  14.127 -0.2289  1.0799  0.3381
  305MPD2    H7 4653   0.785   2.691  14.217 -0.1109 -1.8468  1.0385
  306TMC3    C1 4654   1.029   2.699  14.240 -0.0112 -0.0708 -0.5100
  306TMC3    C2 4655   1.158   2.657  14.256 -0.4577  0.1219 -0.3875
  306TMC3    C3 4656   1.222   2.679  14.375  0.5935  0.2591  0.3366
  306TMC3    C4 4657   0.951   2.759  14.339 -0.0572  0.0625  0.4235
  306TMC3    C5 4658   1.023   2.790  14.454  0.0878  0.3636  0.7873
  306TMC3    C6 4659   1.157   2.748  14.472 -0.6293  0.4662 -0.4982
  306TMC3     C 4660   0.968   2.662  14.115  0.0042 -0.6338  0.0630
  306TMC3     O 4661   1.037   2.642  14.015  0.1120  0.1333  1.0013
  306TMC3     H 4662   1.212   2.623  14.168  0.4226  0.6210 -0.0399
  306TMC3    H1 4663   0.852   2.801  14.329  0.0755  0.6240  1.4790
  306TMC3    H2 4664   1.217   2.772  14.559  0.5044  0.9372 -1.4111
  306TMC3    C7 4665   0.962   2.891  14.539  0.5368  0.1390 -0.5838
  306TMC3    C8 4666   1.348   2.607  14.399  0.0872  0.2512  0.9013
  306TMC3    O1 4667   0.841   2.914  14.538  0.2807  0.7413 -1.0280
  306TMC3    O2 4668   1.385   2.557  14.296  0.0670 -0.2717 -0.5089
  307MPD2     C 4669   3.837   0.992   0.357  0.9607  0.6213  0.7361
  307MPD2    C1 4670   3.730   1.045   0.419  0.2615 -0.2445  0.9639
  307MPD2    C2 4671   3.644   0.969   0.495  0.7056  0.1173  0.4417
  307MPD2    C3 4672   3.666   0.832   0.512 -0.4590  0.9424 -0.1182
  307MPD2    C4 4673   3.780   0.781   0.457 -0.2451  0.2662 -0.4275
  307MPD2    C5 4674   3.864   0.859   0.377  0.6656  0.4617 -0.0574
  307MPD2     H 4675   3.557   1.020   0.536  1.4001  0.8975  0.9217
  307MPD2    H1 4676   3.798   0.674   0.452  0.3018  0.3886 -1.0882
  307MPD2    H2 4677   3.913   1.038   0.294 -1.3954  0.0426 -2.5565
  307MPD2    H3 4678   3.944   0.816   0.319 -1.7003 -1.5103 -1.8849
  307MPD2     N 4679   3.583   0.759   0.598 -0.0974 -0.6437 -0.9145
  307MPD2    H5 4680   3.511   0.817   0.639  0.8704  0.2685 -0.5179
  307MPD2    N1 4681   3.697   1.175   0.394 -0.0716 -0.1559  0.3106
  307MPD2    H7 4682   3.612   1.209   0.438  1.1785  1.2941  1.6146
  308TMC3    C1 4683   3.224   0.515   0.592  0.2410  0.6064  0.4988
  308TMC3    C2 4684   3.160   0.604   0.676 -0.2340  0.7533 -0.6447
  308TMC3    C3 4685   3.236   0.690   0.749  0.6807  0.6542  0.6794
  308TMC3    C4 4686   3.362   0.508   0.582  0.6367 -0.4877 -0.5817
  308TMC3    C5 4687   3.441   0.593   0.662  0.1469  0.1977  0.1402
  308TMC3    C6 4688   3.376   0.682   0.743  0.0074  0.4305  0.1699
  308TMC3     C 4689   3.148   0.445   0.499  0.1879 -0.1843 -0.4822
  308TMC3     O 4690   3.201   0.346   0.448  0.5713 -0.2683  0.6336
  308TMC3     H 4691   3.053   0.606   0.691 -0.0592  0.0446  0.6759
  308TMC3    H1 4692   3.406   0.436   0.514  2.3579 -1.1437  1.2101
  308TMC3    H2 4693   3.433   0.741   0.813 -1.2648 -0.1646  1.7176
  308TMC3    C7 4694   3.566   0.626   0.605  0.3129  0.1713  0.0020
  308TMC3    C8 4695   3.175   0.800   0.817  0.7203 -0.5091 -0.8436
  308TMC3    O1 4696   3.620   0.547   0.529 -0.3162 -0.3898 -0.0113
  308TMC3    O2 4697   3.234   0.836   0.919 -0.3845  0.4031  0.1568
  309MPD2     C 4698   2.793   1.318  17.246  1.0092 -0.0120  0.2699
  309MPD2    C1 4699   2.735   1.372  17.133  0.0977 -0.6218  0.6085
  309MPD2    C2 4700   2.599   1.350  17.116  0.0459 -0.3129  0.1407
  309MPD2    C3 4701   2.524   1.298  17.219 -0.2866 -0.1644  0.2778
  309MPD2    C4 4702   2.580   1.274  17.345 -0.2410 -0.5970  0.2861
  309MPD2    C5 4703   2.718   1.272  17.355 -0.7159 -0.2568  0.1419
  309MPD2     H 4704   2.560   1.379  17.019  2.5322  1.4198 -0.3527
  309MPD2    H1 4705   2.520   1.236  17.427 -0.1270  1.4402  1.3018
  309MPD2    H2 4706   2.900   1.327  17.262  0.6207 -0.3300  3.1166
  309MPD2    H3 4707   2.767   1.247  17.449  0.6464 -1.6983 -0.9710
  309MPD2     N 4708   2.387   1.276  17.205  0.0408 -0.4478  0.7337
  309MPD2    H5 4709   2.340   1.267  17.295 -0.5313 -2.0436  0.2689
  309MPD2    N1 4710   2.810   1.411  17.026 -0.1602  0.4604  0.0611
  309MPD2    H7 4711   2.765   1.448  16.943  0.0252  0.5651  0.0069
  310TMC3    C1 4712   2.989   1.417  16.883 -0.0916  0.1271 -0.2174
  310TMC3    C2 4713   2.941   1.513  16.806 -0.4311 -0.2221 -0.5423
  310TMC3    C3 4714   3.000   1.527  16.681  0.7286 -0.3352  0.6040
  310TMC3    C4 4715   3.089   1.334  16.844 -0.2412  0.3013 -0.2784
  310TMC3    C5 4716   3.136   1.342  16.719 -0.3097 -0.6708  0.2739
  310TMC3    C6 4717   3.100   1.443  16.640 -0.7824  0.0653 -0.3893
  310TMC3     C 4718   2.946   1.409  17.016  0.7211 -0.1401  0.1315
  310TMC3     O 4719   3.031   1.375  17.096 -0.4074  0.9475  0.2206
  310TMC3     H 4720   2.866   1.581  16.844 -0.0079  0.7025 -1.3594
  310TMC3    H1 4721   3.108   1.250  16.909 -0.5075  0.4196 -0.0500
  310TMC3    H2 4722   3.157   1.445  16.548 -2.4498 -0.4012 -1.4374
  310TMC3    C7 4723   3.229   1.234  16.671  0.3444 -0.4567  0.0353
  310TMC3    C8 4724   2.934   1.612  16.593  0.6475  0.3165 -0.2009
  310TMC3    O1 4725   3.218   1.208  16.555  0.1229  0.4885 -0.2786
  310TMC3    O2 4726   2.813   1.636  16.614  0.7425  0.1012  0.2647
  311MPD2     C 4727   0.109   2.111  13.030 -0.2763  0.0360 -0.1673
  311MPD2    C1 4728   0.102   2.245  13.015  0.3400  0.3800 -0.3715
  311MPD2    C2 4729   4.722   2.311  13.042 -0.1093  0.3206 -0.0911
  311MPD2    C3 4730   4.615   2.226  13.080  0.2907 -0.0588 -0.4896
  311MPD2    C4 4731   4.623   2.089  13.092 -0.3122  0.4577 -0.5385
  311MPD2    C5 4732   0.008   2.032  13.073 -0.4033 -0.3126 -0.0872
  311MPD2     H 4733   4.706   2.416  13.022  1.9908  0.6406 -0.0713
  311MPD2    H1 4734   4.545   2.015  13.105  0.2830 -0.2398 -0.8841
  311MPD2    H2 4735   0.209   2.068  13.032 -0.3432 -0.0480  1.0390
  311MPD2    H3 4736   0.023   1.927  13.095  2.8299  0.3400  0.8731
  311MPD2     N 4737   4.493   2.289  13.097  0.1817  0.0141 -0.4651
  311MPD2    H5 4738   4.487   2.388  13.076 -4.4615 -0.7747 -2.9444
  311MPD2    N1 4739   0.214   2.320  12.970  0.4153  0.0001  0.7544
  311MPD2    H7 4740   0.196   2.418  12.951  0.1404 -0.0067  0.9798
  312TMC3    C1 4741   4.270   2.323  13.139 -0.1582 -0.5990  0.0417
  312TMC3    C2 4742   4.149   2.270  13.120 -0.2608  0.5286 -0.9885
  312TMC3    C3 4743   4.043   2.326  13.189  0.2713  0.2953 -0.4353
  312TMC3    C4 4744   4.293   2.428  13.219  0.0891 -0.7225 -0.4262
  312TMC3    C5 4745   4.183   2.476  13.295  0.1724  0.3440 -0.0222
  312TMC3    C6 4746   4.056   2.426  13.280 -0.4395  0.4448 -0.4657
  312TMC3     C 4747   4.374   2.230  13.126  0.6748  0.3874 -0.2188
  312TMC3     O 4748   4.335   2.115  13.132 -0.3534 -0.0188 -0.2495
  312TMC3     H 4749   4.139   2.180  13.060  1.0619 -0.7949  0.7910
  312TMC3    H1 4750   4.393   2.468  13.232 -0.1054  0.3589 -2.3376
  312TMC3    H2 4751   3.971   2.450  13.342 -1.2982  0.5886 -1.6949
  312TMC3    C7 4752   4.210   2.586  13.393 -0.5674 -0.1330 -0.5013
  312TMC3    C8 4753   3.917   2.261  13.177  0.1326 -0.4903  0.6425
  312TMC3    O1 4754   4.112   2.655  13.425 -0.0255 -0.1381  0.0497
  312TMC3    O2 4755   3.818   2.335  13.180  0.1499  0.9167 -0.1734
  313MPD2     C 4756   4.244   1.810  11.852  0.0535  0.1928 -0.3840
  313MPD2    C1 4757   4.199   1.892  11.755  1.1200 -0.0402 -0.9821
  313MPD2    C2 4758   4.103   1.841  11.667  0.5324 -0.1505 -0.0253
  313MPD2    C3 4759   4.050   1.716  11.674  0.0954 -0.1649  0.7944
  313MPD2    C4 4760   4.094   1.635  11.778  0.5614  0.0897 -0.0192
  313MPD2    C5 4761   4.194   1.681  11.864  0.2059 -0.5233 -0.2448
  313MPD2     H 4762   4.076   1.898  11.579  0.5126 -1.7034 -1.0254
  313MPD2    H1 4763   4.060   1.532  11.783 -1.1823  0.6825  0.1513
  313MPD2    H2 4764   4.329   1.841  11.912 -0.4985  0.8055  0.0789
  313MPD2    H3 4765   4.231   1.619  11.945  3.7930  2.9620  0.8184
  313MPD2     N 4766   3.980   1.680  11.564 -0.0065 -0.7890 -0.1099
  313MPD2    H5 4767   3.951   1.736  11.484  0.6422  0.5075  0.5676
  313MPD2    N1 4768   4.255   2.018  11.722 -0.2930  0.1503  0.2985
  313MPD2    H7 4769   4.206   2.059  11.644  1.7841 -2.5571 -2.4245
  314TMC3    C1 4770   4.406   2.204  11.719  0.2921  0.2962  0.2934
  314TMC3    C2 4771   4.541   2.239  11.700 -0.6501  0.4458 -0.1429
  314TMC3    C3 4772   4.554   2.346  11.624  0.1133  0.3736 -0.1677
  314TMC3    C4 4773   4.304   2.262  11.646 -0.3859 -0.1854  0.4155
  314TMC3    C5 4774   4.332   2.365  11.557  0.5541 -0.0393 -0.6309
  314TMC3    C6 4775   4.459   2.397  11.534 -0.2879  0.2519  0.7533
  314TMC3     C 4776   4.380   2.066  11.764  0.3584  0.3584 -0.0550
  314TMC3     O 4777   4.472   2.008  11.823  0.6468  1.0167  0.5759
  314TMC3     H 4778   4.618   2.201  11.766 -0.3734 -1.2312 -1.4154
  314TMC3    H1 4779   4.200   2.237  11.668  0.2658 -1.7473  1.7384
  314TMC3    H2 4780   4.467   2.488  11.476 -1.0103  0.7802  1.4900
  314TMC3    C7 4781   4.231   2.395  11.453  0.4987  0.2394  0.1434
  314TMC3    C8 4782   4.677   2.416  11.631 -0.1615 -0.0347  0.0658
  314TMC3    O1 4783   4.120   2.378  11.496  0.1406  0.4892  0.3632
  314TMC3    O2 4784   4.704   2.477  11.530 -0.4829 -0.1057 -0.1939
  315MPD2     C 4785   4.025   0.389  17.413  0.5512 -0.2465 -0.8551
  315MPD2    C1 4786   4.114   0.428  17.513 -0.4725 -0.1424  0.0365
  315MPD2    C2 4787   4.104   0.557  17.557 -0.2366  0.3997 -0.3999
  315MPD2    C3 4788   4.012   0.652  17.510  0.3336  0.0620 -0.6265
  315MPD2    C4 4789   3.929   0.608  17.410  0.3676 -0.5789  0.1515
  315MPD2    C5 4790   3.927   0.479  17.370  0.7884  0.2315 -0.6313
  315MPD2     H 4791   4.179   0.593  17.626  1.2606 -1.9302 -0.8151
  315MPD2    H1 4792   3.855   0.672  17.364 -0.1152 -1.2377  0.0159
  315MPD2    H2 4793   4.021   0.287  17.375 -0.7723 -0.0236 -1.3297
  315MPD2    H3 4794   3.846   0.450  17.303 -1.2315  1.1171  1.4406
  315MPD2     N 4795   4.027   0.786  17.563  0.8663 -0.5160 -0.4937
  315MPD2    H5 4796   4.081   0.802  17.647 -0.2412  0.3891  0.0403
  315MPD2    N1 4797   4.215   0.336  17.560  0.4827  0.6779  0.3446
  315MPD2    H7 4798   4.274   0.377  17.632  1.0772 -0.2441  0.3704
  316TMC3    C1 4799   3.976   1.010  17.606 -0.0438  0.1775  0.5662
  316TMC3    C2 4800   4.073   1.012  17.707 -0.1065  1.0673 -0.5266
  316TMC3    C3 4801   4.097   1.126   0.017  0.0907  0.1327 -0.7366
  316TMC3    C4 4802   3.910   1.124  17.558 -0.4207 -0.1497 -0.4612
  316TMC3    C5 4803   3.925   1.226  17.647  0.1290  0.3706 -0.0344
  316TMC3    C6 4804   4.013   1.230  17.749 -0.1508 -0.2591 -0.3817
  316TMC3     C 4805   3.956   0.894  17.518  0.1523  0.2218 -0.3731
  316TMC3     O 4806   3.886   0.915  17.420 -0.1327 -0.9605 -0.3682
  316TMC3     H 4807   4.139   0.928  17.726 -2.2335 -0.9599 -2.0171
  316TMC3    H1 4808   3.853   1.130  17.466  1.3869 -0.9031 -1.6291
  316TMC3    H2 4809   4.005   1.307   0.075 -0.7875 -0.6937 -0.0087
  316TMC3    C7 4810   3.865   1.354  17.623  0.0449 -0.1069 -0.2741
  316TMC3    C8 4811   4.193   1.158   0.117 -0.4503 -0.3274  0.0723
  316TMC3    O1 4812   3.858   1.428  17.716  0.0406  0.6518 -0.2158
  316TMC3    O2 4813   4.233   1.272   0.121  0.1053 -0.3035  0.3628
  317MPD2     C 4814   1.660   4.336  12.967 -0.7505 -0.2307  0.3043
  317MPD2    C1 4815   1.732   4.237  12.911  0.3394 -0.1303 -0.0383
  317MPD2    C2 4816   1.759   4.117  12.981  0.0296 -0.1556 -0.3769
  317MPD2    C3 4817   1.713   4.103  13.113 -0.2195 -0.1274 -0.6371
  317MPD2    C4 4818   1.633   4.210  13.170 -0.2028 -0.8556  0.2202
  317MPD2    C5 4819   1.617   4.322  13.094 -0.1293  0.7402 -0.3275
  317MPD2     H 4820   1.808   4.035  12.929  0.2259 -0.5691  0.4562
  317MPD2    H1 4821   1.596   4.217  13.272 -1.9773 -1.2434 -0.4010
  317MPD2    H2 4822   1.645   4.433  12.922  0.3949 -0.7243 -1.1442
  317MPD2    H3 4823   1.562   4.406  13.134 -1.1965  0.7794 -1.8853
  317MPD2     N 4824   1.728   3.982  13.179  0.1286  0.5629 -0.3488
  317MPD2    H5 4825   1.783   3.911  13.132 -2.0204 -2.1655  1.2543
  317MPD2    N1 4826   1.824   4.258  12.802 -0.2400 -0.5218  0.2402
  317MPD2    H7 4827   1.885   4.182  12.775 -0.9488 -0.4886 -1.4711
  318TMC3    C1 4828   1.698   3.806  13.321 -0.6077  1.0542  0.1772
  318TMC3    C2 4829   1.588   3.743  13.367 -0.0016 -0.2305 -0.2558
  318TMC3    C3 4830   1.607   3.647  13.461  0.0730 -0.5590  0.5473
  318TMC3    C4 4831   1.829   3.768  13.349 -0.1923 -0.4897  0.2031
  318TMC3    C5 4832   1.844   3.666  13.439  0.3610 -0.2279 -0.4814
  318TMC3    C6 4833   1.737   3.610  13.494  0.7213  1.0716 -0.2651
  318TMC3     C 4834   1.668   3.945  13.293 -0.4639  0.1501 -0.2879
  318TMC3     O 4835   1.581   3.999  13.361  0.2262  0.6757  0.3553
  318TMC3     H 4836   1.489   3.787  13.359 -0.7601 -1.5873  1.5828
  318TMC3    H1 4837   1.910   3.838  13.331  0.2298 -1.2499 -0.8246
  318TMC3    H2 4838   1.759   3.536  13.570 -0.3352  0.9905 -0.0449
  318TMC3    C7 4839   1.957   3.692  13.531 -0.1731  0.8458  0.1554
  318TMC3    C8 4840   1.498   3.554  13.496  0.3278  0.3341  0.1766
  318TMC3    O1 4841   1.997   3.809  13.530 -0.5997  0.2213 -0.1582
  318TMC3    O2 4842   1.516   3.484  13.596 -0.1074 -0.6851  0.2193
  319MPD2     C 4843   2.297   0.616  17.068 -1.0217  0.4491 -0.2837
  319MPD2    C1 4844   2.317   0.609  16.934 -0.1240  0.0869 -0.6063
  319MPD2    C2 4845   2.212   0.626  16.841 -0.0701  0.1245 -0.0024
  319MPD2    C3 4846   2.082   0.624  16.887 -0.5180 -0.4912 -0.0428
  319MPD2    C4 4847   2.062   0.612  17.020 -0.3788  1.0646 -0.3446
  319MPD2    C5 4848   2.167   0.609  17.100 -0.4710 -0.3139  0.1010
  319MPD2     H 4849   2.232   0.620  16.735  0.5971 -0.4026  0.1561
  319MPD2    H1 4850   1.963   0.604  17.065  0.2783  1.0998  1.0967
  319MPD2    H2 4851   2.374   0.612  17.143  1.2736  0.4392 -2.6397
  319MPD2    H3 4852   2.149   0.596  17.206 -1.5700 -3.5176 -0.4558
  319MPD2     N 4853   1.975   0.616  16.804  0.4143 -0.0776 -0.1212
  319MPD2    H5 4854   1.886   0.598  16.849 -0.7714 -2.3912 -3.4364
  319MPD2    N1 4855   2.447   0.592  16.883  0.4468  0.6175  0.6771
  319MPD2    H7 4856   2.465   0.563  16.787 -0.8772 -0.7049  0.8261
  320TMC3    C1 4857   1.830   0.647  16.618 -0.9553 -0.0276  0.1847
  320TMC3    C2 4858   1.793   0.749  16.533 -0.2326  0.4912 -0.3618
  320TMC3    C3 4859   1.701   0.719  16.437 -0.8214  1.3643 -0.3356
  320TMC3    C4 4860   1.786   0.524  16.622 -0.0032  0.1749 -0.0482
  320TMC3    C5 4861   1.686   0.503  16.528  0.0571  0.0152 -0.1770
  320TMC3    C6 4862   1.639   0.599  16.439 -0.1143 -0.3912 -0.0529
  320TMC3     C 4863   1.964   0.671  16.674 -1.2830 -0.2645  0.1055
  320TMC3     O 4864   2.055   0.722  16.603  0.4334  0.0457  0.2738
  320TMC3     H 4865   1.845   0.844  16.523  1.1988 -0.1100  1.2680
  320TMC3    H1 4866   1.841   0.445  16.673 -0.3572 -0.4710 -0.6684
  320TMC3    H2 4867   1.554   0.578  16.374 -1.1846  0.4448  1.0712
  320TMC3    C7 4868   1.632   0.374  16.494 -0.4094  0.6041 -0.1883
  320TMC3    C8 4869   1.674   0.808  16.319 -0.1600  0.0481  0.1953
  320TMC3    O1 4870   1.579   0.353  16.385  0.3382  0.0600  0.6418
  320TMC3    O2 4871   1.705   0.924  16.322  0.0669  0.0081  0.7118
  321TMC3    C1 4872   2.679   0.528  16.879  0.5444  0.1769 -0.4529
  321TMC3    C2 4873   2.647   0.422  16.795  0.4706 -0.2711 -0.8859
  321TMC3    C3 4874   2.745   0.328  16.782 -0.7067  0.0542  0.5818
  321TMC3    C4 4875   2.807   0.537  16.939 -0.3474  0.3142  0.2526
  321TMC3    C5 4876   2.899   0.441  16.919  0.0522  0.0485 -0.2457
  321TMC3    C6 4877   2.865   0.334  16.843  0.0932  0.1960 -0.4724
  321TMC3     C 4878   2.568   0.588  16.952  0.1540 -0.0710 -0.7658
  321TMC3     O 4879   2.594   0.627  17.066  0.0548 -0.3910 -0.3373
  321TMC3     H 4880   2.546   0.408  16.758 -0.2876  2.2260  0.2516
  321TMC3    H1 4881   2.824   0.611  17.016  0.8077  1.0808 -0.7385
  321TMC3    H2 4882   2.929   0.253  16.812 -0.1200  0.9292 -2.8727
  321TMC3    C7 4883   2.964   0.394  17.039 -0.2244 -0.1864  0.2697
  321TMC3    C8 4884   2.687   0.197  16.800  0.1520  0.3393 -0.4816
  321TMC3    O1 4885   2.934   0.435  17.150  0.5472 -0.0794  0.4213
  321TMC3    O2 4886   2.578   0.178  16.755 -0.1870  0.1383 -0.1563
  322MPD2     C 4887   0.748   1.750  13.371 -0.3002  0.2816 -0.1330
  322MPD2    C1 4888   0.889   1.755  13.371 -0.4034  0.1493 -0.5185
  322MPD2    C2 4889   0.961   1.640  13.353  0.3629 -0.3752 -0.2657
  322MPD2    C3 4890   0.892   1.519  13.309  0.2038 -0.0828  0.1955
  322MPD2    C4 4891   0.754   1.522  13.297 -0.2009 -0.0091 -0.3638
  322MPD2    C5 4892   0.686   1.640  13.335 -0.2438 -0.9269 -0.3414
  322MPD2     H 4893   1.068   1.642  13.371  0.4997 -0.2498 -1.1089
  322MPD2    H1 4894   0.690   1.444  13.258 -0.9740  0.8333 -0.8030
  322MPD2    H2 4895   0.677   1.823  13.408 -0.2884 -1.1287  2.6976
  322MPD2    H3 4896   0.577   1.636  13.333 -0.4282  4.0262 -1.2298
  322MPD2     N 4897   0.971   1.405  13.295 -0.7837 -0.1254 -0.3460
  322MPD2    H5 4898   1.072   1.415  13.292 -1.0706  3.1188  1.7012
  322MPD2    N1 4899   0.950   1.873  13.416  0.3013 -0.4905 -0.3911
  322MPD2    H7 4900   0.893   1.937  13.470  1.3043  1.1940 -1.3163
  323TMC3    C1 4901   1.109   2.010  13.489  0.2694  0.1950  0.6101
  323TMC3    C2 4902   1.224   2.072  13.467  0.2015 -0.5600 -0.4196
  323TMC3    C3 4903   1.257   2.180  13.547  1.2052 -0.3382 -0.2219
  323TMC3    C4 4904   1.032   2.050  13.598  0.5736  0.2114 -1.2581
  323TMC3    C5 4905   1.073   2.154  13.678  0.4143  0.0052  0.2029
  323TMC3    C6 4906   1.178   2.222  13.650  0.0355 -0.2849  0.2522
  323TMC3     C 4907   1.081   1.892  13.411  0.2142 -0.2472  0.2589
  323TMC3     O 4908   1.163   1.839  13.340 -0.3940 -0.2394  0.3037
  323TMC3     H 4909   1.290   2.042  13.387 -1.2470  2.2410 -2.6555
  323TMC3    H1 4910   0.950   1.988  13.634  0.4534  0.6418 -0.7813
  323TMC3    H2 4911   1.212   2.309  13.705 -3.5364  0.2904  1.5164
  323TMC3    C7 4912   1.034   2.128  13.816 -0.7956  0.2233 -0.1262
  323TMC3    C8 4913   1.391   2.243  13.540 -0.4350 -0.4337  0.2228
  323TMC3    O1 4914   0.984   2.021  13.846 -0.0512  0.0295  0.1041
  323TMC3    O2 4915   1.437   2.301  13.638 -0.5912  0.0652  0.2964
  324MPD2     C 4916   2.600   2.720  14.392 -0.3359 -0.0137  0.1798
  324MPD2    C1 4917   2.563   2.818  14.479 -0.0056 -0.6406  0.5109
  324MPD2    C2 4918   2.429   2.865  14.481  0.1724 -0.1932  0.5863
  324MPD2    C3 4919   2.329   2.819  14.396 -0.1081 -0.2924  0.2404
  324MPD2    C4 4920   2.374   2.712  14.314  0.3254  0.0385 -0.6159
  324MPD2    C5 4921   2.502   2.664  14.313  0.6128  0.0458  0.4079
  324MPD2     H 4922   2.415   2.957  14.536  1.2747  0.7052 -0.6274
  324MPD2    H1 4923   2.295   2.665  14.256  0.5787 -2.3276  0.9308
  324MPD2    H2 4924   2.698   2.678  14.374  0.4508  1.5568  0.8079
  324MPD2    H3 4925   2.521   2.579  14.249 -0.0138  0.6889 -0.6407
  324MPD2     N 4926   2.204   2.877  14.384 -0.0012  0.2788 -0.4157
  324MPD2    H5 4927   2.149   2.834  14.311  0.4469 -1.2450  0.1501
  324MPD2    N1 4928   2.654   2.873  14.568  0.5288 -1.2888  0.5514
  324MPD2    H7 4929   2.618   2.925  14.648 -1.7032  0.0401 -1.3326
  325TMC3    C1 4930   2.026   3.046  14.414 -0.5270  0.1024  0.7623
  325TMC3    C2 4931   1.946   2.959  14.340  0.9094 -0.3838  0.0514
  325TMC3    C3 4932   1.826   3.011  14.304 -0.1713  0.3793  0.0758
  325TMC3    C4 4933   1.990   3.169  14.457  0.3365 -0.8861  0.3252
  325TMC3    C5 4934   1.867   3.207  14.411  0.2942  0.6408  0.1520
  325TMC3    C6 4935   1.783   3.137  14.332 -0.6262  0.3004 -0.0660
  325TMC3     C 4936   2.159   2.993  14.446 -0.3385  0.2551 -0.0790
  325TMC3     O 4937   2.227   3.062  14.521 -0.1960 -0.2185 -0.9050
  325TMC3     H 4938   1.981   2.868  14.293  3.4268  0.2219  0.7440
  325TMC3    H1 4939   2.067   3.225  14.509  0.1851 -0.5395  0.1764
  325TMC3    H2 4940   1.681   3.164  14.309 -0.3447  1.5178  0.1182
  325TMC3    C7 4941   1.823   3.337  14.468 -0.1422 -0.1171 -0.8606
  325TMC3    C8 4942   1.755   2.934  14.204 -1.0146 -0.2532 -0.1434
  325TMC3    O1 4943   1.906   3.392  14.540  0.0458 -0.7332 -0.5179
  325TMC3    O2 4944   1.812   2.844  14.146 -0.0392  0.0345 -0.3712
  326MPD2     C 4945   0.271   4.536  10.832 -0.1098  0.5831  0.8613
  326MPD2    C1 4946   0.202   4.584  10.725  0.0942 -0.2422 -0.4998
  326MPD2    C2 4947   0.265   4.668  10.628 -0.3296  0.3343 -0.1476
  326MPD2    C3 4948   0.403   4.692  10.637  0.0729 -0.2158 -0.1905
  326MPD2    C4 4949   0.473   4.633  10.739 -0.1530  0.4396  0.2748
  326MPD2    C5 4950   0.407   4.549  10.825 -0.4951  0.0915 -0.2627
  326MPD2     H 4951   0.204   4.718  10.553 -1.6651  2.6311  2.4992
  326MPD2    H1 4952   0.579   4.658  10.747 -0.4392  1.1802  1.6937
  326MPD2    H2 4953   0.226   4.483  10.915 -0.9635 -0.4716 -0.2724
  326MPD2    H3 4954   0.464   4.504  10.905  0.4815  0.4057 -0.7807
  326MPD2     N 4955   0.475   0.027  10.538 -0.0819  0.1072 -0.4365
  326MPD2    H5 4956   0.576   0.038  10.540 -0.0903  0.6050 -2.6324
  326MPD2    N1 4957   0.067   4.556  10.715 -0.6448 -0.4181  0.6525
  326MPD2    H7 4958   0.013   4.602  10.641  1.3513  1.9997  0.7049
  327TMC3    C1 4959   4.595   4.445  10.770 -0.7216 -0.5108 -0.0833
  327TMC3    C2 4960   4.522   4.549  10.716  0.6459 -0.1444  0.8949
  327TMC3    C3 4961   4.381   4.529  10.696 -0.2853  0.1957  0.0282
  327TMC3    C4 4962   4.539   4.320  10.799 -0.4666 -0.8305 -0.4155
  327TMC3    C5 4963   4.398   4.304  10.779 -0.7487  0.3963 -0.6631
  327TMC3    C6 4964   4.316   4.407  10.733 -0.6471  0.1507  0.5166
  327TMC3     C 4965   0.003   4.451  10.781  0.2710 -0.0246  0.1840
  327TMC3     O 4966   0.058   4.357  10.837 -0.6226  0.1579 -0.2184
  327TMC3     H 4967   4.568   4.646  10.728  0.9513 -0.1826 -0.0285
  327TMC3    H1 4968   4.609   4.237  10.806  0.0867 -0.3496 -0.1800
  327TMC3    H2 4969   4.208   4.408  10.744 -0.8635 -0.8155 -1.4439
  327TMC3    C7 4970   4.331   4.196  10.845  0.1907  0.0957  0.3647
  327TMC3    C8 4971   4.311   4.659  10.691  0.0020 -0.0093 -0.0157
  327TMC3    O1 4972   4.234   4.139  10.803  0.2183 -0.1702 -0.2405
  327TMC3    O2 4973   4.372   0.020  10.730  0.2021 -0.1364  0.1173
  328MPD2     C 4974   1.600   3.967  17.318  0.1876  0.1829  0.0719
  328MPD2    C1 4975   1.516   3.927  17.213  0.8835 -0.1762  0.2489
  328MPD2    C2 4976   1.503   4.005  17.106  0.0629 -0.3203  0.2529
  328MPD2    C3 4977   1.554   4.129  17.101  0.5415  0.2216 -0.0594
  328MPD2    C4 4978   1.634   4.175  17.208  0.1973 -0.5934 -0.9014
  328MPD2    C5 4979   1.665   4.089  17.311 -1.1981  0.5762  0.3700
  328MPD2     H 4980   1.436   3.968  17.030  0.1253  1.4667 -0.6727
  328MPD2    H1 4981   1.684   4.271  17.204 -0.1765 -0.2621  2.2649
  328MPD2    H2 4982   1.603   3.898  17.401 -0.0721 -0.0995 -0.1530
  328MPD2    H3 4983   1.731   4.105  17.396  1.2585 -0.1892 -1.3831
  328MPD2     N 4984   1.528   4.220  16.991  0.0188 -0.0599  0.0665
  328MPD2    H5 4985   1.558   4.317  16.999  0.4856 -0.3157  1.3204
  328MPD2    N1 4986   1.438   3.815  17.231  0.0782  0.1293  0.4303
  328MPD2    H7 4987   1.428   3.772  17.322  0.2494 -2.0731 -0.5799
  329TMC3    C1 4988   1.262   3.663  17.182  0.9226 -0.5497 -0.4371
  329TMC3    C2 4989   1.160   3.731  17.253  0.0947  0.3632  0.3185
  329TMC3    C3 4990   1.028   3.692  17.239 -0.6928  0.7421  0.3205
  329TMC3    C4 4991   1.227   3.567  17.085 -0.3005  0.6767  0.0780
  329TMC3    C5 4992   1.089   3.552  17.063  0.1132 -0.3062  0.4322
  329TMC3    C6 4993   0.990   3.604  17.144 -0.2042 -0.2295 -0.1645
  329TMC3     C 4994   1.366   3.744  17.133  0.1774 -0.0184  0.1840
  329TMC3     O 4995   1.374   3.748  17.008  0.3581 -0.3420 -0.4638
  329TMC3     H 4996   1.190   3.807  17.324 -0.1192  0.2679  0.5103
  329TMC3    H1 4997   1.311   3.512  17.044  0.3596  0.9860  1.0302
  329TMC3    H2 4998   0.885   3.606  17.118 -0.1530  0.0617 -0.3604
  329TMC3    C7 4999   1.064   3.503  16.931  0.3609  0.6269 -0.4919
  329TMC3    C8 5000   0.933   3.801  17.262 -0.4484 -0.4555  0.0197
  329TMC3    O1 5001   1.167   3.484  16.865 -0.3505  0.2167  0.0153
  329TMC3    O2 5002   0.847   3.816  17.179 -0.0622 -0.0833  0.1839
  330TMC3    C1 5003   4.435   3.810   9.824  0.3502  0.3738  0.8764
  330TMC3    C2 5004   4.358   3.736   9.740 -0.3031 -0.7621 -0.6868
  330TMC3    C3 5005   4.366   3.599   9.761  0.3890 -0.5008  0.3200
  330TMC3    C4 5006   4.525   3.748   9.911  0.0991  0.6845  0.0517
  330TMC3    C5 5007   4.536   3.613   9.918  0.7937 -0.3794  0.4759
  330TMC3    C6 5008   4.447   3.533   9.848 -0.1698 -0.1856  0.1318
  330TMC3     C 5009   4.467   3.951   9.794  0.3882  0.1469 -0.0430
  330TMC3     O 5010   4.558   4.000   9.857 -0.3540  0.1729 -0.1246
  330TMC3     H 5011   4.299   3.784   9.663 -1.4786  0.3612  0.9099
  330TMC3    H1 5012   4.595   3.801   9.975 -0.8106  1.2272  0.6032
  330TMC3    H2 5013   4.441   3.425   9.848  0.7164 -0.2389  0.3578
  330TMC3    C7 5014   4.637   3.560  10.006  0.1601  0.5548  0.3667
  330TMC3    C8 5015   4.260   3.532   9.700  0.1567  0.2280 -0.1779
  330TMC3    O1 5016   4.724   3.637  10.048  0.1566  0.3469  0.4406
  330TMC3    O2 5017   4.205   3.574   9.597 -0.1247 -0.5505  0.0668
  331MPD2     C 5018   1.967   2.347  12.512 -0.1084 -0.0768  0.1249
  331MPD2    C1 5019   2.086   2.291  12.462  0.6369  0.0445 -0.0852
  331MPD2    C2 5020   2.107   2.158  12.499  0.5733 -0.4019 -0.1087
  331MPD2    C3 5021   2.019   2.081  12.565 -0.8715 -0.5621 -0.1126
  331MPD2    C4 5022   1.904   2.140  12.620  0.4687 -1.2891 -0.1270
  331MPD2    C5 5023   1.883   2.272  12.595 -0.0595 -0.0981 -0.2754
  331MPD2     H 5024   2.201   2.109  12.476  1.2459  1.2474 -0.8509
  331MPD2    H1 5025   1.825   2.081  12.665 -0.0876  0.7018  1.5083
  331MPD2    H2 5026   1.930   2.443  12.479 -1.2583 -1.0014 -1.2762
  331MPD2    H3 5027   1.791   2.316  12.630  1.4287  1.8196  1.2125
  331MPD2     N 5028   2.049   1.950  12.594 -0.0375 -0.0769  0.1151
  331MPD2    H5 5029   2.133   1.907  12.557 -0.4014  1.1054 -2.0727
  331MPD2    N1 5030   2.180   2.362  12.381 -0.1406  0.0533  0.2591
  331MPD2    H7 5031   2.173   2.462  12.364 -1.0290 -0.2426 -1.1139
  332TMC3    C1 5032   2.052   1.740  12.685 -0.5244 -0.6579  0.0788
  332TMC3    C2 5033   2.147   1.726  12.589  0.0403  0.2370 -0.4510
  332TMC3    C3 5034   2.263   1.657  12.615  0.2670  0.8515  0.6675
  332TMC3    C4 5035   2.079   1.698  12.815  0.6313  0.0069  0.1419
  332TMC3    C5 5036   2.204   1.651  12.840  0.6491 -0.3356  0.2832
  332TMC3    C6 5037   2.299   1.628  12.747 -0.0644  0.4840 -0.4111
  332TMC3     C 5038   1.979   1.864  12.676  1.2924 -0.0505 -0.2283
  332TMC3     O 5039   1.873   1.877  12.737  0.1841 -0.1084  0.4210
  332TMC3     H 5040   2.143   1.748  12.483 -1.0433 -0.6172 -0.5794
  332TMC3    H1 5041   2.002   1.719  12.890 -0.9832  0.5371 -1.6662
  332TMC3    H2 5042   2.399   1.589  12.763 -0.0329  0.4865 -0.5920
  332TMC3    C7 5043   2.246   1.676  12.977  0.5405  0.1755  0.7273
  332TMC3    C8 5044   2.360   1.619  12.513 -0.3899  0.1046  0.0514
  332TMC3    O1 5045   2.157   1.669  13.063 -0.9974 -0.2642 -0.6593
  332TMC3    O2 5046   2.352   1.686  12.412 -0.0322  0.1580  0.1799
  333MPD2     C 5047   2.592   2.680  11.414  0.4178  0.3862 -0.5789
  333MPD2    C1 5048   2.698   2.598  11.435  0.0746 -0.0270 -0.0607
  333MPD2    C2 5049   2.676   2.476  11.491  0.2525 -0.4592 -0.4132
  333MPD2    C3 5050   2.552   2.434  11.534 -0.7736  0.7799 -0.5117
  333MPD2    C4 5051   2.445   2.520  11.507  0.3090  0.1928  0.2375
  333MPD2    C5 5052   2.467   2.636  11.449 -0.1678 -0.2738  0.2514
  333MPD2     H 5053   2.761   2.414  11.518 -0.2160 -1.3987 -1.0920
  333MPD2    H1 5054   2.343   2.491  11.529 -0.3630  0.5270 -2.4424
  333MPD2    H2 5055   2.617   2.768  11.356 -0.0207  0.0326 -1.3115
  333MPD2    H3 5056   2.385   2.702  11.425 -1.0380 -1.8000 -0.9852
  333MPD2     N 5057   2.543   2.305  11.591  0.3914 -0.2500 -0.5073
  333MPD2    H5 5058   2.622   2.242  11.577  1.6945  1.3175 -0.1987
  333MPD2    N1 5059   2.827   2.645  11.387  0.2242  0.4525  0.2422
  333MPD2    H7 5060   2.827   2.738  11.347 -0.5289 -1.0127 -3.1720
  334TMC3    C1 5061   3.061   2.647  11.343  1.2972  0.0253  0.3361
  334TMC3    C2 5062   3.184   2.598  11.365  0.1746 -0.4138 -0.2364
  334TMC3    C3 5063   3.286   2.669  11.306 -0.6229  0.0761  0.3901
  334TMC3    C4 5064   3.040   2.754  11.260 -0.2543  0.2905 -0.2309
  334TMC3    C5 5065   3.149   2.803  11.189 -0.4010 -0.2442  0.7380
  334TMC3    C6 5066   3.280   2.773  11.216 -0.2127  0.1293  0.1142
  334TMC3     C 5067   2.947   2.578  11.395  0.4951 -0.3242 -0.7287
  334TMC3     O 5068   2.975   2.476  11.461 -0.3774  0.1885  0.9223
  334TMC3     H 5069   3.209   2.510  11.424  0.1504  0.5216  1.1643
  334TMC3    H1 5070   2.950   2.815  11.253  2.2556  4.0734  0.2605
  334TMC3    H2 5071   3.359   2.826  11.164 -1.3960 -0.9522 -2.7847
  334TMC3    C7 5072   3.128   2.907  11.086 -0.2362 -0.8006 -0.8650
  334TMC3    C8 5073   3.419   2.621  11.348 -0.4394 -0.1390  0.6685
  334TMC3    O1 5074   3.224   2.942  11.025  0.0688  0.2945 -0.3719
  334TMC3    O2 5075   3.428   2.547  11.446 -0.2145 -0.5868  0.4539
  335TMC3    C1 5076   2.739   3.624  17.670 -0.0376  1.0081 -0.2962
  335TMC3    C2 5077   2.611   3.640  17.624  0.2124 -0.1636 -0.5510
  335TMC3    C3 5078   2.588   3.748  17.542 -0.1253 -0.3836  0.9026
  335TMC3    C4 5079   2.844   3.707  17.636  0.5112 -0.3296 -0.2272
  335TMC3    C5 5080   2.814   3.818  17.562 -0.5432 -0.3824 -0.1165
  335TMC3    C6 5081   2.687   3.838  17.515  0.1051 -0.4282  0.8179
  335TMC3     C 5082   2.762   3.507  17.745  0.1587 -0.0544  0.5173
  335TMC3     O 5083   2.702   3.405  17.711 -0.2525 -0.6931  0.6569
  335TMC3     H 5084   2.531   3.574  17.656  0.6743 -0.0864  0.7921
  335TMC3    H1 5085   2.945   3.679  17.663  0.4643 -0.1685  0.1151
  335TMC3    H2 5086   2.671   3.925  17.452  1.4730 -0.7761 -0.0344
  335TMC3    C7 5087   2.915   3.896  17.488  0.4283 -0.4792  0.4838
  335TMC3    C8 5088   2.460   3.796  17.522  0.2333  0.0357 -0.4409
  335TMC3    O1 5089   2.892   3.921  17.372 -0.3373 -0.0789  0.5563
  335TMC3    O2 5090   2.449   3.921  17.527 -0.2657  0.0351 -0.0197
  336MPD2     C 5091   1.990   2.248  16.314  0.4914  0.4121 -0.0259
  336MPD2    C1 5092   1.958   2.220  16.186  0.1346  0.5908 -0.9909
  336MPD2    C2 5093   1.973   2.092  16.128  0.3383 -0.6888 -1.2634
  336MPD2    C3 5094   2.031   1.986  16.208  0.3675  0.2298 -0.7019
  336MPD2    C4 5095   2.061   2.015  16.344  0.4497 -0.4257  0.1416
  336MPD2    C5 5096   2.032   2.142  16.393  0.1473  0.1547  0.1738
  336MPD2     H 5097   1.944   2.073  16.026  0.1330  0.3097 -1.3943
  336MPD2    H1 5098   2.108   1.938  16.405 -0.7591 -1.2150  0.0971
  336MPD2    H2 5099   1.972   2.348  16.351 -1.8411  0.0109 -0.1014
  336MPD2    H3 5100   2.057   2.160  16.497 -1.6511 -0.2846  0.6749
  336MPD2     N 5101   2.062   1.855  16.154  0.4850 -0.2610  0.0319
  336MPD2    H5 5102   2.092   1.794  16.230 -1.4214 -0.0097  0.9856
  336MPD2    N1 5103   1.921   2.316  16.093 -0.3042 -0.0330  0.1774
  336MPD2    H7 5104   1.894   2.287  15.999  1.2403  1.7964 -0.8225
  337TMC3    C1 5105   1.856   2.518  16.008  0.0983  0.0625 -0.5126
  337TMC3    C2 5106   1.750   2.461  15.954 -0.0439 -0.3806 -0.4118
  337TMC3    C3 5107   1.694   2.534  15.856  0.3499 -0.3943 -0.2356
  337TMC3    C4 5108   1.898   2.653  15.984  0.1747 -0.0132 -0.7531
  337TMC3    C5 5109   1.849   2.716  15.869 -0.0919 -0.0184 -0.1756
  337TMC3    C6 5110   1.737   2.657  15.813 -0.0931 -0.3394  0.6875
  337TMC3     C 5111   1.924   2.451  16.119  0.3285  0.0676  0.2561
  337TMC3     O 5112   1.957   2.522  16.211  0.3436  0.7181  0.2548
  337TMC3     H 5113   1.714   2.362  15.978 -1.2454  0.4334  1.1742
  337TMC3    H1 5114   1.998   2.679  16.017  0.0028 -0.9819  0.5448
  337TMC3    H2 5115   1.676   2.720  15.750  2.3520 -0.0774 -1.4355
  337TMC3    C7 5116   1.865   2.858  15.861 -0.8445  0.5474  0.5294
  337TMC3    C8 5117   1.558   2.496  15.824  0.2275 -0.1190  0.0987
  337TMC3    O1 5118   1.770   2.921  15.813  0.6216  0.8844 -0.1289
  337TMC3    O2 5119   1.495   2.463  15.928 -0.0972  0.3884  0.5038
  338MPD2     C 5120   2.131   0.793   0.757 -0.3469 -0.9930 -0.2388
  338MPD2    C1 5121   2.116   0.864   0.646 -0.0630  0.3523 -0.5511
  338MPD2    C2 5122   2.055   0.984   0.667  0.3156  0.0658 -0.4042
  338MPD2    C3 5123   2.002   1.028   0.791  0.0399 -0.5504  0.3098
  338MPD2    C4 5124   2.004   0.944   0.896 -0.9679  0.4063  0.6567
  338MPD2    C5 5125   2.063   0.828   0.870 -0.1930  0.2349  0.1558
  338MPD2     H 5126   2.042   1.056   0.587  1.1315  0.8704  0.1886
  338MPD2    H1 5127   1.960   0.957   0.995 -0.6750  1.6767  0.6279
  338MPD2    H2 5128   2.180   0.697   0.746  1.7979 -0.1444  1.9170
  338MPD2    H3 5129   2.061   0.758   0.953 -0.4129  0.7150  0.5521
  338MPD2     N 5130   1.952   1.157   0.796 -0.4287 -0.8135  0.3846
  338MPD2    H5 5131   1.985   1.202   0.712 -0.5901  1.0660  1.3160
  338MPD2    N1 5132   2.156   0.825   0.516 -0.0024 -0.3638  0.1782
  338MPD2    H7 5133   2.121   0.889   0.445  1.6986  1.0473  0.5897
  339TMC3    C1 5134   1.830   1.350   0.854  0.2055  0.4988 -0.3799
  339TMC3    C2 5135   1.804   1.443   0.948  0.0581  0.4485 -0.4277
  339TMC3    C3 5136   1.745   1.565   0.911  0.2412 -0.1763 -0.2542
  339TMC3    C4 5137   1.799   1.360   0.718 -0.0420  0.3689  0.2431
  339TMC3    C5 5138   1.765   1.490   0.686 -1.1151 -0.4667  0.1605
  339TMC3    C6 5139   1.740   1.590   0.777  0.4664  0.1169  1.0483
  339TMC3     C 5140   1.891   1.225   0.898 -0.3668 -0.5918 -0.0074
  339TMC3     O 5141   1.841   1.166   0.998  0.3557 -0.5139  0.4828
  339TMC3     H 5142   1.827   1.414   1.050  0.2478  0.8009 -0.3707
  339TMC3    H1 5143   1.793   1.282   0.644  0.6453  1.4667 -0.9822
  339TMC3    H2 5144   1.693   1.684   0.749  1.0275 -0.1663 -0.8615
  339TMC3    C7 5145   1.719   1.515   0.549 -0.5152  0.2103 -0.2514
  339TMC3    C8 5146   1.716   1.664   1.011 -0.1488  0.2107  0.2532
  339TMC3    O1 5147   1.733   1.624   0.494  0.2902  0.8436 -0.3144
  339TMC3    O2 5148   1.712   1.781   0.967 -0.1366 -0.3106 -0.3858
  340MPD2     C 5149   2.622   3.927  10.140 -0.1282  0.0971 -0.0475
  340MPD2    C1 5150   2.505   3.934  10.207 -0.2500 -0.1189 -0.2405
  340MPD2    C2 5151   2.493   3.986  10.335 -0.5649 -0.4817 -0.2880
  340MPD2    C3 5152   2.618   4.025  10.393 -1.0814 -0.6783  0.1809
  340MPD2    C4 5153   2.727   4.036  10.319  0.2583  0.3099  0.4555
  340MPD2    C5 5154   2.732   3.985  10.192  0.2287  0.2381 -0.2853
  340MPD2     H 5155   2.400   3.992  10.392 -1.1690 -0.2252 -1.2984
  340MPD2    H1 5156   2.820   4.078  10.357  1.2068 -0.9103 -0.5332
  340MPD2    H2 5157   2.615   3.882  10.042 -0.7808  0.1644 -0.0352
  340MPD2    H3 5158   2.826   3.982  10.138  0.4385 -0.2970  0.1136
  340MPD2     N 5159   2.631   4.067  10.528 -0.3604  0.8450 -0.6815
  340MPD2    H5 5160   2.726   4.082  10.560  0.4456 -1.1144 -2.1016
  340MPD2    N1 5161   2.390   3.871  10.142  0.2019  0.6926 -0.0933
  340MPD2    H7 5162   2.408   3.813  10.060 -0.4145 -0.7928  0.8143
  341TMC3    C1 5163   2.188   3.772  10.140  0.6584  0.4185  0.5286
  341TMC3    C2 5164   2.093   3.729  10.231 -0.9074  0.1051 -0.4535
  341TMC3    C3 5165   2.042   3.606  10.233 -0.1793 -0.6695 -0.2146
  341TMC3    C4 5166   2.230   3.697  10.033  0.4256 -0.2584  0.2075
  341TMC3    C5 5167   2.187   3.566  10.044  0.3767  0.9922  0.3127
  341TMC3    C6 5168   2.100   3.518  10.140 -0.5813 -0.3977 -0.3245
  341TMC3     C 5169   2.262   3.883  10.189  0.2893 -0.4810  0.2503
  341TMC3     O 5170   2.223   3.962  10.272 -0.1408 -0.1495  0.2221
  341TMC3     H 5171   2.081   3.796  10.315 -0.3649  1.1049 -1.1721
  341TMC3    H1 5172   2.299   3.728   9.955  0.9457 -0.1645  0.7122
  341TMC3    H2 5173   2.099   3.411  10.158  1.1350 -0.7750 -2.5890
  341TMC3    C7 5174   2.227   3.474   9.943  0.2517 -0.7530  0.4939
  341TMC3    C8 5175   1.990   3.553  10.355  0.4832 -0.1354  0.8114
  341TMC3    O1 5176   2.338   3.501   9.889 -0.1589  0.2742  1.1566
  341TMC3    O2 5177   2.015   3.441  10.400 -0.1953  0.2160 -0.2893
  342MPD2     C 5178   0.286   2.207   0.160  0.0438 -0.6292  0.1467
  342MPD2    C1 5179   0.350   2.222   0.037 -0.0321  0.0475 -0.6513
  342MPD2    C2 5180   0.369   2.347  17.734  0.2765 -0.0888  0.1519
  342MPD2    C3 5181   0.293   2.449   0.040  0.3134 -0.2115  0.7140
  342MPD2    C4 5182   0.228   2.435   0.154  0.3408 -0.2994 -0.1753
  342MPD2    C5 5183   0.231   2.314   0.222  0.3013  0.1690 -0.1766
  342MPD2     H 5184   0.436   2.357  17.649  0.2861 -2.7510 -0.1622
  342MPD2    H1 5185   0.173   2.513   0.206 -0.5036 -2.5860  2.3886
  342MPD2    H2 5186   0.287   2.115   0.218  1.1342 -1.1804 -0.7411
  342MPD2    H3 5187   0.187   2.314   0.321 -0.8160  0.7466 -0.6735
  342MPD2     N 5188   0.312   2.589  17.737  0.4225  0.4501  0.1219
  342MPD2    H5 5189   0.277   2.664   0.045 -1.4209  0.0685 -0.4892
  342MPD2    N1 5190   0.402   2.115  17.715 -0.0266  0.2086  0.4933
  342MPD2    H7 5191   0.443   2.146  17.627  0.5059  1.4819  1.2005
  343TMC3    C1 5192   0.439   1.910  17.625  0.6760 -0.1658 -0.0989
  343TMC3    C2 5193   0.553   1.945  17.556  0.5219 -0.7918  0.9076
  343TMC3    C3 5194   0.570   1.882  17.433  0.1890 -0.1155 -0.1177
  343TMC3    C4 5195   0.357   1.809  17.582 -0.0643  0.3401  0.1876
  343TMC3    C5 5196   0.392   1.740  17.470 -1.0835  0.0174 -0.8878
  343TMC3    C6 5197   0.486   1.787  17.379  0.3419 -0.0161 -0.0067
  343TMC3     C 5198   0.401   1.983  17.740  0.1086 -0.2714  0.3465
  343TMC3     O 5199   0.364   1.924   0.091  0.0619  0.3236 -0.1679
  343TMC3     H 5200   0.618   2.022  17.595  0.9159  1.0883 -3.4244
  343TMC3    H1 5201   0.270   1.780  17.641 -0.4440 -0.2254 -0.6463
  343TMC3    H2 5202   0.513   1.725  17.294  0.2365  1.0708 -0.8247
  343TMC3    C7 5203   0.313   1.627  17.445 -0.2039 -0.8841 -0.6655
  343TMC3    C8 5204   0.708   1.892  17.389 -0.7311 -0.0630 -0.3780
  343TMC3    O1 5205   0.238   1.584  17.530 -0.1285  0.0912  0.2987
  343TMC3    O2 5206   0.794   1.910  17.474 -0.2319  0.1821 -0.5880
  344MPD2     C 5207   1.707   1.989  10.789 -0.2453  0.1119 -0.5333
  344MPD2    C1 5208   1.586   2.002  10.720  0.5835 -0.0370 -0.5102
  344MPD2    C2 5209   1.558   2.118  10.652 -0.0453 -0.1807  0.5058
  344MPD2    C3 5210   1.643   2.231  10.667 -0.0884 -0.0656  0.5155
  344MPD2    C4 5211   1.761   2.219  10.747 -0.3956  0.2204 -0.4023
  344MPD2    C5 5212   1.789   2.092  10.797 -0.4707  0.2241  0.6128
  344MPD2     H 5213   1.461   2.119  10.605  0.0673 -0.2670  0.2688
  344MPD2    H1 5214   1.817   2.311  10.763  0.4752 -0.2789 -0.5838
  344MPD2    H2 5215   1.751   1.900  10.834 -0.0948 -0.3932 -1.6647
  344MPD2    H3 5216   1.882   2.082  10.852 -0.1459  0.6271  0.1380
  344MPD2     N 5217   1.613   2.360  10.620 -0.2303  0.1145 -0.3955
  344MPD2    H5 5218   1.668   2.435  10.660 -2.0547 -0.6235  3.4680
  344MPD2    N1 5219   1.492   1.898  10.716 -0.0790 -0.3708  0.2422
  344MPD2    H7 5220   1.414   1.910  10.652 -0.2410 -1.3059  0.2720
  345TMC3    C1 5221   1.508   2.533  10.506  0.5473 -0.3608  0.5648
  345TMC3    C2 5222   1.545   2.620  10.610 -0.7514  0.0031  0.2421
  345TMC3    C3 5223   1.541   2.750  10.568 -0.2519  0.9558  0.1775
  345TMC3    C4 5224   1.476   2.566  10.386  0.0254  0.6976  0.4117
  345TMC3    C5 5225   1.467   2.696  10.351  0.3179 -0.1642  0.7090
  345TMC3    C6 5226   1.502   2.786  10.443  0.9694  0.1277  0.2551
  345TMC3     C 5227   1.521   2.390  10.527 -0.6630 -0.0468  0.2184
  345TMC3     O 5228   1.476   2.308  10.445 -0.1008 -0.1181 -0.7680
  345TMC3     H 5229   1.551   2.587  10.714  0.6204 -0.3158  0.0546
  345TMC3    H1 5230   1.461   2.489  10.311  0.2063 -0.6667  1.7767
  345TMC3    H2 5231   1.508   2.891  10.413 -2.4979  0.2297 -0.0348
  345TMC3    C7 5232   1.426   2.749  10.226 -0.6661  0.2931 -0.1846
  345TMC3    C8 5233   1.555   2.863  10.670  0.5873  0.5095 -0.2597
  345TMC3    O1 5234   1.376   2.859  10.229 -0.1899 -0.4628  0.0758
  345TMC3    O2 5235   1.535   2.977  10.631 -0.2573  0.0847  0.0172
  346MPD2     C 5236   0.911   3.148  13.872  0.0380  0.5065 -0.8250
  346MPD2    C1 5237   1.033   3.199  13.897  0.1671 -0.5367 -0.2410
  346MPD2    C2 5238   1.039   3.295  13.999  0.5216 -0.0485  0.1386
  346MPD2    C3 5239   0.922   3.352  14.053 -0.8638 -0.2957 -0.3771
  346MPD2    C4 5240   0.792   3.304  14.019 -0.0152  0.3497  0.2017
  346MPD2    C5 5241   0.796   3.195  13.931  0.2972 -1.2102  0.4823
  346MPD2     H 5242   1.139   3.327  14.025  0.9349 -0.6957 -0.6572
  346MPD2    H1 5243   0.698   3.347  14.049 -0.0135  0.0070  0.6970
  346MPD2    H2 5244   0.897   3.061  13.808  2.8664  0.3150 -1.1620
  346MPD2    H3 5245   0.699   3.158  13.901 -0.2277  0.0933  0.5873
  346MPD2     N 5246   0.934   3.454  14.146 -0.2529  0.0243  0.7567
  346MPD2    H5 5247   1.028   3.471  14.181  0.6358 -1.5916 -0.8415
  346MPD2    N1 5248   1.155   3.155  13.845  0.2226 -0.6117  1.0268
  346MPD2    H7 5249   1.235   3.206  13.883 -0.8532  1.5069  0.4549
  347TMC3    C1 5250   0.898   3.635  14.271  0.3255  0.0443 -0.1198
  347TMC3    C2 5251   1.034   3.652  14.255  0.0410  0.1103  0.0956
  347TMC3    C3 5252   1.106   3.685  14.368  0.2671 -0.5339  0.5602
  347TMC3    C4 5253   0.838   3.663  14.389  0.1564  0.3740 -0.1231
  347TMC3    C5 5254   0.914   3.701  14.501 -0.4103  0.1379  0.6406
  347TMC3    C6 5255   1.052   3.703  14.496  0.4737  0.1034  0.5218
  347TMC3     C 5256   0.833   3.528  14.194  0.1742 -0.1633 -0.1014
  347TMC3     O 5257   0.715   3.534  14.177 -0.4948  0.3375 -0.0688
  347TMC3     H 5258   1.077   3.645  14.156 -0.8867  0.9143 -0.3622
  347TMC3    H1 5259   0.730   3.662  14.393  0.1487 -0.3369 -0.6594
  347TMC3    H2 5260   1.114   3.714  14.584 -0.9667 -0.9629  1.6514
  347TMC3    C7 5261   0.849   3.698  14.627  0.8033 -0.2450 -0.1029
  347TMC3    C8 5262   1.238   3.640  14.356  0.0313 -0.8481 -0.8952
  347TMC3    O1 5263   0.734   3.672  14.620  0.6301  0.4045 -0.0867
  347TMC3    O2 5264   1.257   3.565  14.257  0.2410 -0.1310 -0.3386
  348MPD2     C 5265   4.560   2.963  12.322 -0.0259 -0.4905  0.0523
  348MPD2    C1 5266   4.689   3.002  12.308  0.3107  0.3126 -0.6205
  348MPD2    C2 5267   4.724   3.074  12.199  0.3480  0.2887 -0.0207
  348MPD2    C3 5268   4.627   3.119  12.112 -0.1876  0.8261 -0.4058
  348MPD2    C4 5269   4.502   3.067  12.126  0.1860  0.5913 -0.5444
  348MPD2    C5 5270   4.471   2.983  12.221 -0.6473 -0.0536 -0.0049
  348MPD2     H 5271   0.089   3.104  12.191  0.2750  0.8320  1.1198
  348MPD2    H1 5272   4.421   3.115  12.072 -1.9249 -1.0954  1.1226
  348MPD2    H2 5273   4.527   2.914  12.413 -1.0999  0.8625  0.4012
  348MPD2    H3 5274   4.366   2.968  12.244 -0.5667 -1.5070 -0.6365
  348MPD2     N 5275   4.666   3.197  11.996 -0.5970 -0.0602  0.0757
  348MPD2    H5 5276   0.024   3.228  11.993 -0.7975  0.4890 -0.6772
  348MPD2    N1 5277   0.043   2.979  12.403 -0.0896 -0.1677  0.2284
  348MPD2    H7 5278   0.140   2.999  12.382 -0.1256 -0.4798 -0.2463
  349TMC3    C1 5279   0.151   2.879  12.588 -0.2225  0.2437  0.1169
  349TMC3    C2 5280   0.160   2.754  12.640 -0.1432 -0.5914 -0.4351
  349TMC3    C3 5281   0.279   2.691  12.638 -0.9647 -0.2631  0.2442
  349TMC3    C4 5282   0.259   2.947  12.539 -0.1306  0.5793  0.5159
  349TMC3    C5 5283   0.378   2.884  12.532 -0.1194 -0.1874  0.2955
  349TMC3    C6 5284   0.389   2.751  12.578  0.3949 -0.2932 -0.2555
  349TMC3     C 5285   0.031   2.906  12.518 -0.5781 -0.5012 -0.2647
  349TMC3     O 5286   4.673   2.843  12.558 -0.5563 -0.5340 -0.8110
  349TMC3     H 5287   0.072   2.697  12.666 -1.0669  0.4813 -1.2251
  349TMC3    H1 5288   0.249   3.042  12.489  1.4183  0.1389 -0.6481
  349TMC3    H2 5289   0.486   2.704  12.586  0.5953  0.0949 -0.4110
  349TMC3    C7 5290   0.408   2.884  12.389 -0.2133  0.0981 -0.5248
  349TMC3    C8 5291   0.261   2.551  12.626 -0.5194  0.0605 -0.3680
  349TMC3    O1 5292   0.417   2.776  12.331 -0.6316 -1.1052 -0.1254
  349TMC3    O2 5293   0.165   2.498  12.679  0.3747 -0.4740 -0.6158
  350MPD2     C 5294   4.022   2.073  10.694  1.0168 -0.3581  0.3375
  350MPD2    C1 5295   4.007   1.946  10.648 -0.0864  0.0046 -0.3817
  350MPD2    C2 5296   3.976   1.849  10.739  0.0211 -0.2425 -0.7795
  350MPD2    C3 5297   3.958   1.872  10.872 -0.2146  0.1027 -0.5270
  350MPD2    C4 5298   3.956   2.002  10.909  0.3242 -0.0197 -0.1596
  350MPD2    C5 5299   3.986   2.102  10.823  0.1980 -0.0745 -0.2181
  350MPD2     H 5300   3.982   1.749  10.697  0.2669 -1.0966  1.2734
  350MPD2    H1 5301   3.951   2.037  11.011  3.1099 -1.2117  0.3836
  350MPD2    H2 5302   4.046   2.160  10.633  0.5013 -0.3771  0.1047
  350MPD2    H3 5303   3.973   2.206  10.850 -2.5503 -0.6259  0.6363
  350MPD2     N 5304   3.943   1.764  10.967 -0.5695  0.7286  0.2399
  350MPD2    H5 5305   3.945   1.670  10.929 -0.7285  1.1849 -0.8914
  350MPD2    N1 5306   4.029   1.904  10.510  0.3177  0.5898 -0.1960
  350MPD2    H7 5307   4.003   1.810  10.482 -0.7748  0.3125  1.7807
  351TMC3    C1 5308   4.105   1.914  10.283 -0.1989 -0.0977  0.4256
  351TMC3    C2 5309   4.150   1.782  10.290 -0.3099  0.1068 -0.4477
  351TMC3    C3 5310   4.141   1.702  10.176  0.9802  0.6208 -0.3051
  351TMC3    C4 5311   4.075   1.974  10.164  0.1534  0.7751 -0.4308
  351TMC3    C5 5312   4.063   1.892  10.057  0.1225 -0.3511  0.1475
  351TMC3    C6 5313   4.090   1.757  10.059  0.3256  0.4562  0.2063
  351TMC3     C 5314   4.071   1.990  10.409  0.1167 -0.4927  0.0054
  351TMC3     O 5315   4.088   2.111  10.414  0.1434 -0.0975  0.2535
  351TMC3     H 5316   4.180   1.741  10.386 -0.3306  1.1231 -0.0048
  351TMC3    H1 5317   4.048   2.079  10.165  0.0020  0.7315  0.3685
  351TMC3    H2 5318   4.078   1.699   9.968  0.0272 -1.0226  1.1852
  351TMC3    C7 5319   4.037   1.960   9.931  0.0252  0.6834  0.1105
  351TMC3    C8 5320   4.144   1.552  10.187 -0.6971  0.0888 -0.1096
  351TMC3    O1 5321   4.011   2.079   9.933 -0.6659 -0.0647  0.0083
  351TMC3    O2 5322   4.104   1.501  10.084  0.5770 -0.0325 -0.4939
  352MPD2     C 5323   1.539   2.390   1.619 -0.8611 -0.2093  0.5329
  352MPD2    C1 5324   1.546   2.402   1.480  0.5779  0.4358 -0.7647
  352MPD2    C2 5325   1.621   2.316   1.407 -0.0760 -0.5507 -0.7596
  352MPD2    C3 5326   1.699   2.223   1.471  0.6080  0.3594 -0.4776
  352MPD2    C4 5327   1.694   2.218   1.610 -0.2046 -0.1114 -0.4451
  352MPD2    C5 5328   1.619   2.302   1.686  0.1618  0.1740 -0.8491
  352MPD2     H 5329   1.621   2.326   1.299 -0.0704 -1.3423 -0.8289
  352MPD2    H1 5330   1.736   2.136   1.667  0.7355  0.1591 -0.7463
  352MPD2    H2 5331   1.478   2.461   1.674 -0.0730  1.7573 -1.1184
  352MPD2    H3 5332   1.618   2.297   1.794 -1.8898  1.4795 -0.8043
  352MPD2     N 5333   1.781   2.126   1.405  0.3016 -0.2518  0.1314
  352MPD2    H5 5334   1.822   2.057   1.467 -0.2755  0.7469  1.6304
  352MPD2    N1 5335   1.471   2.507   1.420  0.9218  0.4352 -0.1509
  352MPD2    H7 5336   1.427   2.575   1.480  1.9305  0.7107  0.2881
  353TMC3    C1 5337   1.929   2.044   1.238  0.4110 -0.3811  0.2599
  353TMC3    C2 5338   1.918   1.920   1.286  0.6531 -0.6946  0.6409
  353TMC3    C3 5339   2.019   1.827   1.256  0.6975 -0.1007  0.6278
  353TMC3    C4 5340   2.018   2.078   1.146 -0.0160 -0.0127  0.2029
  353TMC3    C5 5341   2.127   1.998   1.140  0.3976 -0.0039  0.3537
  353TMC3    C6 5342   2.131   1.874   1.193 -0.3235 -0.1458 -0.0136
  353TMC3     C 5343   1.822   2.137   1.272 -0.2554 -0.0914  0.0208
  353TMC3     O 5344   1.815   2.242   1.207  0.4283  0.4487 -1.4694
  353TMC3     H 5345   1.821   1.888   1.323 -0.1701 -0.9986 -1.7729
  353TMC3    H1 5346   2.022   2.177   1.101 -2.3329 -0.2717 -0.5334
  353TMC3    H2 5347   2.222   1.817   1.177 -0.8109 -1.1930  0.9421
  353TMC3    C7 5348   2.231   2.031   1.041  0.6313  0.2942  0.1828
  353TMC3    C8 5349   1.996   1.691   1.287  0.2251  0.1627  0.7972
  353TMC3    O1 5350   2.352   2.026   1.074 -0.1219  0.0856 -0.0114
  353TMC3    O2 5351   1.899   1.665   1.361 -0.4492  0.0131 -0.6059
  354TMC3    C1 5352   3.480   4.655  13.424  0.7453  0.5212  0.3654
  354TMC3    C2 5353   3.548   0.007  13.345  0.1216  0.6185  0.2544
  354TMC3    C3 5354   3.543   4.732  13.208 -0.7162  0.7153 -0.0163
  354TMC3    C4 5355   3.411   4.553  13.363 -0.8250 -0.1416  0.2143
  354TMC3    C5 5356   3.429   4.526  13.231 -0.7232  0.5857 -0.7186
  354TMC3    C6 5357   3.491   4.618  13.151 -0.2182 -0.0245  0.3174
  354TMC3     C 5358   3.463   4.670  13.566 -0.1673  0.3488  0.5086
  354TMC3     O 5359   3.360   4.639  13.623 -0.1560 -0.0615 -0.3520
  354TMC3     H 5360   3.598   0.092  13.390  1.7677  0.2605 -0.8804
  354TMC3    H1 5361   3.382   4.466  13.420  2.0044 -0.1641  1.5874
  354TMC3    H2 5362   3.482   4.603  13.044  0.3467  1.7466  0.0348
  354TMC3    C7 5363   3.427   4.384  13.191  1.0057 -0.1540  0.0311
  354TMC3    C8 5364   3.629   0.067  13.118 -0.3859 -0.7416  0.7166
  354TMC3    O1 5365   3.334   4.324  13.236  0.0837  0.4297  0.0273
  354TMC3    O2 5366   3.633   0.032  13.002 -0.1669  0.0137  0.1357
  355MPD2     C 5367   4.513   0.488  11.362  0.3436 -0.0089  0.0377
  355MPD2    C1 5368   4.615   0.493  11.275 -0.2256  0.4475  0.2152
  355MPD2    C2 5369   4.694   0.378  11.259 -0.1646 -0.0269  0.5873
  355MPD2    C3 5370   4.670   0.270  11.340 -1.0418 -0.2945 -0.4030
  355MPD2    C4 5371   4.561   0.260  11.420  0.1233  1.0043  0.2245
  355MPD2    C5 5372   4.485   0.372  11.431  0.8444  0.2513 -0.3389
  355MPD2     H 5373   0.044   0.387  11.195 -0.9885  2.0084 -0.2523
  355MPD2    H1 5374   4.550   0.178  11.489 -0.7028 -0.1980 -1.3544
  355MPD2    H2 5375   4.452   0.576  11.377 -2.2837 -2.2285  2.4512
  355MPD2    H3 5376   4.402   0.374  11.501  1.7066 -1.4116  0.7242
  355MPD2     N 5377   0.026   0.158  11.360 -0.1575 -0.1271  0.3486
  355MPD2    H5 5378   4.728   0.064  11.357  1.6581 -0.7010 -3.4324
  355MPD2    N1 5379   4.651   0.616  11.215  0.0386 -0.4355  0.3783
  355MPD2    H7 5380   4.601   0.699  11.246  0.2701 -1.3807  3.2743
  356TMC3    C1 5381   0.202   0.312  11.421 -0.2938 -0.4606 -0.0732
  356TMC3    C2 5382   0.289   0.381  11.338  0.6492 -0.6923  0.5891
  356TMC3    C3 5383   0.321   0.508  11.364 -0.2906 -0.2556 -0.8148
  356TMC3    C4 5384   0.140   0.377  11.522 -0.4190  0.0035 -0.3120
  356TMC3    C5 5385   0.166   0.507  11.541 -0.8322 -0.2642 -0.0663
  356TMC3    C6 5386   0.258   0.578  11.465  0.2205  0.2973  0.4153
  356TMC3     C 5387   0.163   0.179  11.383  0.1334 -0.4410  0.1871
  356TMC3     O 5388   0.261   0.110  11.361 -0.4749  0.1841  0.2131
  356TMC3     H 5389   0.325   0.325  11.253 -0.3511 -0.1360 -0.1995
  356TMC3    H1 5390   0.088   0.310  11.590  5.1706 -2.2675  1.8036
  356TMC3    H2 5391   0.275   0.681  11.495  0.8046  0.0266  1.0225
  356TMC3    C7 5392   0.098   0.565  11.661 -0.2436  0.0677 -0.3655
  356TMC3    C8 5393   0.399   0.576  11.266 -0.9130  0.3583  0.3980
  356TMC3    O1 5394   0.027   0.489  11.723  0.3176 -0.4166  0.1596
  356TMC3    O2 5395   0.377   0.561  11.148  0.1118 -0.5403  0.1996
  357MPD2     C 5396   3.174   4.451   0.403 -0.2593 -0.3845 -0.0965
  357MPD2    C1 5397   3.263   4.460   0.504  0.2210 -0.2223 -0.1933
  357MPD2    C2 5398   3.223   4.518   0.621  0.0922  0.5704 -0.7341
  357MPD2    C3 5399   3.097   4.563   0.648 -0.7050 -0.1062 -0.4578
  357MPD2    C4 5400   3.006   4.552   0.544 -0.1430  1.1451  0.5027
  357MPD2    C5 5401   3.041   4.491   0.422  0.3782 -0.0269 -0.0629
  357MPD2     H 5402   3.297   4.531   0.699 -1.2223 -0.4646  0.6989
  357MPD2    H1 5403   2.905   4.590   0.553 -0.5020  0.3548 -0.1952
  357MPD2    H2 5404   3.203   4.398   0.314  0.1711  0.1660 -0.2906
  357MPD2    H3 5405   2.966   4.483   0.345 -1.0062  0.0181  1.2914
  357MPD2     N 5406   3.060   4.633   0.764  0.0616 -0.2836 -0.1366
  357MPD2    H5 5407   2.969   4.678   0.765 -1.5242 -3.4640 -1.1659
  357MPD2    N1 5408   3.387   4.392   0.480 -0.3207 -0.2066 -0.2277
  357MPD2    H7 5409   3.411   4.369   0.384 -2.7176 -0.3091 -0.7884
  358TMC3    C1 5410   3.601   4.295   0.541  0.2303  0.1579  0.2449
  358TMC3    C2 5411   3.628   4.291   0.407  0.5903 -0.2836  1.0057
  358TMC3    C3 5412   3.755   4.276   0.358  0.4669 -0.2651  0.0579
  358TMC3    C4 5413   3.698   4.300   0.634 -0.0794 -0.7250 -0.4750
  358TMC3    C5 5414   3.825   4.297   0.588 -0.2159 -0.1950 -0.0883
  358TMC3    C6 5415   3.853   4.267   0.457  0.3751  0.2739 -1.0415
  358TMC3     C 5416   3.477   4.357   0.583  0.5376 -0.8130  0.3744
  358TMC3     O 5417   3.463   4.370   0.705 -0.4004  0.2031 -0.5179
  358TMC3     H 5418   3.556   4.290   0.325  0.6927 -0.5916  0.9213
  358TMC3    H1 5419   3.680   4.319   0.739  1.6856 -0.4010 -0.2354
  358TMC3    H2 5420   3.955   4.290   0.429  1.3026 -1.6636  0.7678
  358TMC3    C7 5421   3.935   4.324   0.666 -0.3439 -0.9161 -0.3345
  358TMC3    C8 5422   3.799   4.295   0.221 -0.5855 -0.9330  0.2205
  358TMC3    O1 5423   4.034   4.264   0.647  0.0099 -0.6460 -0.0507
  358TMC3    O2 5424   3.919   4.271   0.199 -0.3316  0.0537 -0.3765
  359MPD2     C 5425   4.080   2.977  12.456  0.1590  0.4659  1.0390
  359MPD2    C1 5426   4.084   3.114  12.455 -0.0024  0.0147  0.5930
  359MPD2    C2 5427   3.972   3.187  12.417  0.1233  0.3558 -0.2056
  359MPD2    C3 5428   3.851   3.122  12.413 -0.4256 -0.5344  0.0867
  359MPD2    C4 5429   3.848   2.985  12.418  0.1451  0.1969 -0.3451
  359MPD2    C5 5430   3.964   2.912  12.433  0.5212  0.3753 -0.2798
  359MPD2     H 5431   3.987   3.291  12.390 -0.4667 -0.4088 -3.3607
  359MPD2    H1 5432   3.755   2.935  12.397  0.5839 -0.5393 -0.5623
  359MPD2    H2 5433   4.172   2.920  12.456 -0.7622 -0.9946  0.4924
  359MPD2    H3 5434   3.969   2.804  12.420  0.0464  0.2960  0.2346
  359MPD2     N 5435   3.733   3.189  12.382  0.7372  0.6843  0.3581
  359MPD2    H5 5436   3.653   3.131  12.358  0.6043  0.2718  1.7730
  359MPD2    N1 5437   4.199   3.194  12.464  0.1206  0.3946  0.0347
  359MPD2    H7 5438   4.194   3.295  12.459 -0.1284  0.3826  0.0591
  360TMC3    C1 5439   4.425   3.240  12.476 -0.1272 -0.2285  0.4061
  360TMC3    C2 5440   4.545   3.243  12.551 -0.2045  0.9481  0.0555
  360TMC3    C3 5441   4.647   3.310  12.491 -0.1612  0.1739  0.2180
  360TMC3    C4 5442   4.403   3.309  12.352  0.0895 -0.1344  0.2720
  360TMC3    C5 5443   4.518   3.371  12.302 -0.5506  0.7018 -0.4787
  360TMC3    C6 5444   4.637   3.382  12.375 -0.2864  0.3816 -0.4879
  360TMC3     C 5445   4.318   3.149  12.509  0.0674 -0.0760  0.1779
  360TMC3     O 5446   4.338   3.049  12.579  0.0160  0.1040  0.6115
  360TMC3     H 5447   4.564   3.173  12.632  0.4337 -0.1703 -1.0660
  360TMC3    H1 5448   4.323   3.289  12.282 -1.4282 -2.4884  2.6958
  360TMC3    H2 5449   4.729   3.423  12.334  0.8705  0.3140  2.0079
  360TMC3    C7 5450   4.519   3.445  12.176  0.1385 -0.7397 -0.7448
  360TMC3    C8 5451   0.042   3.291  12.549 -0.5160  0.4564  0.0020
  360TMC3    O1 5452   4.606   3.527  12.165 -0.2232  0.2042  0.3321
  360TMC3    O2 5453   0.046   3.210  12.646  0.2586 -0.2388  0.0034
  361MPD2     C 5454   1.370   3.084  17.073  0.8540 -0.6328  0.0799
  361MPD2    C1 5455   1.400   3.030  16.949 -0.4197  0.4114  0.4649
  361MPD2    C2 5456   1.483   2.914  16.950  0.1714 -1.0848  0.1680
  361MPD2    C3 5457   1.523   2.848  17.066  0.1180 -0.2528  0.0608
  361MPD2    C4 5458   1.485   2.905  17.187  0.2590  0.9267  0.2939
  361MPD2    C5 5459   1.416   3.020  17.188  0.2662 -0.1141 -0.3317
  361MPD2     H 5460   1.509   2.873  16.853  1.4927  0.1264  0.0083
  361MPD2    H1 5461   1.514   2.860  17.282 -0.8286  0.0505  0.2025
  361MPD2    H2 5462   1.332   3.186  17.083 -1.2771 -1.4613  0.4180
  361MPD2    H3 5463   1.400   3.071  17.282 -0.8935  1.3426 -1.3004
  361MPD2     N 5464   1.591   2.722  17.076 -0.3683 -0.3328 -0.0749
  361MPD2    H5 5465   1.605   2.682  17.168 -0.0140 -1.7726 -0.7532
  361MPD2    N1 5466   1.345   3.060  16.824 -0.0768 -0.4465  0.4212
  361MPD2    H7 5467   1.409   3.037  16.748 -1.6282 -0.5254 -0.8640
  362TMC3    C1 5468   1.149   3.117  16.693  0.3879 -0.3376 -0.1506
  362TMC3    C2 5469   1.014   3.099  16.684 -0.3231 -0.4928 -0.7330
  362TMC3    C3 5470   0.956   3.102  16.559 -0.0573 -0.4242  0.8754
  362TMC3    C4 5471   1.221   3.172  16.586  0.1706  0.0101 -0.2589
  362TMC3    C5 5472   1.155   3.196  16.472  0.2151  0.1171 -0.2409
  362TMC3    C6 5473   1.024   3.148  16.454  0.0501 -0.0837 -0.8511
  362TMC3     C 5474   1.211   3.109  16.826  0.4371  0.1548 -0.6163
  362TMC3     O 5475   1.140   3.115  16.926  0.7464  0.1418 -0.2233
  362TMC3     H 5476   0.962   3.045  16.762  0.9903  0.0661  0.5541
  362TMC3    H1 5477   1.324   3.198  16.611  0.8835  0.8472 -4.0766
  362TMC3    H2 5478   0.973   3.174  16.362 -1.0213 -1.1003 -0.5487
  362TMC3    C7 5479   1.197   3.290  16.368 -0.0620  0.7790 -0.3472
  362TMC3    C8 5480   0.818   3.064  16.543 -0.2162  0.1260  0.8651
  362TMC3    O1 5481   1.115   3.325  16.286  0.1313  0.3988 -0.3792
  362TMC3    O2 5482   0.792   3.027  16.430 -0.0143 -0.0617 -0.5616
  363TMC3    C1 5483   0.292   0.740   9.617 -0.0298 -0.4005  0.2764
  363TMC3    C2 5484   0.408   0.700   9.671 -0.3709  0.1481  0.1419
  363TMC3    C3 5485   0.452   0.789   9.772  0.9940  0.2576  0.2746
  363TMC3    C4 5486   0.217   0.847   9.647  0.0204  0.1485 -0.2881
  363TMC3    C5 5487   0.259   0.926   9.747  0.4053 -0.0146  0.5891
  363TMC3    C6 5488   0.387   0.902   9.805 -0.0076  0.7397  0.2408
  363TMC3     C 5489   0.245   0.658   9.510  0.7006 -0.6091 -0.0833
  363TMC3     O 5490   0.186   0.713   9.421  0.5021 -0.1102 -0.0658
  363TMC3     H 5491   0.466   0.613   9.643  0.5888  0.3626  1.4463
  363TMC3    H1 5492   0.124   0.866   9.594  1.9224  1.6134 -3.1052
  363TMC3    H2 5493   0.406   0.959   9.896  0.1915  0.3984  0.4136
  363TMC3    C7 5494   0.175   1.029   9.809 -0.3722 -0.2361  0.1271
  363TMC3    C8 5495   0.567   0.744   9.855  0.1758  0.1686 -0.3067
  363TMC3    O1 5496   0.231   1.106   9.885  0.1918  0.3435 -0.2207
  363TMC3    O2 5497   0.634   0.823   9.919  0.2034  0.0804  0.1294
  364MPD2     C 5498   3.946   0.237  10.518  0.9079  0.0256  0.2424
  364MPD2    C1 5499   4.059   0.266  10.591  1.2415  0.0263  0.0423
  364MPD2    C2 5500   4.139   0.160  10.627 -0.2546  0.2223 -0.0761
  364MPD2    C3 5501   4.112   0.028  10.589  0.0421 -0.2506 -0.1846
  364MPD2    C4 5502   4.010   0.006  10.504 -0.1285 -1.0308 -0.4448
  364MPD2    C5 5503   3.921   0.107  10.478  0.1564  0.1200 -0.1777
  364MPD2     H 5504   4.212   0.181  10.704  0.3635 -0.1607 -0.5651
  364MPD2    H1 5505   3.986   4.641  10.480  1.4804 -0.8406 -2.8928
  364MPD2    H2 5506   3.872   0.314  10.500  0.4946 -0.5354 -0.4582
  364MPD2    H3 5507   3.829   0.080  10.426  1.2011 -0.7086 -1.6033
  364MPD2     N 5508   4.189   4.650  10.631  0.4143 -0.8714 -0.0247
  364MPD2    H5 5509   4.164   4.554  10.609 -0.0947 -0.7508  0.0175
  364MPD2    N1 5510   4.092   0.396  10.636 -0.1504  0.3071 -0.1098
  364MPD2    H7 5511   4.022   0.468  10.623  0.9116  1.3576 -0.0305
  365TMC3    C1 5512   4.225   0.576  10.660 -0.1604  0.2629 -0.2257
  365TMC3    C2 5513   4.253   0.621  10.530  0.2300 -0.3468 -1.2025
  365TMC3    C3 5514   4.190   0.735  10.492 -0.1645 -0.4187 -0.0690
  365TMC3    C4 5515   4.137   0.633  10.748  0.7343  1.0973  0.0181
  365TMC3    C5 5516   4.078   0.755  10.705  0.7955 -0.5979 -0.1282
  365TMC3    C6 5517   4.107   0.806  10.582  0.6118  0.1383  0.4755
  365TMC3     C 5518   4.223   0.434  10.669 -0.2898 -0.1256 -0.8039
  365TMC3     O 5519   4.330   0.383  10.638 -0.1262 -0.2013  0.8137
  365TMC3     H 5520   4.326   0.573  10.467  0.1536 -1.1687 -0.6699
  365TMC3    H1 5521   4.112   0.592  10.845 -1.1273  2.0252 -0.0607
  365TMC3    H2 5522   4.055   0.895  10.547 -0.0986 -1.3672 -2.2923
  365TMC3    C7 5523   4.002   0.840  10.798  0.2758  0.1730  0.0617
  365TMC3    C8 5524   4.130   0.712  10.358  0.4454  0.3617  0.5811
  365TMC3    O1 5525   3.977   0.953  10.760  0.0112 -0.3552  0.0736
  365TMC3    O2 5526   4.075   0.807  10.302  0.1633 -0.4634  0.7832
  366MPD2     C 5527   1.187   1.681  15.475  0.3169 -0.9098 -0.9845
  366MPD2    C1 5528   1.323   1.656  15.490  0.4848  0.2139  0.5303
  366MPD2    C2 5529   1.364   1.532  15.480 -0.3575  0.3097  0.1244
  366MPD2    C3 5530   1.279   1.434  15.445 -0.0532  0.7423 -0.8054
  366MPD2    C4 5531   1.140   1.445  15.456 -0.1728 -0.4082  0.8538
  366MPD2    C5 5532   1.097   1.573  15.471  0.1965  0.3680  0.3282
  366MPD2     H 5533   1.466   1.509  15.510 -0.3248 -0.3150 -0.4890
  366MPD2    H1 5534   1.067   1.366  15.445 -0.2821 -0.1072 -0.5094
  366MPD2    H2 5535   1.137   1.776  15.489  1.5116 -0.0904 -2.2687
  366MPD2    H3 5536   0.990   1.590  15.466  0.4097  1.3851 -0.9148
  366MPD2     N 5537   1.349   1.316  15.406 -0.0230  0.0554 -0.5147
  366MPD2    H5 5538   1.451   1.314  15.405 -0.1098 -3.3268 -1.6671
  366MPD2    N1 5539   1.423   1.755  15.493 -0.1964  0.6016  0.4054
  366MPD2    H7 5540   1.518   1.725  15.473  0.0313 -0.0477  2.4916
  367TMC3    C1 5541   1.533   1.956  15.500 -0.2256 -0.6911 -0.3646
  367TMC3    C2 5542   1.560   2.064  15.572  0.4657  0.5450  0.6027
  367TMC3    C3 5543   1.666   2.145  15.536 -0.6622  0.1535 -0.3536
  367TMC3    C4 5544   1.614   1.916  15.396  0.2059 -0.4662  0.3289
  367TMC3    C5 5545   1.711   2.011  15.348 -0.1797 -0.4499  0.0109
  367TMC3    C6 5546   1.735   2.119  15.423  0.1466  0.6416  0.1818
  367TMC3     C 5547   1.406   1.887  15.519  0.2395 -0.0694 -0.0297
  367TMC3     O 5548   1.299   1.948  15.541  0.1643 -0.3024 -0.2482
  367TMC3     H 5549   1.494   2.100  15.650  2.0769  2.4383  1.0835
  367TMC3    H1 5550   1.599   1.824  15.342 -1.0902  0.1698 -0.3828
  367TMC3    H2 5551   1.827   2.173  15.404 -0.0887  0.5986 -1.0783
  367TMC3    C7 5552   1.829   1.943  15.305 -0.6302  0.2275  0.2666
  367TMC3    C8 5553   1.763   2.156  15.650  0.6371  0.3694  0.9226
  367TMC3    O1 5554   1.925   1.956  15.376 -0.4357  0.1374  1.0322
  367TMC3    O2 5555   1.760   2.063  15.732  0.4600 -0.0472 -0.4666
  368MPD2     C 5556   2.509   2.313  12.761 -0.1779 -0.2029 -0.6028
  368MPD2    C1 5557   2.568   2.421  12.836  0.5111  0.3239  0.5266
  368MPD2    C2 5558   2.711   2.429  12.844 -0.4049 -0.6342 -0.5934
  368MPD2    C3 5559   2.788   2.350  12.768  0.0776 -0.8458  0.1705
  368MPD2    C4 5560   2.723   2.253  12.684 -0.0017  0.5436 -0.1991
  368MPD2    C5 5561   2.593   2.240  12.681 -0.3492  0.1143 -0.0434
  368MPD2     H 5562   2.763   2.506  12.899  0.5818 -1.3300 -0.5446
  368MPD2    H1 5563   2.784   2.206  12.609  2.4868  0.6473  1.7536
  368MPD2    H2 5564   2.403   2.300  12.748 -0.5377  1.1660  0.9750
  368MPD2    H3 5565   2.551   2.177  12.603  0.2622  0.7647 -0.8978
  368MPD2     N 5566   2.924   2.371  12.748  0.5296  0.4168  0.0131
  368MPD2    H5 5567   2.974   2.315  12.680 -2.2278  0.4782 -2.0343
  368MPD2    N1 5568   2.494   2.529  12.875  0.4694  0.2922  0.0886
  368MPD2    H7 5569   2.395   2.520  12.852  0.1628 -0.6761  1.8161
  369TMC3    C1 5570   2.451   2.767  12.899  0.4736 -0.4504 -0.2031
  369TMC3    C2 5571   2.509   2.887  12.873 -0.7348 -0.4318 -0.4165
  369TMC3    C3 5572   2.424   2.991  12.833  0.6041 -0.1245 -0.1308
  369TMC3    C4 5573   2.323   2.748  12.887  0.0849  0.9228 -0.1144
  369TMC3    C5 5574   2.238   2.847  12.839 -0.1065  0.1194 -0.1539
  369TMC3    C6 5575   2.291   2.968  12.809  0.6937  0.1853 -0.0082
  369TMC3     C 5576   2.540   2.654  12.920 -0.2476 -1.3554  0.0285
  369TMC3     O 5577   2.653   2.693  12.955  0.2436  0.2474 -0.0993
  369TMC3     H 5578   2.617   2.899  12.877 -0.4784 -3.0495 -0.0052
  369TMC3    H1 5579   2.276   2.651  12.879  0.3307  0.7947  0.0074
  369TMC3    H2 5580   2.236   3.052  12.770 -0.9662 -0.1995  1.5187
  369TMC3    C7 5581   2.096   2.837  12.868 -0.7589 -0.5652  0.2638
  369TMC3    C8 5582   2.486   3.067  12.726  0.8937  0.2361  0.2272
  369TMC3    O1 5583   2.063   2.726  12.922  0.7470 -0.0440 -0.0129
  369TMC3    O2 5584   2.439   3.070  12.617  0.1961 -0.6773 -0.2260
  370TMC3    C1 5585   2.411   3.915  16.201  0.0235 -0.8176 -0.1642
  370TMC3    C2 5586   2.305   3.869  16.269  1.0969 -0.4066 -0.5595
  370TMC3    C3 5587   2.252   3.749  16.228 -0.1109 -0.4803  0.1619
  370TMC3    C4 5588   2.476   3.843  16.104  0.0830 -0.1316  0.5193
  370TMC3    C5 5589   2.423   3.726  16.066  0.0275  0.3170 -0.7842
  370TMC3    C6 5590   2.310   3.674  16.126 -0.2309  0.1003 -0.3144
  370TMC3     C 5591   2.494   3.996  16.282  0.2285 -0.0749  0.1069
  370TMC3     O 5592   2.471   3.994  16.400  0.8460 -0.2102  0.6631
  370TMC3     H 5593   2.252   3.930  16.342  2.0953 -0.5155  0.2519
  370TMC3    H1 5594   2.564   3.883  16.054  0.2198 -2.2731 -0.9628
  370TMC3    H2 5595   2.268   3.577  16.100  1.9036 -1.4082  1.8692
  370TMC3    C7 5596   2.507   3.646  15.981 -0.0862  0.5954  0.0009
  370TMC3    C8 5597   2.167   3.682  16.327 -0.0633  0.5093  0.2739
  370TMC3    O1 5598   2.569   3.714  15.901  0.0263 -0.3421 -0.4799
  370TMC3    O2 5599   2.149   3.564  16.298 -0.8996  0.4568 -0.2098
  371TMC3    C1 5600   3.664   1.792  16.003  0.4963  0.6288  0.5195
  371TMC3    C2 5601   3.527   1.812  16.016  0.0078 -0.5119  0.4603
  371TMC3    C3 5602   3.491   1.935  16.046 -1.0476 -0.1348 -0.1607
  371TMC3    C4 5603   3.756   1.890  16.017 -1.0697 -0.5360  0.4778
  371TMC3    C5 5604   3.710   2.018  16.023 -0.2345 -0.7107  0.0500
  371TMC3    C6 5605   3.578   2.040  16.048  0.4497  0.2615  0.0577
  371TMC3     C 5606   3.717   1.664  15.949  0.3213 -0.0448  0.0685
  371TMC3     O 5607   3.838   1.662  15.935 -0.2532  0.8370 -0.4704
  371TMC3     H 5608   3.454   1.732  16.016 -0.6449  0.0789  0.6009
  371TMC3    H1 5609   3.861   1.866  16.005 -1.5026 -2.2780  0.0941
  371TMC3    H2 5610   3.548   2.144  16.041 -0.6304  0.0837  1.9652
  371TMC3    C7 5611   3.785   2.135  15.976  0.4460  0.5169 -0.3620
  371TMC3    C8 5612   3.346   1.958  16.006 -0.1403  0.7405  0.4667
  371TMC3    O1 5613   3.754   2.247  16.014 -0.0452 -0.1177 -0.0215
  371TMC3    O2 5614   3.291   1.869  15.946  0.5651 -0.0921 -0.0326
  372MPD2     C 5615   3.672   3.332  13.941 -0.3970 -0.1727  1.0621
  372MPD2    C1 5616   3.768   3.246  13.981  0.2397 -0.7726  0.3204
  372MPD2    C2 5617   3.734   3.112  13.989  0.2232 -0.9503 -0.3317
  372MPD2    C3 5618   3.606   3.070  13.950  0.6190 -0.6396  0.0215
  372MPD2    C4 5619   3.506   3.162  13.914  0.1065 -0.2869 -0.3553
  372MPD2    C5 5620   3.546   3.294  13.904 -1.2246  0.0146 -0.0026
  372MPD2     H 5621   3.802   3.037  14.027 -0.8960 -0.9699  1.6105
  372MPD2    H1 5622   3.407   3.120  13.898 -0.3729  0.9061 -0.5255
  372MPD2    H2 5623   3.693   3.437  13.925 -1.5622  0.0173  0.7779
  372MPD2    H3 5624   3.479   3.369  13.865 -0.1587  0.0554 -1.7397
  372MPD2     N 5625   3.574   2.930  13.955 -0.2702  0.3377  0.3132
  372MPD2    H5 5626   3.646   2.871  13.996  0.5899 -0.6344 -2.5714
  372MPD2    N1 5627   3.891   3.289  14.034  0.2979 -0.4270 -0.3479
  372MPD2    H7 5628   3.948   3.222  14.085 -2.1660 -1.3778  1.1438
  373TMC3    C1 5629   3.437   2.744  13.949 -0.3600  0.3915 -0.7671
  373TMC3    C2 5630   3.449   2.714  14.080 -0.1655  0.8880  0.3792
  373TMC3    C3 5631   3.440   2.580  14.112  0.2348 -0.2523 -0.1379
  373TMC3    C4 5632   3.409   2.649  13.852  0.2128 -0.5357 -0.7934
  373TMC3    C5 5633   3.396   2.525  13.885  0.3783 -0.2878 -0.6104
  373TMC3    C6 5634   3.406   2.484  14.015 -0.4808 -1.0239  0.6353
  373TMC3     C 5635   3.461   2.873  13.902 -0.1972  0.0094  0.2290
  373TMC3     O 5636   3.397   2.900  13.801  0.3036  0.0833 -0.3402
  373TMC3     H 5637   3.476   2.786  14.157  0.2740  2.0048 -0.8166
  373TMC3    H1 5638   3.406   2.676  13.747 -0.6884  1.2577 -0.3011
  373TMC3    H2 5639   3.408   2.377  14.031 -0.8016 -0.7926  2.2314
  373TMC3    C7 5640   3.443   2.433  13.778 -0.4073 -0.5162 -0.3910
  373TMC3    C8 5641   3.500   2.544  14.240  0.5942 -0.4038 -0.8169
  373TMC3    O1 5642   3.519   2.484  13.699  0.3112 -0.5814  0.3889
  373TMC3    O2 5643   3.561   2.629  14.302  1.2640 -0.5463  0.1243
  374TMC3    C1 5644   3.775   3.457   9.932 -0.5231 -0.3553  0.3020
  374TMC3    C2 5645   3.867   3.535   9.987 -0.5054  0.0316  0.5103
  374TMC3    C3 5646   3.936   3.619   9.903 -0.4472 -0.4018  0.9686
  374TMC3    C4 5647   3.748   3.452   9.805  0.0447 -0.0486  0.5486
  374TMC3    C5 5648   3.795   3.551   9.724  0.5408 -1.2998 -0.3563
  374TMC3    C6 5649   3.903   3.628   9.764  0.7957 -0.0960  0.4822
  374TMC3     C 5650   3.691   3.377  10.020  0.3158  0.3008  0.3461
  374TMC3     O 5651   3.596   3.327   9.962 -0.1559  0.2849 -0.0892
  374TMC3     H 5652   3.875   3.543  10.094  1.0763  0.0865  0.3876
  374TMC3    H1 5653   3.690   3.372   9.759 -0.8204  1.1623 -0.4669
  374TMC3    H2 5654   3.940   3.711   9.704  1.1866  0.0795  0.9670
  374TMC3    C7 5655   3.772   3.533   9.580 -0.2302 -0.1376  0.1101
  374TMC3    C8 5656   4.048   3.694   9.957  0.3436 -0.1188 -0.3614
  374TMC3    O1 5657   3.705   3.436   9.546 -0.1427 -0.5355  0.4842
  374TMC3    O2 5658   4.079   3.792   9.888 -0.1579 -0.4119  0.6393
  375MPD2     C 5659   3.753   3.561  16.803  0.3296  0.3026  0.0588
  375MPD2    C1 5660   3.683   3.629  16.700 -0.1251  0.1946 -0.1726
  375MPD2    C2 5661   3.695   3.574  16.576 -0.2730 -0.1069 -0.2469
  375MPD2    C3 5662   3.759   3.451  16.544  0.4789 -0.3860 -0.1465
  375MPD2    C4 5663   3.817   3.385  16.651 -0.6497  0.2823 -0.5677
  375MPD2    C5 5664   3.821   3.444  16.776 -0.3515 -0.3699 -0.7049
  375MPD2     H 5665   3.638   3.619  16.496 -3.6630 -0.5438  1.9473
  375MPD2    H1 5666   3.872   3.294  16.633 -0.5546 -0.0477  1.4342
  375MPD2    H2 5667   3.756   3.598  16.905 -2.2168  0.6834 -0.0015
  375MPD2    H3 5668   3.879   3.394  16.853  0.7609 -0.5804 -1.6790
  375MPD2     N 5669   3.769   3.392  16.413 -0.2215  0.0297 -0.0063
  375MPD2    H5 5670   3.816   3.302  16.409 -1.3918 -0.6044  0.6360
  375MPD2    N1 5671   3.604   3.742  16.722  0.7223 -0.0345 -0.9244
  375MPD2    H7 5672   3.530   3.759  16.654 -1.3806 -0.2456  1.3352
  376TMC3    C1 5673   3.787   3.385  16.182 -0.9059  0.2527 -0.4673
  376TMC3    C2 5674   3.897   3.302  16.204  0.3686 -0.1902 -0.2979
  376TMC3    C3 5675   3.953   3.260  16.091  0.4640  0.5705 -0.2989
  376TMC3    C4 5676   3.726   3.396  16.057  0.2172  0.9508 -0.0543
  376TMC3    C5 5677   3.779   3.328  15.950 -0.7846  0.5430 -0.2947
  376TMC3    C6 5678   3.908   3.274  15.963 -0.1597 -0.1893  0.4180
  376TMC3     C 5679   3.724   3.447  16.297  0.0833 -0.4759 -0.3510
  376TMC3     O 5680   3.635   3.531  16.277  0.1284  0.2868 -0.1941
  376TMC3     H 5681   3.949   3.292  16.299 -0.9382 -1.2084  0.3171
  376TMC3    H1 5682   3.625   3.434  16.046 -0.5202 -1.3604 -1.1281
  376TMC3    H2 5683   3.972   3.235  15.885  3.0910  0.8055  2.6061
  376TMC3    C7 5684   3.746   3.402  15.825  0.1666 -0.3428 -0.3218
  376TMC3    C8 5685   4.089   3.213  16.108  0.7010  0.5626 -0.0081
  376TMC3    O1 5686   3.694   3.511  15.843 -0.3557  0.0783 -0.2808
  376TMC3    O2 5687   4.143   3.139  16.031  1.1411  0.1730  0.0593
  377MPD2     C 5688   1.810   3.572  12.475 -0.0823  0.2035 -0.1526
  377MPD2    C1 5689   1.817   3.435  12.499 -0.3311 -0.4736 -0.3112
  377MPD2    C2 5690   1.715   3.367  12.566 -0.2052 -0.2665 -0.0253
  377MPD2    C3 5691   1.595   3.433  12.595  0.3377  0.4813  1.0715
  377MPD2    C4 5692   1.593   3.564  12.568  0.2147 -0.2388 -0.5652
  377MPD2    C5 5693   1.694   3.637  12.504  0.4214  0.4123 -0.4067
  377MPD2     H 5694   1.717   3.259  12.570 -2.1827 -0.2955  0.3376
  377MPD2    H1 5695   1.510   3.622  12.606 -0.5743 -0.5469 -1.8095
  377MPD2    H2 5696   1.884   3.628  12.420 -0.3695  1.2804  0.5689
  377MPD2    H3 5697   1.687   3.743  12.483 -0.4594  0.3712 -0.3471
  377MPD2     N 5698   1.485   3.373  12.666  0.1379 -0.3798 -0.7945
  377MPD2    H5 5699   1.421   3.441  12.704  0.5852  0.1523 -0.9816
  377MPD2    N1 5700   1.937   3.383  12.455  0.3284  0.5970  0.1122
  377MPD2    H7 5701   2.006   3.441  12.409 -0.5684  1.3771 -0.2622
  378TMC3    C1 5702   2.264   3.275  12.260  0.0834  0.1123  0.0602
  378TMC3    C2 5703   2.161   3.320  12.337  0.0559  0.1918  0.1696
  378TMC3    C3 5704   2.116   3.233  12.432 -0.1032 -0.6544 -0.8958
  378TMC3    C4 5705   2.322   3.149  12.295  0.6459 -0.3892  1.3135
  378TMC3    C5 5706   2.264   3.065  12.389 -0.0162  0.6938 -0.0028
  378TMC3    C6 5707   2.150   3.106  12.454 -0.4514 -0.2017 -0.8014
  378TMC3     C 5708   2.315   3.363  12.159 -0.0471  0.1976 -0.0390
  378TMC3     O 5709   2.264   3.474  12.147  0.2453  0.4768 -0.0640
  378TMC3     H 5710   2.125   3.419  12.311  1.6700  0.9642  0.8571
  378TMC3    H1 5711   2.408   3.111  12.240 -1.3498 -0.2780 -1.8925
  378TMC3    H2 5712   2.099   3.043  12.526  1.3279  0.3882  0.9794
  378TMC3    C7 5713   2.311   2.928  12.408  0.3079 -1.0702 -0.1798
  378TMC3    C8 5714   1.978   3.256  12.480 -0.6913 -0.4766 -1.1837
  378TMC3    O1 5715   2.231   2.849  12.458  0.5220 -0.8168 -0.0608
  378TMC3    O2 5716   1.927   3.164  12.541  0.1319 -0.1069  0.5240
  379MPD2     C 5717   2.881   1.943  16.209 -0.7319 -0.4055 -0.3918
  379MPD2    C1 5718   2.790   1.858  16.261  0.2237  0.0272  0.3788
  379MPD2    C2 5719   2.828   1.764  16.354  0.9635 -0.0265  0.0709
  379MPD2    C3 5720   2.959   1.763  16.403 -0.0743 -0.2244  0.2648
  379MPD2    C4 5721   3.044   1.855  16.348 -0.1057 -0.2126 -0.2381
  379MPD2    C5 5722   3.009   1.939  16.248  0.1726 -0.4154  0.3124
  379MPD2     H 5723   2.758   1.692  16.394 -0.2394  0.9393 -0.3046
  379MPD2    H1 5724   3.143   1.860  16.391 -1.3305  0.8390  2.4314
  379MPD2    H2 5725   2.856   2.011  16.129 -0.6864 -2.2966 -2.0073
  379MPD2    H3 5726   3.081   2.002  16.197  1.0140 -1.4578  0.2286
  379MPD2     N 5727   3.007   1.679  16.502  0.0603 -0.0155  0.3951
  379MPD2    H5 5728   3.106   1.675  16.524  0.1054  4.4533  0.9144
  379MPD2    N1 5729   2.653   1.873  16.218 -0.0334  0.3625  0.2408
  379MPD2    H7 5730   2.644   1.954  16.158  1.4435 -0.1057 -0.6063
  380TMC3    C1 5731   2.456   1.782  16.130  0.0328  0.5182 -0.2083
  380TMC3    C2 5732   2.435   1.682  16.038 -0.9887  0.8372 -0.0140
  380TMC3    C3 5733   2.396   1.724  15.914 -0.0809  0.3053 -0.1206
  380TMC3    C4 5734   2.419   1.910  16.106  0.0734  0.5313 -0.8120
  380TMC3    C5 5735   2.362   1.937  15.991 -0.9444 -0.3417 -0.2518
  380TMC3    C6 5736   2.348   1.849  15.885 -0.2987  0.0405 -0.0866
  380TMC3     C 5737   2.565   1.763  16.223  0.4109  0.3241  0.2071
  380TMC3     O 5738   2.579   1.647  16.258 -0.3943  0.9093 -0.4121
  380TMC3     H 5739   2.495   1.592  16.043 -2.3042  0.0693  2.3736
  380TMC3    H1 5740   2.423   1.979  16.189 -0.9236  0.4704 -0.7096
  380TMC3    H2 5741   2.340   1.889  15.785 -0.5817 -3.8670 -1.6455
  380TMC3    C7 5742   2.325   2.069  15.964 -0.4283 -0.2154 -0.7276
  380TMC3    C8 5743   2.476   1.667  15.820  0.2101 -0.7968  0.0362
  380TMC3    O1 5744   2.374   2.155  16.036  0.1538  0.4239 -0.5261
  380TMC3    O2 5745   2.588   1.627  15.836  0.2242  0.0591  0.0788
  381TMC3    C1 5746   2.004   3.209  16.293  0.3085 -0.2161  0.6414
  381TMC3    C2 5747   2.133   3.256  16.258 -0.2897 -0.3000 -0.3216
  381TMC3    C3 5748   2.235   3.168  16.271  0.3703  0.5763 -0.4830
  381TMC3    C4 5749   1.980   3.088  16.356  0.0677 -0.3238 -0.4858
  381TMC3    C5 5750   2.088   3.010  16.368  0.4671 -0.0956  0.2819
  381TMC3    C6 5751   2.212   3.047  16.318  0.2037 -0.8241  0.5325
  381TMC3     C 5752   1.885   3.290  16.277 -0.0548  0.0747 -0.1079
  381TMC3     O 5753   1.783   3.226  16.279  0.1879 -0.1065  0.6923
  381TMC3     H 5754   2.145   3.350  16.204 -0.4336 -0.5942 -0.8665
  381TMC3    H1 5755   1.882   3.051  16.386  0.4237 -0.2436  0.7923
  381TMC3    H2 5756   2.303   2.989  16.331  0.0837 -1.4910 -1.5601
  381TMC3    C7 5757   2.087   2.907  16.472  0.1949 -0.1696 -0.2863
  381TMC3    C8 5758   2.371   3.220  16.265  0.0346  0.6812 -0.1690
  381TMC3    O1 5759   2.167   2.812  16.458  0.1187 -0.1539  0.5217
  381TMC3    O2 5760   2.463   3.143  16.232  0.0375  0.3341  0.8221
  382MPD2     C 5761   1.463   0.371  17.369 -0.4124  0.3549 -0.5939
  382MPD2    C1 5762   1.440   0.311  17.249  0.1964  0.2684  0.1186
  382MPD2    C2 5763   1.415   0.178  17.237  0.1052  0.0459 -0.1166
  382MPD2    C3 5764   1.420   0.097  17.346  0.6740 -0.4370  0.5495
  382MPD2    C4 5765   1.451   0.159  17.468 -0.9226 -0.0535 -0.2841
  382MPD2    C5 5766   1.474   0.292  17.483 -0.3719  0.4752 -0.0218
  382MPD2     H 5767   1.398   0.134  17.139 -1.0569  0.0530  0.0839
  382MPD2    H1 5768   1.461   0.096  17.556  0.8166  2.0245  1.0130
  382MPD2    H2 5769   1.468   0.479  17.377  2.7430 -0.1746  3.9816
  382MPD2    H3 5770   1.501   0.334  17.579 -1.8346 -1.4383  1.2222
  382MPD2     N 5771   1.384   4.695  17.322  0.1568 -0.0373  0.0944
  382MPD2    H5 5772   1.361   4.675  17.226 -0.6962  1.3840  0.0150
  382MPD2    N1 5773   1.441   0.390  17.126  0.1854  0.2613 -0.0786
  382MPD2    H7 5774   1.409   0.342  17.043  2.9153  0.2624 -1.1166
  383TMC3    C1 5775   1.352   4.456  17.370  0.4239  0.0500  0.2331
  383TMC3    C2 5776   1.269   4.441  17.265  0.9229  0.1162 -0.0080
  383TMC3    C3 5777   1.221   4.320  17.235 -0.0594 -0.5422  0.3946
  383TMC3    C4 5778   1.382   4.354  17.452 -0.9038 -0.2659 -0.0163
  383TMC3    C5 5779   1.327   4.234  17.427  0.1158  0.0365 -0.4366
  383TMC3    C6 5780   1.235   4.220  17.326 -0.1312 -0.1374 -1.0291
  383TMC3     C 5781   1.384   4.589  17.417  1.1609  0.5619 -0.0357
  383TMC3     O 5782   1.413   4.593  17.535 -0.1667  0.9769  0.3527
  383TMC3     H 5783   1.235   4.527  17.209  0.5725  0.7520  1.1628
  383TMC3    H1 5784   1.434   4.373  17.545  0.1319  0.3466 -0.7211
  383TMC3    H2 5785   1.175   4.129  17.322 -1.8444  0.8668  1.5106
  383TMC3    C7 5786   1.341   4.124  17.519  0.0131  0.0969 -0.2485
  383TMC3    C8 5787   1.134   4.285  17.129 -1.0081 -0.0240 -1.2256
  383TMC3    O1 5788   1.266   4.028  17.511  0.7694 -0.3405 -0.1235
  383TMC3    O2 5789   1.066   4.374  17.078  0.1837  0.5442  0.8802
  384MPD2     C 5790   3.376   1.730  12.548  0.2668  0.2814  0.6902
  384MPD2    C1 5791   3.327   1.610  12.597  0.0688 -0.1132  0.5388
  384MPD2    C2 5792   3.385   1.487  12.553 -0.8106  0.4354  0.2964
  384MPD2    C3 5793   3.490   1.494  12.467  0.0488  0.0833  0.0095
  384MPD2    C4 5794   3.533   1.616  12.416 -0.5255 -0.4055 -0.1471
  384MPD2    C5 5795   3.474   1.734  12.453 -0.1661 -0.4420  0.2041
  384MPD2     H 5796   3.355   1.391  12.594 -0.1279 -0.2008 -0.7112
  384MPD2    H1 5797   3.617   1.620  12.348 -0.6595  1.4786 -0.1823
  384MPD2    H2 5798   3.331   1.823  12.581 -1.3040  0.5227 -2.1402
  384MPD2    H3 5799   3.508   1.828  12.413  1.7589 -1.1545  0.1822
  384MPD2     N 5800   3.572   1.383  12.440  0.1238 -0.3380 -0.2838
  384MPD2    H5 5801   3.671   1.399  12.423  0.3764 -1.2086  0.4037
  384MPD2    N1 5802   3.240   1.623  12.711 -0.7305  0.9422  0.5752
  384MPD2    H7 5803   3.235   1.721  12.737 -0.0715  1.3953 -1.0313
  385TMC3    C1 5804   3.644   1.164  12.485  0.0521  0.6183 -0.6113
  385TMC3    C2 5805   3.632   1.035  12.460 -0.4813 -0.5629  0.1664
  385TMC3    C3 5806   3.708   0.944  12.529  0.8851  0.2239 -0.1703
  385TMC3    C4 5807   3.719   1.208  12.592  0.4753  0.1383  0.0463
  385TMC3    C5 5808   3.774   1.113  12.679  0.2074 -0.3945  0.3330
  385TMC3    C6 5809   3.776   0.980  12.640 -0.1682 -0.5052  0.3539
  385TMC3     C 5810   3.528   1.253  12.452 -0.5349 -0.2221  0.4811
  385TMC3     O 5811   3.419   1.206  12.479  0.0157 -0.1126 -0.4462
  385TMC3     H 5812   3.561   1.008  12.383 -1.8702 -1.9189  1.9276
  385TMC3    H1 5813   3.703   1.305  12.636 -1.0454 -0.6258  1.1723
  385TMC3    H2 5814   3.853   0.915  12.679  0.0375 -1.1386 -1.0924
  385TMC3    C7 5815   3.737   1.145  12.821 -0.2159 -1.0546 -0.2731
  385TMC3    C8 5816   3.704   0.804  12.488 -0.1846  0.0511  0.1270
  385TMC3    O1 5817   3.743   1.260  12.856  0.1364 -0.4690 -0.2005
  385TMC3    O2 5818   3.756   0.722  12.569  0.0451  0.2289 -0.7689
  386TMC3    C1 5819   3.865   3.200  11.847  0.4541  0.6612  0.1485
  386TMC3    C2 5820   3.930   3.283  11.764 -0.5991 -0.0034 -0.3939
  386TMC3    C3 5821   3.869   3.403  11.740 -0.0207 -0.7769  0.4537
  386TMC3    C4 5822   3.744   3.230  11.904 -0.7520 -0.2771 -0.4598
  386TMC3    C5 5823   3.698   3.353  11.899 -1.2304 -0.4622  0.1113
  386TMC3    C6 5824   3.761   3.438  11.812  0.4733  0.2788  0.8255
  386TMC3     C 5825   3.928   3.067  11.869  0.2796 -0.5507  0.9200
  386TMC3     O 5826   4.047   3.053  11.886  0.0913  0.3555  0.5208
  386TMC3     H 5827   4.023   3.256  11.716  0.2314  1.9631  0.1021
  386TMC3    H1 5828   3.692   3.155  11.963  1.0672 -0.7319  0.5862
  386TMC3    H2 5829   3.734   3.543  11.810  0.4989  0.2306 -1.2565
  386TMC3    C7 5830   3.559   3.375  11.938  0.3175 -0.1841  0.5083
  386TMC3    C8 5831   3.816   3.425  11.609 -0.2264 -0.1943 -0.7516
  386TMC3    O1 5832   3.505   3.273  11.981 -0.1093  0.1895  0.2288
  386TMC3    O2 5833   3.704   3.472  11.608 -0.4587 -0.1943 -0.2633
  387MPD2     C 5834   1.232   3.894  10.191  0.1419 -0.4499 -0.2711
  387MPD2    C1 5835   1.362   3.871  10.213  0.6575  0.6424 -0.1154
  387MPD2    C2 5836   1.420   3.756  10.173 -0.7621 -0.4538  1.2402
  387MPD2    C3 5837   1.348   3.664  10.106 -0.2618  0.4274 -0.4984
  387MPD2    C4 5838   1.218   3.686  10.072  0.2298 -0.3319 -0.5433
  387MPD2    C5 5839   1.163   3.804  10.117 -0.7613  0.9384 -0.6905
  387MPD2     H 5840   1.523   3.731  10.196 -0.5376 -3.0443 -2.5468
  387MPD2    H1 5841   1.160   3.631   9.999 -0.4987 -1.2485  0.7161
  387MPD2    H2 5842   1.180   3.984  10.222  0.0804 -0.2960 -0.8160
  387MPD2    H3 5843   1.062   3.817  10.079 -0.7389  1.8611 -0.4382
  387MPD2     N 5844   1.428   3.561  10.047 -0.2596  0.1231 -0.6147
  387MPD2    H5 5845   1.528   3.570  10.065 -0.7457  0.9621  1.5529
  387MPD2    N1 5846   1.451   3.958  10.284  0.4660 -0.4773 -0.0440
  387MPD2    H7 5847   1.545   3.926  10.300  0.3842 -1.5140 -1.6799
  388TMC3    C1 5848   1.533   4.140  10.407 -0.6180  0.1348  0.0621
  388TMC3    C2 5849   1.554   4.274  10.375 -0.0576  0.0989  0.1393
  388TMC3    C3 5850   1.684   4.318  10.365  0.5902  0.3037  0.0015
  388TMC3    C4 5851   1.645   4.058  10.433 -0.0593 -0.4294  0.4884
  388TMC3    C5 5852   1.766   4.099  10.377  0.6747  0.1791 -0.7400
  388TMC3    C6 5853   1.784   4.228  10.339  0.2786  0.2459 -0.2802
  388TMC3     C 5854   1.424   4.081  10.334 -0.5496  0.5024 -0.5951
  388TMC3     O 5855   1.335   4.161  10.298  0.4283  0.8277 -0.2419
  388TMC3     H 5856   1.478   4.351  10.384  1.4769  1.4273  1.6433
  388TMC3    H1 5857   1.630   3.956  10.467 -3.8067  0.3693  1.3040
  388TMC3    H2 5858   1.888   4.253  10.319  0.3181 -0.0716 -0.4773
  388TMC3    C7 5859   1.823   3.999  10.294 -0.8728 -0.1565  0.2119
  388TMC3    C8 5860   1.724   4.461  10.345  0.2309  0.1583 -0.2942
  388TMC3    O1 5861   1.798   3.881  10.318 -0.0659 -0.0074  0.2739
  388TMC3    O2 5862   1.833   4.478  10.294 -0.4802 -0.4157 -0.1546
  389MPD2     C 5863   0.737   2.104  10.778  0.0844 -0.3723 -0.3256
  389MPD2    C1 5864   0.648   2.038  10.699 -0.5172  0.7576 -0.3077
  389MPD2    C2 5865   0.584   1.937  10.751 -0.2396  0.3114 -0.1604
  389MPD2    C3 5866   0.610   1.890  10.878  0.4523 -0.2672  0.4382
  389MPD2    C4 5867   0.701   1.956  10.960 -0.0871 -0.9333  0.0379
  389MPD2    C5 5868   0.773   2.060  10.899  0.0715  0.3998  0.0163
  389MPD2     H 5869   0.511   1.888  10.688  0.4139 -1.5542  0.5486
  389MPD2    H1 5870   0.716   1.919  11.061  1.9746 -1.1242 -0.3335
  389MPD2    H2 5871   0.789   2.185  10.728 -2.3514  0.3711 -1.6772
  389MPD2    H3 5872   0.849   2.118  10.950 -0.5311  2.7268 -1.7590
  389MPD2     N 5873   0.551   1.777  10.938 -0.1548 -0.5697 -0.2007
  389MPD2    H5 5874   0.591   1.745  11.026  1.1186  0.5875 -0.3500
  389MPD2    N1 5875   0.620   2.088  10.567  0.0526 -0.5055 -0.2632
  389MPD2    H7 5876   0.674   2.167  10.534  1.7213 -1.2392  0.7249
  390TMC3    C1 5877   0.408   1.607  10.983  0.3318  0.8541 -0.5993
  390TMC3    C2 5878   0.468   1.620  11.105  0.2395  0.2121 -0.6185
  390TMC3    C3 5879   0.389   1.574  11.214 -0.2041  0.5228  1.0724
  390TMC3    C4 5880   0.273   1.586  10.981  0.3645  0.8327 -0.0524
  390TMC3    C5 5881   0.196   1.562  11.091  0.2266  0.3224 -0.0086
  390TMC3    C6 5882   0.253   1.557  11.214  0.5021  0.0571  0.1230
  390TMC3     C 5883   0.447   1.707  10.890 -0.1239 -0.2956 -0.2953
  390TMC3     O 5884   0.381   1.716  10.791 -0.3718 -0.0958 -0.2170
  390TMC3     H 5885   0.576   1.612  11.112 -0.0949 -3.7574 -0.1100
  390TMC3    H1 5886   0.219   1.595  10.887 -0.2155  2.7705  0.4573
  390TMC3    H2 5887   0.199   1.546  11.307 -0.9115 -0.5224 -0.7731
  390TMC3    C7 5888   0.110   1.447  11.065  0.4185  0.1019 -0.1195
  390TMC3    C8 5889   0.462   1.574  11.338 -0.2987 -0.3841 -0.0427
  390TMC3    O1 5890   0.134   1.388  10.956  0.6036  0.6047 -0.2496
  390TMC3    O2 5891   0.566   1.639  11.334 -0.2214 -0.3995  0.0979
  391MPD2     C 5892   4.397   3.092  11.302  0.1589 -0.3086  0.1214
  391MPD2    C1 5893   4.526   3.147  11.290  0.2769  0.3990  0.5297
  391MPD2    C2 5894   4.578   3.172  11.166  0.1551  0.3078 -0.4350
  391MPD2    C3 5895   4.501   3.176  11.051 -0.1963 -0.3748 -0.2361
  391MPD2    C4 5896   4.369   3.122  11.062  0.2545  0.0197  0.9407
  391MPD2    C5 5897   4.330   3.073  11.184  0.6453 -0.2174  0.3270
  391MPD2     H 5898   4.680   3.205  11.151  0.0444  1.3613  1.1833
  391MPD2    H1 5899   4.310   3.092  10.976  3.3090 -1.5100 -0.6139
  391MPD2    H2 5900   4.362   3.065  11.400 -1.0740 -0.3061 -0.3279
  391MPD2    H3 5901   4.232   3.026  11.182  1.7587 -2.5457  0.5357
  391MPD2     N 5902   4.565   3.222  10.931 -0.0413  0.1854 -0.0937
  391MPD2    H5 5903   4.655   3.268  10.933 -0.9843  2.0701 -1.2234
  391MPD2    N1 5904   4.588   3.179  11.415 -0.0730 -0.3000  0.2926
  391MPD2    H7 5905   4.525   3.157  11.492  0.6425  0.9741  1.2441
  392TMC3    C1 5906   4.578   3.292  10.709  0.1225  0.6967 -0.1354
  392TMC3    C2 5907   4.509   3.326  10.593  0.6358 -0.5818  0.4808
  392TMC3    C3 5908   4.551   3.430  10.507 -0.0554 -1.0768 -0.7990
  392TMC3    C4 5909   4.683   3.378  10.743  0.0004  0.6434 -0.6241
  392TMC3    C5 5910   4.725   3.478  10.659  0.5151  0.3811 -0.3177
  392TMC3    C6 5911   4.656   3.510  10.544  0.5265  1.0755  0.1244
  392TMC3     C 5912   4.498   3.234  10.813  0.2399  0.2997 -0.2754
  392TMC3     O 5913   4.381   3.206  10.778  0.3976 -0.2278 -0.2273
  392TMC3     H 5914   4.434   3.257  10.556  0.4869 -1.4989  2.4659
  392TMC3    H1 5915   0.000   3.370  10.836 -1.2717  1.3309  0.2033
  392TMC3    H2 5916   4.701   3.581  10.475  1.1492  0.2176 -0.3566
  392TMC3    C7 5917   0.072   3.573  10.715  0.0366  0.0678  0.0719
  392TMC3    C8 5918   4.459   3.465  10.403  0.4241 -0.0946  0.3042
  392TMC3    O1 5919   0.073   3.602  10.831  0.2583  0.4095 -0.1966
  392TMC3    O2 5920   4.357   3.403  10.399  0.1415 -0.6883 -0.2618
  393TMC3    C1 5921   3.242   1.168  10.590  0.2685 -0.5292 -0.3957
  393TMC3    C2 5922   3.163   1.082  10.524 -0.3011 -0.3696  0.5910
  393TMC3    C3 5923   3.122   0.970  10.578 -0.2255 -0.4479 -0.3476
  393TMC3    C4 5924   3.258   1.142  10.722  0.7387  0.7342  0.0843
  393TMC3    C5 5925   3.209   1.031  10.782 -0.6886  0.2279 -0.0827
  393TMC3    C6 5926   3.141   0.936  10.709  0.2767  0.1635 -0.5490
  393TMC3     C 5927   3.282   1.285  10.518  0.0422 -0.4901  0.4523
  393TMC3     O 5928   3.224   1.311  10.413  0.4219 -0.0304  0.2023
  393TMC3     H 5929   3.129   1.110  10.425  0.3176 -0.2446  0.4150
  393TMC3    H1 5930   3.292   1.232  10.772 -1.6618  2.6900 -1.7971
  393TMC3    H2 5931   3.115   0.840  10.753 -1.2084 -0.2863 -2.4200
  393TMC3    C7 5932   3.219   1.019  10.925  0.3493  0.2014  0.3242
  393TMC3    C8 5933   3.054   0.870  10.500 -0.1410  0.0438 -0.0321
  393TMC3    O1 5934   3.129   0.968  10.990 -0.1171 -0.4413  0.4561
  393TMC3    O2 5935   2.987   0.783  10.558 -0.1193  0.0294 -0.2589
  394TMC3    C1 5936   0.563   2.061  10.332  0.4535 -0.1903 -0.0846
  394TMC3    C2 5937   0.547   1.963  10.239 -0.0708  0.0862  0.1942
  394TMC3    C3 5938   0.615   1.980  10.122 -0.1614 -0.1067 -0.2208
  394TMC3    C4 5939   0.636   2.174  10.308 -0.8529  0.2111  0.3071
  394TMC3    C5 5940   0.705   2.180  10.192 -0.7532  0.3851 -0.2284
  394TMC3    C6 5941   0.695   2.087  10.097  0.1847 -0.4339 -0.4526
  394TMC3     C 5942   0.541   2.024  10.473  0.0319  0.0168  0.0858
  394TMC3     O 5943   0.442   1.955  10.487 -0.0912  0.0373 -0.6830
  394TMC3     H 5944   0.495   1.869  10.255  1.7670 -0.5658  2.3261
  394TMC3    H1 5945   0.659   2.248  10.384 -0.2691 -1.0210  1.3290
  394TMC3    H2 5946   0.744   2.106  10.003  1.3554  2.8223  0.8142
  394TMC3    C7 5947   0.745   2.323  10.161  0.1580  0.2768 -0.0240
  394TMC3    C8 5948   0.597   1.883  10.020  0.5645 -0.6922 -0.3185
  394TMC3    O1 5949   0.684   2.400  10.233  0.1142  0.6899 -0.3897
  394TMC3    O2 5950   0.499   1.808  10.031 -0.3816 -0.0000 -0.1546
  395TMC3    C1 5951   0.209   3.608  15.155  1.1060 -0.4310 -0.0909
  395TMC3    C2 5952   0.073   3.601  15.152 -0.1568 -0.0843  0.6350
  395TMC3    C3 5953   0.003   3.718  15.176  0.4834 -0.0191  0.2678
  395TMC3    C4 5954   0.278   3.730  15.174  0.4030 -1.1239 -0.8718
  395TMC3    C5 5955   0.195   3.846  15.186  0.2158  0.2323  0.3858
  395TMC3    C6 5956   0.060   3.841  15.206 -0.9241  0.3610 -0.0221
  395TMC3     C 5957   0.274   3.497  15.230 -0.4590  0.1051  0.1836
  395TMC3     O 5958   0.393   3.470  15.212  0.1935 -0.2777  0.2868
  395TMC3     H 5959   0.029   3.503  15.140 -0.2562  0.0618 -0.2239
  395TMC3    H1 5960   0.386   3.733  15.185  0.2330 -0.5146  0.6377
  395TMC3    H2 5961   4.726   3.922  15.206  0.2045  1.3596 -2.2152
  395TMC3    C7 5962   0.241   3.983  15.176 -0.0217  0.2835  0.4713
  395TMC3    C8 5963   4.606   3.697  15.227 -0.2226 -0.2014  0.0739
  395TMC3    O1 5964   0.167   4.073  15.217  0.1845  0.0533 -0.3782
  395TMC3    O2 5965   4.577   3.776  15.321 -0.0235  0.2958  0.5685
  396MPD2     C 5966   4.738   4.537  17.230  0.1597 -0.0215 -0.0960
  396MPD2    C1 5967   0.098   4.613  17.288 -0.7445 -1.0583  0.4309
  396MPD2    C2 5968   0.109   0.007  17.241 -0.0837 -0.1414  0.0937
  396MPD2    C3 5969   0.023   0.051  17.138  0.3480 -0.6547 -0.5265
  396MPD2    C4 5970   4.657   4.706  17.095 -0.3895  0.4272  0.5694
  396MPD2    C5 5971   4.660   4.581  17.129  0.1176 -0.2492 -0.0332
  396MPD2     H 5972   0.178   0.079  17.284  1.4276 -0.9632 -0.9340
  396MPD2    H1 5973   4.574   4.737  17.031  0.5397 -0.1994 -0.9396
  396MPD2    H2 5974   4.727   4.432  17.254  1.5306 -0.1347 -0.0069
  396MPD2    H3 5975   4.582   4.512  17.100 -1.8135  2.2457 -0.8451
  396MPD2     N 5976   0.041   0.184  17.086 -0.3222  0.1433 -0.6764
  396MPD2    H5 5977   0.131   0.225  17.108  0.9570 -3.2858  0.5857
  396MPD2    N1 5978   0.181   4.547  17.384 -0.3252  0.3727 -0.4279
  396MPD2    H7 5979   0.154   4.453  17.409 -1.3191  1.2070  1.6883
  397TMC3    C1 5980   0.369   4.512  17.522 -0.2570  0.2673  0.2529
  397TMC3    C2 5981   0.488   4.491  17.454 -0.7044  0.3129 -0.3543
  397TMC3    C3 5982   0.510   4.361  17.409  0.5108 -0.1295  0.1899
  397TMC3    C4 5983   0.303   4.403  17.569 -0.4846 -0.2646 -0.2209
  397TMC3    C5 5984   0.346   4.276  17.552  0.0860  0.3155 -0.8682
  397TMC3    C6 5985   0.445   4.249  17.458 -0.8809 -0.1773  0.0409
  397TMC3     C 5986   0.286   4.612  17.454 -0.1044  0.2297 -0.8001
  397TMC3     O 5987   0.321   4.729  17.446  0.2874 -0.4863 -0.1838
  397TMC3     H 5988   0.524   4.583  17.409  1.5029 -1.0350 -1.3669
  397TMC3    H1 5989   0.214   4.425  17.627 -1.2755 -1.3970 -1.0113
  397TMC3    H2 5990   0.491   4.151  17.452 -0.2576  0.3406 -3.8441
  397TMC3    C7 5991   0.241   4.177  17.575  0.2499  0.3656 -0.3818
  397TMC3    C8 5992   0.515   4.359  17.268 -0.0071 -0.1219 -0.4449
  397TMC3    O1 5993   0.236   4.093  17.486  0.3826 -0.6868 -0.1628
  397TMC3    O2 5994   0.522   4.468  17.207 -0.2945  0.4517 -0.0451
  398MPD2     C 5995   2.387   0.843  17.439  0.4384 -1.0030  0.0654
  398MPD2    C1 5996   2.472   0.788  17.533 -0.9440 -0.5238  0.0975
  398MPD2    C2 5997   2.521   0.862  17.641 -0.1995  0.5907  0.0727
  398MPD2    C3 5998   2.476   0.988  17.660 -1.0738 -0.0867 -0.3989
  398MPD2    C4 5999   2.380   1.037  17.571 -0.3429  0.4012 -0.0402
  398MPD2    C5 6000   2.331   0.964  17.467  0.7764 -0.3864 -0.1234
  398MPD2     H 6001   2.603   0.826  17.702  0.1773 -0.8298 -1.2498
  398MPD2    H1 6002   2.338   1.137  17.575 -0.1654  0.4019  2.2952
  398MPD2    H2 6003   2.371   0.788  17.347  1.3011 -0.8215 -0.1886
  398MPD2    H3 6004   2.276   1.013  17.388  0.2275 -1.3331 -0.3349
  398MPD2     N 6005   2.558   1.070  17.745  0.0025 -0.0291  0.9636
  398MPD2    H5 6006   2.621   1.021   0.057 -0.2438 -0.9238  0.5131
  398MPD2    N1 6007   2.531   0.658  17.511 -0.1308 -0.1034  0.1398
  398MPD2    H7 6008   2.603   0.628  17.576 -1.6317 -0.3756  1.6691
  399TMC3    C1 6009   2.577   0.451  17.417 -0.2904  0.4967  0.1747
  399TMC3    C2 6010   2.705   0.461  17.473  0.1651  0.4630 -0.1457
  399TMC3    C3 6011   2.754   0.342  17.525 -0.7305  0.4496 -0.0716
  399TMC3    C4 6012   2.507   0.334  17.405 -0.3896  0.0203  0.0577
  399TMC3    C5 6013   2.563   0.222  17.463 -0.4759  0.5005 -0.3658
  399TMC3    C6 6014   2.688   0.226  17.528 -0.0816 -0.3352 -0.3500
  399TMC3     C 6015   2.485   0.568  17.428 -0.7909 -0.1233  0.2273
  399TMC3     O 6016   2.375   0.565  17.374 -0.3748 -0.9439  0.0635
  399TMC3     H 6017   2.753   0.558  17.469  0.6416  0.1871 -0.9671
  399TMC3    H1 6018   2.403   0.338  17.375 -0.2552 -0.0860 -0.4148
  399TMC3    H2 6019   2.743   0.133  17.540  3.5239  1.5523 -2.1469
  399TMC3    C7 6020   2.490   0.098  17.492 -0.7575 -0.5376 -0.5244
  399TMC3    C8 6021   2.895   0.338  17.549  0.1817 -0.6062 -0.2851
  399TMC3    O1 6022   2.537   0.025  17.578  0.3376  0.5522  0.7008
  399TMC3    O2 6023   2.947   0.228  17.519 -0.6913  0.5525 -0.0331
  400TMC3    C1 6024   1.414   4.298  16.809  0.1921 -0.2839  0.3336
  400TMC3    C2 6025   1.305   4.260  16.731  0.0947  0.5445 -0.4363
  400TMC3    C3 6026   1.199   4.353  16.718 -0.6738 -0.7524  0.4918
  400TMC3    C4 6027   1.407   4.413  16.883 -0.2699  0.2175 -0.1528
  400TMC3    C5 6028   1.306   4.497  16.865  0.4085  0.0930 -0.4727
  400TMC3    C6 6029   1.199   4.470  16.785  0.1972 -0.2715 -0.4377
  400TMC3     C 6030   1.466   4.185  16.878  0.0669  0.0828  0.1328
  400TMC3     O 6031   1.439   4.073  16.837 -0.2463 -0.8678  0.2915
  400TMC3     H 6032   1.310   4.166  16.677 -1.7574  0.7179 -0.9393
  400TMC3    H1 6033   1.489   4.447  16.947 -2.4901  1.7049  1.9152
  400TMC3    H2 6034   1.126   4.544  16.754  0.9318  0.1075 -1.3033
  400TMC3    C7 6035   1.305   4.613  16.947  0.4239 -0.3274 -0.4358
  400TMC3    C8 6036   1.061   4.322  16.680 -0.6540 -0.2709 -0.9724
  400TMC3    O1 6037   1.372   4.616  17.053  0.1720 -0.9003 -0.1097
  400TMC3    O2 6038   0.969   4.366  16.748  0.0659 -0.3835  0.7482
  401MPD2     C 6039   3.932   2.999   0.632 -0.5877 -0.0711 -0.0697
  401MPD2    C1 6040   4.018   2.940   0.723 -0.2640  0.5196  0.3761
  401MPD2    C2 6041   4.060   2.810   0.706 -0.3238 -0.3042 -0.2050
  401MPD2    C3 6042   4.014   2.734   0.599  0.2010  0.3045  0.3536
  401MPD2    C4 6043   3.918   2.787   0.517 -0.4379  0.5512  0.7933
  401MPD2    C5 6044   3.885   2.918   0.528 -0.0836  0.1468 -0.1185
  401MPD2     H 6045   4.134   2.770   0.774 -1.2112 -0.8001  0.4662
  401MPD2    H1 6046   3.879   2.729   0.435 -0.8520 -0.5876  1.7902
  401MPD2    H2 6047   3.906   3.104   0.623  1.4600  0.3977 -0.6356
  401MPD2    H3 6048   3.811   2.952   0.457 -0.8829 -0.9425  0.2001
  401MPD2     N 6049   4.067   2.600   0.585 -0.2838  0.1117  0.1790
  401MPD2    H5 6050   4.129   2.574   0.661  1.4271  1.1202 -0.8511
  401MPD2    N1 6051   4.082   3.013   0.827  0.4729 -0.6286 -0.7926
  401MPD2    H7 6052   4.156   2.968   0.880 -0.7214 -2.9479 -1.1223
  402TMC3    C1 6053   4.125   2.397   0.495 -0.2394 -0.2622  0.2431
  402TMC3    C2 6054   4.149   2.336   0.616  0.7974 -0.0828  0.2445
  402TMC3    C3 6055   4.213   2.214   0.616  1.0627  0.0550 -0.1746
  402TMC3    C4 6056   4.172   2.350   0.378  0.4577 -0.0706 -0.2227
  402TMC3    C5 6057   4.232   2.221   0.385  0.0115  0.1169  0.1025
  402TMC3    C6 6058   4.252   2.154   0.502  0.4281 -0.4624 -0.7344
  402TMC3     C 6059   4.041   2.514   0.486 -0.3278  0.6860 -0.1965
  402TMC3     O 6060   3.991   2.536   0.376  0.7166 -0.1235  0.5556
  402TMC3     H 6061   4.106   2.368   0.710  1.3259  0.4038  0.3185
  402TMC3    H1 6062   4.165   2.406   0.286 -0.7142 -1.1011 -0.7607
  402TMC3    H2 6063   4.305   2.060   0.492  2.1107  0.3563  0.4951
  402TMC3    C7 6064   4.345   2.216   0.296  0.7783  0.1040 -0.3415
  402TMC3    C8 6065   4.271   2.152   0.739  0.4116 -0.0927 -0.5120
  402TMC3    O1 6066   4.324   2.237   0.176  0.0314 -0.1808 -0.1380
  402TMC3    O2 6067   4.382   2.110   0.722 -0.2954 -1.1657  0.3588
  403MPD2     C 6068   3.201   0.570  13.600  0.3480  0.0937 -0.1762
  403MPD2    C1 6069   3.171   0.590  13.733  0.0481 -0.7161 -0.3591
  403MPD2    C2 6070   3.217   0.698  13.798  0.4670 -0.7103  0.3721
  403MPD2    C3 6071   3.302   0.784  13.746  0.4340  0.1023 -0.4256
  403MPD2    C4 6072   3.341   0.770  13.614  0.2830  0.0007 -0.1241
  403MPD2    C5 6073   3.290   0.654  13.545  0.9895 -0.5218 -1.0380
  403MPD2     H 6074   3.185   0.716  13.900 -0.9712  1.4072 -0.4555
  403MPD2    H1 6075   3.405   0.833  13.553  2.3619  0.2965  2.3457
  403MPD2    H2 6076   3.173   0.487  13.536  1.3712  0.1789 -0.7348
  403MPD2    H3 6077   3.313   0.637  13.440 -1.5424  2.7208 -2.1020
  403MPD2     N 6078   3.326   0.902  13.815  0.3235  0.3030  0.1312
  403MPD2    H5 6079   3.258   0.924  13.886 -0.6784 -1.6981 -0.1987
  403MPD2    N1 6080   3.071   0.524  13.809 -0.1143  0.3733  0.3730
  403MPD2    H7 6081   3.083   0.546  13.907  1.8651  0.3688  0.1453
  404TMC3    C1 6082   2.888   0.413  13.879 -0.2659  0.3091 -0.5179
  404TMC3    C2 6083   2.884   0.489  13.992 -0.4386 -0.0796 -0.6091
  404TMC3    C3 6084   2.778   0.472  14.078  0.3899 -0.3980  0.3603
  404TMC3    C4 6085   2.791   0.325  13.851  0.1405 -0.2580  0.4674
  404TMC3    C5 6086   2.685   0.313  13.933 -0.2032 -0.3033 -0.5199
  404TMC3    C6 6087   2.672   0.381  14.047 -0.0669 -0.0723  0.2911
  404TMC3     C 6088   2.972   0.449  13.764 -0.2712  0.1389  0.3469
  404TMC3     O 6089   2.952   0.410  13.649  0.0047 -0.3380  0.4693
  404TMC3     H 6090   2.956   0.568  14.011 -1.4324  0.4459  1.0148
  404TMC3    H1 6091   2.796   0.268  13.758  0.3517  0.2364  0.1767
  404TMC3    H2 6092   2.595   0.366  14.121  0.3740 -2.0085  0.3466
  404TMC3    C7 6093   2.576   0.219  13.890 -0.3159  0.1149  0.3936
  404TMC3    C8 6094   2.832   0.480  14.216 -0.0465  0.6262  0.1531
  404TMC3    O1 6095   2.539   0.138  13.974 -0.2341 -0.1060 -0.3947
  404TMC3    O2 6096   2.953   0.486  14.223  0.0736 -0.3513 -0.1599
  405MPD2     C 6097   3.064   2.012  14.825 -0.0506 -0.0728 -0.7294
  405MPD2    C1 6098   3.016   1.925  14.725  0.0785 -0.0696  0.3324
  405MPD2    C2 6099   2.904   1.970  14.657  0.1832 -0.9425 -0.1242
  405MPD2    C3 6100   2.838   2.083  14.692 -0.4866 -0.4409  0.1133
  405MPD2    C4 6101   2.876   2.157  14.798 -0.3605  0.3257 -0.5546
  405MPD2    C5 6102   2.990   2.121  14.859 -0.5427  0.7130 -0.2085
  405MPD2     H 6103   2.849   1.907  14.588  1.0683 -0.2618 -1.4284
  405MPD2    H1 6104   2.810   2.234  14.837  0.2472  1.3697 -1.5941
  405MPD2    H2 6105   3.148   1.983  14.887 -0.3708 -1.0572 -0.7464
  405MPD2    H3 6106   3.021   2.172  14.949 -1.8192  0.2910  0.4662
  405MPD2     N 6107   2.706   2.105  14.635  0.6798  0.6075  0.0472
  405MPD2    H5 6108   2.682   2.036  14.564 -2.7212 -2.0347  3.7120
  405MPD2    N1 6109   3.083   1.799  14.703 -0.4220 -0.3143  0.0965
  405MPD2    H7 6110   3.164   1.776  14.760  0.6752 -0.1915 -1.4091
  406TMC3    C1 6111   2.298   2.213  14.478 -0.4434  0.4403 -1.1514
  406TMC3    C2 6112   2.253   2.087  14.492  0.8936  0.2733 -0.3827
  406TMC3    C3 6113   2.342   2.004  14.547  0.0224 -0.3232 -0.5086
  406TMC3    C4 6114   2.410   2.262  14.545  0.4341  0.3405 -0.0245
  406TMC3    C5 6115   2.482   2.175  14.619 -1.0418 -0.6034  0.2338
  406TMC3    C6 6116   2.460   2.045  14.604 -0.5402 -0.1764  0.4280
  406TMC3     C 6117   2.207   2.318  14.420 -0.5157 -0.4385  0.7605
  406TMC3     O 6118   2.232   2.440  14.429 -0.5295  0.0180 -0.3593
  406TMC3     H 6119   2.170   2.049  14.433  1.6795 -0.7422 -0.8416
  406TMC3    H1 6120   2.435   2.367  14.544  2.2702 -0.0673  1.8777
  406TMC3    H2 6121   2.498   1.980  14.683 -1.8311 -2.1650 -0.5830
  406TMC3    C7 6122   2.619   2.207  14.658 -0.3296  0.0435  0.3540
  406TMC3    C8 6123   2.329   1.859  14.515  0.2166 -0.0141  0.2799
  406TMC3    O1 6124   2.629   2.324  14.696 -0.0511  0.8181 -0.1244
  406TMC3    O2 6125   2.221   1.812  14.479 -0.5805  0.2802  0.6993
  407MPD2     C 6126   0.823   3.351   9.838  0.6199 -0.1702  0.2838
  407MPD2    C1 6127   0.952   3.345   9.888  0.2939 -0.1784  0.1983
  407MPD2    C2 6128   0.980   3.421  10.003 -0.0011  0.9026  0.0549
  407MPD2    C3 6129   0.873   3.480  10.075  0.5239 -0.6826  0.4476
  407MPD2    C4 6130   0.745   3.471  10.027 -0.2962  0.0051 -0.1930
  407MPD2    C5 6131   0.721   3.412   9.907  0.0580 -0.7259 -0.1956
  407MPD2     H 6132   1.080   3.429  10.044  1.0425  0.0649 -2.3778
  407MPD2    H1 6133   0.662   3.510  10.085 -0.6056 -1.1307  0.1333
  407MPD2    H2 6134   0.791   3.296   9.750 -3.1027 -0.7635  2.0208
  407MPD2    H3 6135   0.621   3.407   9.865 -0.1932  0.7344  0.2587
  407MPD2     N 6136   0.891   3.546  10.198  0.1573  0.3826  0.2661
  407MPD2    H5 6137   0.821   3.611  10.233  1.0929 -0.6480  4.0270
  407MPD2    N1 6138   1.056   3.258   9.843  0.6511  1.2790  0.1031
  407MPD2    H7 6139   1.149   3.269   9.884  0.6068 -0.1390  0.5903
  408TMC3    C1 6140   1.188   3.130   9.702  0.0386  0.2331  0.2009
  408TMC3    C2 6141   1.249   3.210   9.612 -0.5671 -0.0548 -0.5459
  408TMC3    C3 6142   1.327   3.142   9.515 -0.2334 -0.0593  0.0534
  408TMC3    C4 6143   1.193   2.994   9.685 -0.5083 -0.1730 -0.1163
  408TMC3    C5 6144   1.275   2.935   9.597  0.6199 -0.0352  0.3159
  408TMC3    C6 6145   1.341   3.008   9.505 -0.1249 -0.0863  0.8013
  408TMC3     C 6146   1.055   3.174   9.736 -0.0964 -0.2207 -0.1133
  408TMC3     O 6147   0.963   3.119   9.676  0.4278 -0.6397 -0.3583
  408TMC3     H 6148   1.228   3.317   9.607  1.2525  0.3359  0.0813
  408TMC3    H1 6149   1.135   2.929   9.750  3.7039 -2.9449  0.8561
  408TMC3    H2 6150   1.402   2.961   9.428 -0.0609  1.2332  0.0568
  408TMC3    C7 6151   1.280   2.794   9.575  0.0521  0.1639  0.6593
  408TMC3    C8 6152   1.427   3.214   9.450 -0.0920  0.3229 -0.5157
  408TMC3    O1 6153   1.365   2.758   9.501 -0.6000  0.0085 -0.0918
  408TMC3    O2 6154   1.523   3.151   9.407 -0.1170 -0.3887  0.2463
  409MPD2     C 6155   4.571   3.772  16.885  0.0264 -0.2727  0.0126
  409MPD2    C1 6156   4.704   3.732  16.894  0.2659  0.2412 -0.9479
  409MPD2    C2 6157   0.064   3.815  16.839 -0.7292 -0.4484 -0.2240
  409MPD2    C3 6158   0.036   3.933  16.773  0.3496  0.2746  0.3014
  409MPD2    C4 6159   4.640   3.969  16.771 -0.0436 -0.0139 -0.5610
  409MPD2    C5 6160   4.536   3.894  16.823  0.8706  0.2412 -0.3944
  409MPD2     H 6161   0.169   3.801  16.859 -0.7605  2.4460  1.9576
  409MPD2    H1 6162   4.606   4.068  16.745 -1.9172 -0.6569 -0.6107
  409MPD2    H2 6163   4.485   3.721  16.925  1.4117 -1.2967  1.7184
  409MPD2    H3 6164   4.430   3.915  16.814  0.4497 -2.6134 -2.0846
  409MPD2     N 6165   0.137   4.024  16.731  0.0001 -0.5619 -0.6464
  409MPD2    H5 6166   0.110   4.116  16.700  0.2178  0.0383  0.9082
  409MPD2    N1 6167   0.009   3.612  16.958 -0.6560  0.2529  0.4422
  409MPD2    H7 6168   0.108   3.587  16.963 -0.6827 -0.2189 -1.5088
  410TMC3    C1 6169   0.358   4.108  16.718  0.1989  0.4492 -0.3110
  410TMC3    C2 6170   0.488   4.091  16.760  0.2094 -0.2677  0.0047
  410TMC3    C3 6171   0.565   4.206  16.770 -0.4321  0.0431 -0.3004
  410TMC3    C4 6172   0.315   4.238  16.682 -0.0451  0.3136  0.3322
  410TMC3    C5 6173   0.393   4.350  16.698  0.1826  0.0670  0.6848
  410TMC3    C6 6174   0.522   4.330  16.738 -0.7391 -0.3747 -0.3188
  410TMC3     C 6175   0.270   3.992  16.714 -0.2213 -0.3599  0.5237
  410TMC3     O 6176   0.326   3.884  16.733  0.4438  0.4212 -0.2524
  410TMC3     H 6177   0.515   3.992  16.795 -0.4047 -0.3346  0.2804
  410TMC3    H1 6178   0.214   4.251  16.646 -0.1103 -1.5589 -0.1230
  410TMC3    H2 6179   0.591   4.414  16.741 -1.2332 -0.0724  2.6522
  410TMC3    C7 6180   0.365   4.458  16.607  0.0166  0.1317  0.5406
  410TMC3    C8 6181   0.693   4.192  16.841  0.2011  0.1909 -0.8021
  410TMC3    O1 6182   0.291   4.430  16.514 -0.1492  0.1449 -0.0020
  410TMC3    O2 6183   0.745   4.295  16.887 -0.3276 -0.2330 -0.3059
  411MPD2     C 6184   0.341   4.681  14.884 -0.6330  0.1382  1.3583
  411MPD2    C1 6185   0.211   4.714  14.891  0.1506 -0.4127 -0.2039
  411MPD2    C2 6186   0.119   4.607  14.871 -0.8394  0.1837 -1.1523
  411MPD2    C3 6187   0.164   4.478  14.872 -0.2931  0.4225  0.2799
  411MPD2    C4 6188   0.300   4.449  14.877  0.6357  0.8231  0.2743
  411MPD2    C5 6189   0.389   4.550  14.898 -0.7595 -0.4154 -0.1720
  411MPD2     H 6190   0.015   4.636  14.861 -1.0438 -0.1738 -0.0639
  411MPD2    H1 6191   0.332   4.346  14.890 -0.5324  0.2465 -1.3252
  411MPD2    H2 6192   0.419   0.016  14.907  1.1748 -1.5565  0.5383
  411MPD2    H3 6193   0.494   4.529  14.914 -0.8218  0.0523  0.9076
  411MPD2     N 6194   0.089   4.364  14.843 -0.5459 -0.2041  0.1249
  411MPD2    H5 6195   0.134   4.281  14.807 -0.6716  0.3820 -1.3896
  411MPD2    N1 6196   0.148   0.103  14.910  0.0074 -0.1950 -1.0013
  411MPD2    H7 6197   0.046   0.103  14.914  0.0802 -1.0550  1.0691
  412TMC3    C1 6198   4.613   4.262  14.797  0.2323  0.2940 -0.2388
  412TMC3    C2 6199   4.480   4.242  14.836 -0.0240 -0.1036  0.4484
  412TMC3    C3 6200   4.392   4.190  14.744 -0.9990  0.2875  0.3492
  412TMC3    C4 6201   4.653   4.225  14.672 -0.1791 -0.3368  0.8935
  412TMC3    C5 6202   4.565   4.180  14.579  0.2305  0.5325 -0.1063
  412TMC3    C6 6203   4.437   4.158  14.614  0.2647 -0.3969  0.5147
  412TMC3     C 6204   4.693   4.370  14.856 -0.1759  0.0493  0.1841
  412TMC3     O 6205   4.633   4.447  14.928  0.2524  0.0454  0.0470
  412TMC3     H 6206   4.441   4.276  14.931  0.0884  0.4411  0.3046
  412TMC3    H1 6207   0.006   4.268  14.630 -0.8107 -0.1112 -0.2378
  412TMC3    H2 6208   4.375   4.100  14.546  0.6249 -0.0866 -0.0803
  412TMC3    C7 6209   4.590   4.226  14.444  0.1390 -0.3531 -0.4943
  412TMC3    C8 6210   4.249   4.223  14.736  0.7053  0.3444 -0.0775
  412TMC3    O1 6211   4.706   4.238  14.417  0.3157 -0.4240  0.3797
  412TMC3    O2 6212   4.226   4.340  14.703 -0.2586 -0.2108  0.2048
  413MPD2     C 6213   2.017   2.956  15.512  0.5159  0.1748  0.0645
  413MPD2    C1 6214   1.967   2.942  15.380  0.0390 -0.0794 -0.1468
  413MPD2    C2 6215   2.040   2.869  15.292  0.2588  0.5068  0.1192
  413MPD2    C3 6216   2.176   2.838  15.320 -0.2805 -0.4310 -0.0551
  413MPD2    C4 6217   2.228   2.869  15.446 -0.4101  0.3609  0.3049
  413MPD2    C5 6218   2.146   2.926  15.542 -0.2635  0.0311 -0.6390
  413MPD2     H 6219   1.996   2.827  15.202  0.9994  1.8204 -0.8485
  413MPD2    H1 6220   2.331   2.841  15.464 -0.7882 -1.6686 -0.7587
  413MPD2    H2 6221   1.957   3.010  15.584  3.0001  0.6662  1.7484
  413MPD2    H3 6222   2.190   2.954  15.637 -0.7252  0.2445 -0.4936
  413MPD2     N 6223   2.241   2.760  15.224  0.6261  0.3415 -0.7208
  413MPD2    H5 6224   2.186   2.725  15.146 -2.5829  0.5404  1.4401
  413MPD2    N1 6225   1.841   2.993  15.346 -0.6014  0.6362 -0.2057
  413MPD2    H7 6226   1.802   3.046  15.423  0.0349  2.0952 -0.8779
  414TMC3    C1 6227   2.373   2.592  15.145  0.3108  0.3555 -0.5192
  414TMC3    C2 6228   2.457   2.490  15.200 -0.2249  0.3923 -0.6664
  414TMC3    C3 6229   2.542   2.429  15.112  1.0242 -0.2312 -0.3262
  414TMC3    C4 6230   2.393   2.630  15.009  0.3463  0.1944  0.2207
  414TMC3    C5 6231   2.483   2.563  14.932  0.0145 -0.4516 -0.1400
  414TMC3    C6 6232   2.548   2.447  14.976  0.7701  0.4259  0.0712
  414TMC3     C 6233   2.354   2.693  15.247 -0.2752  0.2583  0.1441
  414TMC3     O 6234   2.428   2.693  15.343 -0.6461  0.4557  0.6529
  414TMC3     H 6235   2.456   2.462  15.305  0.9817  0.2158 -0.7110
  414TMC3    H1 6236   2.349   2.725  14.981 -1.8023 -0.8866 -0.1259
  414TMC3    H2 6237   2.629   2.395  14.926  0.6912  0.8353 -0.4786
  414TMC3    C7 6238   2.581   2.658  14.889 -0.7203  0.0165 -0.3343
  414TMC3    C8 6239   2.639   2.333  15.167  0.2710  0.5817  0.3231
  414TMC3    O1 6240   2.593   2.766  14.943  0.1092 -0.2440  0.3792
  414TMC3    O2 6241   2.645   2.226  15.108 -0.3110 -0.3524 -0.0169
  415TMC3    C1 6242   3.326   0.535  10.409  0.3698 -0.3749  0.0777
  415TMC3    C2 6243   3.376   0.620  10.317  0.0412 -0.6797  0.3854
  415TMC3    C3 6244   3.371   0.591  10.184 -0.5120  0.2864  0.1421
  415TMC3    C4 6245   3.251   0.428  10.364  0.2113  0.5507  0.7987
  415TMC3    C5 6246   3.236   0.409  10.230 -0.1121 -0.1098  0.0946
  415TMC3    C6 6247   3.294   0.488  10.133  0.8871 -0.2051 -1.1667
  415TMC3     C 6248   3.337   0.550  10.551 -0.1374 -0.2535  0.3258
  415TMC3     O 6249   3.270   0.476  10.629 -0.2126  0.0575 -0.3194
  415TMC3     H 6250   3.434   0.705  10.350  0.1445 -0.3597 -0.6214
  415TMC3    H1 6251   3.185   0.376  10.434  0.0986 -2.8549 -1.8626
  415TMC3    H2 6252   3.271   0.474  10.028 -5.2407  1.3956 -0.0029
  415TMC3    C7 6253   3.158   0.298  10.180  0.8934  0.0776 -0.2977
  415TMC3    C8 6254   3.439   0.664  10.079 -0.1974 -0.4453 -0.4953
  415TMC3    O1 6255   3.169   0.260  10.063 -0.3937  0.2915 -0.3389
  415TMC3    O2 6256   3.439   0.610   9.968 -0.1389  0.0448 -0.6635
  416MPD2     C 6257   4.667   4.696  11.629 -0.0788 -0.3891 -0.1118
  416MPD2    C1 6258   4.584   4.603  11.564  0.0062  0.5513 -0.3547
  416MPD2    C2 6259   4.632   4.468  11.559 -0.7394  0.0153 -0.5277
  416MPD2    C3 6260   0.012   4.428  11.618  0.4434  0.3628  0.1592
  416MPD2    C4 6261   0.096   4.524  11.672 -0.3206 -0.4122 -0.0898
  416MPD2    C5 6262   0.050   4.657  11.682  0.6980 -0.0582 -0.7801
  416MPD2     H 6263   4.570   4.390  11.517 -1.6609 -0.5831  1.9122
  416MPD2    H1 6264   0.184   4.494  11.729  0.9305  1.3340 -1.1047
  416MPD2    H2 6265   4.632   0.059  11.651 -1.3179 -1.0677  1.0663
  416MPD2    H3 6266   0.112   4.727  11.737  1.8638  0.0831 -2.2784
  416MPD2     N 6267   0.043   4.288  11.609 -0.3761 -0.3119  0.9336
  416MPD2    H5 6268   4.722   4.233  11.547  0.2303  0.2123 -0.1041
  416MPD2    N1 6269   4.451   4.638  11.533 -0.0053  0.3024  0.2243
  416MPD2    H7 6270   4.414   4.728  11.562 -0.6656  0.5121 -1.2605
  417TMC3    C1 6271   4.221   4.610  11.486 -0.3632 -0.1280 -0.4870
  417TMC3    C2 6272   4.131   4.572  11.580 -0.4010 -0.8308 -0.1738
  417TMC3    C3 6273   4.026   4.660  11.615 -0.4864 -0.2865  0.1703
  417TMC3    C4 6274   4.217   4.734  11.429  0.4350 -0.4568  0.5166
  417TMC3    C5 6275   4.115   0.079  11.467  0.2547 -0.9482 -0.4450
  417TMC3    C6 6276   4.010   0.040  11.552 -0.0286  0.1306 -0.1895
  417TMC3     C 6277   4.351   4.542  11.515  0.0215 -0.7995  0.5851
  417TMC3     O 6278   4.346   4.422  11.529  0.0874 -1.1661 -0.7080
  417TMC3     H 6279   4.143   4.475  11.627  1.8024  0.4550  1.9209
  417TMC3    H1 6280   4.301   0.043  11.379 -0.9666  1.5006 -0.0462
  417TMC3    H2 6281   3.936   0.114  11.580  0.1495  0.3507 -0.3008
  417TMC3    C7 6282   4.132   0.222  11.438 -0.1835  0.1942  0.1594
  417TMC3    C8 6283   3.981   4.664  11.750  0.1499 -0.0594 -0.8865
  417TMC3    O1 6284   4.190   0.257  11.333 -0.5197  0.1393 -0.3304
  417TMC3    O2 6285   3.915   0.024  11.787 -0.4390  0.7345 -0.1665
  418TMC3    C1 6286   2.664   1.447   0.243  0.0505  0.4592  0.4150
  418TMC3    C2 6287   2.619   1.400   0.127 -1.3025  0.8814  0.5544
  418TMC3    C3 6288   2.632   1.262   0.109  0.6477 -0.0453 -0.0621
  418TMC3    C4 6289   2.722   1.373   0.343 -0.1088 -0.2077  0.5125
  418TMC3    C5 6290   2.724   1.236   0.323  0.3051 -0.2277  0.4817
  418TMC3    C6 6291   2.674   1.181   0.208  0.1005  0.2667 -0.1827
  418TMC3     C 6292   2.729   1.572   0.222  0.4520  0.7687 -0.6236
  418TMC3     O 6293   2.668   1.656   0.160 -0.2622 -0.0236 -0.3131
  418TMC3     H 6294   2.565   1.468   0.061 -1.5631  1.5083  1.4247
  418TMC3    H1 6295   2.757   1.415   0.437  0.7358 -3.2571  1.5585
  418TMC3    H2 6296   2.680   1.073   0.205 -1.1384  0.1976  0.0534
  418TMC3    C7 6297   2.785   1.151   0.421 -0.9047 -0.3813 -0.0641
  418TMC3    C8 6298   2.548   1.205   0.006 -0.2306  0.1874 -0.6521
  418TMC3    O1 6299   2.798   1.032   0.392 -0.8494  0.1676 -0.1375
  418TMC3    O2 6300   2.484   1.280  17.684 -0.3386  0.4059  0.3528
  419MPD2     C 6301   1.975   4.159  12.294  0.1354 -0.2819 -0.1372
  419MPD2    C1 6302   1.866   4.247  12.280 -0.2248 -0.5294  0.1238
  419MPD2    C2 6303   1.747   4.228  12.345 -0.3054  0.2432  0.1297
  419MPD2    C3 6304   1.742   4.119  12.434 -0.4501 -0.0190  0.5037
  419MPD2    C4 6305   1.842   4.030  12.446  0.3693 -0.1583  0.0715
  419MPD2    C5 6306   1.960   4.045  12.371  0.5023 -0.4036 -0.6542
  419MPD2     H 6307   1.658   4.290  12.333  0.0905  0.3989 -1.9716
  419MPD2    H1 6308   1.828   3.933  12.493 -0.3947 -0.3307 -0.5147
  419MPD2    H2 6309   2.066   4.161  12.236 -0.0238 -1.3220 -0.4298
  419MPD2    H3 6310   2.037   3.968  12.377  0.0957 -1.0312 -3.5408
  419MPD2     N 6311   1.620   4.096  12.500  0.1012  0.2079 -0.4031
  419MPD2    H5 6312   1.535   4.146  12.475  0.8504  0.7706 -1.7597
  419MPD2    N1 6313   1.870   4.360  12.195 -0.0392  0.3609  0.4925
  419MPD2    H7 6314   1.783   4.412  12.195  0.6955  1.5706  0.7970
  420TMC3    C1 6315   1.478   4.030  12.666 -0.3209  0.5983  0.1349
  420TMC3    C2 6316   1.374   4.070  12.589  0.5523 -0.5874  0.8358
  420TMC3    C3 6317   1.253   4.086  12.652 -0.4711  0.2956 -0.1652
  420TMC3    C4 6318   1.464   3.995  12.800  0.4142  0.9517  0.1467
  420TMC3    C5 6319   1.338   4.013  12.855  1.0879 -0.1851  0.6120
  420TMC3    C6 6320   1.232   4.059  12.786  0.1664 -0.0809 -0.4687
  420TMC3     C 6321   1.607   4.011  12.609 -0.1295  0.2070  0.2884
  420TMC3     O 6322   1.689   3.966  12.686 -0.3224 -0.1674  0.4332
  420TMC3     H 6323   1.380   4.082  12.481 -3.2531  0.6666  0.7633
  420TMC3    H1 6324   1.544   3.954  12.859  2.5899  0.1876 -3.3515
  420TMC3    H2 6325   1.142   4.075  12.845 -0.0716 -0.9377 -0.6045
  420TMC3    C7 6326   1.330   4.041  12.993 -0.1570 -0.8937  0.0259
  420TMC3    C8 6327   1.166   4.175  12.575  0.1631 -0.0319 -0.4855
  420TMC3    O1 6328   1.404   3.975  13.070 -0.1490 -0.3688  0.3889
  420TMC3    O2 6329   1.211   4.235  12.478 -0.8513 -0.0464  0.6322
  421TMC3    C1 6330   3.401   1.108  13.863 -0.3176 -0.6032 -0.6441
  421TMC3    C2 6331   3.286   1.169  13.860 -0.4046 -0.0621  0.0958
  421TMC3    C3 6332   3.258   1.276  13.944  0.1739  0.0376 -0.6871
  421TMC3    C4 6333   3.503   1.146  13.942  0.5949 -0.4568 -0.6133
  421TMC3    C5 6334   3.476   1.239  14.035 -0.4711 -0.4381 -0.4992
  421TMC3    C6 6335   3.357   1.304  14.033 -0.2627  0.0824 -0.5760
  421TMC3     C 6336   3.426   0.995  13.782  0.0651  0.3131 -0.3729
  421TMC3     O 6337   3.529   0.981  13.716 -0.2859  0.2700  0.0667
  421TMC3     H 6338   3.204   1.122  13.805 -0.1898 -2.8548  2.1452
  421TMC3    H1 6339   3.595   1.090  13.949  0.7915 -0.0636 -0.0827
  421TMC3    H2 6340   3.330   1.376  14.110  0.3071 -1.9586  1.5081
  421TMC3    C7 6341   3.577   1.262  14.142  0.2680  0.1412 -0.5822
  421TMC3    C8 6342   3.119   1.323  13.973 -0.4813  0.1596  0.2807
  421TMC3    O1 6343   3.585   1.380  14.177 -0.0074 -0.1954 -0.2345
  421TMC3    O2 6344   3.105   1.424  14.044 -0.3205 -0.2922 -0.6686
  422TMC3    C1 6345   0.627   2.452  12.802  0.0008 -1.0678  0.8653
  422TMC3    C2 6346   0.603   2.572  12.845 -0.6796  0.2746 -0.1054
  422TMC3    C3 6347   0.496   2.606  12.919 -0.1033  0.3285 -0.1134
  422TMC3    C4 6348   0.533   2.357  12.814 -0.0575 -0.3825  0.5948
  422TMC3    C5 6349   0.416   2.393  12.884 -0.0713 -0.0546 -0.4908
  422TMC3    C6 6350   0.394   2.517  12.943  0.0177 -0.3153  0.9376
  422TMC3     C 6351   0.686   2.460  12.669 -0.9432  0.8446 -0.3228
  422TMC3     O 6352   0.688   2.568  12.613 -0.6315 -0.0122 -0.4804
  422TMC3     H 6353   0.666   2.654  12.815  0.2551 -0.3463  0.1603
  422TMC3    H1 6354   0.555   2.258  12.778  1.0804  0.2865 -0.5439
  422TMC3    H2 6355   0.310   2.537  13.009 -1.5992 -0.0596 -1.1838
  422TMC3    C7 6356   0.344   2.280  12.940  0.3596 -0.0735  0.5336
  422TMC3    C8 6357   0.476   2.746  12.939  0.0020  0.8356 -0.2680
  422TMC3    O1 6358   0.397   2.173  12.961  0.1555 -0.1326  0.0641
  422TMC3    O2 6359   0.580   2.811  12.949 -0.0236  0.7941 -0.3433
  423MPD2     C 6360   1.487   3.033   0.749  0.0608  0.0660  0.1688
  423MPD2    C1 6361   1.515   2.905   0.796  0.6509  0.8590  1.0567
  423MPD2    C2 6362   1.614   2.831   0.731  0.0113 -0.0893  0.0615
  423MPD2    C3 6363   1.667   2.871   0.611 -0.5411  1.0850 -0.0746
  423MPD2    C4 6364   1.633   3.002   0.568 -0.3678 -0.0335  0.6850
  423MPD2    C5 6365   1.548   3.080   0.638 -0.6942 -0.0370  0.1908
  423MPD2     H 6366   1.643   2.731   0.761 -1.1842 -0.5146 -0.1873
  423MPD2    H1 6367   1.680   3.048   0.482 -1.3305 -0.0754  0.1476
  423MPD2    H2 6368   1.411   3.097   0.793 -0.9514 -0.1330 -1.2839
  423MPD2    H3 6369   1.525   3.179   0.602  0.5838  0.4626  0.7423
  423MPD2     N 6370   1.758   2.800   0.533  0.1807  0.0280  0.1373
  423MPD2    H5 6371   1.787   2.858   0.455  2.2360  0.0342  0.9192
  423MPD2    N1 6372   1.458   2.850   0.910 -0.2873 -0.1682 -0.4342
  423MPD2    H7 6373   1.497   2.758   0.926  1.8505 -0.0999 -5.1789
  424TMC3    C1 6374   1.324   2.820   1.107  0.0183 -0.1450  0.2230
  424TMC3    C2 6375   1.394   2.708   1.136  0.2673  0.0156 -0.8368
  424TMC3    C3 6376   1.371   2.647   1.259 -0.0486  0.2403  0.0024
  424TMC3    C4 6377   1.231   2.861   1.197  0.2282 -0.3477 -0.0023
  424TMC3    C5 6378   1.206   2.791   1.312  0.2448  0.2151  0.2284
  424TMC3    C6 6379   1.288   2.692   1.352  0.3998 -0.4113 -0.4382
  424TMC3     C 6380   1.365   2.909   0.992  0.3754  0.6278  0.1553
  424TMC3     O 6381   1.304   3.015   0.983 -0.1678 -0.3247  0.2029
  424TMC3     H 6382   1.472   2.676   1.069 -1.7082 -1.3362 -2.5023
  424TMC3    H1 6383   1.183   2.954   1.171 -0.0654 -0.5041 -0.0139
  424TMC3    H2 6384   1.273   2.653   1.452  0.7094 -0.1757 -0.3024
  424TMC3    C7 6385   1.134   2.857   1.419 -0.1942 -0.0420 -0.2098
  424TMC3    C8 6386   1.468   2.539   1.288 -0.2661 -0.2128 -0.5028
  424TMC3    O1 6387   1.173   2.843   1.535  0.2180 -0.1233 -0.0728
  424TMC3    O2 6388   1.526   2.494   1.194  0.0955 -0.5300 -0.1019
  425MPD2     C 6389   0.878   3.146  17.089  0.5652 -0.4616 -0.2496
  425MPD2    C1 6390   0.900   3.020  17.156 -0.8837 -0.2066  0.8401
  425MPD2    C2 6391   0.809   2.972  17.241 -0.3797 -0.4603 -1.0322
  425MPD2    C3 6392   0.695   3.044  17.273  0.7710  0.3372  0.2573
  425MPD2    C4 6393   0.661   3.157  17.199  0.3905  0.5380  0.3346
  425MPD2    C5 6394   0.756   3.202  17.105  0.1652 -0.6455  0.9481
  425MPD2     H 6395   0.805   2.868  17.271  0.0716 -0.1881 -0.0282
  425MPD2    H1 6396   0.575   3.222  17.209  0.0230  0.3691 -1.7789
  425MPD2    H2 6397   0.943   3.198  17.019 -1.0830 -0.7461 -1.9959
  425MPD2    H3 6398   0.730   3.281  17.035 -1.3715 -1.4057  0.6594
  425MPD2     N 6399   0.598   2.982  17.360  0.2309 -0.0828 -0.2764
  425MPD2    H5 6400   0.607   2.881  17.366  0.3466  0.0184  1.2977
  425MPD2    N1 6401   1.021   2.949  17.128 -0.1831 -0.1929  0.4810
  425MPD2    H7 6402   1.083   2.980  17.054 -0.0568 -1.8066 -0.0798
  426TMC3    C1 6403   1.179   2.770  17.136  0.7416 -0.3658  0.6019
  426TMC3    C2 6404   1.171   2.752  17.002  0.3254  0.2806 -0.4198
  426TMC3    C3 6405   1.231   2.640  16.946 -0.6145  0.7165  0.0355
  426TMC3    C4 6406   1.217   2.661  17.209 -0.2470 -0.5505  0.2486
  426TMC3    C5 6407   1.265   2.545  17.150  0.6459 -0.0552  0.3494
  426TMC3    C6 6408   1.283   2.536  17.017 -0.1521 -0.7040 -0.4289
  426TMC3     C 6409   1.064   2.832  17.195  0.1831 -0.1529  0.3629
  426TMC3     O 6410   1.021   2.777  17.298  1.1614 -0.5409  0.5815
  426TMC3     H 6411   1.104   2.815  16.945 -1.3416 -0.3535  0.8269
  426TMC3    H1 6412   1.224   2.671  17.317 -0.4223  0.6061  0.1578
  426TMC3    H2 6413   1.334   2.454  16.969  0.4541 -0.2012 -0.6325
  426TMC3    C7 6414   1.228   2.433  17.214  0.6124  0.0127  0.1268
  426TMC3    C8 6415   1.205   2.603  16.803 -0.1982  0.2585  0.2809
  426TMC3    O1 6416   1.254   2.333  17.150  0.3607  0.0431  0.2031
  426TMC3    O2 6417   1.196   2.488  16.766 -0.6978 -0.6785  0.2350
  427MPD2     C 6418   3.946   4.340  15.160  0.0991  0.0095  0.0341
  427MPD2    C1 6419   4.006   4.443  15.225  0.1001 -0.2641 -0.8086
  427MPD2    C2 6420   3.977   4.575  15.206 -0.5577  0.4306  0.5036
  427MPD2    C3 6421   3.863   4.608  15.128  0.3944  0.6136  0.0324
  427MPD2    C4 6422   3.790   4.501  15.073  0.6401 -0.8632 -0.0526
  427MPD2    C5 6423   3.830   4.371  15.091  0.0685  0.3863  0.1287
  427MPD2     H 6424   4.044   4.651  15.244  1.9559 -2.9771  2.9086
  427MPD2    H1 6425   3.697   4.516  15.019 -0.6747 -2.8473  1.6341
  427MPD2    H2 6426   3.965   4.234  15.172 -2.5330 -0.3496  0.9236
  427MPD2    H3 6427   3.769   4.296  15.043 -0.2245 -0.8697  2.4772
  427MPD2     N 6428   3.803   0.000  15.106 -0.2340  0.0577 -0.5531
  427MPD2    H5 6429   3.721   0.014  15.047 -1.4859  0.9873  1.4277
  427MPD2    N1 6430   4.102   4.406  15.326  0.4927 -0.3120 -0.0550
  427MPD2    H7 6431   4.140   4.480  15.385 -0.0689  0.5895 -0.8249
  428TMC3    C1 6432   4.232   4.273  15.469 -0.6333 -0.2227 -0.9886
  428TMC3    C2 6433   4.229   4.158  15.545  0.3144 -0.4344 -0.9354
  428TMC3    C3 6434   4.340   4.106  15.613  1.1403  0.1370 -0.2374
  428TMC3    C4 6435   4.352   4.346  15.473  0.7448 -0.2928 -0.0124
  428TMC3    C5 6436   4.456   4.306  15.558 -0.5722 -0.4751  0.2015
  428TMC3    C6 6437   4.455   4.177  15.618  0.8469 -0.0054 -0.1645
  428TMC3     C 6438   4.129   4.279  15.372  0.0296  0.0679 -0.4426
  428TMC3     O 6439   4.104   4.171  15.319  0.4829  0.2070 -0.0688
  428TMC3     H 6440   4.148   4.086  15.532  1.1456 -1.3812 -0.8925
  428TMC3    H1 6441   4.357   4.443  15.424  2.1336 -0.3376  0.0351
  428TMC3    H2 6442   4.543   4.141  15.669  1.7033  0.7804 -1.0778
  428TMC3    C7 6443   4.559   4.395  15.607 -0.7125 -0.8098  0.1588
  428TMC3    C8 6444   4.346   3.976  15.671 -0.1080  0.0291 -0.5552
  428TMC3    O1 6445   4.616   4.361  15.710 -0.0033 -0.1992 -0.0153
  428TMC3    O2 6446   4.456   3.923  15.671 -0.5027  1.0961 -0.3980
  429MPD2     C 6447   0.457   4.508   0.166  0.6684  0.2443 -1.2583
  429MPD2    C1 6448   0.552   4.439   0.092  0.8415 -0.3914  0.6725
  429MPD2    C2 6449   0.647   4.527   0.036 -0.1308 -0.2300 -1.1504
  429MPD2    C3 6450   0.654   4.665   0.051 -0.0480 -0.3246 -0.1785
  429MPD2    C4 6451   0.559   4.721   0.134 -0.1638 -0.7369 -0.3281
  429MPD2    C5 6452   0.462   4.645   0.193  0.6231  0.6138 -0.5612
  429MPD2     H 6453   0.715   4.482  17.715 -1.4266 -0.9651 -1.9393
  429MPD2    H1 6454   0.554   0.088   0.162 -1.9531 -0.9595  0.2016
  429MPD2    H2 6455   0.380   4.449   0.214  0.7279  0.6613 -0.6520
  429MPD2    H3 6456   0.397   4.693   0.266 -1.3573 -1.8298 -0.7152
  429MPD2     N 6457   0.752   4.731  17.729  0.5537  1.0654  0.1004
  429MPD2    H5 6458   0.819   4.674  17.679  1.4298  2.5198 -0.3882
  429MPD2    N1 6459   0.560   4.293   0.085 -0.3993  0.1609  0.3826
  429MPD2    H7 6460   0.634   4.253   0.028 -1.6090 -0.4214 -0.7563
  430TMC3    C1 6461   0.886   0.172  17.658 -0.0494 -0.4506  0.4427
  430TMC3    C2 6462   0.904   0.306  17.651  0.1516  0.1977 -0.3014
  430TMC3    C3 6463   1.006   0.356  17.575  0.8001 -0.5314 -0.5969
  430TMC3    C4 6464   0.963   0.086  17.581  0.7535 -0.2700  0.2274
  430TMC3    C5 6465   1.068   0.138  17.516  0.9957  0.4719 -0.0136
  430TMC3    C6 6466   1.098   0.271  17.525  0.0864 -0.2559  0.2193
  430TMC3     C 6467   0.773   0.123  17.732 -0.2006  0.1084  0.0775
  430TMC3     O 6468   0.711   0.210   0.043 -0.0519 -0.4656 -0.0122
  430TMC3     H 6469   0.825   0.373  17.685 -1.4871 -2.2401  0.6785
  430TMC3    H1 6470   0.946   4.717  17.578  4.3386 -0.8876  1.1110
  430TMC3    H2 6471   1.187   0.307  17.474 -0.5630  2.1245  0.7836
  430TMC3    C7 6472   1.077   0.092  17.385 -0.6617 -0.0604  0.1420
  430TMC3    C8 6473   0.969   0.448  17.475 -0.0650  0.6847 -0.8823
  430TMC3    O1 6474   1.052   4.714  17.361 -0.5872 -0.3358 -0.1844
  430TMC3    O2 6475   1.036   0.439  17.372  0.5203  0.0493 -0.1509
  431MPD2     C 6476   1.791   0.125  12.780 -0.0550  0.8773 -0.6797
  431MPD2    C1 6477   1.899   0.186  12.725  0.1565  0.1935 -0.0241
  431MPD2    C2 6478   1.914   0.167  12.591 -0.5097 -0.3105 -0.6009
  431MPD2    C3 6479   1.833   0.087  12.514  0.3212 -0.0822  0.2639
  431MPD2    C4 6480   1.727   0.032  12.572  0.3106  0.2282 -0.1136
  431MPD2    C5 6481   1.706   0.046  12.708  0.1536 -0.0039 -0.0618
  431MPD2     H 6482   1.998   0.217  12.545 -1.1389  0.6884 -0.6710
  431MPD2    H1 6483   1.648   4.716  12.520  1.9728 -0.0439 -2.3878
  431MPD2    H2 6484   1.762   0.143  12.883  0.0251  0.8561 -0.6541
  431MPD2    H3 6485   1.618   0.001  12.753  0.1965  0.6318  0.6620
  431MPD2     N 6486   1.849   0.065  12.378 -0.3294 -0.5725 -0.2563
  431MPD2    H5 6487   1.772   0.021  12.329  1.0940 -2.2157 -1.0007
  431MPD2    N1 6488   1.997   0.261  12.800  0.3030  0.0370  0.4375
  431MPD2    H7 6489   2.073   0.301  12.746  0.5660  0.0780  0.8397
  432TMC3    C1 6490   1.965   0.030  12.176  0.0819  0.1125  0.4236
  432TMC3    C2 6491   2.076   0.063  12.100 -0.0274 -0.0604  0.2364
  432TMC3    C3 6492   2.131   4.714  12.012 -0.0690 -0.0392  0.6261
  432TMC3    C4 6493   1.910   4.638  12.171  0.3425  0.1668  0.5697
  432TMC3    C5 6494   1.974   4.543  12.088  0.9377 -0.2725  0.1683
  432TMC3    C6 6495   2.080   4.586  12.008 -0.4983 -0.2898 -0.5694
  432TMC3     C 6496   1.950   0.112  12.297  0.1829 -0.0257  0.5176
  432TMC3     O 6497   2.029   0.203  12.319  0.3166  0.0517  0.4575
  432TMC3     H 6498   2.117   0.163  12.107  0.6927 -0.4776  2.0782
  432TMC3    H1 6499   1.828   4.604  12.233  0.5095 -0.0038  0.6942
  432TMC3    H2 6500   2.121   4.516  11.936  3.0326 -1.0243  2.1543
  432TMC3    C7 6501   1.985   4.405  12.140 -0.2338 -0.8880  0.3443
  432TMC3    C8 6502   2.225   0.019  11.917  0.8854 -0.1014  0.3252
  432TMC3    O1 6503   2.085   4.345  12.108 -0.0131  0.3991 -0.3046
  432TMC3    O2 6504   2.234   4.685  11.821 -0.5840  0.3047 -0.3204
  433MPD2     C 6505   0.761   3.920  11.424  0.7427 -0.1828 -0.0754
  433MPD2    C1 6506   0.684   3.813  11.448  0.0520  0.0983  0.4258
  433MPD2    C2 6507   0.662   3.768  11.576 -0.8043 -0.0874  0.0785
  433MPD2    C3 6508   0.730   3.828  11.678 -1.2309 -0.3357 -0.0974
  433MPD2    C4 6509   0.806   3.940  11.656 -0.7894  0.1431  0.6313
  433MPD2    C5 6510   0.821   3.988  11.530  0.5760 -0.0021  0.1248
  433MPD2     H 6511   0.601   3.683  11.603 -2.4266  1.0565  0.0398
  433MPD2    H1 6512   0.854   3.990  11.739  3.5180  0.6406 -2.2230
  433MPD2    H2 6513   0.777   3.955  11.323 -2.0122 -1.6706 -1.0444
  433MPD2    H3 6514   0.884   4.075  11.511  2.0628 -0.7904  1.4002
  433MPD2     N 6515   0.724   3.771  11.808 -0.2650 -0.3397 -0.0565
  433MPD2    H5 6516   0.664   3.693  11.834 -0.6430 -0.8168 -2.3630
  433MPD2    N1 6517   0.639   3.750  11.334 -0.3011  0.5114 -0.6093
  433MPD2    H7 6518   0.680   3.779  11.246  0.9978  1.9129  0.4613
  434TMC3    C1 6519   0.572   3.557  11.234 -0.3787  0.4914  0.3994
  434TMC3    C2 6520   0.674   3.488  11.275  0.6975  0.3258  0.5727
  434TMC3    C3 6521   0.712   3.384  11.200  0.5190 -0.7032  0.1023
  434TMC3    C4 6522   0.498   3.528  11.117  0.2875 -0.3307 -0.5881
  434TMC3    C5 6523   0.556   3.439  11.035  0.6991  0.0660 -0.1195
  434TMC3    C6 6524   0.656   3.357  11.077 -0.3376 -0.1573  0.5733
  434TMC3     C 6525   0.531   3.663  11.323 -0.7413 -0.2439  0.3739
  434TMC3     O 6526   0.438   3.655  11.405  0.2934 -0.1537 -0.0109
  434TMC3     H 6527   0.703   3.500  11.379 -1.5556 -0.2729  1.2742
  434TMC3    H1 6528   0.408   3.584  11.096 -0.7854 -1.1596  1.7213
  434TMC3    H2 6529   0.702   3.286  11.009  3.4083 -0.0590  2.9938
  434TMC3    C7 6530   0.484   3.402  10.916 -0.2419  0.2180 -0.1682
  434TMC3    C8 6531   0.814   3.306  11.262  0.2362  0.7742  0.5178
  434TMC3    O1 6532   0.376   3.454  10.906  0.8894  0.1068 -0.2305
  434TMC3    O2 6533   0.887   3.363  11.336  0.5905  0.3132  0.2046
  435MPD2     C 6534   2.938   3.759  15.519  0.3298  0.3355 -0.2254
  435MPD2    C1 6535   2.859   3.764  15.628 -0.9830  0.4305 -0.0002
  435MPD2    C2 6536   2.899   3.692  15.736 -0.3259 -0.4642  0.2520
  435MPD2    C3 6537   2.999   3.596  15.727 -0.3151 -0.5973  0.3217
  435MPD2    C4 6538   3.067   3.581  15.611  0.6582  0.0256 -0.1317
  435MPD2    C5 6539   3.047   3.673  15.514 -0.3909  0.1171  0.1626
  435MPD2     H 6540   2.854   3.704  15.834 -1.9450 -1.7562 -0.3377
  435MPD2    H1 6541   3.134   3.500  15.586 -1.1801 -0.8798 -2.1629
  435MPD2    H2 6542   2.932   3.829  15.436 -0.3459 -0.0313 -0.4844
  435MPD2    H3 6543   3.113   3.671  15.428 -0.6412 -1.9519  0.0051
  435MPD2     N 6544   3.028   3.508  15.838 -0.1665 -0.5651 -0.1855
  435MPD2    H5 6545   2.976   3.535  15.921  0.0641  0.8170 -0.4881
  435MPD2    N1 6546   2.748   3.842  15.644  0.1343 -0.4005 -0.4495
  435MPD2    H7 6547   2.709   3.843  15.738 -2.8781 -0.2728 -1.6874
  436TMC3    C1 6548   2.396   4.051  15.728 -0.0565  0.7756 -0.2066
  436TMC3    C2 6549   2.514   3.978  15.706 -0.4089 -0.3749  0.7521
  436TMC3    C3 6550   2.578   4.005  15.586 -0.3154  0.1670 -0.4742
  436TMC3    C4 6551   2.347   4.147  15.646 -0.3042 -0.1796  0.5149
  436TMC3    C5 6552   2.408   4.149  15.523 -0.0366  0.3135 -0.2728
  436TMC3    C6 6553   2.524   4.082  15.489 -0.1977 -0.0161 -0.3300
  436TMC3     C 6554   2.385   4.083  15.867 -0.3957 -0.0429 -0.3021
  436TMC3     O 6555   2.490   4.091  15.936  0.0116  0.2403  0.1497
  436TMC3     H 6556   2.550   3.924  15.793  0.0882  0.0643  0.8171
  436TMC3    H1 6557   2.265   4.211  15.675 -0.2615  0.2271 -0.2696
  436TMC3    H2 6558   2.576   4.109  15.398 -1.6394  0.9884 -0.8542
  436TMC3    C7 6559   2.378   4.260  15.433 -0.7363  0.7546  0.4988
  436TMC3    C8 6560   2.707   3.942  15.553  0.0157 -0.5216 -0.2873
  436TMC3    O1 6561   2.433   4.252  15.326  0.0559  0.0188 -0.2763
  436TMC3    O2 6562   2.761   3.964  15.442  0.0253 -0.1840 -0.2839
  437TMC3    C1 6563   1.462   0.851  12.593  0.1415  0.0566 -0.0902
  437TMC3    C2 6564   1.342   0.907  12.543  0.3294 -0.3906  0.3810
  437TMC3    C3 6565   1.337   1.040  12.536  0.6223  0.5201 -0.0465
  437TMC3    C4 6566   1.576   0.919  12.617  0.2414 -0.3236  0.4889
  437TMC3    C5 6567   1.557   1.056  12.604  0.1327  0.1574  0.3669
  437TMC3    C6 6568   1.444   1.121  12.564 -0.5462  0.1938  0.4027
  437TMC3     C 6569   1.459   0.709  12.624  0.1087 -0.1458 -0.0171
  437TMC3     O 6570   1.570   0.657  12.635 -0.0323 -0.3988  0.4454
  437TMC3     H 6571   1.256   0.853  12.507  2.6371 -1.8309 -3.0468
  437TMC3    H1 6572   1.663   0.869  12.657  0.4466 -0.7135 -0.4305
  437TMC3    H2 6573   1.434   1.228  12.551 -0.0622 -0.2051 -3.2167
  437TMC3    C7 6574   1.664   1.143  12.650  0.3518  0.7652 -1.0608
  437TMC3    C8 6575   1.206   1.097  12.507  0.7440  0.0860  0.0814
  437TMC3    O1 6576   1.642   1.260  12.625  0.0961  0.3438  0.4296
  437TMC3    O2 6577   1.115   1.042  12.443  0.1972  0.3856  0.1228
  438MPD2     C 6578   3.442   1.475  16.725 -0.3910 -0.0402 -0.0970
  438MPD2    C1 6579   3.515   1.389  16.802  0.5957  0.0982  0.4169
  438MPD2    C2 6580   3.504   1.403  16.939 -0.0169  1.3639  0.7524
  438MPD2    C3 6581   3.429   1.499  17.001  0.1487  0.0282  0.0447
  438MPD2    C4 6582   3.371   1.592  16.922 -0.9220 -0.0879  0.6088
  438MPD2    C5 6583   3.371   1.575  16.789 -0.3377  0.6097  0.0961
  438MPD2     H 6584   3.563   1.335  17.000  0.0644 -2.1807 -3.2926
  438MPD2    H1 6585   3.311   1.674  16.958  0.1031 -0.1088  2.3553
  438MPD2    H2 6586   3.441   1.465  16.618 -2.0339  2.1252 -0.2726
  438MPD2    H3 6587   3.343   1.665  16.735  2.7755  1.7084  0.3071
  438MPD2     N 6588   3.417   1.519  17.141  0.0851 -0.2736 -0.0367
  438MPD2    H5 6589   3.358   1.596  17.171  0.2142 -1.0618  2.1901
  438MPD2    N1 6590   3.604   1.294  16.749  0.3580 -0.9546 -0.6004
  438MPD2    H7 6591   3.671   1.246  16.808 -0.5796  0.2572  1.4474
  439TMC3    C1 6592   3.689   1.128  16.608 -0.6407 -0.0168  0.2919
  439TMC3    C2 6593   3.676   1.047  16.500 -0.1844  0.0949 -0.3630
  439TMC3    C3 6594   3.746   0.932  16.510  0.0650  0.1675  0.0532
  439TMC3    C4 6595   3.771   1.097  16.712 -0.6085 -0.2575 -0.2872
  439TMC3    C5 6596   3.823   0.971  16.726 -0.1819  0.4034 -0.1076
  439TMC3    C6 6597   3.808   0.886  16.624 -0.1904  0.0888 -0.3372
  439TMC3     C 6598   3.599   1.238  16.616 -0.4492 -0.0661  0.1288
  439TMC3     O 6599   3.533   1.268  16.513  0.4633  0.1282  0.5080
  439TMC3     H 6600   3.630   1.085  16.410  1.4288  0.7748 -0.9114
  439TMC3    H1 6601   3.799   1.169  16.789 -0.0140 -0.5253 -0.2477
  439TMC3    H2 6602   3.861   0.791  16.626  0.5997  0.5151 -0.8618
  439TMC3    C7 6603   3.932   0.945  16.823  0.1089  0.1264  0.9081
  439TMC3    C8 6604   3.776   0.858  16.388 -0.3076  0.5092  1.0974
  439TMC3    O1 6605   3.989   1.041  16.870 -0.3982  0.8227  0.3550
  439TMC3    O2 6606   3.874   0.779  16.398  0.0411  0.1980 -0.2744
  440MPD2     C 6607   2.470   1.793  14.887 -0.7640 -0.4086 -0.3853
  440MPD2    C1 6608   2.536   1.891  14.955 -0.0862  0.3564  1.8285
  440MPD2    C2 6609   2.667   1.875  14.994 -0.7481  0.2151 -0.4748
  440MPD2    C3 6610   2.740   1.765  14.949 -0.5247 -0.0891 -0.1999
  440MPD2    C4 6611   2.679   1.681  14.858  0.0060 -0.5810 -0.2223
  440MPD2    C5 6612   2.543   1.693  14.831 -1.0467  0.2207  0.4511
  440MPD2     H 6613   2.717   1.953  15.050  2.1013 -1.1482 -1.0772
  440MPD2    H1 6614   2.723   1.588  14.824  0.5002 -1.0059  1.5602
  440MPD2    H2 6615   2.366   1.807  14.858 -1.0732 -1.1792  0.3232
  440MPD2    H3 6616   2.498   1.610  14.778  1.2689  0.3971 -1.7758
  440MPD2     N 6617   2.874   1.736  15.002 -0.5694 -0.0130 -0.2944
  440MPD2    H5 6618   2.919   1.645  14.998 -0.3010  0.1297 -0.5182
  440MPD2    N1 6619   2.465   2.000  15.007  0.4154  0.0286 -0.1646
  440MPD2    H7 6620   2.516   2.061  15.071  0.9748 -0.3979 -0.2080
  441TMC3    C1 6621   3.038   1.728  15.177 -0.6437 -0.2899  0.9027
  441TMC3    C2 6622   3.102   1.822  15.250 -0.5991 -0.1357 -0.3952
  441TMC3    C3 6623   3.112   1.811  15.386 -0.1784  0.6071  1.0587
  441TMC3    C4 6624   2.971   1.630  15.243  0.2232  0.1440  0.0918
  441TMC3    C5 6625   2.982   1.618  15.376  0.0117 -0.2507 -0.1534
  441TMC3    C6 6626   3.058   1.702  15.452 -0.4029 -0.1873 -0.1845
  441TMC3     C 6627   2.938   1.806  15.097 -0.8502 -0.1708  0.3020
  441TMC3     O 6628   2.913   1.916  15.148  0.3573 -0.1234  0.1737
  441TMC3     H 6629   3.148   1.903  15.196  1.5182 -1.1505 -0.1105
  441TMC3    H1 6630   2.916   1.555  15.188 -0.1188 -0.0275  0.6613
  441TMC3    H2 6631   3.050   1.700  15.560  0.4783 -3.1019 -0.1651
  441TMC3    C7 6632   2.850   1.597  15.438 -0.6795  0.5992 -0.4251
  441TMC3    C8 6633   3.090   1.935  15.452  0.1195  0.1932 -0.1167
  441TMC3    O1 6634   2.858   1.599  15.559 -0.1529  0.0591  0.0791
  441TMC3    O2 6635   3.156   1.956  15.551 -0.2161 -0.1666 -0.0735
  442MPD2     C 6636   0.954   2.241  16.818 -0.4651  0.2794  0.2008
  442MPD2    C1 6637   0.855   2.181  16.891  0.2419 -0.0757  0.7854
  442MPD2    C2 6638   0.787   2.062  16.848  0.2064 -0.4267 -0.0003
  442MPD2    C3 6639   0.826   1.998  16.732  0.3011  0.6225  0.0529
  442MPD2    C4 6640   0.934   2.055  16.655  0.1406  0.9191 -0.1736
  442MPD2    C5 6641   0.989   2.173  16.702 -0.2032  0.2860  0.1664
  442MPD2     H 6642   0.712   2.020  16.914  0.1801  0.7145  0.7076
  442MPD2    H1 6643   0.959   2.016  16.557 -0.0292  2.0915 -0.6798
  442MPD2    H2 6644   1.018   2.322  16.852  0.1949  0.1029 -0.6198
  442MPD2    H3 6645   1.069   2.202  16.634  0.7567  1.2104  1.6759
  442MPD2     N 6646   0.766   1.886  16.671  0.2213  0.5212  0.1239
  442MPD2    H5 6647   0.814   1.860  16.586  1.7638  0.9810  0.8515
  442MPD2    N1 6648   0.824   2.240  17.020  0.2733 -0.7680 -0.0695
  442MPD2    H7 6649   0.743   2.208  17.073  1.8717 -0.5348  2.5090
  443TMC3    C1 6650   0.827   2.377  17.208  0.1808  0.5569  0.4557
  443TMC3    C2 6651   0.810   2.513  17.221 -0.1092 -0.3199 -0.2442
  443TMC3    C3 6652   0.690   2.561  17.260 -0.3530  0.6966 -0.2652
  443TMC3    C4 6653   0.734   2.290  17.249 -0.0249  0.2591 -0.2375
  443TMC3    C5 6654   0.612   2.337  17.286 -0.1838 -0.9670  0.2067
  443TMC3    C6 6655   0.585   2.473  17.286  0.1614 -0.1110 -0.1238
  443TMC3     C 6656   0.876   2.350  17.079  0.3490  0.5158 -0.1728
  443TMC3     O 6657   0.926   2.445  17.025  0.9333  0.0395  0.0520
  443TMC3     H 6658   0.890   2.580  17.193 -0.1374 -0.2242 -0.0903
  443TMC3    H1 6659   0.749   2.182  17.248  2.2247  0.5808 -0.7426
  443TMC3    H2 6660   0.488   2.520  17.295  1.0178  2.4571 -4.1657
  443TMC3    C7 6661   0.509   2.243  17.319 -0.2301 -0.5866  0.2032
  443TMC3    C8 6662   0.655   2.679  17.186  0.6337 -0.3316  0.2939
  443TMC3    O1 6663   0.533   2.129  17.283 -0.0898  0.3189 -0.0232
  443TMC3    O2 6664   0.571   2.755  17.232 -0.1052 -0.0691  0.3657
  444MPD2     C 6665   0.944   1.949  17.242 -0.0938  0.4692  0.1303
  444MPD2    C1 6666   0.849   1.868  17.191  0.5371  0.6425 -0.4364
  444MPD2    C2 6667   0.870   1.802  17.065  0.4065  0.5294 -0.2516
  444MPD2    C3 6668   0.989   1.821  16.999  0.0989 -0.2413 -0.1584
  444MPD2    C4 6669   1.083   1.906  17.054 -0.6129 -0.3919 -0.3445
  444MPD2    C5 6670   1.058   1.964  17.177  0.2614 -0.8016  0.3701
  444MPD2     H 6671   0.801   1.727  17.026 -0.3414  1.7215 -1.2077
  444MPD2    H1 6672   1.183   1.920  17.014 -1.1798  0.8171 -1.3470
  444MPD2    H2 6673   0.930   2.013  17.329 -0.2142  0.6449 -0.0178
  444MPD2    H3 6674   1.140   2.023  17.216  0.9248 -1.0915 -0.5759
  444MPD2     N 6675   1.010   1.760  16.867  0.2619 -0.3360 -0.1655
  444MPD2    H5 6676   0.943   1.688  16.843 -0.4700 -0.4899  2.3244
  444MPD2    N1 6677   0.728   1.861  17.258  0.2178  1.1980  0.4830
  444MPD2    H7 6678   0.655   1.826  17.197 -1.3353  2.8017  1.4029
  445TMC3    C1 6679   1.134   1.683  16.675 -0.3214 -0.2306  0.0750
  445TMC3    C2 6680   1.046   1.581  16.671 -0.0885  0.4463 -0.9985
  445TMC3    C3 6681   1.079   1.453  16.629  0.1159  0.5242 -0.1057
  445TMC3    C4 6682   1.259   1.662  16.626 -0.7868 -0.4122  0.3370
  445TMC3    C5 6683   1.292   1.535  16.583  0.1610  0.3087  0.4067
  445TMC3    C6 6684   1.206   1.431  16.582 -0.3224  0.4190  0.6719
  445TMC3     C 6685   1.120   1.777  16.789 -0.7417 -0.4493  0.3566
  445TMC3     O 6686   1.206   1.862  16.808 -0.5241  0.3679  0.3798
  445TMC3     H 6687   0.940   1.594  16.692 -0.0654  0.6433 -1.0086
  445TMC3    H1 6688   1.340   1.735  16.623 -0.5837 -0.6415  0.2798
  445TMC3    H2 6689   1.233   1.354  16.510 -1.7949  1.1861 -0.6899
  445TMC3    C7 6690   1.427   1.509  16.529  0.1182  0.0277 -0.1407
  445TMC3    C8 6691   0.970   1.361  16.592 -0.0888 -0.2775 -0.6647
  445TMC3    O1 6692   1.492   1.605  16.488 -0.4517  0.0093  0.1374
  445TMC3    O2 6693   0.857   1.404  16.613 -0.4648 -0.2160  0.0273
  446MPD2     C 6694   0.754   3.194  11.833  0.0256 -0.3575  0.2932
  446MPD2    C1 6695   0.716   3.245  11.711  0.0111 -0.3802  0.1103
  446MPD2    C2 6696   0.782   3.353  11.665  0.3857 -0.1317 -0.5721
  446MPD2    C3 6697   0.879   3.426  11.741  0.2734  0.4284 -0.5345
  446MPD2    C4 6698   0.902   3.382  11.872 -0.5974 -0.4344  1.2351
  446MPD2    C5 6699   0.836   3.270  11.913  0.5945  0.4403 -0.0146
  446MPD2     H 6700   0.756   3.378  11.562  1.5273  0.6316 -0.6769
  446MPD2    H1 6701   0.968   3.435  11.940  0.8603  2.2602 -2.2663
  446MPD2    H2 6702   0.713   3.098  11.863  3.8668 -1.6484  1.3934
  446MPD2    H3 6703   0.865   3.223  12.006  1.1952 -1.4054 -1.1383
  446MPD2     N 6704   0.946   3.542  11.688 -0.2023 -0.6523  0.9320
  446MPD2    H5 6705   0.922   3.563  11.591  0.5156  0.8823  1.0844
  446MPD2    N1 6706   0.624   3.159  11.640  0.4318 -0.7509 -0.1985
  446MPD2    H7 6707   0.609   3.067  11.680  2.0013 -1.0927 -0.3837
  447TMC3    C1 6708   1.129   3.689  11.661 -0.1650  0.3491 -0.1640
  447TMC3    C2 6709   1.063   3.741  11.550  0.2669  0.1911  0.3836
  447TMC3    C3 6710   1.127   3.846  11.488  0.2553  0.0658  0.1734
  447TMC3    C4 6711   1.245   3.739  11.713  0.2977 -0.3157 -0.0754
  447TMC3    C5 6712   1.308   3.838  11.636  0.6294 -0.2803 -0.1998
  447TMC3    C6 6713   1.247   3.896  11.527 -0.4644  0.2608  0.4086
  447TMC3     C 6714   1.053   3.602  11.748  0.2203 -0.1340 -0.0652
  447TMC3     O 6715   1.097   3.590  11.863  0.5289 -0.2249  0.2849
  447TMC3     H 6716   0.967   3.706  11.514  1.0190  0.5521 -1.9209
  447TMC3    H1 6717   1.298   3.698  11.798  1.3262  1.1446 -0.0186
  447TMC3    H2 6718   1.290   3.986  11.485 -1.7941  0.8207  0.2517
  447TMC3    C7 6719   1.447   3.809  11.603  0.3775 -0.3160 -0.3154
  447TMC3    C8 6720   1.122   3.837  11.345 -0.5235 -0.4926  0.2740
  447TMC3    O1 6721   1.462   3.795  11.481  0.5864 -0.5327 -0.4736
  447TMC3    O2 6722   1.022   3.782  11.305  0.3879 -0.0270 -0.4094
  448TMC3    C1 6723   3.700   2.799  17.185 -0.3677 -0.0623  0.3356
  448TMC3    C2 6724   3.657   2.704  17.094  0.1496  0.1317 -0.6230
  448TMC3    C3 6725   3.756   2.627  17.051 -0.0241 -0.6629 -0.4804
  448TMC3    C4 6726   3.825   2.816  17.231  0.1681 -0.7352 -0.1304
  448TMC3    C5 6727   3.921   2.732  17.184  0.2268  0.3512 -0.1699
  448TMC3    C6 6728   3.883   2.634  17.090  0.1569 -0.1842 -0.5551
  448TMC3     C 6729   3.594   2.888  17.217  0.4172 -0.7139 -0.0572
  448TMC3     O 6730   3.506   2.899  17.132  0.0053 -0.5556  0.4985
  448TMC3     H 6731   3.553   2.684  17.068  0.1873  0.3731 -0.9540
  448TMC3    H1 6732   3.847   2.889  17.309  0.2906 -0.9084 -0.0035
  448TMC3    H2 6733   3.965   2.569  17.058  0.5394  0.0806 -0.1044
  448TMC3    C7 6734   4.055   2.713  17.255 -0.0257 -0.3231  0.0487
  448TMC3    C8 6735   3.724   2.517  16.959 -0.3321  0.0220  0.4289
  448TMC3    O1 6736   4.095   2.810  17.318 -0.3920 -0.2961  0.0090
  448TMC3    O2 6737   3.785   2.409  16.984  0.1665  0.1462  0.0560
  449MPD2     C 6738   0.374   1.247  13.942 -0.1097  0.7513 -0.3894
  449MPD2    C1 6739   0.298   1.368  13.943 -0.8525  0.2628 -0.2520
  449MPD2    C2 6740   0.196   1.382  14.032  0.3804 -0.4079  0.6607
  449MPD2    C3 6741   0.165   1.285  14.132  0.2879  0.2694 -0.6535
  449MPD2    C4 6742   0.242   1.176  14.139  0.0057 -0.1443  0.5260
  449MPD2    C5 6743   0.343   1.155  14.044  0.6389 -0.3736 -0.0211
  449MPD2     H 6744   0.137   1.472  14.023  0.3141 -0.5073  0.0923
  449MPD2    H1 6745   0.223   1.098  14.212  1.2417 -0.2534  0.7236
  449MPD2    H2 6746   0.454   1.215  13.876 -1.7736 -1.3760 -1.3609
  449MPD2    H3 6747   0.404   1.066  14.043  0.3789 -0.5229 -1.8763
  449MPD2     N 6748   0.059   1.312  14.222 -0.0049  0.6176 -0.1354
  449MPD2    H5 6749   0.000   1.394  14.208  1.1758  1.2371 -1.4305
  449MPD2    N1 6750   0.309   1.478  13.851  0.1500  0.0374 -0.2913
  449MPD2    H7 6751   0.253   1.560  13.868 -1.1710 -0.9742  0.2847
  450TMC3    C1 6752   0.362   1.588  13.654 -0.7261  0.7004 -0.0806
  450TMC3    C2 6753   0.336   1.550  13.527  0.8280  0.0563  0.0957
  450TMC3    C3 6754   0.212   1.574  13.479 -0.2394 -0.3603  0.3228
  450TMC3    C4 6755   0.282   1.673  13.717 -0.4196  0.3174  0.1917
  450TMC3    C5 6756   0.159   1.707  13.663 -0.0176  0.5450 -0.4505
  450TMC3    C6 6757   0.120   1.653  13.543 -0.2812  0.0128 -0.3921
  450TMC3     C 6758   0.394   1.477  13.745 -0.5377 -0.0947  0.0913
  450TMC3     O 6759   0.456   1.385  13.694  0.1803 -0.1756 -0.0119
  450TMC3     H 6760   0.402   1.475  13.485 -0.0836 -0.8337  0.2474
  450TMC3    H1 6761   0.321   1.726  13.803  2.3098  0.6188 -1.2266
  450TMC3    H2 6762   0.020   1.671  13.507 -0.0450  0.6828 -0.7138
  450TMC3    C7 6763   0.063   1.723  13.776 -0.1400 -0.0856 -0.0300
  450TMC3    C8 6764   0.169   1.497  13.365  0.6272  0.3912  0.2565
  450TMC3    O1 6765   0.112   1.671  13.874  1.2927 -0.2381 -0.3832
  450TMC3    O2 6766   0.051   1.472  13.360  0.4172  0.5427 -0.4337
  451MPD2     C 6767   0.923   4.669   0.699  0.5995  0.1731  0.2944
  451MPD2    C1 6768   1.055   4.678   0.659  0.3755 -0.1070 -0.1635
  451MPD2    C2 6769   1.119   4.558   0.615  0.0741 -0.2218 -0.0174
  451MPD2    C3 6770   1.051   4.434   0.629  0.0060 -0.5854  0.7430
  451MPD2    C4 6771   0.925   4.435   0.693 -0.0076 -0.1342  0.3911
  451MPD2    C5 6772   0.861   4.553   0.708 -0.1053 -0.2746 -0.1997
  451MPD2     H 6773   1.220   4.564   0.576  0.7072 -3.3525  1.1613
  451MPD2    H1 6774   0.879   4.341   0.721  0.9807 -0.2103  1.7578
  451MPD2    H2 6775   0.871   0.026   0.706  2.8285  1.4405 -0.1063
  451MPD2    H3 6776   0.758   4.566   0.740  0.3318 -0.1961  1.2155
  451MPD2     N 6777   1.104   4.317   0.575  0.5831 -0.4618  0.0845
  451MPD2    H5 6778   1.049   4.233   0.591 -0.5574  0.0095 -1.4355
  451MPD2    N1 6779   1.118   0.063   0.648 -0.4054 -0.0946  0.2631
  451MPD2    H7 6780   1.057   0.144   0.654 -0.1347  0.1773 -0.7084
  452TMC3    C1 6781   1.245   4.162   0.460 -0.4111 -0.2495 -0.3715
  452TMC3    C2 6782   1.166   4.062   0.493  0.6224 -0.2325  0.9223
  452TMC3    C3 6783   1.210   3.934   0.476  0.6581  0.9125  0.1959
  452TMC3    C4 6784   1.379   4.139   0.425  0.3139 -0.3875 -1.1890
  452TMC3    C5 6785   1.413   4.009   0.402  0.3548 -0.1953 -0.5366
  452TMC3    C6 6786   1.332   3.901   0.429  0.2139 -0.1645  0.3017
  452TMC3     C 6787   1.212   4.301   0.496  0.4741  0.4944  0.0119
  452TMC3     O 6788   1.283   4.390   0.445 -0.6813  0.2383  0.4709
  452TMC3     H 6789   1.058   4.074   0.500  0.5630  0.2973 -1.1000
  452TMC3    H1 6790   1.443   4.221   0.394 -0.4451  0.5662 -0.2134
  452TMC3    H2 6791   1.370   3.803   0.403  1.4683  0.8549 -1.7043
  452TMC3    C7 6792   1.549   3.987   0.353  0.1586  0.0844 -0.1736
  452TMC3    C8 6793   1.117   3.825   0.491 -0.5336  0.6619 -0.3630
  452TMC3    O1 6794   1.586   4.067   0.268 -0.0085  0.2095 -0.3674
  452TMC3    O2 6795   1.149   3.723   0.430 -0.1882  0.0071 -0.0326
  453TMC3    C1 6796   3.214   1.743  11.495 -0.1853  0.2501  0.0714
  453TMC3    C2 6797   3.148   1.625  11.484 -0.1341 -0.4556  0.3993
  453TMC3    C3 6798   3.065   1.614  11.375  0.3529  0.0691  0.5014
  453TMC3    C4 6799   3.201   1.844  11.400  0.0477 -0.0040 -0.5235
  453TMC3    C5 6800   3.110   1.821  11.296  0.0644  0.2052  0.3819
  453TMC3    C6 6801   3.046   1.706  11.277 -0.1420  0.3166  0.2880
  453TMC3     C 6802   3.275   1.790  11.619 -0.5873 -0.2603  0.2644
  453TMC3     O 6803   3.292   1.912  11.635  0.1707  0.1230 -0.5508
  453TMC3     H 6804   3.151   1.562  11.572 -0.1733 -1.0960 -0.0537
  453TMC3    H1 6805   3.245   1.941  11.418 -1.1381  0.9293 -2.6204
  453TMC3    H2 6806   2.974   1.680  11.201 -1.4325 -0.7251  1.8741
  453TMC3    C7 6807   3.038   1.926  11.217 -0.1034  0.4767 -0.1616
  453TMC3    C8 6808   3.000   1.486  11.363  0.6555  0.2561  0.2853
  453TMC3    O1 6809   2.923   1.897  11.188  0.3549  0.0197  0.0819
  453TMC3    O2 6810   2.907   1.480  11.286  0.2414  0.3367 -0.4087
  454MPD2     C 6811   1.588   1.838  15.989  0.2568 -0.3219 -0.2408
  454MPD2    C1 6812   1.464   1.829  15.924  0.9009  0.2290  0.3491
  454MPD2    C2 6813   1.375   1.928  15.928  0.0264  0.2564 -0.5361
  454MPD2    C3 6814   1.400   2.051  15.990  0.2729  0.2802  0.3051
  454MPD2    C4 6815   1.524   2.056  16.057 -0.1489  0.2292  0.1517
  454MPD2    C5 6816   1.617   1.954  16.057  0.6799 -0.7272 -0.1092
  454MPD2     H 6817   1.275   1.899  15.900  0.2908 -0.9052 -0.2833
  454MPD2    H1 6818   1.551   2.141  16.120  0.6558  1.6974 -2.1801
  454MPD2    H2 6819   1.663   1.760  15.990  1.3799  0.7921  1.5232
  454MPD2    H3 6820   1.705   1.955  16.121 -0.2178  1.5468  1.0848
  454MPD2     N 6821   1.300   2.144  16.012  0.3313 -0.0242  0.3229
  454MPD2    H5 6822   1.320   2.213  16.084 -1.9565  1.1221 -0.1300
  454MPD2    N1 6823   1.403   1.716  15.875  0.0002  0.4181 -0.2053
  454MPD2    H7 6824   1.308   1.731  15.843  0.5829  1.2985 -1.5620
  455TMC3    C1 6825   1.071   2.177  16.058 -0.4184  0.6225  0.0396
  455TMC3    C2 6826   1.111   2.274  16.145 -0.3145  0.0628  0.0685
  455TMC3    C3 6827   1.049   2.274  16.267  0.0886  0.0098 -0.2643
  455TMC3    C4 6828   0.982   2.077  16.086 -0.0139  0.2785 -0.2421
  455TMC3    C5 6829   0.930   2.073  16.206  0.4166  0.0355 -0.4051
  455TMC3    C6 6830   0.956   2.177  16.297 -0.5797 -1.1354  0.0662
  455TMC3     C 6831   1.170   2.130  15.965  0.1889  0.0269 -0.9760
  455TMC3     O 6832   1.117   2.055  15.886 -0.1675 -0.2512  0.5844
  455TMC3     H 6833   1.185   2.348  16.117  1.2925 -0.6340  2.5125
  455TMC3    H1 6834   0.969   1.989  16.023 -0.5610  0.0221  0.2214
  455TMC3    H2 6835   0.912   2.166  16.396  1.1715 -1.8909  0.7654
  455TMC3    C7 6836   0.952   1.940  16.254 -0.0144 -0.1638  0.5058
  455TMC3    C8 6837   1.057   2.386  16.352  0.3093  0.6313 -0.5207
  455TMC3    O1 6838   0.870   1.890  16.329 -0.0084  0.0707  0.6690
  455TMC3    O2 6839   0.994   2.380  16.457  0.1221  0.0523  0.9967
  456MPD2     C 6840   3.846   1.263  16.238 -0.4977 -0.5610 -0.1750
  456MPD2    C1 6841   3.941   1.285  16.334  0.4836 -0.6806 -0.3726
  456MPD2    C2 6842   3.913   1.387  16.427 -0.1342 -0.5616  0.0139
  456MPD2    C3 6843   3.795   1.452  16.431 -0.9794 -0.4402  0.1206
  456MPD2    C4 6844   3.696   1.429  16.332 -0.2831  0.6237 -0.3025
  456MPD2    C5 6845   3.727   1.336  16.233  0.5360  0.7185  0.1750
  456MPD2     H 6846   3.987   1.412  16.501  0.0596 -1.1362  0.0131
  456MPD2    H1 6847   3.597   1.472  16.339 -1.3687 -1.4299 -3.5035
  456MPD2    H2 6848   3.861   1.193  16.157  0.3411 -0.1986 -0.3355
  456MPD2    H3 6849   3.656   1.324  16.152 -0.2991 -1.8684  1.2914
  456MPD2     N 6850   3.774   1.550  16.534 -0.5336 -0.3040  0.2398
  456MPD2    H5 6851   3.851   1.557  16.599  1.2148  3.5981 -2.2354
  456MPD2    N1 6852   4.065   1.212  16.331 -0.1216  0.1945 -0.5989
  456MPD2    H7 6853   4.075   1.157  16.246 -1.4475 -2.3271  0.9032
  457TMC3    C1 6854   3.683   1.717  16.660  0.6826 -0.2124  0.0824
  457TMC3    C2 6855   3.616   1.838  16.670  0.4701 -0.2525 -0.0933
  457TMC3    C3 6856   3.598   1.885  16.796 -0.2644 -0.0208 -0.1998
  457TMC3    C4 6857   3.733   1.646  16.767  0.1006 -0.2389  0.7708
  457TMC3    C5 6858   3.697   1.698  16.896 -0.3160  0.2098  0.2426
  457TMC3    C6 6859   3.625   1.812  16.906 -0.0006 -0.6108 -0.4815
  457TMC3     C 6860   3.672   1.639  16.538 -0.4801  0.2008  0.5026
  457TMC3     O 6861   3.578   1.651  16.465 -0.0946  0.0681  0.2444
  457TMC3     H 6862   3.579   1.891  16.583 -0.5464  0.9348  1.0514
  457TMC3    H1 6863   3.812   1.572  16.769  0.0483 -0.3001  0.5599
  457TMC3    H2 6864   3.592   1.870  16.991  0.7305 -1.3719  0.3286
  457TMC3    C7 6865   3.759   1.628  17.013  0.1649 -0.1819  0.2166
  457TMC3    C8 6866   3.614   2.028  16.806 -0.0189  0.9039 -0.6541
  457TMC3    O1 6867   3.808   1.513  17.000  0.0577  0.1724  0.2039
  457TMC3    O2 6868   3.666   2.067  16.910  0.3874 -0.1598  0.9403
  458MPD2     C 6869   2.069   1.273  12.948 -0.4252  0.1336  0.1588
  458MPD2    C1 6870   2.048   1.131  12.949 -0.0769 -0.3375 -0.1629
  458MPD2    C2 6871   1.964   1.073  12.855 -0.2599 -0.5544  0.1123
  458MPD2    C3 6872   1.882   1.153  12.778 -0.9191  0.1491 -0.7185
  458MPD2    C4 6873   1.897   1.289  12.782 -0.2619  0.8861 -0.2582
  458MPD2    C5 6874   1.993   1.344  12.860  0.1210 -0.2609  0.3305
  458MPD2     H 6875   1.936   0.968  12.851  1.0625 -0.8384 -1.6131
  458MPD2    H1 6876   1.822   1.347  12.728 -1.7880 -1.3540 -0.5222
  458MPD2    H2 6877   2.153   1.320  12.998  1.2432 -1.3689 -1.2069
  458MPD2    H3 6878   1.997   1.452  12.854 -1.4776 -0.0235  3.4044
  458MPD2     N 6879   1.776   1.086  12.710 -0.5551  0.3013 -0.3019
  458MPD2    H5 6880   1.770   0.986  12.729  0.7802 -0.1478 -2.2336
  458MPD2    N1 6881   2.123   1.052  13.045 -0.2915 -0.4286  0.1889
  458MPD2    H7 6882   2.184   1.097  13.113 -0.9172  1.8747 -0.7629
  459TMC3    C1 6883   2.184   0.863  13.173  0.1665  0.7298 -0.0406
  459TMC3    C2 6884   2.304   0.912  13.211  1.1215 -0.1945  0.6732
  459TMC3    C3 6885   2.363   0.871  13.326  0.0458 -0.9435  0.3951
  459TMC3    C4 6886   2.115   0.772  13.247  0.3498 -0.7488  0.2285
  459TMC3    C5 6887   2.172   0.724  13.358  0.8799 -0.3886 -0.0303
  459TMC3    C6 6888   2.303   0.769  13.392 -0.4059 -0.0694  0.0076
  459TMC3     C 6889   2.110   0.912  13.057 -0.0521 -0.2123 -0.5364
  459TMC3     O 6890   2.028   0.834  13.012  0.1910 -0.4092  0.2106
  459TMC3     H 6891   2.357   0.986  13.153 -0.0746  0.6586  0.6575
  459TMC3    H1 6892   2.025   0.731  13.202  0.4320 -1.5012  0.7448
  459TMC3    H2 6893   2.350   0.737  13.484 -0.0223 -1.1930 -0.5716
  459TMC3    C7 6894   2.117   0.629  13.461 -0.2510 -0.3349 -0.3206
  459TMC3    C8 6895   2.442   0.970  13.405 -0.5864 -0.3796 -0.9483
  459TMC3    O1 6896   2.182   0.611  13.566  0.0041 -0.1551 -0.6896
  459TMC3    O2 6897   2.431   0.966  13.528  0.2278  0.0901 -0.0847
  460MPD2     C 6898   1.423   3.762  11.147  0.2150 -0.2471  0.1611
  460MPD2    C1 6899   1.288   3.798  11.165  0.6958  0.8760 -0.0222
  460MPD2    C2 6900   1.208   3.782  11.052 -0.1058 -0.4497 -0.0208
  460MPD2    C3 6901   1.256   3.727  10.937 -0.0355  0.0119  0.4734
  460MPD2    C4 6902   1.392   3.695  10.921 -0.1903 -0.1888  0.5717
  460MPD2    C5 6903   1.467   3.727  11.024 -0.6066  0.1853 -0.0759
  460MPD2     H 6904   1.107   3.823  11.058  0.9598  1.3472  5.2830
  460MPD2    H1 6905   1.442   3.650  10.836 -0.8094 -4.5261  2.5171
  460MPD2    H2 6906   1.493   3.765  11.230 -0.3806  0.8853  0.6185
  460MPD2    H3 6907   1.573   3.703  11.022 -0.4736  0.6695  1.3439
  460MPD2     N 6908   1.173   3.719  10.826 -0.3467  0.1264 -0.1790
  460MPD2    H5 6909   1.078   3.756  10.821  0.5893  2.6880  1.4764
  460MPD2    N1 6910   1.253   3.848  11.291  0.4717  0.1509  0.3911
  460MPD2    H7 6911   1.332   3.849  11.354  0.2099  1.2125  0.7060
  461TMC3    C1 6912   1.103   3.680  10.601 -0.9060  0.0843 -1.0724
  461TMC3    C2 6913   1.100   3.597  10.493  1.0376 -0.7374  0.9136
  461TMC3    C3 6914   1.017   3.632  10.390  0.4294  0.4116  0.0703
  461TMC3    C4 6915   1.025   3.790  10.610 -0.4798  0.6985  0.0821
  461TMC3    C5 6916   0.935   3.814  10.512  0.1873 -0.0938  0.5293
  461TMC3    C6 6917   0.931   3.737  10.398 -0.3365  0.3638 -0.3590
  461TMC3     C 6918   1.202   3.656  10.707  0.3146 -0.3529 -0.0720
  461TMC3     O 6919   1.297   3.577  10.692  0.2965 -0.5517 -0.2793
  461TMC3     H 6920   1.157   3.505  10.484  0.9995 -0.8476  1.7533
  461TMC3    H1 6921   1.060   3.869  10.675 -2.5966  0.6502  1.2892
  461TMC3    H2 6922   0.864   3.778  10.324 -0.6873 -0.0083 -0.2433
  461TMC3    C7 6923   0.898   3.953  10.478 -0.0430  0.3874 -0.3860
  461TMC3    C8 6924   1.006   3.544  10.274  0.1218  1.1642 -0.1653
  461TMC3    O1 6925   0.891   3.997  10.364 -0.0428  0.2816  1.0003
  461TMC3    O2 6926   1.096   3.462  10.261  0.0727 -0.0280 -0.2190
  462TMC3    C1 6927   1.003   4.614   0.213  0.5132 -0.6808 -0.4163
  462TMC3    C2 6928   1.045   4.567   0.084 -0.2590  0.4115 -0.1279
  462TMC3    C3 6929   1.036   4.434   0.061 -0.4923 -0.6870 -0.4247
  462TMC3    C4 6930   0.951   4.522   0.302  0.4668  0.2272 -0.3503
  462TMC3    C5 6931   0.959   4.386   0.281 -0.6030  0.0773  0.0516
  462TMC3    C6 6932   1.001   4.342   0.159 -0.4776  0.5511 -0.9516
  462TMC3     C 6933   1.009   0.016   0.245 -0.6646 -0.5569  0.0916
  462TMC3     O 6934   0.937   0.052   0.339  0.4356  0.4204  0.0428
  462TMC3     H 6935   1.081   4.635   0.008 -0.4508 -0.3214 -0.8777
  462TMC3    H1 6936   0.940   4.550   0.407 -0.1259  0.8634 -0.5802
  462TMC3    H2 6937   0.959   4.245   0.136 -1.6080  0.9836 -0.7173
  462TMC3    C7 6938   0.879   4.290   0.351 -0.1146 -0.0868  0.6320
  462TMC3    C8 6939   0.983   4.412  17.678 -0.1749 -0.1879 -0.4479
  462TMC3    O1 6940   0.916   4.171   0.357  0.2081  0.2364  0.3861
  462TMC3    O2 6941   0.935   4.509  17.625 -0.2174  0.1220 -0.1219
  463MPD2     C 6942   0.421   3.321   2.047  0.2923  0.3795  0.7854
  463MPD2    C1 6943   0.446   3.307   1.911  0.2332  0.0395 -0.2018
  463MPD2    C2 6944   0.411   3.412   1.825 -0.8039 -0.2066  0.2114
  463MPD2    C3 6945   0.353   3.528   1.869 -0.6244  0.3211 -0.4103
  463MPD2    C4 6946   0.334   3.539   2.006  0.0035 -0.3916 -0.5458
  463MPD2    C5 6947   0.375   3.442   2.088 -0.3574  0.4038  0.4899
  463MPD2     H 6948   0.434   3.394   1.721 -0.1967  1.7428  0.0054
  463MPD2    H1 6949   0.272   3.617   2.051 -3.6110 -3.1846 -0.6644
  463MPD2    H2 6950   0.448   3.248   2.122 -2.3742  0.4734  1.8518
  463MPD2    H3 6951   0.365   3.456   2.195  1.6925 -2.3166  1.0439
  463MPD2     N 6952   0.299   3.630   1.789  0.6045  0.6760  0.6221
  463MPD2    H5 6953   0.262   3.704   1.847  0.9525  1.1656  0.2194
  463MPD2    N1 6954   0.507   3.193   1.852  0.0923  0.3490  0.1087
  463MPD2    H7 6955   0.513   3.190   1.751  0.8680  1.0831  0.1311
  464TMC3    C1 6956   0.581   2.974   1.825  0.1064  0.0365 -0.2391
  464TMC3    C2 6957   0.493   2.950   1.716 -0.2527 -0.6177  0.7325
  464TMC3    C3 6958   0.520   2.849   1.633  0.2248  0.2799  0.4819
  464TMC3    C4 6959   0.703   2.906   1.838 -0.4475 -0.6658  0.1083
  464TMC3    C5 6960   0.729   2.807   1.738 -0.3772 -0.2414  0.0078
  464TMC3    C6 6961   0.636   2.775   1.642  0.3969 -0.5036 -0.1547
  464TMC3     C 6962   0.551   3.082   1.919 -0.3985 -0.9740  0.0758
  464TMC3     O 6963   0.579   3.071   2.038  0.2840  0.3692  0.3737
  464TMC3     H 6964   0.405   3.013   1.699  1.8294  1.6381 -1.6462
  464TMC3    H1 6965   0.760   2.928   1.928 -0.4398  0.5239 -0.1937
  464TMC3    H2 6966   0.660   2.690   1.579  2.1122  0.0572 -0.2401
  464TMC3    C7 6967   0.843   2.720   1.763 -0.1616 -0.4631 -0.3234
  464TMC3    C8 6968   0.464   2.859   1.506  0.2171  0.0620 -0.2681
  464TMC3    O1 6969   0.909   2.720   1.868 -0.7151 -0.0846  0.3321
  464TMC3    O2 6970   0.535   2.839   1.410  0.3903 -0.2737  0.2926
  465MPD2     C 6971   3.236   1.926  17.088  0.7235  0.2552 -0.6349
  465MPD2    C1 6972   3.103   1.897  17.098  0.0993  0.3037 -0.5231
  465MPD2    C2 6973   3.023   1.928  16.988 -0.1458 -0.2722 -0.2058
  465MPD2    C3 6974   3.070   1.986  16.867  0.0436  0.0857 -0.2254
  465MPD2    C4 6975   3.209   2.000  16.855  0.0721 -0.1147 -0.0666
  465MPD2    C5 6976   3.285   1.973  16.968 -0.5915 -0.0879 -0.3912
  465MPD2     H 6977   2.915   1.913  16.994 -0.0036 -1.7457 -1.2856
  465MPD2    H1 6978   3.254   2.054  16.772  0.6848 -1.3559 -0.5525
  465MPD2    H2 6979   3.314   1.905  17.160  1.7402 -0.2839 -1.9054
  465MPD2    H3 6980   3.392   1.983  16.960 -0.3218 -0.3364  2.7901
  465MPD2     N 6981   2.983   2.002  16.752 -0.3171  0.1496 -0.0700
  465MPD2    H5 6982   2.883   1.987  16.749 -0.3164  0.5208 -2.0536
  465MPD2    N1 6983   3.041   1.851  17.212 -0.2736 -0.2343  0.0701
  465MPD2    H7 6984   2.940   1.852  17.206 -0.2148 -0.7880 -0.9411
  466TMC3    C1 6985   2.667   2.044  16.580  0.0586 -0.3730 -0.3414
  466TMC3    C2 6986   2.645   2.161  16.512 -0.3829 -0.3080  0.0716
  466TMC3    C3 6987   2.750   2.236  16.477  0.0565 -0.8108  0.2977
  466TMC3    C4 6988   2.796   1.994  16.592 -0.8293 -0.0356 -0.1858
  466TMC3    C5 6989   2.901   2.068  16.548 -0.1175 -0.9823 -0.5068
  466TMC3    C6 6990   2.878   2.188  16.492 -0.4063 -0.1387 -0.0732
  466TMC3     C 6991   2.597   2.021  16.698 -0.1791  0.9157  0.1877
  466TMC3     O 6992   2.667   1.991  16.799  0.0903  0.1223 -0.6619
  466TMC3     H 6993   2.546   2.203  16.506 -0.2637 -0.2798 -1.6164
  466TMC3    H1 6994   2.821   1.891  16.614  0.2805  0.4782  0.9538
  466TMC3    H2 6995   2.965   2.244  16.457 -1.9960  1.7734 -0.9802
  466TMC3    C7 6996   3.025   2.041  16.627 -0.1599 -0.0160  0.3861
  466TMC3    C8 6997   2.730   2.341  16.383 -0.2451 -0.1784  0.4388
  466TMC3    O1 6998   3.133   2.087  16.584 -0.2037 -0.0324 -0.2786
  466TMC3    O2 6999   2.758   2.324  16.264  0.0751  0.5633  0.5344
  467TMC3    C1 7000   3.845   0.386  14.144  0.7110  0.0782  0.2488
  467TMC3    C2 7001   3.890   0.436  14.020 -0.4909 -0.0823 -0.4816
  467TMC3    C3 7002   3.794   0.492  13.936  0.7293 -0.6301 -0.5472
  467TMC3    C4 7003   3.713   0.383  14.179  0.1598  0.4295 -0.6924
  467TMC3    C5 7004   3.627   0.431  14.089  0.9571  0.4532 -0.1399
  467TMC3    C6 7005   3.664   0.493  13.973 -0.3224 -0.7422 -0.4857
  467TMC3     C 7006   3.942   0.417  14.246 -0.0883  0.2656  0.3954
  467TMC3     O 7007   4.008   0.522  14.219  0.1564  0.3443  0.5273
  467TMC3     H 7008   3.996   0.442  13.999 -0.2489  0.1713  0.7990
  467TMC3    H1 7009   3.675   0.334  14.268 -0.5326 -0.8397 -1.6720
  467TMC3    H2 7010   3.600   0.532  13.895 -0.2310 -3.6759 -2.0204
  467TMC3    C7 7011   3.489   0.392  14.087 -0.3684  0.2365 -0.1212
  467TMC3    C8 7012   3.833   0.538  13.802 -0.4517 -0.1256  0.1811
  467TMC3    O1 7013   3.432   0.393  13.978 -0.4414 -0.1039 -0.2915
  467TMC3    O2 7014   3.774   0.634  13.755 -0.3132 -0.6138  0.2239
  468MPD2     C 7015   2.890   3.336  10.935  0.1810 -0.3396 -0.0429
  468MPD2    C1 7016   3.022   3.320  10.961  0.0067 -0.2714 -0.0894
  468MPD2    C2 7017   3.062   3.199  11.011 -0.3899 -0.2475  0.3331
  468MPD2    C3 7018   2.974   3.093  11.028 -0.3026  0.2560  0.9068
  468MPD2    C4 7019   2.845   3.115  10.999  0.1445  0.3759 -0.6631
  468MPD2    C5 7020   2.797   3.235  10.948 -0.2085  0.2038  1.0272
  468MPD2     H 7021   3.166   3.191  11.040 -0.6148 -0.1837  1.1720
  468MPD2    H1 7022   2.776   3.032  11.005  0.1835  0.4565  0.8590
  468MPD2    H2 7023   2.851   3.433  10.905  2.2762  0.4025 -0.4012
  468MPD2    H3 7024   2.694   3.250  10.920 -0.8759 -2.2506  2.1332
  468MPD2     N 7025   3.005   2.959  11.074 -0.7212 -1.0413  0.7682
  468MPD2    H5 7026   2.930   2.894  11.092 -1.0054 -0.8595  0.2297
  468MPD2    N1 7027   3.110   3.426  10.966  0.1562  0.1818 -0.8870
  468MPD2    H7 7028   3.200   3.396  11.002 -0.9949 -0.6698  1.3027
  469TMC3    C1 7029   3.207   3.634  10.970  0.1486  0.3316  0.1899
  469TMC3    C2 7030   3.330   3.567  10.962  0.8280  0.8228 -0.2827
  469TMC3    C3 7031   3.430   3.635  11.032 -0.8943 -0.4738  0.7323
  469TMC3    C4 7032   3.184   3.754  11.032 -0.1301 -0.1969  1.1862
  469TMC3    C5 7033   3.299   3.811  11.096 -0.0535  0.1264 -0.1605
  469TMC3    C6 7034   3.420   3.751  11.104  0.2615  0.4473 -0.4234
  469TMC3     C 7035   3.089   3.555  10.934 -0.4003  0.0779 -0.1364
  469TMC3     O 7036   2.981   3.611  10.908  0.2864  0.2362  0.1743
  469TMC3     H 7037   3.356   3.476  10.910 -0.6121 -1.1005  2.3857
  469TMC3    H1 7038   3.084   3.792  11.049  0.3502  2.1290 -1.2334
  469TMC3    H2 7039   3.506   3.804  11.144  1.2316 -0.0033 -1.9031
  469TMC3    C7 7040   3.272   3.912  11.194  0.1114  0.2397 -0.1089
  469TMC3    C8 7041   3.562   3.578  11.026  0.2777 -0.5434 -0.7915
  469TMC3    O1 7042   3.193   3.995  11.163  0.8071 -0.0932  0.9025
  469TMC3    O2 7043   3.597   3.531  10.916 -0.6191  0.1311  0.0187
  470TMC3    C1 7044   0.207   4.012   1.000  0.8010 -0.8991  0.3578
  470TMC3    C2 7045   0.281   4.126   1.001  0.3577  0.2031 -0.6058
  470TMC3    C3 7046   0.269   4.209   1.114  1.0321  0.0901  0.3253
  470TMC3    C4 7047   0.134   3.973   1.102  0.2472  0.3826  0.3346
  470TMC3    C5 7048   0.127   4.052   1.209 -0.6733  0.6531  0.6447
  470TMC3    C6 7049   0.193   4.177   1.213 -0.3358 -0.0086  0.5032
  470TMC3     C 7050   0.208   3.935   0.882 -0.2508  0.0593  0.7626
  470TMC3     O 7051   0.309   3.938   0.812 -0.4394 -0.4947 -0.7758
  470TMC3     H 7052   0.324   4.156   0.906  2.1963 -1.4049 -0.2642
  470TMC3    H1 7053   0.109   3.868   1.113 -1.0433  0.7647  1.1427
  470TMC3    H2 7054   0.166   4.242   1.296 -2.3882  2.5381 -2.1789
  470TMC3    C7 7055   0.065   3.993   1.332  0.6710 -0.0172 -0.2282
  470TMC3    C8 7056   0.373   4.301   1.153  0.6025  0.4740 -0.1099
  470TMC3    O1 7057   4.723   3.899   1.321 -0.6090 -0.0804  0.6134
  470TMC3    O2 7058   0.377   4.345   1.267 -0.5723 -0.8258  0.1653
  471MPD2     C 7059   0.656   0.741  17.202 -0.0673  0.0170 -0.5385
  471MPD2    C1 7060   0.747   0.640  17.167  0.5589 -0.8261  0.0987
  471MPD2    C2 7061   0.827   0.583  17.266 -0.2450  0.0607  0.1598
  471MPD2    C3 7062   0.814   0.620  17.400  0.0457  0.0838 -0.7378
  471MPD2    C4 7063   0.723   0.711  17.434  0.2102 -0.6296  0.4340
  471MPD2    C5 7064   0.641   0.774  17.339 -0.2369  0.5127 -0.6071
  471MPD2     H 7065   0.887   0.500  17.229 -1.8876 -0.4476 -1.3558
  471MPD2    H1 7066   0.712   0.754  17.533  0.1892  2.1028 -0.7421
  471MPD2    H2 7067   0.576   0.776  17.139 -1.5971  0.9166  1.8940
  471MPD2    H3 7068   0.569   0.845  17.377 -0.7056 -0.2633 -0.0343
  471MPD2     N 7069   0.871   0.542  17.498  0.1879  0.4800  0.1633
  471MPD2    H5 7070   0.842   0.570  17.592 -0.6169  1.1194 -0.2751
  471MPD2    N1 7071   0.741   0.577  17.034 -0.0652  0.6044 -0.5423
  471MPD2    H7 7072   0.808   0.502  17.024 -1.6852 -0.9470  0.1822
  472TMC3    C1 7073   0.724   0.569  16.795 -0.0498  0.0024  0.1511
  472TMC3    C2 7074   0.685   0.639  16.684 -0.1831  0.0043  0.6479
  472TMC3    C3 7075   0.727   0.584  16.568 -0.3191 -0.9660 -0.5834
  472TMC3    C4 7076   0.790   0.445  16.797  0.0080 -0.4438 -0.1424
  472TMC3    C5 7077   0.814   0.394  16.674  0.3771  0.2770  0.6082
  472TMC3    C6 7078   0.785   0.462  16.554  0.1856  0.4349  1.1210
  472TMC3     C 7079   0.681   0.633  16.922  0.1417 -0.0497 -0.1560
  472TMC3     O 7080   0.619   0.737  16.919 -0.4227  0.8132 -0.2887
  472TMC3     H 7081   0.610   0.718  16.691  0.1698  0.3889  0.0511
  472TMC3    H1 7082   0.792   0.378  16.881  0.1652  0.5576  0.6506
  472TMC3    H2 7083   0.813   0.423  16.456 -1.0400 -0.7612  1.2465
  472TMC3    C7 7084   0.762   0.261  16.672 -0.0748 -0.0767  0.0013
  472TMC3    C8 7085   0.633   0.598  16.468  0.3503  0.3668 -0.5566
  472TMC3    O1 7086   0.762   0.184  16.767 -0.5511 -0.5318 -0.2684
  472TMC3    O2 7087   0.658   0.620  16.355 -0.0060  0.0442  0.7325
  473MPD2     C 7088   0.193   2.854  14.067  0.6528  0.0212 -0.7711
  473MPD2    C1 7089   0.303   2.908  14.011 -0.2437  0.0918 -0.0526
  473MPD2    C2 7090   0.397   2.964  14.100 -0.2615  0.3549 -0.0442
  473MPD2    C3 7091   0.380   2.965  14.238  0.8628 -0.1834  0.1826
  473MPD2    C4 7092   0.270   2.899  14.291  0.3443  0.0805  0.1956
  473MPD2    C5 7093   0.181   2.843  14.208 -0.8921  0.3575  0.4236
  473MPD2     H 7094   0.485   3.015  14.063  0.2504  0.3457  1.1662
  473MPD2    H1 7095   0.246   2.888  14.396  1.2655  1.7528  0.5800
  473MPD2    H2 7096   0.122   2.798  14.007 -1.2441  0.0351  1.4698
  473MPD2    H3 7097   0.093   2.787  14.237 -1.3337  1.3345  0.9308
  473MPD2     N 7098   0.450   3.039  14.331 -0.0328 -0.2324  0.4957
  473MPD2    H5 7099   0.420   3.035  14.428 -0.6771 -0.7741  0.2718
  473MPD2    N1 7100   0.313   2.941  13.872  0.1719  0.1758  0.0531
  473MPD2    H7 7101   0.376   3.015  13.843 -0.2963  0.7637  0.5253
  474TMC3    C1 7102   0.619   3.184  14.422  1.0302 -0.5454 -0.5281
  474TMC3    C2 7103   0.523   3.250  14.491 -0.2682  0.1602 -0.0667
  474TMC3    C3 7104   0.559   3.356  14.573  0.2384 -0.3596  0.0113
  474TMC3    C4 7105   0.751   3.217  14.438  0.1563  0.0546  0.2693
  474TMC3    C5 7106   0.785   3.308  14.534 -0.0129 -0.2031  0.0838
  474TMC3    C6 7107   0.686   3.379  14.603 -0.4795  0.0985 -0.3335
  474TMC3     C 7108   0.579   3.096  14.315  0.9474 -0.0706 -0.0208
  474TMC3     O 7109   0.662   3.046  14.242  0.0791  0.6828 -0.2070
  474TMC3     H 7110   0.418   3.236  14.468  0.4636 -3.2652 -1.3686
  474TMC3    H1 7111   0.825   3.146  14.403  0.6028  1.0533 -0.7966
  474TMC3    H2 7112   0.721   3.448  14.678  4.0955 -2.9556  0.3227
  474TMC3    C7 7113   0.932   3.322  14.550  0.0281 -0.2096 -0.3013
  474TMC3    C8 7114   0.456   3.429  14.650 -0.4232 -0.5873 -0.3833
  474TMC3    O1 7115   1.000   3.307  14.451 -0.4996 -0.5007  0.2402
  474TMC3    O2 7116   0.347   3.374  14.659  0.3583 -0.3010 -0.0228
  475MPD2     C 7117   3.500   1.127  11.347 -0.2775 -0.4265 -0.2583
  475MPD2    C1 7118   3.551   1.190  11.238 -0.2262 -0.3437  0.2974
  475MPD2    C2 7119   3.504   1.158  11.113  0.5014  0.3032  0.5238
  475MPD2    C3 7120   3.395   1.083  11.094  0.9845 -0.0438  0.8307
  475MPD2    C4 7121   3.346   1.022  11.209 -0.0520 -0.1057  0.4952
  475MPD2    C5 7122   3.399   1.035  11.331 -0.7630 -0.5901 -0.7531
  475MPD2     H 7123   3.549   1.199  11.023 -0.9046  0.8672  0.0923
  475MPD2    H1 7124   3.249   0.975  11.201 -0.0703  0.0859 -0.4310
  475MPD2    H2 7125   3.543   1.140  11.446 -0.6689  1.0847 -0.2760
  475MPD2    H3 7126   3.350   0.987  11.415  0.5996 -0.6378  0.0030
  475MPD2     N 7127   3.342   1.079  10.963  0.1535  0.6358 -0.3178
  475MPD2    H5 7128   3.402   1.118  10.891  2.9450 -1.0417  1.0989
  475MPD2    N1 7129   3.656   1.285  11.257 -0.0012  0.0754  0.3104
  475MPD2    H7 7130   3.675   1.324  11.349 -0.7415 -1.4255  1.1067
  476TMC3    C1 7131   3.802   1.461  11.214  1.2713  0.4604  0.1234
  476TMC3    C2 7132   3.841   1.563  11.125  0.4404  0.0849 -0.2743
  476TMC3    C3 7133   3.934   1.653  11.163  0.2399 -0.1474 -0.1546
  476TMC3    C4 7134   3.852   1.455  11.338 -1.2296  0.0406 -0.2129
  476TMC3    C5 7135   3.951   1.538  11.378 -0.2293 -0.3373  0.1372
  476TMC3    C6 7136   3.984   1.643  11.294  0.2539 -0.1950  0.3406
  476TMC3     C 7137   3.696   1.378  11.160  0.9270  0.0435 -0.9297
  476TMC3     O 7138   3.676   1.372  11.041  0.1437  0.1869  0.1234
  476TMC3     H 7139   3.792   1.571  11.028 -0.1836 -1.1689 -0.0670
  476TMC3    H1 7140   3.816   1.387  11.415 -1.0177  1.7522  1.4110
  476TMC3    H2 7141   4.056   1.717  11.327  2.9745 -2.3441 -0.8432
  476TMC3    C7 7142   3.959   1.546  11.532  0.3418 -0.0253 -0.2135
  476TMC3    C8 7143   3.948   1.777  11.103  0.8293 -0.6092 -0.3333
  476TMC3    O1 7144   3.957   1.441  11.600  0.3623  0.1642  0.0448
  476TMC3    O2 7145   3.968   1.875  11.171 -0.1554  0.4721 -0.0618
  477MPD2     C 7146   1.785   2.906  12.140  0.2216  0.2573 -0.0791
  477MPD2    C1 7147   1.704   2.835  12.048 -0.1695 -0.1705 -0.2195
  477MPD2    C2 7148   1.635   2.722  12.090 -0.1498  0.4990  0.9741
  477MPD2    C3 7149   1.630   2.690  12.226  0.5339 -0.6150 -0.8332
  477MPD2    C4 7150   1.711   2.762  12.314 -0.6964  0.6072  0.0100
  477MPD2    C5 7151   1.791   2.868  12.274  0.5409  0.1551 -0.5056
  477MPD2     H 7152   1.569   2.664  12.027  1.9657 -2.1183  1.1568
  477MPD2    H1 7153   1.719   2.738  12.419 -3.2950 -1.6281 -0.3060
  477MPD2    H2 7154   1.845   2.991  12.109 -1.2877  1.1905 -0.4453
  477MPD2    H3 7155   1.849   2.932  12.339 -1.8874  0.2235  1.5949
  477MPD2     N 7156   1.554   2.579  12.263 -0.1557 -0.3895  0.1867
  477MPD2    H5 7157   1.516   2.514  12.195  1.8568 -0.0035 -1.2993
  477MPD2    N1 7158   1.691   2.890  11.922  0.1180 -0.4598 -0.5169
  477MPD2    H7 7159   1.723   2.986  11.911 -0.6169 -0.2272 -0.6204
  478TMC3    C1 7160   1.568   2.949  11.742  0.2733  0.4097  0.0214
  478TMC3    C2 7161   1.544   3.069  11.800 -0.1949 -0.0083 -0.4760
  478TMC3    C3 7162   1.473   3.164  11.725 -0.4256  0.1141 -0.4760
  478TMC3    C4 7163   1.505   2.918  11.625  0.6670  0.3241  0.4561
  478TMC3    C5 7164   1.433   3.012  11.557  0.2227 -0.4898 -0.0241
  478TMC3    C6 7165   1.413   3.137  11.604  0.9720  0.0706  0.0189
  478TMC3     C 7166   1.613   2.842  11.820 -0.3633  0.1291 -0.8207
  478TMC3     O 7167   1.577   2.728  11.797 -0.0589 -0.7538  0.5292
  478TMC3     H 7168   1.587   3.090  11.897 -1.9226  1.4032 -0.0356
  478TMC3    H1 7169   1.502   2.816  11.591 -0.8723  0.2993  0.6342
  478TMC3    H2 7170   1.366   3.217  11.547 -0.6177  0.4521  1.8537
  478TMC3    C7 7171   1.358   2.966  11.447 -0.5595 -0.7324  0.7894
  478TMC3    C8 7172   1.421   3.278  11.790  0.5310  0.7412 -0.3825
  478TMC3    O1 7173   1.377   2.853  11.404 -0.4306  0.5311  0.0456
  478TMC3    O2 7174   1.311   3.318  11.742 -0.2379 -0.1084  0.5112
  479MPD2     C 7175   4.676   4.686  15.436  0.5228  0.7424 -0.1903
  479MPD2    C1 7176   4.653   4.611  15.546 -0.5280  0.1327 -0.1869
  479MPD2    C2 7177   4.715   4.646  15.669 -0.6566  0.0086  1.1098
  479MPD2    C3 7178   0.049   0.029  15.675 -0.1948  0.0077  0.0537
  479MPD2    C4 7179   0.075   0.093  15.554  0.1518  0.1098  0.1183
  479MPD2    C5 7180   0.025   0.049  15.438  0.2690 -0.1330 -0.3391
  479MPD2     H 7181   4.719   4.576  15.752 -0.7491 -0.7823  0.4496
  479MPD2    H1 7182   0.134   0.184  15.553  0.3253 -0.0004  0.4515
  479MPD2    H2 7183   4.616   4.671  15.347 -1.8887 -0.4442  1.6044
  479MPD2    H3 7184   0.044   0.104  15.346 -1.0305  2.4035  0.9231
  479MPD2     N 7185   0.113   0.091  15.783  0.3056  0.1996  0.0428
  479MPD2    H5 7186   0.187   0.157  15.758 -1.2109  1.8925 -0.0134
  479MPD2    N1 7187   4.565   4.505  15.524 -0.0086 -0.1239  0.1106
  479MPD2    H7 7188   4.514   4.505  15.437 -2.3877  2.8879  1.5230
  480TMC3    C1 7189   4.533   4.605  16.049 -0.3633  0.2325  0.4266
  480TMC3    C2 7190   4.428   4.659  15.979 -0.6449 -0.5271  0.0818
  480TMC3    C3 7191   4.446   0.035  15.901 -0.2256 -0.1118 -0.6115
  480TMC3    C4 7192   4.664   4.649  16.019 -0.1068 -0.1339 -0.4083
  480TMC3    C5 7193   4.685   0.016  15.937 -0.3364  0.1261  0.2877
  480TMC3    C6 7194   4.579   0.080  15.884 -0.3818  0.4698  0.1144
  480TMC3     C 7195   4.527   4.483  16.121 -0.1449 -0.2977 -0.2622
  480TMC3     O 7196   4.632   4.420  16.133  0.2168  0.1233  1.0348
  480TMC3     H 7197   4.326   4.643  16.011 -0.9568  1.6800  0.1354
  480TMC3    H1 7198   0.018   4.606  16.056  0.4650  0.3339 -1.2693
  480TMC3    H2 7199   4.607   0.167  15.827 -0.1377  1.2549  1.4255
  480TMC3    C7 7200   0.079   0.075  15.913 -0.4583  0.2807 -0.1115
  480TMC3    C8 7201   4.363   0.068  15.782 -0.2237  0.2247  0.9469
  480TMC3    O1 7202   0.145   0.079  16.017  1.2567  0.0058  0.5494
  480TMC3    O2 7203   4.265   4.733  15.773 -0.0853  1.0158  0.7329
  481MPD2     C 7204   1.639   4.657  14.033  0.5165  0.3583  0.2620
  481MPD2    C1 7205   1.643   4.531  14.088  0.1838  0.4944 -0.8700
  481MPD2    C2 7206   1.670   4.520  14.220 -0.5446 -0.4252 -0.5621
  481MPD2    C3 7207   1.691   4.632  14.296 -0.0059 -0.1763  0.0153
  481MPD2    C4 7208   1.687   0.020  14.246 -0.2675 -0.9784  0.2168
  481MPD2    C5 7209   1.662   0.034  14.109 -0.1896  0.1317 -0.1755
  481MPD2     H 7210   1.684   4.422  14.263  0.3360 -0.1004 -0.1087
  481MPD2    H1 7211   1.711   0.106  14.309  0.8216 -1.0399 -0.1074
  481MPD2    H2 7212   1.611   4.668  13.928 -1.2947  1.4383  0.8625
  481MPD2    H3 7213   1.660   0.130  14.059  0.9353  0.3315  0.1521
  481MPD2     N 7214   1.727   4.627  14.434 -0.3302 -0.1924  0.2929
  481MPD2    H5 7215   1.758   4.714  14.476 -0.0135 -0.1282 -0.0738
  481MPD2    N1 7216   1.626   4.422  13.999  0.2390 -0.6270  0.4906
  481MPD2    H7 7217   1.605   4.446  13.903  1.1489  0.1021  0.4765
  482TMC3    C1 7218   1.620   4.211  13.904  0.5760  0.1045  0.2568
  482TMC3    C2 7219   1.657   4.080  13.907 -0.0500  0.1051 -0.0861
  482TMC3    C3 7220   1.628   4.006  13.793 -0.1042  0.5013 -0.5422
  482TMC3    C4 7221   1.567   4.275  13.789 -0.1663  0.5668  0.9859
  482TMC3    C5 7222   1.530   4.197  13.680 -0.1821  0.3538  0.4512
  482TMC3    C6 7223   1.552   4.059  13.686 -0.5740  0.2623 -0.0679
  482TMC3     C 7224   1.621   4.288  14.026  0.4025  0.2139  0.0032
  482TMC3     O 7225   1.646   4.221  14.125 -0.0889 -0.1830 -0.3558
  482TMC3     H 7226   1.710   4.036  13.991 -1.1006  0.1824  0.6274
  482TMC3    H1 7227   1.554   4.380  13.768 -0.7711  0.1325 -0.8083
  482TMC3    H2 7228   1.504   3.996  13.613 -0.1428  3.0275 -2.7845
  482TMC3    C7 7229   1.423   4.252  13.601  0.2687 -0.2000 -0.6548
  482TMC3    C8 7230   1.630   3.862  13.803  0.4039  0.4124  0.1803
  482TMC3    O1 7231   1.367   4.350  13.649 -0.3956  0.1887 -0.2792
  482TMC3    O2 7232   1.537   3.802  13.752 -0.0511 -0.0622 -0.5452
  483TMC3    C1 7233   4.163   3.187   0.960 -1.1804  0.3676 -1.3125
  483TMC3    C2 7234   4.226   3.308   0.946  0.4136  0.1145  0.5588
  483TMC3    C3 7235   4.328   3.347   1.033 -0.3482 -0.3213 -0.7319
  483TMC3    C4 7236   4.182   3.104   1.069 -0.4457 -0.2541 -0.0132
  483TMC3    C5 7237   4.279   3.145   1.151 -0.8203 -0.0323  0.4538
  483TMC3    C6 7238   4.354   3.262   1.141 -0.5004  0.2716  0.3453
  483TMC3     C 7239   4.085   3.147   0.848 -0.5545 -0.2393 -0.0322
  483TMC3     O 7240   4.015   3.239   0.803 -0.6534 -0.0183 -0.5860
  483TMC3     H 7241   4.199   3.372   0.863  2.4442 -0.3214 -0.4468
  483TMC3    H1 7242   4.129   3.009   1.075 -0.5758 -0.1246  0.9696
  483TMC3    H2 7243   4.439   3.285   1.204  0.6563  0.6045 -1.3214
  483TMC3    C7 7244   4.345   3.036   1.235 -0.2714  0.2567 -0.0675
  483TMC3    C8 7245   4.430   3.446   0.994 -0.0737 -0.5014  0.2121
  483TMC3    O1 7246   4.468   3.040   1.239  0.1921  0.2187 -0.2841
  483TMC3    O2 7247   4.435   3.477   0.874 -0.7888  0.1247  0.0617
  484MPD2     C 7248   2.562   1.232  13.491  0.1433 -0.1529 -0.3501
  484MPD2    C1 7249   2.589   1.170  13.366  0.1638 -1.6407 -0.6417
  484MPD2    C2 7250   2.672   1.228  13.269  0.2960  0.6848 -0.1277
  484MPD2    C3 7251   2.736   1.347  13.302  0.0651 -0.6734 -0.1113
  484MPD2    C4 7252   2.707   1.405  13.426 -0.3396 -0.4109  0.3114
  484MPD2    C5 7253   2.632   1.350  13.517  0.9820  0.2284 -0.0705
  484MPD2     H 7254   2.669   1.179  13.173 -1.3244  1.4699 -0.4788
  484MPD2    H1 7255   2.766   1.485  13.470 -1.1646  0.1933  0.3306
  484MPD2    H2 7256   2.497   1.190  13.566  0.0060 -2.1634 -1.5723
  484MPD2    H3 7257   2.621   1.392  13.617 -0.4123 -1.8150  0.6340
  484MPD2     N 7258   2.822   1.415  13.219  0.8594  0.6892  0.0112
  484MPD2    H5 7259   2.872   1.495  13.255  2.1436 -0.7390  1.3931
  484MPD2    N1 7260   2.521   1.047  13.331  0.0692 -0.6394 -0.0894
  484MPD2    H7 7261   2.532   1.004  13.239 -0.7838 -0.5221 -0.2542
  485TMC3    C1 7262   2.989   1.433  13.057  0.0319  0.3461 -0.2115
  485TMC3    C2 7263   3.097   1.417  13.137  0.1613 -0.3433  0.5822
  485TMC3    C3 7264   3.212   1.480  13.102  0.6234  0.0295  0.6285
  485TMC3    C4 7265   2.998   1.483  12.929  0.1659  0.2263 -0.6180
  485TMC3    C5 7266   3.115   1.543  12.899  0.0050 -0.3802  0.4544
  485TMC3    C6 7267   3.212   1.556  12.996 -0.4407 -0.1200  0.7451
  485TMC3     C 7268   2.854   1.378  13.088 -1.2767  0.1137  0.0588
  485TMC3     O 7269   2.780   1.337  13.003  0.4505 -0.0737  0.0313
  485TMC3     H 7270   3.086   1.354  13.224  0.7007 -3.0878 -1.3284
  485TMC3    H1 7271   2.918   1.484  12.855 -0.6986 -0.6076  0.3025
  485TMC3    H2 7272   3.308   1.601  12.972 -0.6693  0.8274  1.6032
  485TMC3    C7 7273   3.172   1.513  12.774  0.4419 -0.0501  0.3151
  485TMC3    C8 7274   3.329   1.389  13.096 -0.4108  0.3538 -0.5820
  485TMC3    O1 7275   3.145   1.401  12.727 -0.7176 -0.3355  0.4032
  485TMC3    O2 7276   3.439   1.436  13.081 -0.6052  0.0157 -0.4337
  486MPD2     C 7277   4.493   4.593  13.164  0.1400 -0.0683 -0.1277
  486MPD2    C1 7278   4.405   4.586  13.062 -0.7917 -0.1982  0.0582
  486MPD2    C2 7279   4.393   4.689  12.976  0.0394  0.3557 -0.4433
  486MPD2    C3 7280   4.472   0.062  12.988 -0.1332  0.5430 -0.3572
  486MPD2    C4 7281   4.565   0.073  13.089 -0.4516 -0.5506 -1.4765
  486MPD2    C5 7282   4.577   4.702  13.171 -0.7342 -0.1435 -0.6870
  486MPD2     H 7283   4.330   4.697  12.888 -2.2380 -0.3701  1.1220
  486MPD2    H1 7284   4.629   0.157  13.112 -0.1768 -1.0258 -0.5094
  486MPD2    H2 7285   4.492   4.519  13.243  0.4279 -2.3165 -2.2545
  486MPD2    H3 7286   4.653   4.690  13.247 -2.6644 -1.6467  1.0401
  486MPD2     N 7287   4.449   0.165  12.897  0.0309 -0.2090  0.2843
  486MPD2    H5 7288   4.396   0.143  12.813  1.6844 -1.9188 -0.3128
  486MPD2    N1 7289   4.322   4.474  13.049  0.1299  0.5540 -0.4821
  486MPD2    H7 7290   4.339   4.401  13.119 -0.8036  2.7314  2.0310
  487TMC3    C1 7291   4.139   4.349  13.005 -0.2782 -0.5140  0.8300
  487TMC3    C2 7292   4.081   4.276  12.914 -0.5131  0.0291 -1.0551
  487TMC3    C3 7293   3.988   4.187  12.953 -0.2724  0.6079  0.2073
  487TMC3    C4 7294   4.108   4.337  13.137 -0.7944 -0.5247 -0.3369
  487TMC3    C5 7295   4.022   4.237  13.183  0.1987 -0.4030  0.1210
  487TMC3    C6 7296   3.957   4.161  13.086 -0.0877 -0.1501 -0.0221
  487TMC3     C 7297   4.220   4.453  12.958 -0.3796  0.0428 -0.5030
  487TMC3     O 7298   4.183   4.518  12.860 -0.8015 -0.0961 -0.9072
  487TMC3     H 7299   4.098   4.297  12.809 -0.1260  2.2709 -0.5519
  487TMC3    H1 7300   4.146   4.405  13.212 -1.0974  0.2805 -0.9179
  487TMC3    H2 7301   3.912   4.072  13.128  0.7762  0.2477  1.7550
  487TMC3    C7 7302   3.963   4.265  13.317 -0.0621 -0.0348 -0.5504
  487TMC3    C8 7303   3.926   4.107  12.841 -0.1393 -0.2417 -0.1219
  487TMC3    O1 7304   4.034   4.320  13.393  0.3979  0.2707 -0.4598
  487TMC3    O2 7305   3.995   4.100  12.740  0.2809 -0.2328  0.4181
  488MPD2     C 7306   0.283   1.736  16.440  0.1631  0.1765  0.7820
  488MPD2    C1 7307   0.287   1.843  16.523 -0.4574 -0.0691 -0.2288
  488MPD2    C2 7308   0.221   1.831  16.644  0.1292  0.1579  0.5597
  488MPD2    C3 7309   0.155   1.717  16.683 -0.0542 -0.1623 -0.1808
  488MPD2    C4 7310   0.161   1.607  16.594 -0.8882 -0.1350  0.6616
  488MPD2    C5 7311   0.230   1.612  16.475  0.7142  0.2596 -0.2570
  488MPD2     H 7312   0.229   1.919  16.707 -1.3766  1.0087 -0.4276
  488MPD2    H1 7313   0.126   1.506  16.615  0.0910 -0.6512 -0.2130
  488MPD2    H2 7314   0.352   1.727  16.357  0.2449 -1.0452  0.9825
  488MPD2    H3 7315   0.245   1.526  16.412  1.5461  1.1765 -1.3283
  488MPD2     N 7316   0.093   1.715  16.807 -0.4266 -0.3594  0.1574
  488MPD2    H5 7317   0.102   1.797  16.866  1.8862 -1.5378  1.4497
  488MPD2    N1 7318   0.367   1.963  16.505 -0.0335 -0.1626  0.4704
  488MPD2    H7 7319   0.356   2.029  16.581 -3.3611  2.1345 -2.0149
  489TMC3    C1 7320   0.006   1.622  17.000  0.1868  0.7832  0.3207
  489TMC3    C2 7321   0.085   1.709  17.064  0.4253  0.7697 -0.0401
  489TMC3    C3 7322   0.053   1.739  17.193  0.0183 -0.1470  0.4087
  489TMC3    C4 7323   4.644   1.557  17.062 -0.2242 -0.3573  0.3601
  489TMC3    C5 7324   4.616   1.596  17.189  0.3329 -0.0427 -0.3118
  489TMC3    C6 7325   4.681   1.693  17.255  0.1749 -0.0332 -0.1228
  489TMC3     C 7326   0.031   1.601  16.860  0.3491 -0.7011 -0.3509
  489TMC3     O 7327   0.008   1.495  16.807 -0.4691  0.9289 -0.1411
  489TMC3     H 7328   0.183   1.740  17.029 -0.4828  4.5980  0.8123
  489TMC3    H1 7329   4.589   1.479  17.010  0.0575 -1.8487  2.2764
  489TMC3    H2 7330   4.643   1.712  17.355 -0.4907 -1.4971 -0.0933
  489TMC3    C7 7331   4.514   1.533  17.259 -0.1816  0.0216  0.9786
  489TMC3    C8 7332   0.136   1.841  17.256  0.3503  0.3163  0.0964
  489TMC3    O1 7333   4.523   1.519  17.377  0.5144  0.1035  0.1844
  489TMC3    O2 7334   0.247   1.861  17.204  0.2724 -0.0834 -0.4586
  490MPD2     C 7335   0.497   1.534   0.097  0.0327 -0.8014 -0.2043
  490MPD2    C1 7336   0.492   1.440  17.746  0.5898  0.2179 -0.0953
  490MPD2    C2 7337   0.560   1.459  17.628 -0.2570 -0.0917 -0.0276
  490MPD2    C3 7338   0.648   1.568  17.614 -0.6732 -0.1079 -0.3139
  490MPD2    C4 7339   0.657   1.658  17.720  0.2119 -0.1694 -0.3136
  490MPD2    C5 7340   0.582   1.641   0.082  0.4826 -1.1584  0.0195
  490MPD2     H 7341   0.549   1.386  17.548  3.1752 -1.9157  1.1901
  490MPD2    H1 7342   0.716   1.749  17.727  0.0551 -0.2262  1.8664
  490MPD2    H2 7343   0.439   1.526   0.189  0.2172  0.0131 -0.0244
  490MPD2    H3 7344   0.582   1.722   0.155  0.0395  0.7986 -2.1500
  490MPD2     N 7345   0.745   1.582  17.507 -0.2523 -0.4109  0.3455
  490MPD2    H5 7346   0.820   1.648  17.526 -2.7032  2.4296  0.1236
  490MPD2    N1 7347   0.401   1.331   0.001 -0.2855  0.0460  0.3936
  490MPD2    H7 7348   0.411   1.272  17.669 -0.6390  1.6857 -0.8263
  491TMC3    C1 7349   0.301   1.139   0.102  0.3929  0.1970  0.2899
  491TMC3    C2 7350   0.342   1.036   0.182  0.5491  0.0843 -0.1894
  491TMC3    C3 7351   0.289   0.909   0.156  0.7922 -0.1375 -0.4937
  491TMC3    C4 7352   0.222   1.121  17.742  0.7345 -0.0984 -0.1921
  491TMC3    C5 7353   0.170   0.997  17.720  0.0770  0.7264  0.0322
  491TMC3    C6 7354   0.212   0.892   0.049  0.3182 -0.3055  0.1392
  491TMC3     C 7355   0.358   1.275   0.122 -0.5251 -0.1800  0.2183
  491TMC3     O 7356   0.386   1.315   0.230  0.1314 -0.5329 -0.0938
  491TMC3     H 7357   0.421   1.041   0.257 -0.8459  1.5735  1.1876
  491TMC3    H1 7358   0.178   1.207  17.692  0.5142 -0.4392 -0.5947
  491TMC3    H2 7359   0.181   0.791   0.023 -1.4261  0.2454  0.0250
  491TMC3    C7 7360   0.157   0.958  17.580 -0.0366  0.3726  0.1916
  491TMC3    C8 7361   0.308   0.807   0.257  0.2998  0.5899  1.0408
  491TMC3    O1 7362   0.100   0.859  17.549  0.5109 -0.5414 -0.0771
  491TMC3    O2 7363   0.338   0.838   0.373  0.0676 -0.2545  0.3373
  492MPD2     C 7364   1.366   1.532  11.333  0.1049  0.0490 -0.5256
  492MPD2    C1 7365   1.292   1.468  11.239  0.2844  0.2869  0.0241
  492MPD2    C2 7366   1.233   1.349  11.280  0.8289  0.3256 -0.2860
  492MPD2    C3 7367   1.248   1.303  11.408 -0.8110  0.9215 -0.2544
  492MPD2    C4 7368   1.336   1.359  11.498 -0.3413  1.0228  0.2420
  492MPD2    C5 7369   1.389   1.477  11.459 -0.6626 -0.3506 -0.4440
  492MPD2     H 7370   1.164   1.302  11.211 -1.8366  2.0777  1.1999
  492MPD2    H1 7371   1.368   1.318  11.593  0.1847 -0.3246 -0.5201
  492MPD2    H2 7372   1.413   1.627  11.307  0.1745 -0.1164 -1.0121
  492MPD2    H3 7373   1.459   1.525  11.526 -0.6022 -0.4289 -0.4501
  492MPD2     N 7374   1.181   1.190  11.460 -0.5974 -0.0789  0.2524
  492MPD2    H5 7375   1.202   1.160  11.555 -0.3128 -2.3302 -0.5326
  492MPD2    N1 7376   1.289   1.519  11.105  0.1453  0.7757 -0.1920
  492MPD2    H7 7377   1.318   1.616  11.102  0.9413  0.4896 -1.5924
  493TMC3    C1 7378   1.257   1.536  10.875  0.0285 -0.1425 -0.5977
  493TMC3    C2 7379   1.371   1.614  10.878 -0.0644 -0.1934  0.2030
  493TMC3    C3 7380   1.412   1.675  10.767  0.7245  0.1996  0.3447
  493TMC3    C4 7381   1.178   1.515  10.762 -0.1504 -0.3967  0.0544
  493TMC3    C5 7382   1.223   1.590  10.653  0.0391 -0.3051 -0.1197
  493TMC3    C6 7383   1.332   1.680  10.651  0.1035  0.5197  0.3313
  493TMC3     C 7384   1.239   1.455  10.998 -0.4506 -0.2627 -0.1329
  493TMC3     O 7385   1.197   1.339  10.986 -0.1714  0.1842  0.0936
  493TMC3     H 7386   1.439   1.618  10.962  0.1360  0.7021 -0.0035
  493TMC3    H1 7387   1.092   1.450  10.770  0.7394 -1.3556  2.0001
  493TMC3    H2 7388   1.359   1.747  10.570 -2.0158  0.5125 -0.3858
  493TMC3    C7 7389   1.123   1.601  10.543  0.5061  0.7197  0.2099
  493TMC3    C8 7390   1.519   1.777  10.781  0.5095  0.3010 -0.6921
  493TMC3    O1 7391   1.021   1.534  10.563  0.2922  0.4564 -0.2901
  493TMC3    O2 7392   1.594   1.754  10.876 -0.1130  0.1946  0.4112
  494TMC3    C1 7393   1.251   2.737   0.504 -0.3408  0.5609  0.2468
  494TMC3    C2 7394   1.317   2.622   0.503  0.7459  0.1377  0.4048
  494TMC3    C3 7395   1.420   2.597   0.425  0.0075  0.4281  0.1829
  494TMC3    C4 7396   1.294   2.845   0.433 -0.2751  0.0919  0.3346
  494TMC3    C5 7397   1.407   2.816   0.350  0.3081  0.4531  0.1685
  494TMC3    C6 7398   1.474   2.694   0.351  0.6774 -0.3068 -0.3687
  494TMC3     C 7399   1.123   2.757   0.581  0.1694 -1.1279 -0.0848
  494TMC3     O 7400   1.037   2.824   0.524 -0.1436  0.4833  0.4296
  494TMC3     H 7401   1.269   2.542   0.558  1.5862  0.2026  1.2459
  494TMC3    H1 7402   1.253   2.942   0.461  0.3065  0.0655  1.3019
  494TMC3    H2 7403   1.574   2.686   0.310  0.7880  0.5719 -0.2721
  494TMC3    C7 7404   1.422   2.886   0.229  0.1453 -0.1010 -0.3768
  494TMC3    C8 7405   1.501   2.471   0.417 -0.2780  0.0601  0.1474
  494TMC3    O1 7406   1.509   2.850   0.152 -0.4813 -0.0754  0.3473
  494TMC3    O2 7407   1.579   2.472   0.323  0.9288 -0.4288  0.7216
  495TMC3    C1 7408   0.134   0.330  14.963  0.1816 -0.0609  0.5758
  495TMC3    C2 7409   0.049   0.355  14.856  0.1274  0.1577  0.2115
  495TMC3    C3 7410   4.653   0.381  14.881  0.8073  0.3702  0.0813
  495TMC3    C4 7411   0.084   0.331  15.093 -0.1742  0.4266  0.2109
  495TMC3    C5 7412   4.700   0.388  15.114  0.1368 -0.1980 -0.6025
  495TMC3    C6 7413   4.619   0.421  15.005  0.8661 -0.4883  0.9961
  495TMC3     C 7414   0.218   0.213  14.949 -0.2141  0.5538 -0.2012
  495TMC3     O 7415   0.331   0.213  14.996  0.6432 -0.3452 -0.6018
  495TMC3     H 7416   0.076   0.331  14.754 -3.0701 -2.9384  0.0893
  495TMC3    H1 7417   0.144   0.294  15.175 -0.7179 -0.9453 -0.0012
  495TMC3    H2 7418   4.524   0.468  15.027  0.9625  0.4685 -0.6065
  495TMC3    C7 7419   4.632   0.349  15.240 -0.2106  1.0870 -0.1454
  495TMC3    C8 7420   4.565   0.267  14.846  0.3850 -0.0729 -0.9979
  495TMC3    O1 7421   4.703   0.339  15.340  0.4914 -0.4378  0.3879
  495TMC3    O2 7422   4.459   0.269  14.904 -0.6108 -0.3201 -0.4425
  496MPD2     C 7423   2.313   0.919  15.696 -0.5608  0.2672  0.6947
  496MPD2    C1 7424   2.289   0.785  15.650  0.6538  0.3712  0.2595
  496MPD2    C2 7425   2.185   0.750  15.566 -0.1063  0.0290 -0.2821
  496MPD2    C3 7426   2.093   0.849  15.535 -0.7574  0.5301  0.0500
  496MPD2    C4 7427   2.111   0.980  15.585  0.0678 -0.7216  0.0378
  496MPD2    C5 7428   2.217   1.014  15.663 -0.6186 -0.3228  0.2596
  496MPD2     H 7429   2.176   0.647  15.533  0.4294 -0.4620  1.0955
  496MPD2    H1 7430   2.037   1.057  15.566 -1.6620 -2.4277 -0.1502
  496MPD2    H2 7431   2.397   0.948  15.757 -0.6800  0.9270  0.5425
  496MPD2    H3 7432   2.242   1.115  15.695 -1.5247  0.1770 -0.6110
  496MPD2     N 7433   1.971   0.820  15.466 -0.4715  0.2208  0.1130
  496MPD2    H5 7434   1.890   0.879  15.475 -0.0315  0.4202  2.7819
  496MPD2    N1 7435   2.375   0.684  15.696 -0.4546  0.3281 -0.3819
  496MPD2    H7 7436   2.453   0.715  15.754  1.0817 -0.8693 -1.8204
  497TMC3    C1 7437   1.808   0.675  15.376  0.7482 -0.0098 -1.5316
  497TMC3    C2 7438   1.774   0.600  15.272  0.0187  0.5416  0.5257
  497TMC3    C3 7439   1.678   0.508  15.290 -0.2368  0.0443  0.1950
  497TMC3    C4 7440   1.755   0.653  15.499  0.0116 -0.4622  0.6634
  497TMC3    C5 7441   1.672   0.550  15.513 -0.2550 -0.4292  0.2105
  497TMC3    C6 7442   1.625   0.481  15.407  0.5321 -0.3450  0.1299
  497TMC3     C 7443   1.944   0.705  15.391  0.5718  0.6200  0.2038
  497TMC3     O 7444   2.024   0.615  15.369  0.2129  0.6361  0.1229
  497TMC3     H 7445   1.855   0.608  15.201 -1.0009  0.0510 -0.6817
  497TMC3    H1 7446   1.777   0.713  15.587  1.1477 -1.2293  0.9021
  497TMC3    H2 7447   1.559   0.395  15.409 -1.3249  1.0937  0.8139
  497TMC3    C7 7448   1.663   0.480  15.642  0.0227 -0.6337 -0.3912
  497TMC3    C8 7449   1.618   0.462  15.168  0.1505  0.2998  0.2373
  497TMC3    O1 7450   1.559   0.419  15.657 -0.1568  0.2354 -0.4497
  497TMC3    O2 7451   1.504   0.421  15.184 -0.0494  0.7992 -0.4924
  498MPD2     C 7452   3.729   1.028   9.880 -0.6571 -0.1977 -0.1441
  498MPD2    C1 7453   3.697   1.067  10.008  0.6310 -0.5501 -0.2815
  498MPD2    C2 7454   3.632   0.977  10.090 -0.9078  0.4900 -0.1301
  498MPD2    C3 7455   3.592   0.849  10.044  0.0499  0.7483  0.3102
  498MPD2    C4 7456   3.618   0.814   9.911 -0.1088 -0.5370  1.6565
  498MPD2    C5 7457   3.695   0.907   9.838  0.5072 -0.0025 -0.9886
  498MPD2     H 7458   3.591   1.014  10.183 -0.9169 -0.2254  0.1452
  498MPD2    H1 7459   3.599   0.717   9.867  1.7970  0.5137 -1.5398
  498MPD2    H2 7460   3.793   1.086   9.815  1.3478 -2.4160 -0.1531
  498MPD2    H3 7461   3.715   0.875   9.736  0.3337 -0.6241 -0.8312
  498MPD2     N 7462   3.497   0.782  10.119 -0.0822  0.4621 -0.2536
  498MPD2    H5 7463   3.476   0.826  10.208  1.4156 -0.0771  0.3754
  498MPD2    N1 7464   3.729   1.197  10.062  0.1282  0.1338  1.0482
  498MPD2    H7 7465   3.696   1.213  10.157 -0.9083 -1.0282  0.8871
  499TMC3    C1 7466   3.775   1.421  10.077 -0.5278  0.7390 -0.3370
  499TMC3    C2 7467   3.824   1.412  10.205  0.4934  0.5078  0.6325
  499TMC3    C3 7468   3.831   1.530  10.270  0.1592  0.2116 -0.3068
  499TMC3    C4 7469   3.734   1.541  10.020  0.5016  0.5863 -0.1043
  499TMC3    C5 7470   3.746   1.652  10.095  0.5229 -0.6468 -0.4650
  499TMC3    C6 7471   3.792   1.652  10.220 -0.1870 -0.6944  0.5913
  499TMC3     C 7472   3.767   1.308   9.991 -0.7453  0.3411  0.0431
  499TMC3     O 7473   3.783   1.318   9.871  0.3333  0.0647  0.3381
  499TMC3     H 7474   3.849   1.317  10.250 -1.9673 -0.2717  0.3671
  499TMC3    H1 7475   3.683   1.532   9.925  0.0367  0.9454  0.1108
  499TMC3    H2 7476   3.802   1.743  10.279 -1.2394 -0.5296  0.5199
  499TMC3    C7 7477   3.712   1.778  10.031 -0.7722 -0.3264  0.2927
  499TMC3    C8 7478   3.867   1.534  10.408 -0.4231  0.6392 -0.5528
  499TMC3    O1 7479   3.680   1.870  10.105  0.4687 -0.1536  0.2119
  499TMC3    O2 7480   3.924   1.634  10.455  0.0438  0.7224  0.2665
  500MPD2     C 7481   0.383   2.333  10.648  0.2444  0.1894 -0.7290
  500MPD2    C1 7482   0.367   2.465  10.593  0.0449  0.0932 -0.1815
  500MPD2    C2 7483   0.239   2.511  10.597  0.1489 -0.5980 -0.0053
  500MPD2    C3 7484   0.130   2.434  10.631  0.1475 -0.6753 -0.4206
  500MPD2    C4 7485   0.152   2.301  10.659 -0.6577 -0.0674 -0.0839
  500MPD2    C5 7486   0.272   2.255  10.681 -0.0665 -0.5516 -0.1101
  500MPD2     H 7487   0.212   2.615  10.585  0.9653 -0.7836 -3.4321
  500MPD2    H1 7488   0.066   2.236  10.675 -1.1409  0.9182  1.3730
  500MPD2    H2 7489   0.480   2.286  10.663  0.8604  1.0450 -1.9477
  500MPD2    H3 7490   0.284   2.151  10.710  0.9510 -0.5946 -0.6702
  500MPD2     N 7491   4.732   2.482  10.629 -0.2867 -0.1949 -0.1316
  500MPD2    H5 7492   4.661   2.429  10.678 -1.2673  1.7654  0.5502
  500MPD2    N1 7493   0.471   2.544  10.543 -0.2167 -0.2470  0.0953
  500MPD2    H7 7494   0.456   2.629  10.490  0.8571 -0.6153 -0.8000
  501TMC3    C1 7495   0.691   2.601  10.487 -0.7874 -0.7985  0.5431
  501TMC3    C2 7496   0.652   2.730  10.498  0.9424 -0.5603  0.6479
  501TMC3    C3 7497   0.736   2.827  10.453  0.3075 -0.3884 -0.4680
  501TMC3    C4 7498   0.818   2.577  10.454  0.1502 -0.0956  0.2493
  501TMC3    C5 7499   0.905   2.675  10.424  0.1457  0.2591  0.2298
  501TMC3    C6 7500   0.860   2.807  10.417  0.1282  0.5528 -0.6153
  501TMC3     C 7501   0.604   2.510  10.543  0.0025  0.2948 -0.1323
  501TMC3     O 7502   0.656   2.406  10.576  0.4509 -0.2150 -0.2039
  501TMC3     H 7503   0.560   2.757  10.547  0.8692  0.1148  0.1357
  501TMC3    H1 7504   0.846   2.474  10.433  0.5541  0.4719 -2.0775
  501TMC3    H2 7505   0.927   2.888  10.390  0.4912  0.5999  0.4209
  501TMC3    C7 7506   1.039   2.649  10.471  0.3592 -0.0515 -0.4948
  501TMC3    C8 7507   0.707   2.960  10.500  0.1958  0.0256  0.7726
  501TMC3    O1 7508   1.077   2.532  10.457 -0.4112 -0.4820 -0.2403
  501TMC3    O2 7509   0.795   3.015  10.566 -0.5596  0.3781 -0.3865
  502TMC3    C1 7510   4.605   1.128  15.056  0.0382 -0.0770  0.3761
  502TMC3    C2 7511   4.566   1.253  15.068  0.0855 -0.3929 -0.0012
  502TMC3    C3 7512   4.434   1.281  15.084 -0.2268  0.1617  0.7110
  502TMC3    C4 7513   4.511   1.029  15.068  0.2670 -0.1002 -0.0825
  502TMC3    C5 7514   4.380   1.063  15.080 -0.4009  0.1193  0.5854
  502TMC3    C6 7515   4.339   1.191  15.095 -0.0915  0.5726 -0.0347
  502TMC3     C 7516   4.721   1.102  15.137 -0.0078 -0.3568  1.0475
  502TMC3     O 7517   0.074   1.178  15.140 -0.1546 -0.1501 -0.2865
  502TMC3     H 7518   4.636   1.332  15.045 -2.4666  1.4941 -1.4151
  502TMC3    H1 7519   4.546   0.929  15.043 -2.0421 -1.3287  1.6649
  502TMC3    H2 7520   4.237   1.218  15.120 -1.5439 -1.4185 -3.7165
  502TMC3    C7 7521   4.304   0.959  15.141 -0.1426  0.4745 -0.3199
  502TMC3    C8 7522   4.421   1.420  15.124  0.3120  0.3860  0.0602
  502TMC3    O1 7523   4.368   0.874  15.193  0.1088 -0.4769  0.1829
  502TMC3    O2 7524   4.500   1.504  15.080 -0.0390  0.0413 -0.4399
  503MPD2     C 7525   1.728   1.927  16.756 -0.2235  0.2956 -0.6447
  503MPD2    C1 7526   1.779   1.959  16.878 -0.4724  0.2638 -0.5463
  503MPD2    C2 7527   1.818   1.850  16.957  0.2825 -0.2759  0.0181
  503MPD2    C3 7528   1.819   1.720  16.904 -0.8633 -0.1542 -0.9049
  503MPD2    C4 7529   1.764   1.694  16.778  0.1817 -0.3076  0.0016
  503MPD2    C5 7530   1.714   1.802  16.714 -0.7063  1.1799  0.4606
  503MPD2     H 7531   1.867   1.870  17.052  0.3557 -1.4625  0.2412
  503MPD2    H1 7532   1.768   1.594  16.738  1.5196  0.2760 -1.3448
  503MPD2    H2 7533   1.685   2.002  16.692 -0.9576  2.5555  2.5064
  503MPD2    H3 7534   1.661   1.785  16.622 -0.3493 -0.7801  0.6232
  503MPD2     N 7535   1.874   1.621  16.988  0.5613 -0.2098  0.3311
  503MPD2    H5 7536   1.910   1.659  17.074  0.4501  2.5206 -0.8251
  503MPD2    N1 7537   1.793   2.093  16.926 -0.7117 -0.4254 -0.4593
  503MPD2    H7 7538   1.838   2.103  17.017 -1.1531 -0.8432 -0.1942
  504TMC3    C1 7539   1.973   1.426  17.051 -0.7146  0.0895  0.1904
  504TMC3    C2 7540   1.913   1.395  17.171 -0.3603 -0.5648 -0.1373
  504TMC3    C3 7541   1.979   1.304  17.252 -0.7122 -0.1324 -0.6066
  504TMC3    C4 7542   2.101   1.387  17.025 -0.0051  0.3018 -0.6815
  504TMC3    C5 7543   2.178   1.311  17.111  0.5618 -0.6004  0.0623
  504TMC3    C6 7544   2.114   1.269  17.226 -0.2324 -0.7214  0.0946
  504TMC3     C 7545   1.910   1.499  16.947  0.1694 -0.4875  0.0928
  504TMC3     O 7546   1.932   1.457  16.835 -0.1522 -0.0084 -0.2444
  504TMC3     H 7547   1.809   1.417  17.192 -0.5126 -1.0708 -0.3665
  504TMC3    H1 7548   2.146   1.430  16.936  1.6280 -0.0296 -0.0062
  504TMC3    H2 7549   2.159   1.197  17.293  0.2064  0.7609  1.3823
  504TMC3    C7 7550   2.313   1.287  17.090  0.3497  0.7191  0.1619
  504TMC3    C8 7551   1.906   1.271  17.373  0.4824  0.0193 -0.5618
  504TMC3    O1 7552   2.343   1.302  16.971 -0.0395 -0.0150  0.3154
  504TMC3    O2 7553   1.817   1.349  17.402  0.7871 -0.2136 -0.0806
  505MPD2     C 7554   2.413   0.435  10.759  0.0113  0.4094  0.3330
  505MPD2    C1 7555   2.469   0.343  10.844 -0.2522  0.2828  0.2639
  505MPD2    C2 7556   2.551   0.383  10.943  0.3362  0.3476  0.6969
  505MPD2    C3 7557   2.571   0.512  10.967 -0.5649 -0.1855  0.3512
  505MPD2    C4 7558   2.505   0.608  10.887  0.2810 -0.3061  0.4946
  505MPD2    C5 7559   2.429   0.565  10.786  0.4393 -1.1997 -0.3043
  505MPD2     H 7560   2.611   0.311  10.998  1.8014  0.5271 -0.6588
  505MPD2    H1 7561   2.513   0.714  10.907  0.7908 -0.1167 -0.7310
  505MPD2    H2 7562   2.350   0.399  10.679  1.7005  0.1026 -0.8712
  505MPD2    H3 7563   2.379   0.641  10.726  1.3781 -0.6473 -0.3871
  505MPD2     N 7564   2.664   0.554  11.070  0.4130  0.1580  0.1755
  505MPD2    H5 7565   2.667   0.654  11.086  0.5255  0.1585  0.1503
  505MPD2    N1 7566   2.437   0.210  10.813 -0.3170 -0.8563 -0.3401
  505MPD2    H7 7567   2.379   0.194  10.731  0.2648  1.8921 -1.2834
  506TMC3    C1 7568   2.473   4.716  10.816 -0.1002  0.4283 -0.1165
  506TMC3    C2 7569   2.528   4.718  10.689  0.1760 -0.4036  0.1169
  506TMC3    C3 7570   2.604   4.610  10.646 -1.1656 -0.4422 -0.0177
  506TMC3    C4 7571   2.520   4.621  10.896  0.4727  0.0796 -0.5101
  506TMC3    C5 7572   2.595   4.511  10.858 -0.1457 -0.2420 -0.3825
  506TMC3    C6 7573   2.632   4.502  10.726  0.5232 -0.5838 -0.1387
  506TMC3     C 7574   2.485   0.102  10.883 -0.5276 -0.4993  0.0153
  506TMC3     O 7575   2.553   0.096  10.983 -1.0186 -0.1652  0.5264
  506TMC3     H 7576   2.515   0.059  10.616  0.3568  0.6740  1.2559
  506TMC3    H1 7577   2.480   4.622  10.997 -1.5407  0.7188 -1.3134
  506TMC3    H2 7578   2.674   4.412  10.684 -0.2852 -1.0798  0.1158
  506TMC3    C7 7579   2.724   4.494  10.933  0.0536 -0.0415  0.0588
  506TMC3    C8 7580   2.656   4.607  10.507 -1.0792 -0.1166 -0.5260
  506TMC3    O1 7581   2.799   4.407  10.895  0.3463 -0.0890 -0.4302
  506TMC3    O2 7582   2.682   4.501  10.452  0.1689 -0.4033  0.1052
  507TMC3    C1 7583   3.070   1.399  14.770 -0.2504 -0.0374 -0.0030
  507TMC3    C2 7584   3.018   1.321  14.671 -0.2289  0.9328  0.2757
  507TMC3    C3 7585   3.008   1.381  14.547  0.4853 -0.8964 -0.2288
  507TMC3    C4 7586   3.119   1.528  14.741 -0.6682  1.3025 -0.3658
  507TMC3    C5 7587   3.109   1.581  14.616 -0.5489 -0.0013  0.4346
  507TMC3    C6 7588   3.059   1.500  14.518 -0.3649 -0.6310  0.4105
  507TMC3     C 7589   2.980   1.398  14.882  0.0206 -0.0769 -0.0989
  507TMC3     O 7590   3.000   1.477  14.974 -0.0344  0.0612  0.5724
  507TMC3     H 7591   2.990   1.217  14.681  1.1953  0.6404  1.1344
  507TMC3    H1 7592   3.162   1.583  14.824  2.2258 -0.8607 -0.4723
  507TMC3    H2 7593   3.050   1.545  14.420  0.1681 -0.1889  0.5643
  507TMC3    C7 7594   3.052   1.716  14.605  0.3566  0.2676  0.2393
  507TMC3    C8 7595   2.864   1.373  14.513 -0.7537 -0.2471 -0.2249
  507TMC3    O1 7596   2.975   1.738  14.509 -0.3659  0.0894  0.3835
  507TMC3    O2 7597   2.809   1.275  14.565 -0.1000 -0.5074 -0.2139
  508MPD2     C 7598   3.824   3.350  15.480  0.2219 -0.1864 -0.3867
  508MPD2    C1 7599   3.814   3.420  15.594 -0.4023 -0.1220 -0.4802
  508MPD2    C2 7600   3.805   3.560  15.585 -0.3146 -0.3418 -0.3581
  508MPD2    C3 7601   3.806   3.625  15.461  0.5180  0.0192  0.1202
  508MPD2    C4 7602   3.801   3.547  15.346  0.1050  0.0789  0.1854
  508MPD2    C5 7603   3.815   3.411  15.355  0.5316  0.3249  0.1265
  508MPD2     H 7604   3.811   3.623  15.673  1.6327  0.3682 -0.9856
  508MPD2    H1 7605   3.793   3.582  15.244  0.2430 -0.8092 -0.1265
  508MPD2    H2 7606   3.823   3.241  15.483  1.5119 -0.1873 -0.0885
  508MPD2    H3 7607   3.817   3.354  15.263  0.5616  0.4909  0.0243
  508MPD2     N 7608   3.802   3.765  15.461 -0.1765  0.4633 -0.6601
  508MPD2    H5 7609   3.785   3.808  15.551 -2.5653 -1.3923 -0.2378
  508MPD2    N1 7610   3.798   3.347  15.716  0.1258 -0.1709 -0.7366
  508MPD2    H7 7611   3.824   3.249  15.709 -0.5105 -0.2929 -1.3939
  509TMC3    C1 7612   3.660   4.180  15.361  0.8449 -0.8279 -0.1013
  509TMC3    C2 7613   3.745   4.238  15.455  0.7153 -0.0767 -0.0014
  509TMC3    C3 7614   3.837   4.165  15.516  0.1876 -0.2246  0.2488
  509TMC3    C4 7615   3.682   4.057  15.326 -0.2372  0.1700  0.3690
  509TMC3    C5 7616   3.779   3.984  15.390 -0.5660  0.3281  0.3147
  509TMC3    C6 7617   3.855   4.031  15.484 -0.0105  0.1213  0.4535
  509TMC3     C 7618   3.541   4.249  15.306 -0.4640  0.2686  0.1419
  509TMC3     O 7619   3.456   4.180  15.246  0.3548 -0.1340  0.0028
  509TMC3     H 7620   3.716   4.338  15.484  0.9282  0.7864 -2.7193
  509TMC3    H1 7621   3.627   4.010  15.245  0.5568  0.1075 -0.1371
  509TMC3    H2 7622   3.926   3.978  15.547  2.6283  1.1650 -1.6656
  509TMC3    C7 7623   3.801   3.847  15.351  0.2663 -0.1164 -0.0823
  509TMC3    C8 7624   3.896   4.205  15.642  0.1693 -0.0772  0.8928
  509TMC3    O1 7625   3.814   3.820  15.233 -0.2937 -0.6478 -0.1345
  509TMC3    O2 7626   3.967   4.129  15.704  0.2853  0.1532 -0.3482
  510MPD2     C 7627   1.617   0.955  14.740 -0.0763  0.7675 -0.3383
  510MPD2    C1 7628   1.648   0.918  14.866 -0.6535 -0.5217 -0.3357
  510MPD2    C2 7629   1.780   0.908  14.901 -0.1873  0.3450  0.0296
  510MPD2    C3 7630   1.881   0.919  14.804 -0.0349 -0.0037  0.0605
  510MPD2    C4 7631   1.845   0.933  14.674  0.5296 -0.8551  0.7603
  510MPD2    C5 7632   1.721   0.961  14.645  0.3404 -0.0969 -0.6329
  510MPD2     H 7633   1.814   0.883  15.001  0.9177  1.4526 -0.0722
  510MPD2    H1 7634   1.916   0.937  14.591  0.6450  1.4553  0.9524
  510MPD2    H2 7635   1.515   0.954  14.702  0.5662 -0.4542 -2.0654
  510MPD2    H3 7636   1.692   0.994  14.546 -0.3527  1.3630  0.0624
  510MPD2     N 7637   2.011   0.884  14.846  0.0308  0.5243 -0.3082
  510MPD2    H5 7638   2.014   0.855  14.943  0.3999 -0.1974 -0.5373
  510MPD2    N1 7639   1.545   0.875  14.956  0.0374 -0.4774  0.0940
  510MPD2    H7 7640   1.453   0.867  14.913 -0.0226 -2.3268  0.5558
  511TMC3    C1 7641   1.460   0.780  15.166 -0.0592 -0.2645  0.0056
  511TMC3    C2 7642   1.450   0.776  15.307  0.0315  0.1163  1.0356
  511TMC3    C3 7643   1.344   0.702  15.359 -0.9144  0.0019 -1.1298
  511TMC3    C4 7644   1.372   0.715  15.086 -0.2883 -0.5194  0.3641
  511TMC3    C5 7645   1.280   0.636  15.146  0.4910 -0.6570 -0.2368
  511TMC3    C6 7646   1.261   0.634  15.276 -0.3816  0.2590  1.1582
  511TMC3     C 7647   1.571   0.839  15.093 -0.0369 -0.6346 -0.0423
  511TMC3     O 7648   1.667   0.869  15.163  0.0860  0.2490 -0.1403
  511TMC3     H 7649   1.521   0.833  15.366 -0.0151  0.7078  0.5255
  511TMC3    H1 7650   1.389   0.701  14.980  0.2190  0.8625  0.2701
  511TMC3    H2 7651   1.173   0.584  15.315  0.4677 -0.4245  2.2062
  511TMC3    C7 7652   1.220   0.532  15.057 -0.3754 -0.4511 -0.0849
  511TMC3    C8 7653   1.316   0.724  15.502  0.0879 -0.3966  0.3772
  511TMC3    O1 7654   1.208   0.569  14.941 -0.6284 -0.6523 -0.0677
  511TMC3    O2 7655   1.372   0.819  15.556 -0.1977 -0.0907 -0.6361
  512TMC3    C1 7656   0.635   0.034  13.011 -0.1753  1.0312 -0.6883
  512TMC3    C2 7657   0.657   0.003  13.144 -0.2122 -0.7649  0.9002
  512TMC3    C3 7658   0.625   4.620  13.194 -0.0191  0.0836 -0.5723
  512TMC3    C4 7659   0.587   4.679  12.925 -0.0112  0.5597 -0.7407
  512TMC3    C5 7660   0.556   4.557  12.981 -0.4080 -0.0041 -0.0311
  512TMC3    C6 7661   0.569   4.522  13.113  1.1776  0.1773  0.0613
  512TMC3     C 7662   0.676   0.162  12.958 -0.0455 -0.6397 -0.4884
  512TMC3     O 7663   0.622   0.190  12.848  0.4270 -0.9286  0.3504
  512TMC3     H 7664   0.680   0.085  13.211 -0.0915  0.5628 -0.7915
  512TMC3    H1 7665   0.541   4.699  12.830  0.8133 -2.0765 -1.6955
  512TMC3    H2 7666   0.532   4.431  13.157  1.6572 -0.5017 -0.9406
  512TMC3    C7 7667   0.505   4.456  12.888 -0.1363 -0.0711 -0.0866
  512TMC3    C8 7668   0.612   4.599  13.335  0.1961 -0.6287  1.1698
  512TMC3    O1 7669   0.450   4.493  12.789  0.2889  0.0966 -0.1496
  512TMC3    O2 7670   0.538   4.504  13.372  0.3992 -0.3405  0.0567
  513MPD2     C 7671   2.634   0.151  13.204  0.6773 -0.6084  0.3001
  513MPD2    C1 7672   2.561   0.034  13.207 -0.2436 -0.1283 -0.2064
  513MPD2    C2 7673   2.563   4.707  13.324 -0.3178 -0.7020 -0.4308
  513MPD2    C3 7674   2.644   0.002  13.431  0.2280  0.0955 -0.9615
  513MPD2    C4 7675   2.712   0.117  13.429  0.0114  0.6062 -0.4288
  513MPD2    C5 7676   2.706   0.195  13.316  0.1765 -0.0271  0.3053
  513MPD2     H 7677   2.508   4.615  13.340 -0.0229 -0.8433 -0.2365
  513MPD2    H1 7678   2.770   0.151  13.514 -0.5730  2.4406 -0.7756
  513MPD2    H2 7679   2.641   0.202  13.109  1.4818 -0.2198  0.5752
  513MPD2    H3 7680   2.776   0.277  13.312 -1.0683  1.0054 -0.2527
  513MPD2     N 7681   2.640   4.650  13.542 -0.6422 -0.5692  0.3222
  513MPD2    H5 7682   2.581   4.568  13.537 -0.8854 -0.4180  0.7340
  513MPD2    N1 7683   2.494   4.738  13.093  0.4016  0.3671 -0.2753
  513MPD2    H7 7684   2.510   0.053  13.008 -2.4098  0.7713 -0.5485
  514TMC3    C1 7685   2.371   4.573  12.960  0.0577  0.3259 -0.4181
  514TMC3    C2 7686   2.465   4.575  12.860 -0.2407 -0.2547  0.1490
  514TMC3    C3 7687   2.475   4.468  12.772 -1.3481  0.3289 -0.6258
  514TMC3    C4 7688   2.288   4.465  12.970 -0.1044 -1.0357  0.6135
  514TMC3    C5 7689   2.326   4.358  12.896  0.0454  0.0996  0.0521
  514TMC3    C6 7690   2.415   4.354  12.795 -0.0891 -0.3503  0.0569
  514TMC3     C 7691   2.418   4.622  13.088  0.0441 -0.3391  0.3572
  514TMC3     O 7692   2.372   4.555  13.179  0.0631 -0.6641  0.4665
  514TMC3     H 7693   2.536   4.656  12.874 -1.2764  0.2025  2.8811
  514TMC3    H1 7694   2.209   4.453  13.043  0.3860 -0.3655  1.2589
  514TMC3    H2 7695   2.443   4.261  12.746  0.8613 -0.5015  0.8923
  514TMC3    C7 7696   2.317   4.231  12.969  0.0768 -0.1136  0.1119
  514TMC3    C8 7697   2.611   4.444  12.730  0.0975 -0.9793 -0.0434
  514TMC3    O1 7698   2.275   4.127  12.920  0.5349 -0.0141 -0.7588
  514TMC3    O2 7699   2.663   4.347  12.785 -0.3335 -0.3614  0.2409
  515MPD2     C 7700   1.045   1.608  14.808 -0.0501 -0.0006  0.6296
  515MPD2    C1 7701   0.949   1.698  14.764 -0.3628  0.0670  0.6252
  515MPD2    C2 7702   0.970   1.837  14.782  0.1662 -0.1056 -0.2427
  515MPD2    C3 7703   1.086   1.874  14.849  0.5975  0.7713  0.5343
  515MPD2    C4 7704   1.191   1.786  14.878 -0.8539  0.3614  0.6886
  515MPD2    C5 7705   1.159   1.654  14.861 -0.7612  0.2639  0.3292
  515MPD2     H 7706   0.895   1.903  14.742  1.3211  1.9617  1.0420
  515MPD2    H1 7707   1.279   1.809  14.937  1.5728 -2.5247 -1.8152
  515MPD2    H2 7708   1.039   1.500  14.799  0.7904 -0.0906  1.1270
  515MPD2    H3 7709   1.226   1.578  14.901 -2.1849 -0.2710  1.6923
  515MPD2     N 7710   1.124   2.006  14.882 -0.2336  0.2990  0.3123
  515MPD2    H5 7711   1.213   2.028  14.927  0.2799  1.2510 -1.1684
  515MPD2    N1 7712   0.819   1.660  14.714 -0.5362 -0.3913 -0.3504
  515MPD2    H7 7713   0.760   1.739  14.687 -0.0258 -0.1722 -0.8443
  516TMC3    C1 7714   0.625   1.515  14.691 -0.5277 -0.2151  0.2973
  516TMC3    C2 7715   0.570   1.577  14.580 -0.1465 -0.3823  0.1698
  516TMC3    C3 7716   0.442   1.535  14.545  0.3960 -0.8437 -0.4057
  516TMC3    C4 7717   0.564   1.409  14.754  0.6584  0.3302  0.2362
  516TMC3    C5 7718   0.441   1.365  14.712 -0.5677 -0.4945 -0.6886
  516TMC3    C6 7719   0.381   1.424  14.602 -0.4414 -0.0322 -0.0461
  516TMC3     C 7720   0.769   1.529  14.713 -0.0534 -0.3813 -0.4920
  516TMC3     O 7721   0.825   1.431  14.751  0.2665 -0.0089  0.4465
  516TMC3     H 7722   0.615   1.655  14.519 -0.7045  0.3978  0.7545
  516TMC3    H1 7723   0.611   1.362  14.840  2.3339  1.3705 -0.1223
  516TMC3    H2 7724   0.289   1.389  14.559 -1.2930 -0.1555  1.8886
  516TMC3    C7 7725   0.378   1.264  14.793  0.1064 -0.6328 -0.2386
  516TMC3    C8 7726   0.369   1.602  14.434 -0.7784 -0.1343  0.4082
  516TMC3    O1 7727   0.408   1.264  14.909 -0.5110 -0.0657 -0.1633
  516TMC3    O2 7728   0.253   1.564  14.414  0.1945  0.1216  0.1593
  517MPD2     C 7729   4.725   3.168   0.163  0.5944  1.1741 -0.4577
  517MPD2    C1 7730   0.119   3.187   0.132 -0.5829 -0.6724 -0.3668
  517MPD2    C2 7731   0.187   3.284   0.200 -0.7317  0.0140  0.2029
  517MPD2    C3 7732   0.135   3.350   0.304 -0.1697 -0.7275  0.1730
  517MPD2    C4 7733   4.738   3.331   0.329  0.4470  0.1264 -0.1685
  517MPD2    C5 7734   4.665   3.246   0.257 -0.2499 -0.7918  0.2759
  517MPD2     H 7735   0.291   3.305   0.175 -1.4216  3.1346 -0.0947
  517MPD2    H1 7736   4.687   3.380   0.412  2.8032  2.4007 -0.0748
  517MPD2    H2 7737   4.663   3.095   0.110  0.9211 -1.0199  2.1725
  517MPD2    H3 7738   4.561   3.222   0.276 -0.3376 -0.9934 -0.4405
  517MPD2     N 7739   0.206   3.434   0.390 -0.5212  0.2109 -0.2337
  517MPD2    H5 7740   0.150   3.472   0.466 -0.9231  0.0414 -0.4478
  517MPD2    N1 7741   0.179   3.112   0.024  0.2894 -0.4050  0.2066
  517MPD2    H7 7742   0.273   3.140   0.000 -0.2209  0.6557 -0.6059
  518TMC3    C1 7743   0.206   2.946  17.616  0.8544  0.8699  0.0067
  518TMC3    C2 7744   0.221   2.807  17.634  0.4038  0.4849 -0.1582
  518TMC3    C3 7745   0.335   2.759  17.578 -0.1117 -0.1998  0.1302
  518TMC3    C4 7746   0.292   3.029  17.551 -0.1442  0.0536  0.2755
  518TMC3    C5 7747   0.404   2.967  17.499 -0.3875  0.3158 -0.1375
  518TMC3    C6 7748   0.421   2.833  17.510  0.2841  0.3805 -0.5810
  518TMC3     C 7749   0.120   3.004  17.713  0.9047 -0.5078 -0.2523
  518TMC3     O 7750   0.024   2.934  17.744  0.0740 -0.2668  0.2249
  518TMC3     H 7751   0.164   2.759  17.713 -0.1165 -2.3310 -2.2516
  518TMC3    H1 7752   0.274   3.135  17.540 -1.2928 -0.3300 -1.5098
  518TMC3    H2 7753   0.508   2.782  17.469  0.3655  0.1375 -0.1020
  518TMC3    C7 7754   0.499   3.052  17.427  0.0465 -0.0453 -0.2751
  518TMC3    C8 7755   0.376   2.627  17.621  0.3254  0.0201  0.1404
  518TMC3    O1 7756   0.487   3.176  17.422  0.2741 -0.3131 -0.6724
  518TMC3    O2 7757   0.436   2.566  17.532  0.2652 -0.2460 -0.3675
  519MPD2     C 7758   1.708   1.446  14.292 -0.7572  0.6172  0.1706
  519MPD2    C1 7759   1.703   1.460  14.156  1.1343 -0.0070  0.4168
  519MPD2    C2 7760   1.781   1.382  14.080 -0.5582 -0.2889  0.2555
  519MPD2    C3 7761   1.855   1.275  14.135  0.7025  0.0007 -0.3234
  519MPD2    C4 7762   1.860   1.260  14.272  0.2686  0.0024 -0.2433
  519MPD2    C5 7763   1.780   1.346  14.344  0.9447 -0.1416  0.0993
  519MPD2     H 7764   1.769   1.398  13.974  1.1169  0.2386  0.1439
  519MPD2    H1 7765   1.904   1.179  14.329  1.3790  0.8290  0.0542
  519MPD2    H2 7766   1.653   1.502  14.367 -0.9561  1.5782 -0.6977
  519MPD2    H3 7767   1.785   1.347  14.453  0.1204 -0.4987  0.1426
  519MPD2     N 7768   1.939   1.204  14.046  0.6931  0.2907  0.0580
  519MPD2    H5 7769   1.931   1.241  13.952  4.8307  0.2146 -0.2991
  519MPD2    N1 7770   1.629   1.554  14.091 -0.1217  1.0016  0.1599
  519MPD2    H7 7771   1.624   1.544  13.990  0.0840 -1.3790  0.3874
  520TMC3    C1 7772   2.075   1.022  13.982  0.3442 -0.7697 -0.2769
  520TMC3    C2 7773   2.013   1.012  13.862 -0.4150 -0.7087  0.3994
  520TMC3    C3 7774   2.074   0.948  13.758 -0.0311 -0.1545 -0.2662
  520TMC3    C4 7775   2.207   0.984  13.999 -0.3723 -0.0472 -0.3484
  520TMC3    C5 7776   2.269   0.936  13.889 -0.0340 -0.6074 -0.4138
  520TMC3    C6 7777   2.207   0.922  13.768  0.5763 -0.0228 -0.4130
  520TMC3     C 7778   2.018   1.100  14.087 -0.7437 -0.5145 -0.0374
  520TMC3     O 7779   2.050   1.072  14.204 -0.5731 -0.3464 -0.1554
  520TMC3     H 7780   1.912   1.050  13.848  0.3063  0.6329 -1.2366
  520TMC3    H1 7781   2.256   0.985  14.096 -0.7073  0.9951 -0.1963
  520TMC3    H2 7782   2.244   0.866  13.684  0.4802 -1.0785  0.2468
  520TMC3    C7 7783   2.403   0.891  13.913 -0.5963 -0.0750 -0.6344
  520TMC3    C8 7784   2.014   0.952  13.626 -0.2112  0.4759 -0.2324
  520TMC3    O1 7785   2.436   0.866  14.030  0.0833  0.3808  0.9943
  520TMC3    O2 7786   2.087   0.942  13.529 -0.6469 -0.1666 -0.1683
  521MPD2     C 7787   3.217   4.073  17.594 -0.4432 -0.1788  0.4676
  521MPD2    C1 7788   3.136   4.002  17.510  0.2788  0.3491  0.5843
  521MPD2    C2 7789   3.170   4.004  17.377  0.0994 -0.5083 -0.1438
  521MPD2    C3 7790   3.270   4.082  17.324  0.5132  0.1766 -0.7748
  521MPD2    C4 7791   3.350   4.150  17.406  0.3309 -0.7443  0.0259
  521MPD2    C5 7792   3.321   4.149  17.540  0.2019  0.6659 -0.0281
  521MPD2     H 7793   3.117   3.946  17.302  1.2754  0.3146 -1.6189
  521MPD2    H1 7794   3.423   4.224  17.375 -1.7221  1.0640 -0.5353
  521MPD2    H2 7795   3.205   4.069  17.702  2.0755 -1.6909  0.6871
  521MPD2    H3 7796   3.387   4.202  17.608 -1.1439 -0.0402  1.8585
  521MPD2     N 7797   3.291   4.072  17.184  0.2569  0.4796 -0.1073
  521MPD2    H5 7798   3.217   4.026  17.131  1.2760 -0.3224 -0.8402
  521MPD2    N1 7799   3.025   3.932  17.560  0.3257 -0.1029  0.1570
  521MPD2    H7 7800   3.008   3.920  17.659  0.3303 -1.6880 -0.0306
  522TMC3    C1 7801   3.406   4.076  16.974 -0.6649 -0.0024  0.2296
  522TMC3    C2 7802   3.519   4.007  16.945  0.0767 -0.4183  0.6219
  522TMC3    C3 7803   3.512   3.928  16.833 -0.7596 -0.0624  0.6812
  522TMC3    C4 7804   3.289   4.055  16.914 -0.2212  0.0822  0.0024
  522TMC3    C5 7805   3.289   3.990  16.792 -0.3805  0.5150 -0.0819
  522TMC3    C6 7806   3.400   3.918  16.754 -0.3931 -0.4065  0.1865
  522TMC3     C 7807   3.406   4.112  17.116  0.5632 -0.5157  0.0221
  522TMC3     O 7808   3.514   4.142  17.164  0.0949  0.3320  0.0571
  522TMC3     H 7809   3.613   4.029  16.996  0.1128  0.5432  0.1334
  522TMC3    H1 7810   3.202   4.110  16.949 -0.4297 -0.9633  1.1263
  522TMC3    H2 7811   3.386   3.843  16.678  0.5384  0.5653 -0.9505
  522TMC3    C7 7812   3.165   3.928  16.752  0.9092  0.2303 -0.2158
  522TMC3    C8 7813   3.613   3.826  16.829  0.0600 -0.7473  0.5485
  522TMC3    O1 7814   3.163   3.810  16.727  0.4599  0.3361 -0.1093
  522TMC3    O2 7815   3.685   3.827  16.926 -0.2116 -0.2002  0.2028
  523MPD2     C 7816   0.806   4.195  10.741 -0.0855  0.7130 -0.7074
  523MPD2    C1 7817   0.827   4.150  10.612 -0.1569  0.5993 -0.4771
  523MPD2    C2 7818   0.792   4.235  10.512  0.7469 -0.3656 -0.6105
  523MPD2    C3 7819   0.750   4.362  10.529 -0.6071  0.4080 -1.0149
  523MPD2    C4 7820   0.756   4.413  10.655 -0.2756 -0.0090 -0.3980
  523MPD2    C5 7821   0.786   4.332  10.763  0.6653  0.0035  0.5591
  523MPD2     H 7822   0.795   4.196  10.411 -2.1483 -0.3381 -0.6827
  523MPD2    H1 7823   0.745   4.516  10.688 -0.4219 -0.7717  1.9551
  523MPD2    H2 7824   0.838   4.128  10.821 -0.6233 -0.6169 -1.6163
  523MPD2    H3 7825   0.794   4.373  10.863  1.2609  1.1134  0.0563
  523MPD2     N 7826   0.710   4.442  10.417  0.1476 -0.2251  0.2396
  523MPD2    H5 7827   0.691   4.537  10.447  1.1656 -0.2151  0.8743
  523MPD2    N1 7828   0.861   4.013  10.596 -0.0906 -0.1984  0.2680
  523MPD2    H7 7829   0.869   3.959  10.681  0.9449 -0.6780 -0.1282
  524TMC3    C1 7830   0.643   4.505  10.209  0.3675 -1.0072  0.0888
  524TMC3    C2 7831   0.549   4.469  10.116  0.2158  0.0177  0.3374
  524TMC3    C3 7832   0.518   4.561  10.015 -0.3554 -0.1244  0.8679
  524TMC3    C4 7833   0.709   4.619  10.215 -0.1599 -0.4369 -0.9857
  524TMC3    C5 7834   0.689   4.706  10.104  0.0770 -0.6488 -0.2206
  524TMC3    C6 7835   0.586   4.681  10.022  0.0465 -0.0826 -0.3093
  524TMC3     C 7836   0.673   4.397  10.296  0.6632  0.0212  0.6575
  524TMC3     O 7837   0.670   4.286  10.248 -0.1665  0.0525  0.9798
  524TMC3     H 7838   0.483   4.384  10.126  0.1377 -0.1309 -1.4099
  524TMC3    H1 7839   0.794   4.640  10.279 -0.2667  0.9867 -1.3071
  524TMC3    H2 7840   0.560   0.010   9.941 -1.6067 -1.0490 -0.5786
  524TMC3    C7 7841   0.759   0.095  10.100  0.6003 -0.4813  0.9542
  524TMC3    C8 7842   0.417   4.546   9.913 -0.0503  0.4069 -0.3275
  524TMC3    O1 7843   0.820   0.133  10.201 -0.1437 -0.2590 -0.4705
  524TMC3    O2 7844   0.363   4.652   9.879  0.4503 -0.4957 -0.7885
  525MPD2     C 7845   3.320   1.202  14.410 -0.2947  0.4798  0.7914
  525MPD2    C1 7846   3.420   1.222  14.503 -0.4395 -0.1948  0.2142
  525MPD2    C2 7847   3.474   1.350  14.511  0.6661  0.6572 -0.6039
  525MPD2    C3 7848   3.419   1.453  14.441  0.5941 -0.2368 -0.6462
  525MPD2    C4 7849   3.309   1.433  14.362 -0.4588 -0.4662 -0.8627
  525MPD2    C5 7850   3.259   1.306  14.348  0.0175 -0.0132  0.1331
  525MPD2     H 7851   3.552   1.378  14.582  1.2594  0.1534 -1.0624
  525MPD2    H1 7852   3.267   1.519  14.312 -0.6377 -0.0711 -0.0359
  525MPD2    H2 7853   3.270   1.106  14.413  2.2816 -0.8244  1.4501
  525MPD2    H3 7854   3.173   1.280  14.287 -1.0075  3.7595  0.0079
  525MPD2     N 7855   3.465   1.587  14.458 -0.7406 -0.0649 -0.5899
  525MPD2    H5 7856   3.400   1.663  14.440 -2.0901 -1.0876 -0.0645
  525MPD2    N1 7857   3.465   1.123  14.597  0.0903 -0.3991  0.5037
  525MPD2    H7 7858   3.532   1.155  14.666  2.5517 -2.5520 -0.8755
  526TMC3    C1 7859   3.501   0.929  14.720  0.1028  0.7658  0.2912
  526TMC3    C2 7860   3.425   0.843  14.793 -0.3663 -0.6981 -0.3418
  526TMC3    C3 7861   3.476   0.784  14.906  0.3410 -0.1630 -0.8473
  526TMC3    C4 7862   3.635   0.954  14.751 -0.0038 -0.0979 -0.3482
  526TMC3    C5 7863   3.687   0.890  14.857  0.1753  0.1317 -0.0566
  526TMC3    C6 7864   3.608   0.802  14.937 -0.0322 -0.0476  1.2631
  526TMC3     C 7865   3.430   0.994  14.609  0.0301 -0.4093 -0.5017
  526TMC3     O 7866   3.331   0.933  14.563  0.4200 -0.1760 -0.4960
  526TMC3     H 7867   3.319   0.850  14.770 -0.0698  4.4484 -0.2240
  526TMC3    H1 7868   3.699   1.013  14.688 -1.2639  0.9536 -0.6484
  526TMC3    H2 7869   3.642   0.770  15.036  1.2950 -2.3435  0.0698
  526TMC3    C7 7870   3.829   0.872  14.861  1.1644  0.5377 -0.9334
  526TMC3    C8 7871   3.387   0.786  15.022 -0.4383  0.0999  0.0990
  526TMC3    O1 7872   3.901   0.971  14.837  0.1868 -0.3534  0.0172
  526TMC3    O2 7873   3.441   0.796  15.130 -0.3999 -0.1060 -0.3565
  527MPD2     C 7874   0.754   3.177   1.567  0.2462 -0.1052  0.5104
  527MPD2    C1 7875   0.726   3.125   1.441  0.5963 -0.1842  0.1299
  527MPD2    C2 7876   0.826   3.051   1.377 -0.0681 -0.4828  0.0770
  527MPD2    C3 7877   0.941   3.011   1.439  0.1397 -0.3344  0.3320
  527MPD2    C4 7878   0.960   3.047   1.572  1.1659 -0.3393 -0.4793
  527MPD2    C5 7879   0.866   3.134   1.627  0.6028 -0.6451 -0.9161
  527MPD2     H 7880   0.802   3.012   1.279 -0.5222 -1.4729  0.5870
  527MPD2    H1 7881   1.056   3.030   1.619  0.2414 -2.4285  0.6040
  527MPD2    H2 7882   0.692   3.252   1.615  1.2947  0.2680  1.2762
  527MPD2    H3 7883   0.891   3.174   1.725  0.6952 -3.9290  0.4035
  527MPD2     N 7884   1.024   2.925   1.366 -0.4533  0.1782  0.7463
  527MPD2    H5 7885   1.010   2.927   1.265  0.4773 -0.2422  0.6062
  527MPD2    N1 7886   0.604   3.158   1.377 -0.0603  0.2046  0.6078
  527MPD2    H7 7887   0.587   3.137   1.279 -1.1582  2.1026  0.3842
  528TMC3    C1 7888   0.376   3.235   1.357 -0.6334  0.5038  0.1279
  528TMC3    C2 7889   0.379   3.197   1.229  0.6391 -0.2131 -0.2370
  528TMC3    C3 7890   0.267   3.221   1.149 -0.3316  0.1399  0.0500
  528TMC3    C4 7891   0.264   3.283   1.415  0.7407 -0.0390  0.4137
  528TMC3    C5 7892   0.149   3.281   1.329 -0.3961 -0.1638  0.2601
  528TMC3    C6 7893   0.142   3.264   1.197 -0.1666 -0.4354 -0.4288
  528TMC3     C 7894   0.494   3.216   1.438  0.0335 -0.4214  0.1728
  528TMC3     O 7895   0.469   3.218   1.559 -0.3610 -0.2554  0.0701
  528TMC3     H 7896   0.473   3.175   1.180  0.4722  1.2175 -1.2040
  528TMC3    H1 7897   0.272   3.312   1.519 -0.9022 -2.8925  1.3474
  528TMC3    H2 7898   0.059   3.290   1.132 -0.7786  0.0232  0.5388
  528TMC3    C7 7899   0.029   3.337   1.390 -0.8179 -0.7377  0.0491
  528TMC3    C8 7900   0.292   3.201   1.005  0.9309  0.9527  0.2486
  528TMC3    O1 7901   4.661   3.310   1.334 -0.1319  0.5742  0.0454
  528TMC3    O2 7902   0.408   3.230   0.972 -0.0147 -0.5949 -0.1933
  529MPD2     C 7903   4.560   1.665   0.619  0.3505 -0.2700  0.1892
  529MPD2    C1 7904   4.425   1.695   0.614 -0.2219 -0.1588  0.2775
  529MPD2    C2 7905   4.362   1.756   0.496 -0.5519  0.1972 -0.5210
  529MPD2    C3 7906   4.436   1.771   0.379  0.6960  0.4837 -0.1316
  529MPD2    C4 7907   4.571   1.735   0.386  0.7109  0.0474  0.0133
  529MPD2    C5 7908   4.629   1.678   0.502 -0.0817  0.8509 -0.1158
  529MPD2     H 7909   4.259   1.785   0.511  0.4355  2.8304  1.2393
  529MPD2    H1 7910   4.629   1.742   0.295  0.8329  1.1836  0.1771
  529MPD2    H2 7911   4.604   1.618   0.707 -0.7513  2.3084  2.1089
  529MPD2    H3 7912   4.732   1.651   0.484 -0.2431 -0.7313  1.3610
  529MPD2     N 7913   4.389   1.824   0.256  0.3730  0.5127 -0.0775
  529MPD2    H5 7914   4.451   1.820   0.176 -0.4118 -1.5113 -0.5834
  529MPD2    N1 7915   4.341   1.683   0.726  0.4154  0.1642  0.1171
  529MPD2    H7 7916   4.242   1.701   0.719  0.4231 -0.4780 -1.7860
  530TMC3    C1 7917   4.281   1.654   0.957  0.6726  0.0818  0.9075
  530TMC3    C2 7918   4.302   1.564   1.056  0.2553  0.0448 -0.4728
  530TMC3    C3 7919   4.210   1.558   1.162  0.4130 -0.3698 -0.1643
  530TMC3    C4 7920   4.153   1.705   0.942 -0.0096 -0.1746  0.0900
  530TMC3    C5 7921   4.069   1.698   1.046  0.5595 -0.3263 -0.1166
  530TMC3    C6 7922   4.093   1.620   1.158  0.3351  0.0441  0.1855
  530TMC3     C 7923   4.382   1.644   0.855 -0.1654  0.1454  0.2647
  530TMC3     O 7924   4.490   1.613   0.901 -0.0598 -0.8722  0.1449
  530TMC3     H 7925   4.399   1.518   1.067  0.1327  0.0101  0.4915
  530TMC3    H1 7926   4.125   1.752   0.848  0.4659 -0.4176 -0.1725
  530TMC3    H2 7927   4.017   1.613   1.235 -0.4869  2.1897 -0.4391
  530TMC3    C7 7928   3.930   1.683   0.998  0.2806 -0.0970 -0.4260
  530TMC3    C8 7929   4.262   1.534   1.297 -0.1500 -0.7167  0.2178
  530TMC3    O1 7930   3.895   1.767   0.912  0.4826 -0.0846  0.3382
  530TMC3    O2 7931   4.212   1.601   1.383 -0.3747 -0.0070  0.2738
  531MPD2     C 7932   2.475   4.000  13.388 -0.2406 -0.1311 -0.2256
  531MPD2    C1 7933   2.489   4.131  13.406 -0.4124 -0.8665  0.1671
  531MPD2    C2 7934   2.446   4.210  13.303  0.2150  0.0523 -0.4289
  531MPD2    C3 7935   2.399   4.167  13.182  0.6638  0.0164 -0.5562
  531MPD2    C4 7936   2.386   4.033  13.172 -0.7438  0.3744  0.5686
  531MPD2    C5 7937   2.428   3.945  13.270 -0.1563  0.3024 -0.7209
  531MPD2     H 7938   2.472   4.315  13.308 -0.9977  0.3312  0.0651
  531MPD2    H1 7939   2.320   3.995  13.094 -1.5648 -2.0177  2.4389
  531MPD2    H2 7940   2.508   3.932  13.466  0.6105 -0.7608 -1.1341
  531MPD2    H3 7941   2.391   3.843  13.267  2.0472 -0.4362 -2.7804
  531MPD2     N 7942   2.363   4.259  13.093 -0.2777 -0.0981 -0.4163
  531MPD2    H5 7943   2.384   4.355  13.118  0.3840 -0.3486 -0.0212
  531MPD2    N1 7944   2.545   4.182  13.524  0.0442  0.3125  0.0594
  531MPD2    H7 7945   2.581   4.118  13.595  1.6307  0.0318 -1.0018
  532TMC3    C1 7946   2.612   4.345  13.687 -0.2391 -0.2356  0.8497
  532TMC3    C2 7947   2.590   4.476  13.710 -0.1309  0.5589 -0.1746
  532TMC3    C3 7948   2.695   4.549  13.752 -0.5304 -0.1790  0.1641
  532TMC3    C4 7949   2.731   4.288  13.713  0.7529  0.2904  0.2957
  532TMC3    C5 7950   2.829   4.361  13.786  0.2239 -0.3554 -0.0352
  532TMC3    C6 7951   2.813   4.500  13.794  1.2553  0.3507  0.3776
  532TMC3     C 7952   2.547   4.313  13.557  0.0420 -0.3232  0.2915
  532TMC3     O 7953   2.492   4.407  13.508  0.1615 -0.0732 -0.1483
  532TMC3     H 7954   2.494   4.524  13.695 -0.6543  0.1045  1.7299
  532TMC3    H1 7955   2.744   4.183  13.690  1.4354  0.6309 -0.8286
  532TMC3    H2 7956   2.881   4.568  13.845 -1.9963  1.5356  3.0907
  532TMC3    C7 7957   2.965   4.308  13.814  0.1652 -0.2072 -0.3001
  532TMC3    C8 7958   2.705   4.668  13.667 -0.2455  0.3738 -0.4755
  532TMC3    O1 7959   3.051   4.393  13.830  0.5942 -0.3716  0.0683
  532TMC3    O2 7960   2.799   0.006  13.686  0.3530 -0.1357 -0.4584
  533TMC3    C1 7961   3.593   1.753  14.583  0.1545  0.8762 -0.1344
  533TMC3    C2 7962   3.719   1.807  14.597 -0.2147 -0.3608 -0.0151
  533TMC3    C3 7963   3.741   1.888  14.704 -0.3450  0.4277 -0.1883
  533TMC3    C4 7964   3.487   1.794  14.664 -0.2071 -1.0296 -0.0828
  533TMC3    C5 7965   3.515   1.878  14.767  0.1625 -0.6015  0.5695
  533TMC3    C6 7966   3.637   1.935  14.784 -0.4029 -0.6512  0.0761
  533TMC3     C 7967   3.582   1.621  14.520 -0.0320  0.6053 -0.2956
  533TMC3     O 7968   3.686   1.555  14.519 -0.5062  0.3142  0.2535
  533TMC3     H 7969   3.801   1.775  14.534 -2.3224 -2.3546 -1.7426
  533TMC3    H1 7970   3.393   1.741  14.664  0.8373 -2.8962  2.0055
  533TMC3    H2 7971   3.656   1.995  14.872  3.3351 -1.0667 -0.4855
  533TMC3    C7 7972   3.422   1.874  14.878 -0.0582 -0.2995 -0.5959
  533TMC3    C8 7973   3.865   1.957  14.741  0.4342 -0.4873  0.6427
  533TMC3    O1 7974   3.328   1.796  14.863 -0.2978 -1.0109 -0.0709
  533TMC3    O2 7975   3.875   1.982  14.860 -0.0168 -0.0488  0.2127
  534MPD2     C 7976   1.048   2.511   1.730 -0.4217 -0.1790 -0.1261
  534MPD2    C1 7977   0.973   2.564   1.628 -0.1112 -0.1047 -0.0580
  534MPD2    C2 7978   0.991   2.518   1.497  0.3889  0.8137  0.0830
  534MPD2    C3 7979   1.087   2.418   1.471 -0.0038 -0.5418  0.1963
  534MPD2    C4 7980   1.156   2.367   1.572  0.2171  0.4080  0.2416
  534MPD2    C5 7981   1.138   2.415   1.694 -0.0566 -0.1993  0.6522
  534MPD2     H 7982   0.933   2.549   1.411  0.6138 -2.9448 -1.4392
  534MPD2    H1 7983   1.220   2.281   1.560 -0.0830  0.4468 -1.6323
  534MPD2    H2 7984   1.038   2.538   1.834  0.5701  1.1254 -0.3765
  534MPD2    H3 7985   1.198   2.377   1.776  0.1033  1.8845  1.5140
  534MPD2     N 7986   1.103   2.357   1.341  0.1676  0.2489 -0.2729
  534MPD2    H5 7987   1.166   2.277   1.338 -0.8715 -0.6036  0.4939
  534MPD2    N1 7988   0.874   2.659   1.647  0.0429  0.0660 -0.6163
  534MPD2    H7 7989   0.822   2.686   1.564  2.3794 -0.7569 -2.3771
  535TMC3    C1 7990   1.022   2.272   1.142  0.4845 -0.4368  0.4840
  535TMC3    C2 7991   1.008   2.150   1.204  0.4253  0.4157  0.1647
  535TMC3    C3 7992   0.975   2.045   1.124  0.4127  0.4319  0.3824
  535TMC3    C4 7993   1.006   2.286   1.009  0.7264 -0.5025  0.0743
  535TMC3    C5 7994   0.986   2.169   0.930  0.0247  0.7107 -0.1429
  535TMC3    C6 7995   0.982   2.044   0.992 -0.0054  0.8563 -0.1302
  535TMC3     C 7996   1.026   2.386   1.228 -0.8300 -0.0030  0.2054
  535TMC3     O 7997   0.942   2.473   1.205 -0.0660  0.2687  0.2845
  535TMC3     H 7998   0.999   2.152   1.312 -1.3510 -1.0795  0.0477
  535TMC3    H1 7999   0.999   2.387   0.968  0.5583 -0.8092 -0.6488
  535TMC3    H2 8000   0.959   1.953   0.939 -0.9893  0.4568  0.9746
  535TMC3    C7 8001   0.992   2.185   0.783 -0.1702 -0.1692  0.8460
  535TMC3    C8 8002   0.871   1.956   1.161  0.0148  1.3017  0.3960
  535TMC3    O1 8003   1.045   2.097   0.722  0.2836 -0.4211 -0.5690
  535TMC3    O2 8004   0.801   1.909   1.072  0.1054 -0.6268 -0.3549
  536MPD2     C 8005   0.292   0.798  16.493  0.4024 -0.6238  0.1197
  536MPD2    C1 8006   0.179   0.719  16.508  0.1108 -0.6020  0.4069
  536MPD2    C2 8007   0.086   0.720  16.409  0.5704 -1.1056  0.3250
  536MPD2    C3 8008   0.115   0.764  16.281  0.9315  0.0660 -0.1263
  536MPD2    C4 8009   0.238   0.820  16.264 -0.5940  0.0561 -0.0724
  536MPD2    C5 8010   0.323   0.839  16.365 -0.4620  0.4572 -0.4977
  536MPD2     H 8011   4.724   0.683  16.430  0.3255 -0.7144 -0.1405
  536MPD2    H1 8012   0.269   0.864  16.169 -2.6810  0.9032 -0.3664
  536MPD2    H2 8013   0.368   0.807  16.570  0.6518  0.7504 -0.2879
  536MPD2    H3 8014   0.420   0.881  16.342 -0.4136  1.7178  1.9951
  536MPD2     N 8015   0.028   0.765  16.167 -0.1424  0.3575 -0.0791
  536MPD2    H5 8016   0.059   0.813  16.083 -0.1434 -0.1469 -0.3616
  536MPD2    N1 8017   0.153   0.667  16.637 -0.4531  0.5145  0.2950
  536MPD2    H7 8018   0.228   0.677  16.705 -0.7216 -0.3274  0.7162
  537TMC3    C1 8019   0.044   0.549  16.813 -0.0678 -0.0597  0.7629
  537TMC3    C2 8020   0.087   0.629  16.913 -0.8144  0.5171  0.0721
  537TMC3    C3 8021   0.111   0.573  17.036  0.1556 -0.8837 -0.0130
  537TMC3    C4 8022   4.720   0.433  16.839 -0.0638 -0.3655 -0.0552
  537TMC3    C5 8023   0.005   0.373  16.965 -0.3381  0.1810 -0.6690
  537TMC3    C6 8024   0.076   0.444  17.061  0.4027  0.7055 -0.1346
  537TMC3     C 8025   0.041   0.594  16.674 -0.7341  0.4679 -0.2207
  537TMC3     O 8026   4.685   0.553  16.607 -0.2084  0.0224 -1.0634
  537TMC3     H 8027   0.111   0.731  16.884  0.6308 -0.1109 -0.9374
  537TMC3    H1 8028   4.677   0.364  16.768 -2.1945 -0.1185  0.9915
  537TMC3    H2 8029   0.079   0.411  17.164  0.6923  0.4884 -0.2136
  537TMC3    C7 8030   4.703   0.238  16.986  0.1470 -0.4728  0.5389
  537TMC3    C8 8031   0.147   0.662  17.140 -0.6048  0.5591 -0.3109
  537TMC3    O1 8032   4.604   0.200  16.924  0.0469  0.3393 -0.0761
  537TMC3    O2 8033   0.138   0.628  17.257  0.7056 -0.1564  0.7047
  538TMC3    C1 8034   1.583   4.081  11.289  0.3760 -0.7906  0.5688
  538TMC3    C2 8035   1.679   4.055  11.196  0.1217  0.4860  0.0336
  538TMC3    C3 8036   1.638   4.062  11.067  1.0880  0.7860 -0.1751
  538TMC3    C4 8037   1.453   4.106  11.252 -0.5813 -0.0971  0.0039
  538TMC3    C5 8038   1.421   4.111  11.123 -0.3553  0.4520 -0.2485
  538TMC3    C6 8039   1.513   4.081  11.026 -0.4528 -0.4798 -0.8726
  538TMC3     C 8040   1.613   4.105  11.429  0.2908  0.2847 -0.4306
  538TMC3     O 8041   1.521   4.139  11.502 -0.5278 -0.0916 -0.5012
  538TMC3     H 8042   1.781   4.035  11.224 -0.5054 -0.5823  1.5936
  538TMC3    H1 8043   1.377   4.115  11.329 -0.5641 -0.3960  0.0583
  538TMC3    H2 8044   1.488   4.084  10.921 -0.9150 -3.5410 -0.8487
  538TMC3    C7 8045   1.313   4.197  11.090 -0.4793  0.7862  0.6302
  538TMC3    C8 8046   1.748   4.035  10.964  0.9798  0.1151  0.2162
  538TMC3    O1 8047   1.250   4.176  10.988 -0.3345 -0.5575 -0.3023
  538TMC3    O2 8048   1.830   3.944  10.987  0.6212 -0.1558  0.1912
  539MPD2     C 8049   1.531   3.388  12.119  0.8358  0.6439  0.3484
  539MPD2    C1 8050   1.454   3.386  12.005 -0.2728  0.7546  0.6755
  539MPD2    C2 8051   1.327   3.444  12.010  0.3615 -0.2056  0.0925
  539MPD2    C3 8052   1.267   3.493  12.133  0.2048  0.1554 -0.2478
  539MPD2    C4 8053   1.344   3.487  12.250  0.0170 -0.6263 -0.7507
  539MPD2    C5 8054   1.473   3.432  12.240 -0.2845  0.1816 -0.3941
  539MPD2     H 8055   1.264   3.447  11.922  0.7313  1.4160 -0.1186
  539MPD2    H1 8056   1.303   3.535  12.339 -1.7630 -0.5911 -1.5800
  539MPD2    H2 8057   1.628   3.341  12.119  0.6725  0.3005 -0.0680
  539MPD2    H3 8058   1.529   3.457  12.330  0.4658  1.6900 -1.2963
  539MPD2     N 8059   1.136   3.555  12.139 -0.2701 -0.1876 -0.0502
  539MPD2    H5 8060   1.107   3.576  12.044 -2.4723 -1.5840  0.3135
  539MPD2    N1 8061   1.494   3.327  11.893 -0.2715 -0.0744 -0.1902
  539MPD2    H7 8062   1.590   3.293  11.893  0.2161  1.2812 -0.0927
  540TMC3    C1 8063   0.922   3.619  12.204  0.1911  0.2130 -0.4528
  540TMC3    C2 8064   0.907   3.698  12.095  0.0088 -0.6075  0.1754
  540TMC3    C3 8065   0.783   3.718  12.039  0.5689 -0.0556 -0.8138
  540TMC3    C4 8066   0.811   3.555  12.247  0.0196 -0.6227 -0.4431
  540TMC3    C5 8067   0.690   3.566  12.181  0.2255  0.4717  0.3356
  540TMC3    C6 8068   0.675   3.647  12.073  0.2220  0.2026 -0.2389
  540TMC3     C 8069   1.049   3.575  12.243  0.3670  0.2958 -0.5855
  540TMC3     O 8070   1.053   3.517  12.349  0.5292 -0.2736 -0.0517
  540TMC3     H 8071   0.989   3.742  12.040 -0.0438 -1.5165 -0.6449
  540TMC3    H1 8072   0.821   3.484  12.329 -0.1404 -0.9755 -0.7295
  540TMC3    H2 8073   0.574   3.666  12.038 -0.1131 -0.0470  0.5863
  540TMC3    C7 8074   0.565   3.536  12.250  0.3998 -0.7600  0.5784
  540TMC3    C8 8075   0.789   3.808  11.919 -0.4319  0.1760  0.6262
  540TMC3    O1 8076   0.461   3.584  12.207  0.7248 -0.2570  0.0337
  540TMC3    O2 8077   0.862   3.907  11.938  0.5304 -0.0153 -0.5305
  541MPD2     C 8078   3.851   0.365  13.191  0.8370 -0.5586 -0.5428
  541MPD2    C1 8079   3.801   0.258  13.119 -0.9386 -0.0774 -0.2255
  541MPD2    C2 8080   3.839   0.252  12.984 -0.8226  0.1587 -0.5265
  541MPD2    C3 8081   3.916   0.354  12.922 -0.2452 -0.0243 -0.4542
  541MPD2    C4 8082   3.935   0.470  12.997  0.0720  0.7144 -0.6606
  541MPD2    C5 8083   3.911   0.469  13.134  0.3066 -0.6303  0.3811
  541MPD2     H 8084   3.809   0.166  12.925 -1.1238 -1.6146  2.2296
  541MPD2    H1 8085   3.999   0.551  12.961  1.7685 -0.0032  0.7179
  541MPD2    H2 8086   3.827   0.380  13.295  1.6938 -1.8815 -0.1453
  541MPD2    H3 8087   3.927   0.550  13.204 -1.5407 -0.6542  0.8327
  541MPD2     N 8088   3.967   0.346  12.789  0.4437 -0.3384  0.7270
  541MPD2    H5 8089   4.012   0.429  12.751  0.5514  0.4397  2.5603
  541MPD2    N1 8090   3.712   0.163  13.177  0.0096  0.0509  0.5901
  541MPD2    H7 8091   3.698   0.175  13.277 -0.5160  2.1513  0.2594
  542TMC3    C1 8092   3.992   0.297  12.569  0.0908 -0.0116  0.0538
  542TMC3    C2 8093   3.970   0.203  12.467  0.0432  0.0964  0.9461
  542TMC3    C3 8094   3.994   0.244  12.338 -0.5586 -0.4274  0.0712
  542TMC3    C4 8095   4.057   0.417  12.546  0.0795  0.2520  0.5328
  542TMC3    C5 8096   4.077   0.454  12.413 -0.2748 -0.0225  0.2849
  542TMC3    C6 8097   4.040   0.370  12.314 -0.7490  0.2126 -0.1056
  542TMC3     C 8098   3.944   0.253  12.698 -0.0861 -0.2016 -0.9191
  542TMC3     O 8099   3.879   0.150  12.704 -0.2360  0.4219  0.2050
  542TMC3     H 8100   3.920   0.109  12.485 -0.8293  0.0523 -1.7194
  542TMC3    H1 8101   4.093   0.483  12.624  0.2019  1.0834 -0.2228
  542TMC3    H2 8102   4.069   0.392  12.212  2.6695  1.6430  1.1704
  542TMC3    C7 8103   4.131   0.584  12.378 -0.2179  0.9282  0.0819
  542TMC3    C8 8104   3.974   0.150  12.230 -0.4066 -0.3176 -0.2104
  542TMC3    O1 8105   4.168   0.660  12.467  0.6449  0.2937  0.2269
  542TMC3    O2 8106   3.953   0.203  12.123 -0.5034  0.8488 -0.4817
  543TMC3    C1 8107   3.411   1.476  17.365 -0.1536  0.3493  0.2867
  543TMC3    C2 8108   3.420   1.371  17.442 -0.4189  0.7812 -0.5558
  543TMC3    C3 8109   3.477   1.386  17.566  0.4737 -0.1021 -0.6313
  543TMC3    C4 8110   3.443   1.606  17.406  0.3974 -0.2821 -1.4242
  543TMC3    C5 8111   3.487   1.619  17.537 -0.2803  0.7585  0.1987
  543TMC3    C6 8112   3.506   1.511  17.617 -0.1585  0.0180  0.5403
  543TMC3     C 8113   3.463   1.438  17.238 -0.5153  0.4397 -0.6547
  543TMC3     O 8114   3.499   1.321  17.236 -0.3170  0.1637 -0.2853
  543TMC3     H 8115   3.383   1.275  17.406 -0.1475  1.3198 -2.2760
  543TMC3    H1 8116   3.436   1.688  17.335  1.3211  0.8698 -0.1836
  543TMC3    H2 8117   3.549   1.522  17.716  0.3221  0.6700  0.2551
  543TMC3    C7 8118   3.473   1.750  17.601  0.3741  0.0141  0.5732
  543TMC3    C8 8119   3.521   1.268  17.643  0.1160  0.6878 -0.2372
  543TMC3    O1 8120   3.502   1.749  17.720  0.5526 -0.1410  0.2785
  543TMC3    O2 8121   3.538   1.291   0.012  0.2559 -0.3515  0.1314
  544MPD2     C 8122   3.622   0.769  17.703  0.2485  0.1007  0.0942
  544MPD2    C1 8123   3.602   0.792  17.572 -0.4124 -0.3751  0.4844
  544MPD2    C2 8124   3.590   0.922  17.529 -0.8446 -0.2631 -0.2040
  544MPD2    C3 8125   3.591   1.026  17.620  0.6672  0.1647  0.7114
  544MPD2    C4 8126   3.617   1.005  17.749 -0.6824 -0.2269 -0.2948
  544MPD2    C5 8127   3.621   0.871   0.049 -0.5423  0.3458  0.1568
  544MPD2     H 8128   3.573   0.935  17.422  0.0468  1.7018 -0.1071
  544MPD2    H1 8129   3.624   1.083   0.074  1.1005  0.6018 -1.3451
  544MPD2    H2 8130   3.641   0.672  17.747 -1.1831 -0.1104  0.2440
  544MPD2    H3 8131   3.634   0.855   0.155 -0.4179  0.6983  0.1961
  544MPD2     N 8132   3.543   1.153  17.568 -0.0510  0.4653  0.2789
  544MPD2    H5 8133   3.509   1.149  17.472 -0.6236 -2.2223  0.5989
  544MPD2    N1 8134   3.563   0.693  17.487  0.2451  0.5583  0.1282
  544MPD2    H7 8135   3.526   0.716  17.396 -1.3686  2.4557  1.2451
  545TMC3    C1 8136   3.482   0.494  17.409  0.3349 -0.6114  0.2370
  545TMC3    C2 8137   3.373   0.561  17.368 -0.0257  0.0633 -0.3832
  545TMC3    C3 8138   3.328   0.551  17.239 -0.2022  0.1307 -0.9009
  545TMC3    C4 8139   3.548   0.406  17.334 -0.1758 -0.9860 -0.2235
  545TMC3    C5 8140   3.508   0.401  17.198 -1.0648 -0.4879  0.2021
  545TMC3    C6 8141   3.397   0.470  17.152 -0.0411 -0.3411 -0.3351
  545TMC3     C 8142   3.572   0.553  17.507 -0.0117 -0.1178 -0.1641
  545TMC3     O 8143   3.642   0.493  17.583  0.3288 -0.7849  0.1910
  545TMC3     H 8144   3.320   0.627  17.437  0.7993  1.3144 -0.9483
  545TMC3    H1 8145   3.631   0.347  17.371  0.5130  0.7822  1.0530
  545TMC3    H2 8146   3.371   0.452  17.049  1.3571  1.9992 -1.0898
  545TMC3    C7 8147   3.618   0.385  17.101 -0.0935 -0.1232 -0.2001
  545TMC3    C8 8148   3.233   0.650  17.194  0.0837 -0.6347 -0.1033
  545TMC3    O1 8149   3.605   0.435  16.993 -0.2455  0.1477  0.6909
  545TMC3    O2 8150   3.196   0.729  17.284  0.5131  0.2816 -0.5920
  546MPD2     C 8151   0.148   1.280  17.104 -0.6065  0.8893  0.3940
  546MPD2    C1 8152   0.111   1.294  17.235  0.3001 -0.3277  0.6058
  546MPD2    C2 8153   0.167   1.395  17.317 -0.2998 -0.3287  0.2800
  546MPD2    C3 8154   0.273   1.470  17.258  0.3119 -0.5628  0.2658
  546MPD2    C4 8155   0.313   1.449  17.127 -0.2412  0.2499 -0.3331
  546MPD2    C5 8156   0.253   1.355  17.052  0.5219 -0.2782 -0.6418
  546MPD2     H 8157   0.136   1.414  17.419  3.7109  2.4010  0.9716
  546MPD2    H1 8158   0.394   1.506  17.082 -1.0962  1.8237  0.1052
  546MPD2    H2 8159   0.105   1.200  17.044  0.5619 -0.8858  1.9426
  546MPD2    H3 8160   0.267   1.359  16.945  0.3555 -0.5873 -0.6735
  546MPD2     N 8161   0.331   1.581  17.316 -0.6432 -0.2481 -0.5997
  546MPD2    H5 8162   0.394   1.637  17.259  0.9500  0.9578  2.3657
  546MPD2    N1 8163   0.008   1.211  17.282 -1.1131  0.0840  0.4675
  546MPD2    H7 8164   4.705   1.145  17.216 -0.9878 -0.5419  1.0155
  547TMC3    C1 8165   4.576   1.111  17.418 -0.1074  0.4148 -0.5895
  547TMC3    C2 8166   4.511   1.072  17.301  0.0464 -0.5249  0.0929
  547TMC3    C3 8167   4.407   0.989  17.323  1.0916  0.1334 -0.3136
  547TMC3    C4 8168   4.549   1.058  17.543 -0.3000 -0.0629 -1.1814
  547TMC3    C5 8169   4.433   0.977  17.556 -0.7010  0.0600  0.4049
  547TMC3    C6 8170   4.365   0.943  17.446 -0.3401  0.3399  0.6481
  547TMC3     C 8171   4.693   1.202  17.412  0.3704 -0.4130 -0.3875
  547TMC3     O 8172   4.726   1.259  17.515 -0.9470 -0.3284  0.3361
  547TMC3     H 8173   4.528   1.114  17.202  0.3584  0.3455  0.5216
  547TMC3    H1 8174   4.586   1.101  17.635  0.9250 -0.6192 -1.4170
  547TMC3    H2 8175   4.268   0.896  17.454 -0.1368 -0.4663 -1.5448
  547TMC3    C7 8176   4.427   0.876  17.661  0.3204 -0.0730  0.5311
  547TMC3    C8 8177   4.315   0.967  17.218  0.6034  0.0444  0.3500
  547TMC3    O1 8178   4.326   0.807  17.664  0.9298 -0.0333 -0.2146
  547TMC3    O2 8179   4.294   1.059  17.136 -0.3315 -0.3790 -0.2119
  548MPD2     C 8180   0.050   1.743  12.382  0.2870  0.5014 -0.0498
  548MPD2    C1 8181   0.022   1.605  12.402  0.2177 -0.7442  0.0949
  548MPD2    C2 8182   0.107   1.511  12.340 -0.0324 -0.2743  0.1466
  548MPD2    C3 8183   0.222   1.554  12.276 -0.7116  0.4512 -0.6879
  548MPD2    C4 8184   0.252   1.689  12.267 -0.4004  0.4719 -0.0945
  548MPD2    C5 8185   0.169   1.778  12.326  0.3247  0.2789 -0.4731
  548MPD2     H 8186   0.080   1.406  12.346 -0.7911 -0.0815  0.2004
  548MPD2    H1 8187   0.350   1.725  12.236 -0.3034  1.3192  1.2094
  548MPD2    H2 8188   4.717   1.815  12.423 -0.3493 -0.1206 -0.0631
  548MPD2    H3 8189   0.187   1.885  12.320 -0.9434  0.5415  0.3208
  548MPD2     N 8190   0.309   1.448  12.216  0.3067 -0.2352 -0.0938
  548MPD2    H5 8191   0.277   1.352  12.224 -1.4061  0.3600  0.1949
  548MPD2    N1 8192   4.643   1.577  12.467 -0.2271  0.9292 -0.1450
  548MPD2    H7 8193   4.588   1.654  12.502 -3.1305 -0.6262 -1.2712
  549TMC3    C1 8194   4.452   1.494  12.542 -0.7497  0.5514  0.0409
  549TMC3    C2 8195   4.397   1.615  12.528 -1.1297 -0.7123 -0.4751
  549TMC3    C3 8196   4.282   1.646  12.601  0.1692  0.2521 -0.0987
  549TMC3    C4 8197   4.391   1.404  12.635 -0.0776 -0.2934 -0.1694
  549TMC3    C5 8198   4.268   1.434  12.690  1.0724 -0.3401  0.0358
  549TMC3    C6 8199   4.211   1.553  12.677 -0.2315 -0.3237  0.4843
  549TMC3     C 8200   4.579   1.454  12.484 -0.3368 -0.0481  0.3562
  549TMC3     O 8201   4.627   1.338  12.490  0.8861  0.0515  0.7562
  549TMC3     H 8202   4.429   1.677  12.445  0.0930 -2.1773 -1.0873
  549TMC3    H1 8203   4.443   1.309  12.640  2.9405  1.3881  0.1936
  549TMC3    H2 8204   4.122   1.583  12.731  0.7080 -0.8638  2.3381
  549TMC3    C7 8205   4.193   1.327  12.755 -0.0564  0.2921 -0.7061
  549TMC3    C8 8206   4.218   1.780  12.584 -0.4215 -0.5741  0.1381
  549TMC3    O1 8207   4.083   1.360  12.791 -0.0953  0.1641 -0.4075
  549TMC3    O2 8208   4.098   1.786  12.606 -0.2773 -0.7763 -0.3092
  550TMC3    C1 8209   3.818   4.299  12.404 -0.0061 -0.2011 -0.4693
  550TMC3    C2 8210   3.769   4.272  12.523  0.4295 -0.3584 -0.2793
  550TMC3    C3 8211   3.742   4.382  12.598  0.0138 -0.5235 -0.3627
  550TMC3    C4 8212   3.832   4.422  12.345  0.2702  0.0482 -0.8502
  550TMC3    C5 8213   3.785   4.525  12.420 -0.2784 -0.0226  0.3532
  550TMC3    C6 8214   3.748   4.511  12.552  0.4948  0.5761  0.2919
  550TMC3     C 8215   3.876   4.179  12.338  0.3705 -0.0717 -0.1222
  550TMC3     O 8216   3.915   4.088  12.410 -0.1129 -0.1448  0.4269
  550TMC3     H 8217   3.765   4.172  12.565  1.3857  0.1361  0.9860
  550TMC3    H1 8218   3.864   4.438  12.243 -0.0494 -0.7150 -1.0698
  550TMC3    H2 8219   3.704   4.590  12.612 -0.5247  0.3843 -0.2035
  550TMC3    C7 8220   3.737   4.641  12.357  0.2321 -0.4790  0.0957
  550TMC3    C8 8221   3.667   4.376  12.720  0.2959  0.3998  0.2172
  550TMC3    O1 8222   3.696   4.734  12.426 -0.2044  0.4113  0.4991
  550TMC3    O2 8223   3.684   4.461  12.802  0.7083  0.0201  0.3367
  551TMC3    C1 8224   0.799   2.200  13.370  0.6074 -0.0104 -0.6781
  551TMC3    C2 8225   0.920   2.214  13.306  0.9176 -0.6838  0.3324
  551TMC3    C3 8226   0.996   2.328  13.333 -0.1233 -0.6730 -0.3324
  551TMC3    C4 8227   0.771   2.285  13.473 -0.1673  0.0890  0.4141
  551TMC3    C5 8228   0.845   2.397  13.491 -0.1997 -0.2284  0.7790
  551TMC3    C6 8229   0.965   2.416  13.428  0.2609  0.2374 -0.2382
  551TMC3     C 8230   0.696   2.123  13.302 -0.2503  0.2328 -0.0596
  551TMC3     O 8231   0.715   2.078  13.190 -0.9810  0.3911  0.2716
  551TMC3     H 8232   0.956   2.143  13.233  3.5116  1.2511 -0.2799
  551TMC3    H1 8233   0.687   2.270  13.539 -0.5028 -1.0424 -0.2723
  551TMC3    H2 8234   1.042   2.488  13.453  1.3115 -0.4022 -1.6776
  551TMC3    C7 8235   0.847   2.446  13.629  0.5066  0.7253  0.2500
  551TMC3    C8 8236   1.120   2.349  13.266 -0.0211 -0.4453 -0.4573
  551TMC3    O1 8237   0.950   2.484  13.674  0.0930 -0.4054  0.0855
  551TMC3    O2 8238   1.174   2.249  13.227 -0.3960 -0.6749 -0.1462
  552MPD2     C 8239   2.815   3.445  14.652  0.6210 -0.4336 -1.0165
  552MPD2    C1 8240   2.872   3.534  14.561 -0.5724  0.0030 -0.5375
  552MPD2    C2 8241   2.994   3.596  14.589 -0.5385  0.0899  0.1098
  552MPD2    C3 8242   3.049   3.583  14.725  0.2929  0.0632 -0.5661
  552MPD2    C4 8243   2.977   3.511  14.815 -0.4648 -0.5094  0.5429
  552MPD2    C5 8244   2.874   3.431  14.770 -0.0683 -0.0193 -0.2416
  552MPD2     H 8245   3.039   3.670  14.523  0.5839  0.7287  1.5612
  552MPD2    H1 8246   3.018   3.498  14.915 -0.8534  1.2964  0.9436
  552MPD2    H2 8247   2.725   3.385  14.646 -1.2994  2.4370 -0.7777
  552MPD2    H3 8248   2.821   3.364  14.837 -0.5746 -0.0285 -0.6457
  552MPD2     N 8249   3.165   3.652  14.774 -0.2382 -0.0870 -0.4259
  552MPD2    H5 8250   3.173   3.637  14.874 -0.9364 -0.5984 -0.4480
  552MPD2    N1 8251   2.807   3.579  14.441 -0.5985 -0.0447  0.1336
  552MPD2    H7 8252   2.855   3.642  14.378  1.6890  0.9763  2.8604
  553TMC3    C1 8253   2.632   3.598  14.290 -0.4926 -0.3149  0.5749
  553TMC3    C2 8254   2.580   3.516  14.195 -0.4281 -0.2988  0.3383
  553TMC3    C3 8255   2.523   3.571  14.084 -0.6076 -0.0764  0.2550
  553TMC3    C4 8256   2.640   3.735  14.278  0.5991  0.5561  0.4707
  553TMC3    C5 8257   2.558   3.785  14.184  0.0690  0.2696 -0.2779
  553TMC3    C6 8258   2.500   3.707  14.083  0.1983 -0.0600 -0.3712
  553TMC3     C 8259   2.676   3.532  14.408 -0.4691 -0.4146  0.1523
  553TMC3     O 8260   2.597   3.459  14.466  0.6902  0.0876  0.3889
  553TMC3     H 8261   2.585   3.408  14.208  0.6293 -0.1790  0.9521
  553TMC3    H1 8262   2.685   3.793  14.357 -0.6761  1.8473  0.2572
  553TMC3    H2 8263   2.449   3.747  13.997  1.1036 -2.9376 -2.2292
  553TMC3    C7 8264   2.558   3.936  14.165 -0.3194  0.4115 -0.7116
  553TMC3    C8 8265   2.523   3.488  13.969 -0.3274  0.5532 -0.0798
  553TMC3    O1 8266   2.493   3.979  14.073 -0.0435  0.3986 -0.2541
  553TMC3    O2 8267   2.580   3.379  13.965  0.2185 -0.0907  0.6795
  554TMC3    C1 8268   4.650   3.299  11.782 -0.5589  0.8592  0.4210
  554TMC3    C2 8269   4.639   3.239  11.662 -0.3825  0.1856 -0.1345
  554TMC3    C3 8270   4.737   3.266  11.565  0.0698 -0.1760  0.3647
  554TMC3    C4 8271   0.005   3.394  11.811  0.8990  0.1039 -0.1381
  554TMC3    C5 8272   0.093   3.428  11.706 -0.0616 -0.3294  0.1697
  554TMC3    C6 8273   0.093   3.365  11.587 -0.5831 -0.0644  0.2477
  554TMC3     C 8274   4.584   3.232  11.887  0.2477  0.8771 -0.3221
  554TMC3     O 8275   4.479   3.181  11.859  0.0440 -0.4858  0.8142
  554TMC3     H 8276   4.574   3.153  11.657  1.8853 -1.4414 -2.0635
  554TMC3    H1 8277   4.729   3.462  11.894  3.0956 -0.6772  0.8576
  554TMC3    H2 8278   0.165   3.390  11.509 -1.5790  1.3224 -0.2274
  554TMC3    C7 8279   0.122   3.564  11.687 -0.5302 -0.1551  0.0415
  554TMC3    C8 8280   4.714   3.223  11.433 -0.1371  0.2113 -0.3674
  554TMC3    O1 8281   0.074   3.611  11.583 -0.0519 -0.3799 -0.1405
  554TMC3    O2 8282   0.063   3.239  11.347  1.0508 -0.0815 -0.2291
  555TMC3    C1 8283   3.664   2.833  15.446 -1.0652  0.4485 -0.2517
  555TMC3    C2 8284   3.569   2.901  15.524 -0.0493  0.4666  0.0775
  555TMC3    C3 8285   3.538   2.862  15.648 -0.0072 -0.5927 -0.3882
  555TMC3    C4 8286   3.736   2.726  15.497  0.7108 -0.1327  0.0203
  555TMC3    C5 8287   3.701   2.696  15.629  0.2548  0.3006  0.3198
  555TMC3    C6 8288   3.593   2.747  15.693 -0.0679  0.0244 -0.1292
  555TMC3     C 8289   3.685   2.867  15.308  0.1225  0.5073 -0.2055
  555TMC3     O 8290   3.790   2.827  15.258  0.0209  0.3397 -0.1497
  555TMC3     H 8291   3.528   2.998  15.498  1.0980  0.3995 -2.0339
  555TMC3    H1 8292   3.799   2.663  15.436  0.0883 -0.4829 -0.2498
  555TMC3    H2 8293   3.560   2.707  15.787  0.9330 -0.6914 -0.0877
  555TMC3    C7 8294   3.752   2.575  15.683  0.8614  0.2600 -0.1970
  555TMC3    C8 8295   3.516   2.960  15.751  0.5038 -0.3725 -0.0981
  555TMC3    O1 8296   3.668   2.521  15.755  0.0385 -0.0491 -0.4195
  555TMC3    O2 8297   3.418   3.036  15.750  0.0188 -0.0223  0.4362
  556MPD2     C 8298   2.124   0.579  10.949  0.2035 -0.4933 -0.0630
  556MPD2    C1 8299   2.155   0.445  10.978  0.4845 -0.3258 -0.4724
  556MPD2    C2 8300   2.110   0.339  10.903 -0.4111  0.2461 -0.2223
  556MPD2    C3 8301   2.059   0.363  10.781 -0.0204  0.3512 -0.0212
  556MPD2    C4 8302   2.023   0.498  10.748 -0.4946 -0.8100 -0.2291
  556MPD2    C5 8303   2.048   0.599  10.835 -0.9580  0.1090  0.8235
  556MPD2     H 8304   2.137   0.238  10.931  0.0732  0.4248 -0.0480
  556MPD2    H1 8305   1.966   0.521  10.659  1.6775  0.9297 -1.1856
  556MPD2    H2 8306   2.145   0.668  11.007 -0.4809 -1.6363  1.9353
  556MPD2    H3 8307   2.017   0.700  10.815 -3.0763 -0.3915  1.5825
  556MPD2     N 8308   2.053   0.254  10.696  0.7098 -0.2199  0.2118
  556MPD2    H5 8309   2.091   0.169  10.736  1.1196 -0.8995 -1.6632
  556MPD2    N1 8310   2.235   0.417  11.096 -0.6411  0.1518 -0.1993
  556MPD2    H7 8311   2.262   0.320  11.103  3.0333  0.9941 -2.3259
  557TMC3    C1 8312   2.002   0.128  10.498  0.1226  0.3684 -0.3633
  557TMC3    C2 8313   2.036   0.116  10.367  0.3536  0.1798  0.2141
  557TMC3    C3 8314   2.061   4.728  10.324  0.5143 -0.3283 -0.1747
  557TMC3    C4 8315   1.990   0.018  10.577  0.0832  0.6729  0.3541
  557TMC3    C5 8316   2.033   4.636  10.534 -0.3865 -0.3626  0.7415
  557TMC3    C6 8317   2.069   4.618  10.405  0.0956 -0.4699 -0.0602
  557TMC3     C 8318   2.006   0.260  10.563  0.7780 -0.2293 -1.1600
  557TMC3     O 8319   1.975   0.355  10.496 -0.0584 -0.6338  0.8183
  557TMC3     H 8320   2.046   0.203  10.304 -0.5665  1.2341  1.5222
  557TMC3    H1 8321   1.950   0.027  10.677 -1.3028  0.2224 -0.1563
  557TMC3    H2 8322   2.098   4.520  10.369 -0.3319 -0.9225  0.8391
  557TMC3    C7 8323   2.008   4.523  10.621  0.2430 -0.3879  0.3097
  557TMC3    C8 8324   2.084   4.708  10.178  0.3286 -0.4539  0.2642
  557TMC3    O1 8325   2.001   4.541  10.742 -0.2494  0.2199  0.2823
  557TMC3    O2 8326   2.118   0.066  10.104 -0.2283 -0.1075 -0.1849
  558TMC3    C1 8327   4.552   2.597  10.555  0.9572  0.3340  0.2993
  558TMC3    C2 8328   4.476   2.519  10.641  0.8155  0.5252 -0.4391
  558TMC3    C3 8329   4.348   2.489  10.611 -0.1722 -0.1758  0.2199
  558TMC3    C4 8330   4.496   2.645  10.439  0.9873 -0.1061 -0.7102
  558TMC3    C5 8331   4.368   2.600  10.402  0.5513 -0.5829 -0.3105
  558TMC3    C6 8332   4.290   2.529  10.489  0.4047  0.1384 -0.3824
  558TMC3     C 8333   4.694   2.587  10.549 -0.0024 -0.0906  0.0076
  558TMC3     O 8334   0.023   2.653  10.473 -0.5286  0.4441 -0.1085
  558TMC3     H 8335   4.519   2.481  10.732 -0.3287 -1.2264 -0.6152
  558TMC3    H1 8336   4.554   2.719  10.384  2.4639 -0.4599  0.3805
  558TMC3    H2 8337   4.193   2.498  10.452  0.0433  0.8718 -0.0566
  558TMC3    C7 8338   4.305   2.667  10.292  0.1277  0.4737  0.0489
  558TMC3    C8 8339   4.265   2.435  10.718 -0.1028 -0.2983 -0.4292
  558TMC3    O1 8340   4.310   2.791  10.291 -0.4676  0.0123 -0.6326
  558TMC3    O2 8341   4.151   2.412  10.677 -0.8084  0.3636 -0.3279
  559MPD2     C 8342   4.735   2.922  10.758 -0.1166 -0.3225  0.5104
  559MPD2    C1 8343   4.664   2.879  10.872 -0.0921  0.4200 -0.3426
  559MPD2    C2 8344   4.729   2.869  10.997  0.4579  0.5216  0.3568
  559MPD2    C3 8345   0.119   2.933  11.007  0.1183 -0.1707  0.2210
  559MPD2    C4 8346   0.179   2.987  10.891 -0.8451  0.2268  0.3781
  559MPD2    C5 8347   0.126   2.968  10.765 -0.0486 -1.0279 -0.2720
  559MPD2     H 8348   4.678   2.821  11.080  3.0621 -1.7118  0.6578
  559MPD2    H1 8349   0.271   3.042  10.905 -1.9243  1.5924  2.0850
  559MPD2    H2 8350   4.691   2.920  10.659  0.7141 -0.9688  0.1544
  559MPD2    H3 8351   0.184   2.992  10.677 -0.2793  0.3934 -0.0330
  559MPD2     N 8352   0.175   2.956  11.141 -0.1633 -0.1271 -0.2407
  559MPD2    H5 8353   0.116   2.916  11.213  1.0117 -1.6686 -0.1362
  559MPD2    N1 8354   4.527   2.837  10.875  0.8558  1.5045 -0.1526
  559MPD2    H7 8355   4.487   2.799  10.960  1.0033  0.2996 -0.6230
  560TMC3    C1 8356   0.330   3.034  11.301 -0.2563  0.1513 -0.3699
  560TMC3    C2 8357   0.281   2.930  11.377  0.5972  0.7631  0.9514
  560TMC3    C3 8358   0.347   2.895  11.489  0.0176 -0.5221  1.0308
  560TMC3    C4 8359   0.429   3.119  11.342 -0.6972 -1.1956  0.5192
  560TMC3    C5 8360   0.485   3.081  11.465  1.0772 -0.1460 -0.2071
  560TMC3    C6 8361   0.457   2.966  11.533 -0.1253 -0.0727  0.4172
  560TMC3     C 8362   0.282   3.037  11.165 -0.0965 -0.1682 -0.3967
  560TMC3     O 8363   0.342   3.109  11.090 -0.4217  0.0405  0.0804
  560TMC3     H 8364   0.190   2.877  11.351  0.9515  1.6176 -2.0381
  560TMC3    H1 8365   0.469   3.205  11.289 -1.5095 -0.1070  1.6487
  560TMC3    H2 8366   0.505   2.929  11.622  0.1160 -1.2581 -0.2018
  560TMC3    C7 8367   0.563   3.191  11.523 -0.6174  0.7649 -0.2852
  560TMC3    C8 8368   0.324   2.757  11.527 -0.3092  0.6291  0.1551
  560TMC3    O1 8369   0.558   3.295  11.456 -0.0000  0.0198 -0.1415
  560TMC3    O2 8370   0.273   2.683  11.449 -0.4660 -0.3410 -0.4671
  561TMC3    C1 8371   2.419   1.911  11.611  0.6394 -0.3719 -0.1359
  561TMC3    C2 8372   2.310   1.883  11.690 -0.1603  0.1312 -0.2986
  561TMC3    C3 8373   2.276   1.976  11.793  0.5212 -0.0504  0.4487
  561TMC3    C4 8374   2.485   2.032  11.617 -0.3402  0.8870  0.0635
  561TMC3    C5 8375   2.444   2.129  11.713 -0.3884 -0.2096 -0.3243
  561TMC3    C6 8376   2.342   2.094  11.798 -0.2338  0.0773  0.0795
  561TMC3     C 8377   2.395   1.869  11.470 -0.7060  0.2428  0.1362
  561TMC3     O 8378   2.478   1.889  11.383  0.3091 -0.3208  0.3053
  561TMC3     H 8379   2.261   1.787  11.696  0.1083  0.1029  1.6937
  561TMC3    H1 8380   2.559   2.053  11.541 -1.8759  3.9946 -0.5614
  561TMC3    H2 8381   2.309   2.168  11.870  2.2007 -2.6467  3.9425
  561TMC3    C7 8382   2.435   2.262  11.666  0.3131 -0.1248 -0.1782
  561TMC3    C8 8383   2.207   1.921  11.913 -0.0581 -0.3843  0.1204
  561TMC3    O1 8384   2.343   2.331  11.705 -0.3349 -0.5533  0.2678
  561TMC3    O2 8385   2.239   1.809  11.946 -0.2545 -0.0801 -0.5906
  562TMC3    C1 8386   3.747   3.037  16.858  0.0560 -0.3088 -0.1725
  562TMC3    C2 8387   3.642   3.118  16.820 -0.1148 -0.5028  0.0230
  562TMC3    C3 8388   3.584   3.093  16.707 -0.6378 -0.1884  1.3823
  562TMC3    C4 8389   3.792   2.927  16.790 -0.1524 -0.1290 -0.6086
  562TMC3    C5 8390   3.727   2.907  16.675 -0.1825  0.0318 -1.0655
  562TMC3    C6 8391   3.623   2.987  16.636  0.3481  0.3195  0.5715
  562TMC3     C 8392   3.844   3.080  16.960  0.4118 -0.4820 -0.1514
  562TMC3     O 8393   3.959   3.036  16.951  0.0993  0.1048  0.0005
  562TMC3     H 8394   3.627   3.212  16.873 -0.4069  0.0506 -1.0572
  562TMC3    H1 8395   3.870   2.868  16.836  0.0317  0.0599 -0.6783
  562TMC3    H2 8396   3.574   2.964  16.542 -1.1132  0.2905  1.3443
  562TMC3    C7 8397   3.743   2.783  16.601 -0.6203  0.1308 -0.1894
  562TMC3    C8 8398   3.452   3.148  16.693 -0.3598 -0.5372  0.5209
  562TMC3    O1 8399   3.660   2.761  16.513 -0.3552 -0.6103 -0.5239
  562TMC3    O2 8400   3.381   3.166  16.788  0.0482  0.0017 -0.8058
  563MPD2     C 8401   1.041   0.133  15.822  0.0768 -0.1854  0.6185
  563MPD2    C1 8402   1.048   0.104  15.951  0.2149  0.5056  0.7298
  563MPD2    C2 8403   1.154   0.026  15.993 -0.2178  0.0099 -0.0775
  563MPD2    C3 8404   1.264   4.736  15.901  0.3711 -0.2268 -0.7041
  563MPD2    C4 8405   1.256   0.033  15.774 -0.2347  0.4146 -0.0792
  563MPD2    C5 8406   1.144   0.098  15.735 -0.1360  0.0623 -0.1000
  563MPD2     H 8407   1.163   4.720  16.092 -0.1095  1.1450  0.4212
  563MPD2    H1 8408   1.330   0.003  15.701  1.1537  1.4392  0.9072
  563MPD2    H2 8409   0.952   0.180  15.783  0.8420 -1.4176 -2.5947
  563MPD2    H3 8410   1.137   0.142  15.636 -0.6393 -0.0622 -0.1232
  563MPD2     N 8411   1.373   4.670  15.962 -0.3942 -0.3932 -0.4768
  563MPD2    H5 8412   1.369   4.662  16.063  0.4963  1.9090 -0.2598
  563MPD2    N1 8413   0.944   0.145  16.041  0.1870 -0.4137 -0.1386
  563MPD2    H7 8414   0.860   0.171  15.989 -0.2348  0.7913  1.1575
  564TMC3    C1 8415   0.835   0.077  16.233  0.3464 -0.1779 -0.2917
  564TMC3    C2 8416   0.747   0.030  16.142  0.0825 -0.6860 -0.0211
  564TMC3    C3 8417   0.697   4.639  16.150  0.5430  0.3725 -0.4200
  564TMC3    C4 8418   0.876   4.732  16.336  0.1108  0.9971 -0.6996
  564TMC3    C5 8419   0.840   4.595  16.336  0.8691 -0.1231  0.4995
  564TMC3    C6 8420   0.755   4.549  16.242  0.1611 -0.0810  0.5692
  564TMC3     C 8421   0.960   0.125  16.177 -0.1833 -0.2422  0.3610
  564TMC3     O 8422   1.063   0.117  16.242  0.1821 -0.4785  0.0393
  564TMC3     H 8423   0.688   0.104  16.090 -0.2632 -0.8503  0.1370
  564TMC3    H1 8424   0.940   0.034  16.413 -0.4865 -0.1737  0.4027
  564TMC3    H2 8425   0.724   4.445  16.245  1.9295 -0.6679 -0.5751
  564TMC3    C7 8426   0.966   4.519  16.328  0.3471 -0.0482 -0.1856
  564TMC3    C8 8427   0.661   4.575  16.023  0.0686 -0.4386  0.0520
  564TMC3    O1 8428   1.040   4.507  16.426  0.0307 -0.5291  0.1932
  564TMC3    O2 8429   0.622   4.459  16.033  0.2445  0.1924 -0.4235
  565TMC3    C1 8430   1.904   1.821  10.193 -0.5883  0.8312  0.2684
  565TMC3    C2 8431   1.932   1.686  10.203 -0.1121  0.2669  0.6714
  565TMC3    C3 8432   1.833   1.597  10.175 -0.2952  0.2522 -0.4835
  565TMC3    C4 8433   1.789   1.874  10.142  0.0778 -0.4602 -0.2639
  565TMC3    C5 8434   1.700   1.769  10.100  0.6016 -0.3642  0.2359
  565TMC3    C6 8435   1.718   1.636  10.112 -0.6545 -0.1653 -0.0587
  565TMC3     C 8436   1.995   1.917  10.239 -0.2409  0.6913  0.5670
  565TMC3     O 8437   1.951   2.031  10.259 -0.0415 -0.0689  0.1975
  565TMC3     H 8438   2.028   1.652  10.237 -0.3770 -2.7613 -1.5726
  565TMC3    H1 8439   1.775   1.981  10.129 -0.7727 -0.3598  1.4736
  565TMC3    H2 8440   1.622   1.586  10.109 -1.6774  1.9694 -3.0357
  565TMC3    C7 8441   1.576   1.804  10.036  0.0690 -0.0300  0.3714
  565TMC3    C8 8442   1.837   1.462  10.235  0.3490 -0.2827 -1.2490
  565TMC3    O1 8443   1.514   1.717   9.972 -0.0413  0.0333 -0.0807
  565TMC3    O2 8444   1.926   1.449  10.317 -0.5395 -0.1271  0.3217
  566MPD2     C 8445   3.670   2.217  14.591 -0.5813  0.0319  0.2064
  566MPD2    C1 8446   3.723   2.332  14.550  0.0987 -0.3402 -0.5322
  566MPD2    C2 8447   3.666   2.407  14.447 -0.3984  0.4721  1.0276
  566MPD2    C3 8448   3.544   2.359  14.391 -0.1030 -0.5185  0.5662
  566MPD2    C4 8449   3.489   2.242  14.434  0.2618 -0.5342  0.1181
  566MPD2    C5 8450   3.547   2.183  14.540 -0.7551 -0.5322 -0.4868
  566MPD2     H 8451   3.699   2.509  14.426 -0.1132  0.4795  1.5190
  566MPD2    H1 8452   3.392   2.202  14.405  0.8377 -0.6981 -1.5327
  566MPD2    H2 8453   3.715   2.159  14.671 -0.8786  1.4925  1.4309
  566MPD2    H3 8454   3.494   2.095  14.576  2.9669 -1.8423  1.7507
  566MPD2     N 8455   3.483   2.414  14.281 -0.0318  0.4140 -0.2052
  566MPD2    H5 8456   3.401   2.367  14.245 -1.1750  1.5765  0.8558
  566MPD2    N1 8457   3.837   2.367  14.618  0.4921  0.0827 -0.2503
  566MPD2    H7 8458   3.849   2.318  14.706  2.6046 -0.0202 -0.5734
  567TMC3    C1 8459   4.009   2.509  14.696 -0.4138 -0.2456 -0.1494
  567TMC3    C2 8460   4.112   2.593  14.661 -0.3546  0.4715  0.4518
  567TMC3    C3 8461   4.213   2.611  14.752 -0.1306  0.0462  0.2513
  567TMC3    C4 8462   4.009   2.448  14.814 -0.4388 -0.8498  0.5615
  567TMC3    C5 8463   4.113   2.466  14.899  0.4385 -0.0045  0.2263
  567TMC3    C6 8464   4.218   2.539  14.869  0.4807  0.0861  0.6965
  567TMC3     C 8465   3.916   2.475  14.592 -0.8940  0.1506 -1.1464
  567TMC3     O 8466   3.919   2.542  14.492 -0.6428  0.1844 -0.1924
  567TMC3     H 8467   4.100   2.643  14.566 -1.6084  0.3502  0.5448
  567TMC3    H1 8468   3.926   2.387  14.847  0.7812 -1.8380  1.8124
  567TMC3    H2 8469   4.292   2.543  14.949 -1.3703  1.0651  2.3431
  567TMC3    C7 8470   4.103   2.423  15.037 -0.4082 -1.0010  0.3753
  567TMC3    C8 8471   4.288   2.735  14.758 -0.0421  0.7016 -0.0651
  567TMC3    O1 8472   4.195   2.386  15.104  0.2669  0.2137  0.2529
  567TMC3    O2 8473   4.368   2.742  14.851 -0.6487 -0.6882  0.4050
  568MPD2     C 8474   1.501   3.508  16.340  0.4323  0.1831 -0.2734
  568MPD2    C1 8475   1.379   3.457  16.313  0.1200 -0.0308  0.0681
  568MPD2    C2 8476   1.301   3.535  16.230  0.9224 -0.7050  0.1589
  568MPD2    C3 8477   1.343   3.654  16.169  0.4089 -0.2695  0.7207
  568MPD2    C4 8478   1.469   3.702  16.190  0.3053 -0.0603  0.0421
  568MPD2    C5 8479   1.542   3.627  16.283  0.1209  0.0782 -0.1463
  568MPD2     H 8480   1.198   3.507  16.211  0.9130 -1.4435  1.2987
  568MPD2    H1 8481   1.506   3.799  16.161 -1.3805  0.8402  0.8891
  568MPD2    H2 8482   1.578   3.463  16.401 -0.9088  0.7757  1.8702
  568MPD2    H3 8483   1.632   3.670  16.326  0.0086  2.3988 -2.2335
  568MPD2     N 8484   1.244   3.721  16.098 -0.5464 -0.2919  0.7078
  568MPD2    H5 8485   1.151   3.682  16.109 -0.5919 -0.2315  0.5359
  568MPD2    N1 8486   1.330   3.337  16.385 -0.5875  0.1519  0.7231
  568MPD2    H7 8487   1.387   3.283  16.450  2.9630  3.1218  0.0838
  569TMC3    C1 8488   1.142   3.884  15.959 -0.6525 -0.5219 -0.2712
  569TMC3    C2 8489   1.034   3.885  16.041  0.0596  0.2311  0.8131
  569TMC3    C3 8490   0.910   3.929  15.990  0.5023 -0.5648  0.4860
  569TMC3    C4 8491   1.144   3.954  15.839  0.1542 -0.2140  0.8884
  569TMC3    C5 8492   1.027   4.003  15.796  0.3213  0.6192 -0.1348
  569TMC3    C6 8493   0.905   3.985  15.865 -0.2194 -0.3773 -0.0190
  569TMC3     C 8494   1.266   3.833  16.025  0.0990 -0.2531 -0.3155
  569TMC3     O 8495   1.374   3.891  15.995  0.0754  0.0827  0.5406
  569TMC3     H 8496   1.057   3.845  16.139 -2.7968 -1.2384  0.8941
  569TMC3    H1 8497   1.240   3.986  15.799  1.0502 -2.6088  1.1320
  569TMC3    H2 8498   0.809   3.998  15.818 -0.7643 -0.5966  1.0270
  569TMC3    C7 8499   1.033   4.131  15.727 -0.1195 -0.0744 -0.2005
  569TMC3    C8 8500   0.837   4.016  16.083  0.3557  0.1599 -0.3172
  569TMC3    O1 8501   1.131   4.155  15.660 -0.2843 -0.2763 -0.1821
  569TMC3    O2 8502   0.748   4.087  16.050  0.0021  0.0393 -0.3683
  570TMC3    C1 8503   0.510   2.132  16.404  0.4681 -0.2934 -0.8864
  570TMC3    C2 8504   0.553   2.184  16.278 -1.0790 -0.5701  0.1510
  570TMC3    C3 8505   0.602   2.316  16.278 -0.3513  0.1706 -0.2809
  570TMC3    C4 8506   0.488   2.217  16.506 -0.4369 -0.6691 -0.0748
  570TMC3    C5 8507   0.526   2.352  16.488  0.0823 -0.2675 -0.4739
  570TMC3    C6 8508   0.588   2.399  16.382 -0.7411  0.1591  0.4150
  570TMC3     C 8509   0.450   1.994  16.393 -0.3186  0.3954 -0.2217
  570TMC3     O 8510   0.462   1.922  16.294 -0.4343  0.3498 -0.2067
  570TMC3     H 8511   0.569   2.111  16.200  1.2296 -2.9080  2.8229
  570TMC3    H1 8512   0.440   2.183  16.597 -2.3363  0.1204 -0.7833
  570TMC3    H2 8513   0.615   2.504  16.376 -0.8436  0.1297 -0.5557
  570TMC3    C7 8514   0.542   2.416  16.617  0.7083 -0.0565  0.0024
  570TMC3    C8 8515   0.684   2.357  16.168  0.4298  0.4095  0.7812
  570TMC3    O1 8516   0.559   2.343  16.717 -0.2184 -0.1694  0.4016
  570TMC3    O2 8517   0.747   2.464  16.180 -0.3003 -0.3176  0.1547
  571MPD2     C 8518   2.481   3.342   0.414  0.0632 -0.1871 -0.2098
  571MPD2    C1 8519   2.366   3.373   0.485  0.2065  0.3225 -0.6089
  571MPD2    C2 8520   2.326   3.513   0.486 -0.2551 -0.8716 -0.5297
  571MPD2    C3 8521   2.406   3.603   0.421 -0.2708 -1.0706  0.5170
  571MPD2    C4 8522   2.516   3.558   0.346  0.5480  0.4203 -0.7581
  571MPD2    C5 8523   2.556   3.428   0.345  0.6879  0.8777  0.1307
  571MPD2     H 8524   2.234   3.546   0.532  0.1578 -0.4186 -0.0272
  571MPD2    H1 8525   2.576   3.618   0.280 -0.2224  1.8009 -0.1959
  571MPD2    H2 8526   2.502   3.236   0.407  1.8053  0.1564 -0.0696
  571MPD2    H3 8527   2.636   3.387   0.284 -0.4897  0.7056 -1.3165
  571MPD2     N 8528   2.390   3.748   0.439  0.3377  0.2706  0.0131
  571MPD2    H5 8529   2.454   3.812   0.393  0.7666  0.0020  0.2352
  571MPD2    N1 8530   2.289   3.268   0.538 -0.1004  0.2534 -0.3584
  571MPD2    H7 8531   2.333   3.177   0.537  2.8295  1.7072 -2.1800
  572TMC3    C1 8532   2.290   3.951   0.500 -0.5032 -0.4298 -0.8205
  572TMC3    C2 8533   2.181   4.029   0.511  0.6115 -0.4636  0.2137
  572TMC3    C3 8534   2.195   4.164   0.483  0.1684  0.0675 -0.0011
  572TMC3    C4 8535   2.415   4.005   0.477 -0.8502  0.5240  0.3946
  572TMC3    C5 8536   2.424   4.143   0.463 -0.0100 -0.8322 -0.5738
  572TMC3    C6 8537   2.316   4.228   0.483  0.5249 -0.7268 -0.4802
  572TMC3     C 8538   2.283   3.807   0.508 -0.3945  0.3049  0.4723
  572TMC3     O 8539   2.186   3.763   0.566 -0.0334 -0.1386 -0.2130
  572TMC3     H 8540   2.090   3.977   0.482  0.3013 -0.4132  1.1195
  572TMC3    H1 8541   2.505   3.945   0.468 -1.0197  0.0051  2.1885
  572TMC3    H2 8542   2.327   4.336   0.473 -0.3354 -0.6727 -0.8362
  572TMC3    C7 8543   2.531   4.200   0.386  0.5525 -0.5672  0.3731
  572TMC3    C8 8544   2.078   4.237   0.450  0.0239  0.0074 -0.2618
  572TMC3    O1 8545   2.498   4.278   0.299 -0.2329 -0.3011 -0.1943
  572TMC3    O2 8546   2.114   4.342   0.392  0.1124  0.6375 -0.2358
  573MPD2     C 8547   3.585   4.413  17.695  0.1207  0.0846  0.8228
  573MPD2    C1 8548   3.708   4.374   0.004  0.8406 -0.6968  0.5230
  573MPD2    C2 8549   3.834   4.392  17.690  0.2395 -0.0905 -0.4169
  573MPD2    C3 8550   3.831   4.451  17.566 -0.9740 -0.8293  0.3270
  573MPD2    C4 8551   3.705   4.475  17.504 -0.6077  0.7268 -0.3579
  573MPD2    C5 8552   3.587   4.453  17.571 -0.4092 -0.3207  0.3665
  573MPD2     H 8553   3.927   4.362  17.736 -0.3277 -1.0447  0.1126
  573MPD2    H1 8554   3.712   4.517  17.405 -0.1018 -2.0021 -1.5030
  573MPD2    H2 8555   3.498   4.411   0.011  0.5504 -0.5441  1.3721
  573MPD2    H3 8556   3.492   4.471  17.521 -1.5081 -2.0392  1.8546
  573MPD2     N 8557   3.952   4.485  17.496 -0.2890 -0.0487  0.1716
  573MPD2    H5 8558   3.934   4.519  17.402 -2.5706 -1.4155  0.1037
  573MPD2    N1 8559   3.697   4.331   0.138 -0.7415 -0.1884 -0.2248
  573MPD2    H7 8560   3.605   4.335   0.182  0.6345 -0.8546  2.6856
  574TMC3    C1 8561   4.185   4.494  17.433  0.3038  0.0038 -0.7459
  574TMC3    C2 8562   4.155   4.550  17.317  0.8002  0.6483  0.1120
  574TMC3    C3 8563   4.249   4.621  17.244 -0.3811 -0.5231 -0.4853
  574TMC3    C4 8564   4.309   4.511  17.487 -0.6601 -0.8161 -0.0877
  574TMC3    C5 8565   4.398   4.594  17.419  0.0832  0.5082  0.3111
  574TMC3    C6 8566   4.374   4.653  17.301  0.5749  0.1775 -0.1944
  574TMC3     C 8567   4.077   4.456  17.529  0.0526  1.1334  0.0544
  574TMC3     O 8568   4.113   4.385  17.623 -1.0401  0.4641 -0.0513
  574TMC3     H 8569   4.064   4.511  17.274  1.2178  0.4125 -0.5549
  574TMC3    H1 8570   4.333   4.469  17.584 -0.3876  1.8244  0.9874
  574TMC3    H2 8571   4.450   4.712  17.252 -0.0009  0.2036 -1.0731
  574TMC3    C7 8572   4.520   4.623  17.488 -0.1696 -0.3336 -0.2743
  574TMC3    C8 8573   4.203   4.718  17.145 -0.5154 -0.4903  0.3963
  574TMC3    O1 8574   4.560   4.735  17.460  0.5708  0.3564 -0.0736
  574TMC3    O2 8575   4.293   0.027  17.074 -0.4022  0.0124  0.3639
  575TMC3    C1 8576   2.137   0.985  10.884  0.7592 -0.0345 -0.0347
  575TMC3    C2 8577   2.050   0.965  10.987 -0.6398 -0.3977 -0.0872
  575TMC3    C3 8578   1.918   0.974  10.954  0.1018 -0.3799 -0.1518
  575TMC3    C4 8579   2.102   1.037  10.768  0.6498 -0.5900 -0.3389
  575TMC3    C5 8580   1.972   1.048  10.742  0.2536  0.3862 -0.3899
  575TMC3    C6 8581   1.872   1.020  10.830  0.1846 -0.0516 -0.2281
  575TMC3     C 8582   2.276   0.974  10.912 -0.6329  0.0001 -0.0256
  575TMC3     O 8583   2.306   0.987  11.030  0.1448  0.0997 -0.2907
  575TMC3     H 8584   2.078   0.904  11.072 -3.1704 -1.5840 -0.1301
  575TMC3    H1 8585   2.173   1.070  10.692  1.7543 -0.0375  0.9334
  575TMC3    H2 8586   1.767   1.022  10.803  0.5116 -1.4385 -1.5635
  575TMC3    C7 8587   1.935   1.088  10.610  0.6274  0.0029  0.1263
  575TMC3    C8 8588   1.826   0.995  11.065  0.1051 -0.5493 -0.1498
  575TMC3    O1 8589   2.017   1.169  10.558  0.1616  0.0812 -0.5676
  575TMC3    O2 8590   1.709   1.002  11.034 -0.2010 -0.0861  0.0737
  576MPD2     C 8591   1.004   2.229  12.815  0.3065 -0.4191  0.0680
  576MPD2    C1 8592   1.085   2.334  12.798  0.5646 -0.2348  0.0239
  576MPD2    C2 8593   1.042   2.447  12.876 -0.5689  0.1408  0.3001
  576MPD2    C3 8594   0.931   2.452  12.967 -0.0266 -0.0385  0.4093
  576MPD2    C4 8595   0.862   2.335  12.974 -0.4801 -0.3847  0.1139
  576MPD2    C5 8596   0.902   2.225  12.902 -0.4709  0.0085  0.1176
  576MPD2     H 8597   1.096   2.541  12.871  0.0025 -0.2769 -1.6329
  576MPD2    H1 8598   0.767   2.327  13.026 -0.3513 -0.9236  0.2654
  576MPD2    H2 8599   1.027   2.147  12.748  0.2191 -0.4573  0.0857
  576MPD2    H3 8600   0.849   2.130  12.905 -1.1362  0.3343 -1.3841
  576MPD2     N 8601   0.895   2.572  13.039 -0.3691  0.4561  0.0489
  576MPD2    H5 8602   0.945   2.656  13.015 -0.5520 -0.0376 -2.0611
  576MPD2    N1 8603   1.197   2.346  12.708  0.2562 -0.1467 -0.0537
  576MPD2    H7 8604   1.231   2.442  12.701  1.1405 -0.5327 -1.0223
  577TMC3    C1 8605   1.369   2.281  12.559 -0.2306  0.8855  0.6874
  577TMC3    C2 8606   1.447   2.180  12.502  0.5403  0.3243  0.4479
  577TMC3    C3 8607   1.543   2.207  12.404 -0.5229 -0.7578 -0.7514
  577TMC3    C4 8608   1.375   2.407  12.509  0.6995 -0.2130  0.4319
  577TMC3    C5 8609   1.466   2.422  12.410  0.4543  0.0980  0.1445
  577TMC3    C6 8610   1.556   2.330  12.354 -0.6989 -0.2310 -0.6608
  577TMC3     C 8611   1.258   2.243  12.641 -0.8487 -0.4999 -0.2384
  577TMC3     O 8612   1.230   2.121  12.658  0.2156  0.2634 -0.0613
  577TMC3     H 8613   1.435   2.085  12.552  1.7786  0.4073  0.9336
  577TMC3    H1 8614   1.317   2.493  12.539 -1.2507 -1.4886  0.2827
  577TMC3    H2 8615   1.632   2.351  12.280 -0.1536 -0.4383 -0.1565
  577TMC3    C7 8616   1.521   2.554  12.395 -0.7487 -0.5428  0.2548
  577TMC3    C8 8617   1.631   2.097  12.363  0.0704 -0.0896  0.2311
  577TMC3    O1 8618   1.512   2.632  12.492  0.1568  0.2807 -0.0326
  577TMC3    O2 8619   1.628   2.004  12.443 -0.1933  0.1641  0.6557
  578MPD2     C 8620   4.126   2.088   1.065 -0.8993  0.4810 -0.0265
  578MPD2    C1 8621   4.221   2.082   0.961  0.5164  0.0862  0.0035
  578MPD2    C2 8622   4.336   2.004   0.984  0.1703 -0.6795  0.6205
  578MPD2    C3 8623   4.370   1.941   1.104 -0.1908 -1.0759  0.4476
  578MPD2    C4 8624   4.264   1.940   1.197  0.4276  0.4533  0.2375
  578MPD2    C5 8625   4.145   2.007   1.175 -0.2279 -0.2511  0.5487
  578MPD2     H 8626   4.414   2.004   0.910  0.7051  0.7751  1.1891
  578MPD2    H1 8627   4.269   1.878   1.286 -0.6566 -0.4165 -0.3161
  578MPD2    H2 8628   4.031   2.135   1.047 -3.1882 -3.9181  0.5929
  578MPD2    H3 8629   4.066   2.005   1.249  0.6667 -0.1651  1.5092
  578MPD2     N 8630   4.492   1.873   1.128 -0.6852 -0.6761 -0.4067
  578MPD2    H5 8631   4.545   1.854   1.044 -1.2434 -1.7898 -0.5030
  578MPD2    N1 8632   4.188   2.150   0.845  0.3696 -0.5508 -0.1152
  578MPD2    H7 8633   4.098   2.196   0.843  0.5125 -0.2300  0.6633
  579TMC3    C1 8634   4.676   1.784   1.225 -0.2564  0.3975 -0.3125
  579TMC3    C2 8635   0.046   1.826   1.298 -0.3006  0.2673 -0.4511
  579TMC3    C3 8636   0.165   1.767   1.279  0.2036 -0.6096  1.1215
  579TMC3    C4 8637   4.686   1.676   1.136  0.5648  1.0730 -0.0881
  579TMC3    C5 8638   0.073   1.614   1.125  0.0194 -0.1223  1.0640
  579TMC3    C6 8639   0.181   1.658   1.198  0.2298  1.0248  0.8077
  579TMC3     C 8640   4.547   1.844   1.247  0.3623  0.6534 -0.3281
  579TMC3     O 8641   4.535   1.892   1.357 -0.2247  0.0036 -0.2942
  579TMC3     H 8642   0.033   1.903   1.373  1.8122 -1.0319  1.2679
  579TMC3    H1 8643   4.599   1.641   1.083  0.7623  1.8484 -0.9262
  579TMC3    H2 8644   0.271   1.597   1.202  0.0985  0.7576 -0.3254
  579TMC3    C7 8645   0.083   1.479   1.087 -0.3462 -0.1400 -0.5002
  579TMC3    C8 8646   0.271   1.816   1.360 -0.3112  0.0465 -0.0057
  579TMC3    O1 8647   0.179   1.413   1.114 -0.6879  0.5674  0.1121
  579TMC3    O2 8648   0.242   1.873   1.464 -0.1927 -0.0913 -0.0787
  580TMC3    C1 8649   4.596   0.969  11.807  0.6425  0.6365 -0.5281
  580TMC3    C2 8650   4.606   0.990  11.669 -0.2822 -0.3093 -0.0622
  580TMC3    C3 8651   4.563   0.888  11.589  0.5694  0.0265 -0.2040
  580TMC3    C4 8652   4.529   0.855  11.855  0.3165 -0.1799  0.0719
  580TMC3    C5 8653   4.485   0.762  11.769 -0.1350 -0.3853  0.0494
  580TMC3    C6 8654   4.504   0.777  11.637 -0.3630  0.4608 -0.4475
  580TMC3     C 8655   4.614   1.081  11.888  0.6796  0.1620 -0.0212
  580TMC3     O 8656   4.698   1.168  11.853 -0.2188 -0.4784 -0.1422
  580TMC3     H 8657   4.659   1.081  11.643  0.5712 -0.3894  1.3855
  580TMC3    H1 8658   4.546   0.834  11.960 -2.6166 -0.5218  0.4893
  580TMC3    H2 8659   4.475   0.702  11.565 -1.0920 -0.8819  1.2652
  580TMC3    C7 8660   4.404   0.647  11.800  0.4483 -0.0816 -0.0285
  580TMC3    C8 8661   4.541   0.923  11.448  0.3461 -0.0073 -0.5846
  580TMC3    O1 8662   4.387   0.562  11.714  0.3325  0.2200  0.1560
  580TMC3    O2 8663   4.525   0.828  11.373 -0.8870  0.3003 -0.1200
  581MPD2     C 8664   1.737   1.404  14.751  0.1560  0.1364 -0.1854
  581MPD2    C1 8665   1.609   1.361  14.799  0.2765 -0.3967 -0.1112
  581MPD2    C2 8666   1.495   1.423  14.744 -0.1574  0.7952 -0.1934
  581MPD2    C3 8667   1.504   1.514  14.641 -0.1028 -0.2457  0.0856
  581MPD2    C4 8668   1.633   1.547  14.597 -0.5009 -0.7361 -0.6496
  581MPD2    C5 8669   1.748   1.503  14.657  0.8609  0.3256  0.3333
  581MPD2     H 8670   1.397   1.403  14.786 -0.2038  0.3768 -0.4941
  581MPD2    H1 8671   1.641   1.624  14.521  0.6687 -1.7008 -1.5107
  581MPD2    H2 8672   1.827   1.355  14.787  0.3031  0.7428  0.2710
  581MPD2    H3 8673   1.848   1.531  14.624  1.4006 -0.7474  1.0658
  581MPD2     N 8674   1.390   1.571  14.580  0.0433 -0.6115  0.6270
  581MPD2    H5 8675   1.403   1.650  14.517 -0.4101 -1.0518 -0.0254
  581MPD2    N1 8676   1.602   1.271  14.912 -0.2665  0.0833 -0.3955
  581MPD2    H7 8677   1.694   1.240  14.940 -0.4631  0.7220  0.9486
  582TMC3    C1 8678   1.501   1.167  15.104  0.3555 -0.4754  0.5760
  582TMC3    C2 8679   1.618   1.197  15.166  0.5732  0.2583  0.2303
  582TMC3    C3 8680   1.626   1.170  15.301 -0.2831 -0.3608 -0.3465
  582TMC3    C4 8681   1.389   1.129  15.172  0.3867 -0.7764 -0.4180
  582TMC3    C5 8682   1.389   1.120  15.300 -0.1383 -0.0040  0.0145
  582TMC3    C6 8683   1.511   1.126  15.360 -0.3061  0.6008  0.8492
  582TMC3     C 8684   1.489   1.221  14.969 -0.6828 -0.0233 -0.1380
  582TMC3     O 8685   1.379   1.201  14.913 -0.0030  0.3774  0.2297
  582TMC3     H 8686   1.695   1.266  15.133  1.0204 -1.1906 -1.8075
  582TMC3    H1 8687   1.294   1.129  15.120  0.2222 -0.9482 -0.1199
  582TMC3    H2 8688   1.514   1.101  15.465  1.1407 -0.6536  0.5118
  582TMC3    C7 8689   1.289   1.206  15.351 -0.5335 -0.0292 -0.1080
  582TMC3    C8 8690   1.722   1.235  15.384  0.5584 -0.9087  0.1930
  582TMC3    O1 8691   1.173   1.185  15.325 -0.3380  0.2862  0.1613
  582TMC3    O2 8692   1.680   1.269  15.492 -0.0458 -0.7592  0.0979
  583MPD2     C 8693   2.052   2.754  16.725 -0.5848  0.3010  0.8724
  583MPD2    C1 8694   2.001   2.878  16.702  0.8774 -0.1747  0.1925
  583MPD2    C2 8695   1.953   2.954  16.808  0.0442  0.2705  0.6478
  583MPD2    C3 8696   1.949   2.897  16.932  0.1351 -0.0902  1.0328
  583MPD2    C4 8697   2.002   2.767  16.954 -0.6449  0.3791 -0.2731
  583MPD2    C5 8698   2.056   2.696  16.848 -0.9373  0.6822 -0.2480
  583MPD2     H 8699   1.901   3.044  16.776 -0.7351 -0.7717 -1.0438
  583MPD2    H1 8700   1.998   2.722  17.052  2.6572 -1.2861 -0.8957
  583MPD2    H2 8701   2.093   2.693  16.645  1.3722 -0.7115  2.6403
  583MPD2    H3 8702   2.085   2.592  16.856 -3.6721  0.1316  2.5535
  583MPD2     N 8703   1.896   2.973  17.034 -0.4070 -0.0472  0.0830
  583MPD2    H5 8704   1.874   3.065  16.998  0.7714  1.6308  3.6239
  583MPD2    N1 8705   2.017   2.949  16.587  1.0671  0.3600 -0.1183
  583MPD2    H7 8706   1.970   3.039  16.593 -0.2271 -0.2638 -1.0940
  584TMC3    C1 8707   1.835   3.063  17.242 -0.7159 -1.5349 -0.9308
  584TMC3    C2 8708   1.887   3.182  17.217  0.4749  0.2200 -0.4751
  584TMC3    C3 8709   1.858   3.282  17.306  0.0533 -0.0115  0.6496
  584TMC3    C4 8710   1.735   3.045  17.334  0.5930 -0.2500 -0.5894
  584TMC3    C5 8711   1.695   3.159  17.410  0.1191 -1.1416 -0.0136
  584TMC3    C6 8712   1.762   3.277  17.403 -0.6461  0.1717  0.1353
  584TMC3     C 8713   1.875   2.945  17.165  0.1724  0.2168 -0.0520
  584TMC3     O 8714   1.889   2.836  17.220  0.2182 -0.0029  0.4148
  584TMC3     H 8715   1.964   3.199  17.143 -0.3808 -0.6319 -1.5626
  584TMC3    H1 8716   1.706   2.943  17.359  4.5004 -1.6180 -1.5765
  584TMC3    H2 8717   1.744   3.349  17.482  0.8187  1.4413 -0.6772
  584TMC3    C7 8718   1.604   3.120  17.520 -0.9491 -0.5552  0.1829
  584TMC3    C8 8719   1.965   3.381  17.333  0.2306 -0.1776  0.1083
  584TMC3    O1 8720   1.615   3.003  17.558  0.0128  0.2607  0.3804
  584TMC3    O2 8721   2.078   3.366  17.288  0.8935 -0.2183 -0.4557
  585MPD2     C 8722   1.293   1.670   0.208  0.0029 -0.6359  0.4109
  585MPD2    C1 8723   1.315   1.767   0.104 -0.0134 -0.2934  0.6077
  585MPD2    C2 8724   1.294   1.727  17.724 -0.1058  0.7384  0.1487
  585MPD2    C3 8725   1.240   1.598  17.701 -0.6859 -0.2353  0.2907
  585MPD2    C4 8726   1.224   1.509   0.055 -0.9621 -1.0316 -0.1639
  585MPD2    C5 8727   1.266   1.539   0.180 -0.8938 -0.1254  0.0930
  585MPD2     H 8728   1.315   1.799  17.645  2.5337 -0.5798 -0.3274
  585MPD2    H1 8729   1.188   1.407   0.046 -1.8328 -0.8474  1.1314
  585MPD2    H2 8730   1.315   1.691   0.312  1.1770  0.8911 -0.1381
  585MPD2    H3 8731   1.269   1.470   0.263 -0.9747 -2.3072 -1.7206
  585MPD2     N 8732   1.200   1.561  17.573 -0.4559  0.0544  0.1901
  585MPD2    H5 8733   1.179   1.463  17.560 -1.2240  0.2556 -0.1204
  585MPD2    N1 8734   1.357   1.897   0.143 -0.2478  0.5809  0.1350
  585MPD2    H7 8735   1.326   1.929   0.235 -0.8396 -1.2860  0.5778
  586TMC3    C1 8736   1.106   1.568  17.361 -0.3978  0.2179  0.3070
  586TMC3    C2 8737   1.146   1.440  17.335  0.0106  0.6892 -0.5438
  586TMC3    C3 8738   1.050   1.349  17.289  0.1956 -0.1639 -0.1180
  586TMC3    C4 8739   0.975   1.598  17.361  0.0767 -0.0524  0.6790
  586TMC3    C5 8740   0.880   1.508  17.325 -0.8440  0.2664  0.0042
  586TMC3    C6 8741   0.919   1.384  17.275 -0.0406 -0.4856 -0.4471
  586TMC3     C 8742   1.172   1.643  17.470 -0.0967 -0.3336  0.4005
  586TMC3     O 8743   1.162   1.766  17.474 -0.7145 -0.0850  0.5006
  586TMC3     H 8744   1.251   1.416  17.337  0.0772  0.9083 -1.4600
  586TMC3    H1 8745   0.946   1.686  17.418 -0.1110  0.0350  0.4526
  586TMC3    H2 8746   0.844   1.312  17.244 -1.0247 -0.6294  2.3106
  586TMC3    C7 8747   0.755   1.499  17.397 -0.2420  0.3204 -0.0853
  586TMC3    C8 8748   1.102   1.239  17.202  0.3465 -0.1214 -0.4990
  586TMC3    O1 8749   0.690   1.406  17.360 -0.0742  0.3880  0.1275
  586TMC3    O2 8750   1.216   1.204  17.218 -0.0567 -0.5412 -0.8574
  587TMC3    C1 8751   3.366   0.594  16.204 -0.5056 -0.8522 -0.7159
  587TMC3    C2 8752   3.429   0.654  16.307  0.5605 -0.1031 -0.2000
  587TMC3    C3 8753   3.467   0.576  16.411  0.0285  0.5079  0.0860
  587TMC3    C4 8754   3.343   0.463  16.190 -0.2421  0.1111 -0.4785
  587TMC3    C5 8755   3.390   0.383  16.291 -0.1674 -0.1162 -0.7026
  587TMC3    C6 8756   3.456   0.437  16.404  0.2985  0.0975 -0.4313
  587TMC3     C 8757   3.284   0.678  16.119  0.0656 -0.0470  0.1837
  587TMC3     O 8758   3.324   0.793  16.098  0.3364  0.2147  0.6155
  587TMC3     H 8759   3.446   0.761  16.302 -0.0548  0.0649  1.3548
  587TMC3    H1 8760   3.277   0.418  16.116 -0.1744 -2.1105  0.8198
  587TMC3    H2 8761   3.471   0.381  16.496 -0.4507 -0.0394 -0.3921
  587TMC3    C7 8762   3.351   0.240  16.288 -0.6631  0.0275 -0.4538
  587TMC3    C8 8763   3.481   0.631  16.536  0.4623  0.5671 -0.0356
  587TMC3    O1 8764   3.249   0.204  16.227  0.1889  0.4014  0.0908
  587TMC3    O2 8765   3.527   0.559  16.624  0.4174 -0.4769  0.1412
  588TMC3    C1 8766   1.509   3.420   9.885  0.2595 -0.0667 -0.1954
  588TMC3    C2 8767   1.528   3.295   9.830 -0.4763  0.2015 -0.5591
  588TMC3    C3 8768   1.642   3.264   9.769  0.0546 -0.7237  0.3375
  588TMC3    C4 8769   1.610   3.511   9.866  0.5425  0.2214 -0.2265
  588TMC3    C5 8770   1.721   3.474   9.795  0.4021  0.3115 -0.0855
  588TMC3    C6 8771   1.740   3.354   9.745  0.2247 -0.2818  0.3034
  588TMC3     C 8772   1.392   3.469   9.954 -0.2435  0.3448  0.5768
  588TMC3     O 8773   1.281   3.434   9.910 -0.3826 -0.2900  0.3204
  588TMC3     H 8774   1.447   3.225   9.842  0.8783 -1.1305  0.9244
  588TMC3    H1 8775   1.588   3.616   9.878  0.0335 -0.1967  2.4690
  588TMC3    H2 8776   1.833   3.325   9.698 -0.5879  1.5402 -2.4268
  588TMC3    C7 8777   1.831   3.569   9.790  0.0289 -0.3876  0.3086
  588TMC3    C8 8778   1.674   3.122   9.765 -0.2701 -0.4630 -0.4325
  588TMC3    O1 8779   1.908   3.574   9.691  0.7564  0.9572 -0.2999
  588TMC3    O2 8780   1.758   3.087   9.684 -0.3167 -0.4563 -0.1367
  589TMC3    C1 8781   0.342   0.375   1.344 -0.7866  0.2531  0.1131
  589TMC3    C2 8782   0.455   0.449   1.376 -0.6002  0.0111  0.5417
  589TMC3    C3 8783   0.579   0.404   1.340 -0.3372  0.3259 -0.7122
  589TMC3    C4 8784   0.357   0.251   1.293  0.2004 -0.5181 -1.1854
  589TMC3    C5 8785   0.482   0.205   1.272  0.4320 -0.0044 -0.1073
  589TMC3    C6 8786   0.596   0.281   1.277  0.3512 -0.3262  0.6626
  589TMC3     C 8787   0.210   0.429   1.391 -0.2444  0.0495  0.5520
  589TMC3     O 8788   0.115   0.362   1.351  0.5118  0.3418 -0.5037
  589TMC3     H 8789   0.451   0.539   1.436 -0.0321  0.1750  0.3376
  589TMC3    H1 8790   0.274   0.182   1.290  1.3578 -2.0620  1.8875
  589TMC3    H2 8791   0.696   0.239   1.269 -0.3006 -1.8335  0.4535
  589TMC3    C7 8792   0.497   0.062   1.253 -0.2236 -0.7175  0.4189
  589TMC3    C8 8793   0.687   0.502   1.320  0.6371  0.5760 -0.5072
  589TMC3    O1 8794   0.409   4.725   1.300 -0.2838  0.1756 -0.1350
  589TMC3    O2 8795   0.668   0.618   1.359  0.2467  0.5991  0.4817
  590MPD2     C 8796   4.348   3.154  16.244 -0.0630  0.1079  0.3211
  590MPD2    C1 8797   4.279   3.277  16.257 -0.4388  0.3133  0.5173
  590MPD2    C2 8798   4.330   3.379  16.339  0.4150 -0.2240  0.2424
  590MPD2    C3 8799   4.455   3.364  16.396  0.2063 -0.0095  0.4603
  590MPD2    C4 8800   4.530   3.250  16.373  0.2684  0.3288 -0.9368
  590MPD2    C5 8801   4.474   3.146  16.299 -0.2590 -0.0100 -0.2285
  590MPD2     H 8802   4.284   3.477  16.336 -1.2686 -0.9874  0.5410
  590MPD2    H1 8803   4.627   3.226  16.415 -0.9171  1.0942  2.1937
  590MPD2    H2 8804   4.294   3.077  16.190 -1.0516 -0.8839  2.7066
  590MPD2    H3 8805   4.533   3.056  16.308  0.4782  0.4944 -0.0697
  590MPD2     N 8806   4.515   3.479  16.450 -0.9081 -0.0247 -0.1708
  590MPD2    H5 8807   4.461   3.565  16.442 -0.6218  0.0691 -1.1101
  590MPD2    N1 8808   4.154   3.306  16.190 -0.6054 -0.9433  0.3040
  590MPD2    H7 8809   4.099   3.379  16.233  0.0506  1.3125 -2.6529
  591TMC3    C1 8810   4.681   3.631  16.494 -0.5003  0.9952 -1.1435
  591TMC3    C2 8811   0.065   3.656  16.443  0.1826 -0.4228  0.7616
  591TMC3    C3 8812   0.085   3.773  16.374  0.7205 -0.6981 -0.1337
  591TMC3    C4 8813   4.577   3.719  16.500 -0.5288  0.6611  0.0903
  591TMC3    C5 8814   4.596   3.837  16.434  0.4569  0.2954  0.3264
  591TMC3    C6 8815   4.716   3.868  16.365 -0.3783 -0.1100  0.7424
  591TMC3     C 8816   4.642   3.495  16.489 -0.2371  0.3445 -0.0207
  591TMC3     O 8817   4.728   3.412  16.522  0.4208 -0.6220 -0.1433
  591TMC3     H 8818   0.149   3.587  16.447  1.8349  1.5608  0.5262
  591TMC3    H1 8819   4.489   3.695  16.558  0.0422 -1.7781 -0.0891
  591TMC3    H2 8820   4.727   3.953  16.299 -0.3864  0.1681  1.0948
  591TMC3    C7 8821   4.479   3.917  16.429 -0.2728  0.6515 -0.2319
  591TMC3    C8 8822   0.187   3.769  16.276 -0.3559 -0.1827  0.5521
  591TMC3    O1 8823   4.373   3.863  16.463 -0.2262 -0.0252 -0.1919
  591TMC3    O2 8824   0.271   3.677  16.284  0.2832 -0.1204  0.0150
  592MPD2     C 8825   0.731   0.932  11.114 -0.5054 -0.0748  0.5221
  592MPD2    C1 8826   0.682   0.973  11.241  0.6670 -0.8760 -0.2538
  592MPD2    C2 8827   0.595   0.882  11.309 -1.0066  1.0372 -0.6090
  592MPD2    C3 8828   0.564   0.762  11.249  0.0005  0.3404  0.6764
  592MPD2    C4 8829   0.616   0.724  11.129  0.6287  0.3859  0.0433
  592MPD2    C5 8830   0.694   0.812  11.066 -0.3276  0.0059 -0.3517
  592MPD2     H 8831   0.543   0.901  11.402  2.0302  1.0555  1.1129
  592MPD2    H1 8832   0.580   0.634  11.080 -0.1272  0.0539  1.1930
  592MPD2    H2 8833   0.774   1.010  11.052 -0.3192 -0.2613  0.4150
  592MPD2    H3 8834   0.729   0.782  10.968 -0.7910 -0.0913 -0.4853
  592MPD2     N 8835   0.471   0.682  11.314  0.4740 -0.0556  0.0641
  592MPD2    H5 8836   0.462   0.687  11.415 -0.2909 -1.2109  0.0470
  592MPD2    N1 8837   0.705   1.103  11.288  0.0499 -0.3751 -0.1527
  592MPD2    H7 8838   0.749   1.171  11.227  0.3806  0.7960  1.3988
  593TMC3    C1 8839   0.699   1.293  11.431 -0.2474  0.1915  0.1915
  593TMC3    C2 8840   0.685   1.335  11.560 -0.4469 -0.3436  0.2934
  593TMC3    C3 8841   0.759   1.439  11.600  0.1818 -0.1372 -0.4247
  593TMC3    C4 8842   0.783   1.353  11.347 -0.6230 -0.0571 -0.2218
  593TMC3    C5 8843   0.840   1.475  11.390 -0.2385  0.4351  0.1685
  593TMC3    C6 8844   0.827   1.520  11.518 -0.2869 -0.2759  0.2167
  593TMC3     C 8845   0.659   1.155  11.410 -0.0580 -0.1669  0.7368
  593TMC3     O 8846   0.607   1.091  11.502 -0.7623  0.0642  0.0976
  593TMC3     H 8847   0.654   1.268  11.639  0.8730  0.2959  1.3589
  593TMC3    H1 8848   0.815   1.319  11.249  0.2760 -1.2532  0.4971
  593TMC3    H2 8849   0.879   1.609  11.552 -0.1412 -0.2832  0.0113
  593TMC3    C7 8850   0.892   1.573  11.292  0.4362  0.3406 -0.1221
  593TMC3    C8 8851   0.715   1.502  11.715  0.0272  1.1784  0.1503
  593TMC3    O1 8852   0.970   1.655  11.339 -0.2963  0.0084  0.5761
  593TMC3    O2 8853   0.598   1.491  11.757 -0.0522  0.0970 -0.1159
  594MPD2     C 8854   3.460   4.340  14.740 -0.4371  0.1176 -0.0866
  594MPD2    C1 8855   3.562   4.252  14.763 -1.1648  0.1863  0.8283
  594MPD2    C2 8856   3.692   4.297  14.748 -0.2471  0.2462  0.3505
  594MPD2    C3 8857   3.712   4.429  14.725  0.2373  0.1805  0.6268
  594MPD2    C4 8858   3.610   4.511  14.697 -0.4169  0.0510  0.4086
  594MPD2    C5 8859   3.483   4.472  14.706  0.3362  0.0736  0.2352
  594MPD2     H 8860   3.778   4.230  14.747 -0.3602  0.1192 -0.4181
  594MPD2    H1 8861   3.617   4.613  14.662  1.1850 -0.0463  0.4369
  594MPD2    H2 8862   3.356   4.310  14.737 -1.1733  2.8214 -1.7202
  594MPD2    H3 8863   3.402   4.544  14.698  1.2865  1.0412 -0.7706
  594MPD2     N 8864   3.845   4.480  14.715  0.0014 -0.0570 -0.3170
  594MPD2    H5 8865   3.913   4.430  14.771 -0.8664 -0.5151  0.3181
  594MPD2    N1 8866   3.529   4.116  14.785  0.0226 -0.1030  0.5417
  594MPD2    H7 8867   3.433   4.085  14.773 -0.1815  0.4890  0.6733
  595TMC3    C1 8868   4.141   4.664  14.901 -0.2795  0.0865 -0.5336
  595TMC3    C2 8869   4.070   4.591  14.815  0.3162 -0.0350 -0.0640
  595TMC3    C3 8870   4.000   4.656  14.724 -0.0340  0.1274  0.1079
  595TMC3    C4 8871   4.152   0.060  14.901 -0.3497  0.0655  0.7517
  595TMC3    C5 8872   4.089   0.125  14.805 -0.0723 -0.8379 -0.0259
  595TMC3    C6 8873   4.010   0.057  14.712 -0.1892 -0.5950 -0.3824
  595TMC3     C 8874   4.272   4.607  14.943  0.7015  0.2147 -0.5498
  595TMC3     O 8875   4.327   4.668  15.035  0.3248  0.1899 -0.6012
  595TMC3     H 8876   4.061   4.483  14.825 -0.0692  0.0101  0.1023
  595TMC3    H1 8877   4.210   0.119  14.971 -1.7119 -0.7866  2.5983
  595TMC3    H2 8878   3.945   0.109  14.643  2.5245  0.0243 -2.4732
  595TMC3    C7 8879   4.052   0.261  14.825 -1.0409 -0.5136  0.1525
  595TMC3    C8 8880   3.880   4.604  14.662 -0.1801 -0.3574  0.2898
  595TMC3    O1 8881   3.934   0.284  14.798  0.1949  0.2105  0.3330
  595TMC3    O2 8882   3.825   4.672  14.578  0.0108  0.2046  0.2831
  596MPD2     C 8883   2.985   2.643  16.889  0.6234  0.2675 -0.6110
  596MPD2    C1 8884   2.878   2.726  16.839 -0.2261  0.9835 -0.7216
  596MPD2    C2 8885   2.870   2.745  16.702  0.0909 -0.0099  0.2507
  596MPD2    C3 8886   2.968   2.683  16.617 -0.6092 -0.2046 -0.0991
  596MPD2    C4 8887   3.077   2.618  16.673 -0.3507 -0.2719  0.1978
  596MPD2    C5 8888   3.077   2.590  16.804 -0.3408 -0.4149  0.0227
  596MPD2     H 8889   2.789   2.804  16.660  0.0118 -0.0547  0.3385
  596MPD2    H1 8890   3.161   2.584  16.614  0.4130  0.0429  1.1164
  596MPD2    H2 8891   3.000   2.629  16.995 -1.6201  1.6898 -0.1019
  596MPD2    H3 8892   3.165   2.536  16.838  1.4075  1.5615 -1.3899
  596MPD2     N 8893   2.975   2.702  16.473  0.4081 -0.2897 -0.0641
  596MPD2    H5 8894   3.032   2.636  16.421  0.2787  0.9827 -1.8387
  596MPD2    N1 8895   2.770   2.772  16.909  0.0598  0.1446 -0.1796
  596MPD2    H7 8896   2.696   2.827  16.868 -0.2644 -1.0856 -1.2606
  597TMC3    C1 8897   2.660   2.833  17.107  0.0600 -0.0909  0.0832
  597TMC3    C2 8898   2.656   2.960  17.057  0.5588 -0.9974  0.3101
  597TMC3    C3 8899   2.606   3.054  17.148 -0.1974 -0.2123  0.9695
  597TMC3    C4 8900   2.609   2.797  17.221 -0.1955 -0.1245  0.0773
  597TMC3    C5 8901   2.561   2.896  17.311 -0.7607  0.0135  0.2555
  597TMC3    C6 8902   2.557   3.020  17.270  0.0129  0.3055 -0.1580
  597TMC3     C 8903   2.754   2.748  17.044 -0.3238  0.2850 -0.5830
  597TMC3     O 8904   2.824   2.682  17.119 -0.2269  0.4994 -0.2678
  597TMC3     H 8905   2.677   2.991  16.955  0.1837  1.0337  0.8496
  597TMC3    H1 8906   2.617   2.694  17.255 -2.1503  0.2392  1.5895
  597TMC3    H2 8907   2.497   3.084  17.334  1.0177  1.5009 -0.4210
  597TMC3    C7 8908   2.515   2.856  17.444 -0.4226  0.3384 -0.0380
  597TMC3    C8 8909   2.606   3.198  17.130 -0.3742 -0.3798 -0.4353
  597TMC3    O1 8910   2.502   2.735  17.468  0.1103  0.1406 -1.0706
  597TMC3    O2 8911   2.528   3.264  17.197  0.2445 -0.6430  0.0065
  598TMC3    C1 8912   1.245   4.371  15.354  0.0886  0.1392 -0.1050
  598TMC3    C2 8913   1.155   4.263  15.363 -0.2363 -0.6868  0.4414
  598TMC3    C3 8914   1.024   4.275  15.321 -0.1776  0.2709  0.8836
  598TMC3    C4 8915   1.206   4.485  15.284  0.3240  0.1131  0.5883
  598TMC3    C5 8916   1.080   4.482  15.226  0.3312 -0.6880  0.3455
  598TMC3    C6 8917   0.991   4.379  15.244  0.0500 -0.0316 -0.1683
  598TMC3     C 8918   1.371   4.374  15.431  0.4235  0.3835 -0.6554
  598TMC3     O 8919   1.445   4.471  15.406 -0.0499  0.7435 -0.3238
  598TMC3     H 8920   1.189   4.176  15.417 -1.0660 -2.1314 -1.3350
  598TMC3    H1 8921   1.275   4.569  15.282 -0.2765  0.5837 -0.0802
  598TMC3    H2 8922   0.891   4.390  15.204 -0.2685  2.7996  1.4445
  598TMC3    C7 8923   1.040   4.581  15.131 -0.9604  0.6876  0.1533
  598TMC3    C8 8924   0.933   4.181  15.373  0.6796 -0.3270  0.5737
  598TMC3    O1 8925   0.941   4.567  15.057 -0.0048  0.0979 -0.0067
  598TMC3    O2 8926   0.970   4.066  15.394  0.1669  0.2513 -0.6789
  599MPD2     C 8927   0.811   1.810  15.846  0.6490 -0.0273 -0.3091
  599MPD2    C1 8928   0.858   1.702  15.912  0.3590 -0.2619  0.4479
  599MPD2    C2 8929   0.791   1.661  16.030  0.6610 -0.4227 -0.1166
  599MPD2    C3 8930   0.688   1.731  16.091  0.4110 -0.9588  0.5437
  599MPD2    C4 8931   0.647   1.843  16.023 -0.7544 -0.6891  0.3319
  599MPD2    C5 8932   0.705   1.882  15.902 -0.4498  0.6331  0.0924
  599MPD2     H 8933   0.842   1.581  16.081  0.4970  0.0104  0.7200
  599MPD2    H1 8934   0.576   1.911  16.068  1.3320  1.5180  0.2793
  599MPD2    H2 8935   0.861   1.857  15.762  2.1402 -0.1118  0.5315
  599MPD2    H3 8936   0.669   1.972  15.853  0.3955  2.2452  2.4189
  599MPD2     N 8937   0.633   1.705  16.212  0.7244  0.2408  0.0781
  599MPD2    H5 8938   0.575   1.779  16.250  2.6507  2.5919 -1.5609
  599MPD2    N1 8939   0.963   1.634  15.855 -0.0068 -0.0684  0.0355
  599MPD2    H7 8940   1.021   1.683  15.787 -0.0422  1.4984  1.1469
  600TMC3    C1 8941   0.591   1.606  16.425  0.0805  0.1564  0.4376
  600TMC3    C2 8942   0.551   1.492  16.478 -0.6968 -0.1044  0.0476
  600TMC3    C3 8943   0.525   1.492  16.609 -0.3183 -0.2508  0.4467
  600TMC3    C4 8944   0.634   1.720  16.495 -0.2728  0.0928  0.8425
  600TMC3    C5 8945   0.616   1.712  16.630  0.3638  0.1372  0.2469
  600TMC3    C6 8946   0.562   1.601  16.690 -0.3755  0.1181 -0.5291
  600TMC3     C 8947   0.649   1.591  16.288  0.5585  0.3145  0.6709
  600TMC3     O 8948   0.716   1.492  16.271  0.0209  0.5176  0.0054
  600TMC3     H 8949   0.535   1.405  16.416 -1.2033 -0.3263  0.4829
  600TMC3    H1 8950   0.690   1.797  16.443  1.0817 -0.5240  1.3994
  600TMC3    H2 8951   0.551   1.597  16.798  2.1054  2.1193 -0.2108
  600TMC3    C7 8952   0.662   1.817  16.719  0.0698  0.6166 -0.9340
  600TMC3    C8 8953   0.463   1.376  16.674  0.4747 -0.0891  0.2979
  600TMC3    O1 8954   0.607   1.824  16.828 -0.0456 -0.6205 -0.1717
  600TMC3    O2 8955   0.488   1.361  16.792  0.2440  0.5399  0.1383
  601MPD2     C 8956   3.015   4.168   0.228  0.0048 -1.0059 -0.2476
  601MPD2    C1 8957   2.912   4.232   0.175  0.2302  0.2373 -1.1762
  601MPD2    C2 8958   2.788   4.220   0.226 -0.5451 -0.1286 -0.0677
  601MPD2    C3 8959   2.767   4.148   0.348 -0.1251  0.5883  0.5971
  601MPD2    C4 8960   2.877   4.089   0.404 -0.2645  0.0263 -0.6255
  601MPD2    C5 8961   2.994   4.088   0.337 -0.5602  0.2224 -0.1007
  601MPD2     H 8962   2.708   4.274   0.177 -0.9452 -1.5360 -0.9421
  601MPD2    H1 8963   2.865   4.030   0.493 -1.3585  1.6618  0.3193
  601MPD2    H2 8964   3.113   4.173   0.182 -1.4000  3.4068 -2.7249
  601MPD2    H3 8965   3.080   4.029   0.368  1.2184  1.9165 -1.8558
  601MPD2     N 8966   2.649   4.146   0.421  0.4538  0.0001 -0.0071
  601MPD2    H5 8967   2.654   4.098   0.510 -2.5577 -0.8706 -0.3000
  601MPD2    N1 8968   2.927   4.321   0.065 -0.1531 -0.6854  0.0405
  601MPD2    H7 8969   2.835   4.355   0.038 -0.3968 -1.3791  0.0167
  602TMC3    C1 8970   3.022   4.456  17.660 -0.5408  0.2180  0.5848
  602TMC3    C2 8971   3.112   4.560  17.651 -0.0213 -0.0070 -0.2306
  602TMC3    C3 8972   3.091   4.664  17.568 -0.2019 -0.2366  0.6433
  602TMC3    C4 8973   2.904   4.455  17.594 -0.0506  0.2747  0.0244
  602TMC3    C5 8974   2.889   4.556  17.508  0.7365  0.1251  0.1956
  602TMC3    C6 8975   2.974   4.666  17.488 -0.0847  0.4795 -0.0519
  602TMC3     C 8976   3.044   4.363   0.012 -0.8631 -0.2847  0.3314
  602TMC3     O 8977   3.165   4.348   0.045  0.0420  0.1797  0.3173
  602TMC3     H 8978   3.211   4.542  17.692  0.3465 -1.6086 -1.8582
  602TMC3    H1 8979   2.837   4.369  17.590  2.8701 -1.9726 -0.4121
  602TMC3    H2 8980   2.939   0.015  17.433  1.3495  1.0693 -0.0183
  602TMC3    C7 8981   2.774   4.545  17.415 -0.0720 -0.2952  0.2533
  602TMC3    C8 8982   3.207   4.719  17.499  0.3119  0.3937  0.0122
  602TMC3    O1 8983   2.679   4.467  17.432  0.3926 -0.8686 -0.1549
  602TMC3    O2 8984   3.303   4.641  17.483 -0.1286 -0.0737 -0.7368
  603TMC3    C1 8985   1.514   0.535  10.939 -0.5809  0.5908  0.1111
  603TMC3    C2 8986   1.531   0.549  11.073 -0.3715 -0.0021  0.2560
  603TMC3    C3 8987   1.522   0.678  11.122 -0.6888 -1.3777 -1.0481
  603TMC3    C4 8988   1.496   0.637  10.848  0.2844 -0.0687 -0.0891
  603TMC3    C5 8989   1.487   0.761  10.909  0.1422 -0.5699 -0.3995
  603TMC3    C6 8990   1.490   0.782  11.042 -0.5006 -0.4808 -0.6195
  603TMC3     C 8991   1.572   0.425  10.870 -0.8547 -0.2187  0.4216
  603TMC3     O 8992   1.553   0.407  10.752  0.2786 -0.2519 -0.1994
  603TMC3     H 8993   1.544   0.461  11.135  0.5745 -0.4119 -0.5204
  603TMC3    H1 8994   1.492   0.622  10.741  0.2052  4.6145 -0.7269
  603TMC3    H2 8995   1.516   0.881  11.078  0.3764 -0.4005 -1.4617
  603TMC3    C7 8996   1.434   0.857  10.811  0.3086 -0.1792  0.0448
  603TMC3    C8 8997   1.500   0.679  11.264  0.2340 -1.2353 -0.0007
  603TMC3    O1 8998   1.391   0.815  10.704 -0.3454 -0.5487 -0.6122
  603TMC3    O2 8999   1.552   0.590  11.329 -0.3812  0.3705  0.9844
  604MPD2     C 9000   2.129   4.164  16.295 -0.2941  0.3972 -0.0554
  604MPD2    C1 9001   2.040   4.110  16.202 -0.2514 -0.7237 -0.2947
  604MPD2    C2 9002   2.082   4.090  16.075 -1.4312 -0.3749 -0.2063
  604MPD2    C3 9003   2.206   4.127  16.036 -0.6521 -0.0863 -0.6274
  604MPD2    C4 9004   2.287   4.196  16.121 -0.4285  0.2508 -0.4197
  604MPD2    C5 9005   2.248   4.209  16.251 -0.2182 -0.6986 -0.2000
  604MPD2     H 9006   2.018   4.031  16.011 -3.0002  2.3328 -1.1258
  604MPD2    H1 9007   2.371   4.246  16.076  0.5358 -0.2393  0.8340
  604MPD2    H2 9008   2.106   4.185  16.398  1.3796 -1.0459  0.6258
  604MPD2    H3 9009   2.315   4.249  16.326  2.0159 -0.0027 -2.6060
  604MPD2     N 9010   2.250   4.094  15.907  0.4381 -0.9352  0.2700
  604MPD2    H5 9011   2.177   4.046  15.855 -0.0175  2.3993 -2.0944
  604MPD2    N1 9012   1.917   4.059  16.255 -0.3036  0.0213  0.0884
  604MPD2    H7 9013   1.905   4.068  16.356 -3.3746 -1.1843 -0.1493
  605TMC3    C1 9014   1.705   3.973  16.271  0.2625 -0.1942  0.7027
  605TMC3    C2 9015   1.744   3.943  16.400 -0.4636  0.8120  0.0388
  605TMC3    C3 9016   1.662   3.981  16.505  0.3914 -0.2246  0.4064
  605TMC3    C4 9017   1.591   4.044  16.244  0.4004  0.2399  0.4828
  605TMC3    C5 9018   1.509   4.076  16.350 -0.1412  0.0846 -0.4757
  605TMC3    C6 9019   1.552   4.053  16.482 -0.0066  0.3094 -0.0635
  605TMC3     C 9020   1.815   4.002  16.180  0.0684 -0.5143  0.1607
  605TMC3     O 9021   1.796   3.995  16.057 -0.2829  0.3927 -0.2208
  605TMC3     H 9022   1.837   3.888  16.415 -1.6976 -1.6565 -1.3799
  605TMC3    H1 9023   1.570   4.086  16.147  0.9283 -0.5300  0.0406
  605TMC3    H2 9024   1.490   4.078  16.568  0.2568 -0.7646  0.4305
  605TMC3    C7 9025   1.390   4.159  16.333 -0.0284  0.3544  0.0522
  605TMC3    C8 9026   1.745   4.050  16.599 -0.4560 -0.2564  0.5266
  605TMC3    O1 9027   1.323   4.193  16.429 -0.3807  0.2159 -0.4310
  605TMC3    O2 9028   1.838   4.098  16.537  0.6709  0.0865 -0.5211
  606TMC3    C1 9029   3.352   2.717  17.472  1.1084  0.3554  0.0958
  606TMC3    C2 9030   3.451   2.654  17.534  0.3405 -0.7296 -0.0994
  606TMC3    C3 9031   3.497   2.538  17.481  0.2338  0.0856 -0.3410
  606TMC3    C4 9032   3.304   2.677  17.349  0.2890 -0.1249 -0.2866
  606TMC3    C5 9033   3.368   2.563  17.291 -0.5400 -0.5792 -0.4216
  606TMC3    C6 9034   3.460   2.491  17.362 -0.6201  0.9334  0.7862
  606TMC3     C 9035   3.310   2.851  17.523 -1.0231  0.0203 -0.0426
  606TMC3     O 9036   3.382   2.895  17.613 -0.4733  0.0438 -0.3578
  606TMC3     H 9037   3.499   2.704  17.617 -0.9698 -0.9612  0.8066
  606TMC3    H1 9038   3.236   2.742  17.296  0.7449  0.5601 -0.0247
  606TMC3    H2 9039   3.498   2.399  17.318  0.6052  1.1117  1.4645
  606TMC3    C7 9040   3.296   2.486  17.188 -0.4948 -0.0919 -0.1435
  606TMC3    C8 9041   3.582   2.455  17.549 -1.0023 -0.4995  0.6798
  606TMC3    O1 9042   3.353   2.427  17.099  0.4530  0.3895  0.3649
  606TMC3    O2 9043   3.652   2.381  17.480  0.6783  0.5272  0.4735
  607MPD2     C 9044   0.707   0.467  11.434  0.1169  0.3953  1.0170
  607MPD2    C1 9045   0.691   0.566  11.524  0.1414 -0.7721  0.8322
  607MPD2    C2 9046   0.606   0.539  11.628  0.4882 -0.1716 -0.1244
  607MPD2    C3 9047   0.545   0.416  11.643 -0.0494  0.6056  0.5063
  607MPD2    C4 9048   0.559   0.322  11.542 -0.0041  1.0408  0.7739
  607MPD2    C5 9049   0.646   0.344  11.439 -0.5697 -0.5706  0.0203
  607MPD2     H 9050   0.593   0.608  11.711  0.8329 -1.0083  0.6285
  607MPD2    H1 9051   0.505   0.228  11.543  1.0391  0.4107 -4.8334
  607MPD2    H2 9052   0.776   0.475  11.351  0.4344  0.9306  1.3354
  607MPD2    H3 9053   0.665   0.265  11.366  0.7312 -0.2624  0.0255
  607MPD2     N 9054   0.454   0.400  11.747  0.1284  0.1777 -0.0671
  607MPD2    H5 9055   0.456   0.474  11.816 -1.3106  0.8392 -0.7113
  607MPD2    N1 9056   0.763   0.684  11.522 -0.4567  0.0789 -0.4563
  607MPD2    H7 9057   0.748   0.747  11.599  0.1066 -1.2773  0.7538
  608TMC3    C1 9058   0.953   0.809  11.485  0.0338 -0.0855 -0.2593
  608TMC3    C2 9059   0.962   0.802  11.623 -0.1683 -0.0969 -0.6799
  608TMC3    C3 9060   1.007   0.916  11.681 -0.0241 -0.2022 -0.0693
  608TMC3    C4 9061   0.969   0.917  11.408  0.8877 -0.0805  0.7570
  608TMC3    C5 9062   1.032   1.021  11.475 -0.3610 -0.3116 -0.6053
  608TMC3    C6 9063   1.050   1.020  11.609 -0.2956 -0.2222 -0.4212
  608TMC3     C 9064   0.863   0.713  11.428  0.1427  0.4711  0.1606
  608TMC3     O 9065   0.890   0.677  11.313 -0.1172  0.0503 -0.7287
  608TMC3     H 9066   0.956   0.711  11.682 -1.0186  0.3117 -0.1391
  608TMC3    H1 9067   0.948   0.903  11.302  0.8194 -0.9250  0.8827
  608TMC3    H2 9068   1.077   1.107  11.668 -0.9969 -1.2283  1.3419
  608TMC3    C7 9069   1.085   1.125  11.394  0.4756  0.3490 -0.1046
  608TMC3    C8 9070   1.013   0.918  11.821 -0.4499  0.1811  0.3713
  608TMC3    O1 9071   1.039   1.139  11.279 -0.2293  0.3801  0.1492
  608TMC3    O2 9072   1.100   0.976  11.884 -0.1468  0.0368 -0.3948
  609TMC3    C1 9073   3.509   0.046   9.802 -0.9824  0.2498  0.2305
  609TMC3    C2 9074   3.506   0.143   9.705  0.0247 -0.0235  1.1338
  609TMC3    C3 9075   3.611   0.149   9.618 -0.0589  0.4371 -0.9094
  609TMC3    C4 9076   3.607   4.693   9.812 -0.3502  0.6435  0.2013
  609TMC3    C5 9077   3.702   4.687   9.715 -0.6997  0.5048  0.0708
  609TMC3    C6 9078   3.706   0.050   9.617 -0.1856 -0.3143  0.0286
  609TMC3     C 9079   3.469   0.098   9.940  0.1998  0.1306  0.2111
  609TMC3     O 9080   3.429   0.013  10.022  0.2664  0.7973  0.3964
  609TMC3     H 9081   3.427   0.217   9.709 -0.2555 -0.2803  0.3845
  609TMC3    H1 9082   3.595   4.617   9.889 -0.1673 -0.2474 -0.6503
  609TMC3    H2 9083   3.792   0.048   9.551  0.4261  3.2669  0.7489
  609TMC3    C7 9084   3.833   4.633   9.738 -0.1265  0.3310 -1.0791
  609TMC3    C8 9085   3.588   0.207   9.487 -0.8435  0.1659 -0.0013
  609TMC3    O1 9086   3.931   4.703   9.719  0.2872  0.2182  0.1434
  609TMC3    O2 9087   3.669   0.176   9.400  0.5045  0.3084  0.1542
  610TMC3    C1 9088   0.994   0.285  12.398  0.5370  0.2604 -0.3383
  610TMC3    C2 9089   1.120   0.336  12.367  0.0705 -0.0068  0.1823
  610TMC3    C3 9090   1.223   0.246  12.347  0.0205 -0.7806 -0.3096
  610TMC3    C4 9091   0.971   0.152  12.409  0.0380  0.4843  0.0216
  610TMC3    C5 9092   1.076   0.071  12.396 -0.2568 -0.6818  0.4201
  610TMC3    C6 9093   1.203   0.112  12.377 -0.0142  0.1504  0.3156
  610TMC3     C 9094   0.886   0.368  12.451  0.0716  0.2132 -0.1957
  610TMC3     O 9095   0.784   0.313  12.483 -0.5519 -0.0224 -0.6419
  610TMC3     H 9096   1.134   0.443  12.358 -0.8588  0.0141 -1.0656
  610TMC3    H1 9097   0.876   0.111  12.443  0.1150 -0.2820 -0.6933
  610TMC3    H2 9098   1.291   0.047  12.377 -1.0341 -1.2319 -0.4064
  610TMC3    C7 9099   1.064   4.669  12.414 -0.5559 -0.0305 -0.1047
  610TMC3    C8 9100   1.351   0.284  12.310 -0.5876  0.0129 -0.0300
  610TMC3    O1 9101   1.169   4.611  12.433 -0.3168  0.5967  0.3888
  610TMC3    O2 9102   1.441   0.203  12.330  0.0097  0.3945  0.6027
  611MPD2     C 9103   0.494   1.384  10.668 -0.9497 -0.0556 -0.2391
  611MPD2    C1 9104   0.474   1.331  10.537  0.5880 -0.8085 -0.4308
  611MPD2    C2 9105   0.591   1.312  10.462 -0.4326 -0.1827  0.4910
  611MPD2    C3 9106   0.712   1.343  10.515 -0.7393  0.0108  0.1157
  611MPD2    C4 9107   0.721   1.399  10.639 -0.2777  0.1268  0.2169
  611MPD2    C5 9108   0.613   1.414  10.724 -0.2134 -0.0082  0.5755
  611MPD2     H 9109   0.589   1.283  10.357 -1.7483 -1.5614  0.9011
  611MPD2    H1 9110   0.822   1.425  10.669  0.3849 -1.4296 -0.6474
  611MPD2    H2 9111   0.401   1.404  10.721 -1.7463 -1.0529 -1.2377
  611MPD2    H3 9112   0.622   1.448  10.826  2.6081  3.1455 -0.7454
  611MPD2     N 9113   0.832   1.338  10.441  0.2462 -0.3362 -0.1987
  611MPD2    H5 9114   0.912   1.386  10.480  1.8582 -3.0107 -0.1763
  611MPD2    N1 9115   0.343   1.299  10.501 -0.3987  0.2199  0.2913
  611MPD2    H7 9116   0.270   1.328  10.566 -0.4583  0.8099 -0.0398
  612TMC3    C1 9117   0.976   1.297  10.257  0.4271 -0.9110  0.0900
  612TMC3    C2 9118   1.080   1.313  10.340 -0.1988 -0.1990 -0.2998
  612TMC3    C3 9119   1.206   1.332  10.278  0.2127 -0.1173 -0.3898
  612TMC3    C4 9120   0.985   1.302  10.116 -0.7107 -1.2393 -0.0412
  612TMC3    C5 9121   1.113   1.329  10.067 -0.8071  0.7862  0.0965
  612TMC3    C6 9122   1.227   1.345  10.147 -0.4409 -0.5468 -0.2296
  612TMC3     C 9123   0.843   1.287  10.318  0.2931 -0.3488  0.0266
  612TMC3     O 9124   0.762   1.240  10.242 -0.7953 -0.7193 -0.1123
  612TMC3     H 9125   1.064   1.306  10.447  0.5492 -0.3705 -0.2014
  612TMC3    H1 9126   0.898   1.311  10.053 -1.0532  0.0407  0.6151
  612TMC3    H2 9127   1.320   1.391  10.114 -0.5205  0.4368  0.9038
  612TMC3    C7 9128   1.131   1.338   9.923 -0.2986  0.2939  1.1705
  612TMC3    C8 9129   1.325   1.347  10.360 -0.0156  0.1478  0.9024
  612TMC3    O1 9130   1.230   1.399   9.897  0.3623  0.0019 -0.1313
  612TMC3    O2 9131   1.410   1.430  10.342  0.3823 -0.1305 -0.0687
  613MPD2     C 9132   4.463   2.909  16.953  0.6887 -0.0606 -0.0723
  613MPD2    C1 9133   4.348   2.856  16.911  0.8249 -0.4951 -0.1485
  613MPD2    C2 9134   4.303   2.728  16.947 -0.0591  0.4021  0.3493
  613MPD2    C3 9135   4.375   2.663  17.043  0.1420  0.0798 -0.3041
  613MPD2    C4 9136   4.495   2.718  17.091 -0.0164 -0.2037 -0.1841
  613MPD2    C5 9137   4.528   2.840  17.047  0.0500  0.0385  0.6289
  613MPD2     H 9138   4.212   2.687  16.905 -1.0415  3.3895 -0.4199
  613MPD2    H1 9139   4.569   2.670  17.153  0.0578  2.8764  2.0536
  613MPD2    H2 9140   4.520   2.990  16.908 -0.0920 -0.3684 -1.6399
  613MPD2    H3 9141   4.623   2.881  17.080  0.5916  1.0064 -2.1921
  613MPD2     N 9142   4.351   2.525  17.070  0.3494  0.0562  0.1808
  613MPD2    H5 9143   4.408   2.484  17.142 -0.7748 -1.1408  0.4037
  613MPD2    N1 9144   4.297   2.922  16.794 -0.2097  0.2931 -0.7414
  613MPD2    H7 9145   4.357   2.995  16.756  0.0878  0.1481 -0.5560
  614TMC3    C1 9146   4.189   2.943  16.595  1.1692  0.4695 -0.7704
  614TMC3    C2 9147   4.269   2.876  16.507  0.0676  0.0501  0.8262
  614TMC3    C3 9148   4.232   2.835  16.387 -0.2069  0.3510  0.2175
  614TMC3    C4 9149   4.060   2.983  16.561 -0.7442 -0.1108 -0.4302
  614TMC3    C5 9150   4.026   2.953  16.432  0.1916 -0.2350  0.3302
  614TMC3    C6 9151   4.113   2.883  16.344 -0.1416  0.6912 -0.4277
  614TMC3     C 9152   4.193   2.881  16.724  0.0426 -0.2268  0.6185
  614TMC3     O 9153   4.106   2.805  16.754 -0.3736  0.0816  0.0693
  614TMC3     H 9154   4.365   2.848  16.547  0.2933 -0.9932 -0.4483
  614TMC3    H1 9155   3.994   3.014  16.641 -1.4845  1.5527 -1.6901
  614TMC3    H2 9156   4.087   2.874  16.240  1.9889  1.5549 -1.0444
  614TMC3    C7 9157   3.901   3.014  16.390  0.1331  0.2936 -0.3454
  614TMC3    C8 9158   4.273   2.715  16.326 -0.2940 -0.4345 -0.0325
  614TMC3    O1 9159   3.857   3.120  16.444  0.4628 -0.0080 -0.0209
  614TMC3    O2 9160   4.244   2.698  16.211 -0.0789 -0.0752  0.3979
  615MPD2     C 9161   3.712   4.046  15.886 -0.2202 -0.2142 -0.6075
  615MPD2    C1 9162   3.619   4.146  15.916 -0.9277 -0.3984 -0.2412
  615MPD2    C2 9163   3.496   4.147  15.853 -0.1723 -0.2564  0.3300
  615MPD2    C3 9164   3.468   4.067  15.740  0.2333 -1.0358  0.2749
  615MPD2    C4 9165   3.565   3.985  15.695  0.2513  0.3540 -0.4401
  615MPD2    C5 9166   3.682   3.970  15.775 -0.3298 -0.2131 -0.0279
  615MPD2     H 9167   3.425   4.222  15.885  0.0793 -0.8215  2.2302
  615MPD2    H1 9168   3.541   3.917  15.614  0.4634 -3.1441  2.4187
  615MPD2    H2 9169   3.804   4.030  15.941  0.2153 -0.0264 -1.2786
  615MPD2    H3 9170   3.757   3.899  15.743 -0.6348 -1.5159  2.1222
  615MPD2     N 9171   3.346   4.083  15.666 -0.3391 -0.3305  0.1653
  615MPD2    H5 9172   3.340   4.036  15.576  2.1625 -1.6326  0.6856
  615MPD2    N1 9173   3.626   4.237  16.024 -0.0333 -0.8514  0.2839
  615MPD2    H7 9174   3.549   4.300  16.040 -0.6064 -1.4361 -0.1900
  616TMC3    C1 9175   3.746   4.359  16.193  0.1799  0.2361  0.9541
  616TMC3    C2 9176   3.792   4.347  16.322 -0.4497 -0.0874  0.6073
  616TMC3    C3 9177   3.814   4.457  16.391  0.1759  0.3511 -0.5377
  616TMC3    C4 9178   3.700   4.482  16.147 -0.5108  0.3854 -0.4544
  616TMC3    C5 9179   3.710   4.585  16.230 -0.0671 -0.2386  0.5876
  616TMC3    C6 9180   3.774   4.581  16.348 -0.8632 -0.0453 -0.5806
  616TMC3     C 9181   3.737   4.239  16.107 -0.2362  0.0570 -0.2727
  616TMC3     O 9182   3.827   4.156  16.124 -0.1622 -0.2800 -0.5125
  616TMC3     H 9183   3.815   4.245  16.353 -3.7563 -0.8547  0.4961
  616TMC3    H1 9184   3.667   4.488  16.044 -0.7579  2.8271 -0.2214
  616TMC3    H2 9185   3.794   4.666  16.413 -2.2295  0.5333 -0.9181
  616TMC3    C7 9186   3.693   4.715  16.170  0.2206 -0.6566  0.0944
  616TMC3    C8 9187   3.878   4.443  16.525  0.7974  0.2567  0.3256
  616TMC3    O1 9188   3.761   0.072  16.211 -0.1642  0.5361  0.5471
  616TMC3    O2 9189   3.853   4.348  16.598  0.4831  0.3634 -0.8980
  617MPD2     C 9190   1.865   2.246  13.351 -0.1202  0.5143 -0.9777
  617MPD2    C1 9191   1.821   2.260  13.480 -0.4768 -0.3747 -0.1175
  617MPD2    C2 9192   1.685   2.243  13.500  0.5859 -0.2678  0.0382
  617MPD2    C3 9193   1.593   2.231  13.404 -0.1216 -0.3607  0.2975
  617MPD2    C4 9194   1.641   2.225  13.278  0.3442  0.0962  0.0354
  617MPD2    C5 9195   1.773   2.237  13.252  0.2653 -0.6169 -0.2205
  617MPD2     H 9196   1.651   2.244  13.603 -0.4891 -0.7010 -0.3098
  617MPD2    H1 9197   1.571   2.203  13.199  0.6236 -0.3325 -0.0881
  617MPD2    H2 9198   1.971   2.254  13.326  0.5335  1.5762  2.1221
  617MPD2    H3 9199   1.821   2.228  13.155 -0.1757  0.3572 -0.5306
  617MPD2     N 9200   1.454   2.228  13.419 -0.2495  0.2394  0.7349
  617MPD2    H5 9201   1.396   2.203  13.339  1.2055 -0.6565 -0.0515
  617MPD2    N1 9202   1.906   2.279  13.583 -0.6266  0.0134  0.6079
  617MPD2    H7 9203   2.005   2.267  13.564 -0.8314  0.1664 -0.5492
  618TMC3    C1 9204   1.988   2.292  13.792 -0.1371 -0.8625 -0.1200
  618TMC3    C2 9205   2.033   2.166  13.792 -0.3191 -0.3566  0.5581
  618TMC3    C3 9206   2.157   2.138  13.836  0.2656 -0.1386  0.7114
  618TMC3    C4 9207   2.057   2.400  13.846  0.5961  0.8448 -0.1173
  618TMC3    C5 9208   2.187   2.362  13.889 -0.4480  0.4232  0.7734
  618TMC3    C6 9209   2.232   2.234  13.892  0.6427  0.4256 -0.6748
  618TMC3     C 9210   1.876   2.315  13.713 -0.1643  0.0723 -0.0267
  618TMC3     O 9211   1.786   2.385  13.756  0.0056  0.5176 -0.0677
  618TMC3     H 9212   1.966   2.087  13.760 -0.2261 -0.0964 -0.2650
  618TMC3    H1 9213   2.028   2.504  13.851  0.3209  0.8393 -1.4668
  618TMC3    H2 9214   2.324   2.213  13.945  0.3910  0.2359 -0.3183
  618TMC3    C7 9215   2.277   2.466  13.932 -0.2745 -0.1356 -0.3825
  618TMC3    C8 9216   2.224   2.018  13.783  0.4344 -0.3096 -0.0561
  618TMC3    O1 9217   2.229   2.531  14.025 -0.0524 -0.3257  0.1143
  618TMC3    O2 9218   2.159   1.961  13.696  0.1476  0.1901 -0.5204
  619MPD2     C 9219   3.027   3.295  14.175 -0.7185  0.5322  0.0756
  619MPD2    C1 9220   2.964   3.251  14.061 -0.0639 -0.4129 -0.5551
  619MPD2    C2 9221   2.845   3.186  14.064  0.4125 -0.2854 -0.2835
  619MPD2    C3 9222   2.784   3.164  14.188  0.1923  0.4450 -0.4466
  619MPD2    C4 9223   2.837   3.220  14.298  0.0386 -0.4500  0.4439
  619MPD2    C5 9224   2.961   3.281  14.293 -0.2749 -0.0784 -0.1338
  619MPD2     H 9225   2.807   3.154  13.968  0.9748  0.5871 -0.7993
  619MPD2    H1 9226   2.788   3.218  14.395  0.6338  1.0183  0.7698
  619MPD2    H2 9227   3.117   3.355  14.182  0.5374 -1.0137 -2.5549
  619MPD2    H3 9228   2.996   3.335  14.380  0.3347  1.0627 -1.0854
  619MPD2     N 9229   2.656   3.106  14.199  0.1780  0.3838  0.5398
  619MPD2    H5 9230   2.617   3.114  14.292 -1.3000 -0.0977 -0.0257
  619MPD2    N1 9231   3.015   3.283  13.929  0.0727 -0.1072  0.5111
  619MPD2    H7 9232   2.964   3.249  13.848 -0.4335  3.7488 -0.8064
  620TMC3    C1 9233   3.155   3.356  13.756  0.3389 -0.3094  0.1692
  620TMC3    C2 9234   3.077   3.280  13.673 -0.0815  0.2955 -0.0162
  620TMC3    C3 9235   3.010   3.342  13.575 -0.4544  0.1599 -0.2968
  620TMC3    C4 9236   3.178   3.492  13.734 -0.0863  0.5202 -0.5952
  620TMC3    C5 9237   3.107   3.549  13.634 -0.1145 -0.1218  0.6386
  620TMC3    C6 9238   3.022   3.477  13.551  0.1928  0.0316 -0.0552
  620TMC3     C 9239   3.137   3.341  13.897 -0.3556 -0.8395  0.4494
  620TMC3     O 9240   3.220   3.389  13.972 -0.6300  0.0066  0.6109
  620TMC3     H 9241   3.080   3.171  13.677 -0.9926  0.3637  2.7484
  620TMC3    H1 9242   3.235   3.552  13.804 -0.2455 -0.9028  0.7593
  620TMC3    H2 9243   2.962   3.528  13.477  0.4737 -2.9851 -2.3669
  620TMC3    C7 9244   3.089   3.694  13.632  0.1987  0.7710  0.0952
  620TMC3    C8 9245   2.865   3.305  13.593 -0.1803 -0.6090 -0.6401
  620TMC3    O1 9246   2.971   3.730  13.620  0.0533  0.0800  0.5637
  620TMC3    O2 9247   2.837   3.247  13.696  0.1030  0.9283 -0.5732
  621MPD2     C 9248   3.299   4.174  10.442  0.0186  0.6288 -0.0956
  621MPD2    C1 9249   3.366   4.097  10.352 -0.1054  0.1558 -0.6605
  621MPD2    C2 9250   3.479   4.145  10.281  0.1274 -0.3915  0.5574
  621MPD2    C3 9251   3.523   4.275  10.310  0.6291 -0.5951  0.2920
  621MPD2    C4 9252   3.459   4.349  10.406  0.0117 -0.0973 -0.0208
  621MPD2    C5 9253   3.351   4.297  10.476  0.3340 -0.3002 -0.5498
  621MPD2     H 9254   3.506   4.100  10.186 -1.7062 -0.9652  0.2979
  621MPD2    H1 9255   3.488   4.450  10.432  0.8440 -0.7346  1.5451
  621MPD2    H2 9256   3.216   4.140  10.503  0.5079  1.2275  0.8942
  621MPD2    H3 9257   3.290   4.348  10.550  1.5847 -1.8637  1.5539
  621MPD2     N 9258   3.638   4.324  10.242 -1.0575  0.5929  0.3148
  621MPD2    H5 9259   3.700   4.261  10.192 -3.9911 -1.7426 -0.3511
  621MPD2    N1 9260   3.315   3.974  10.317  0.0050  0.9191 -0.5846
  621MPD2    H7 9261   3.379   3.907  10.275 -0.3012  0.5852 -0.5133
  622TMC3    C1 9262   3.160   3.793  10.280 -0.0917  0.2087  0.5499
  622TMC3    C2 9263   3.042   3.738  10.316  0.8946 -0.3161  0.6777
  622TMC3    C3 9264   2.970   3.662  10.222 -0.0879  0.5757 -0.0376
  622TMC3    C4 9265   3.214   3.760  10.155  0.1395 -0.4891  1.0844
  622TMC3    C5 9266   3.139   3.685  10.064 -0.0294  0.7540 -0.0996
  622TMC3    C6 9267   3.024   3.629  10.101 -0.5883  0.1134  0.2524
  622TMC3     C 9268   3.190   3.926  10.336  0.2158 -0.6383  0.7345
  622TMC3     O 9269   3.095   3.989  10.385 -0.3022 -0.1488 -0.3547
  622TMC3     H 9270   3.002   3.769  10.412 -0.7769  0.4468 -0.2692
  622TMC3    H1 9271   3.311   3.802  10.130 -0.8327  1.2257  0.2252
  622TMC3    H2 9272   2.967   3.570  10.031 -2.0539  2.2020 -0.3180
  622TMC3    C7 9273   3.219   3.629   9.953 -0.1095 -0.7708 -0.3087
  622TMC3    C8 9274   2.828   3.650  10.230  0.0873  0.3363  0.1190
  622TMC3    O1 9275   3.340   3.641   9.957  0.1968  0.4724  0.5104
  622TMC3    O2 9276   2.769   3.599  10.134 -0.1726 -0.7961 -0.5157
  623MPD2     C 9277   2.186   4.528  16.079 -1.0505 -0.0913 -0.0057
  623MPD2    C1 9278   2.092   4.506  16.179  0.2631 -0.0025  0.6208
  623MPD2    C2 9279   2.132   4.519  16.312  0.0658  1.1286 -0.1162
  623MPD2    C3 9280   2.260   4.554  16.344 -0.1249  0.0502 -0.6142
  623MPD2    C4 9281   2.355   4.571  16.246  0.1134  0.3007 -0.5619
  623MPD2    C5 9282   2.312   4.569  16.116  0.5428 -0.2394 -0.0584
  623MPD2     H 9283   2.053   4.498  16.384 -0.0184 -0.4911 -0.6687
  623MPD2    H1 9284   2.462   4.579  16.253 -0.0088 -1.4572  3.1149
  623MPD2    H2 9285   2.161   4.530  15.973  0.3291  2.5978 -0.2798
  623MPD2    H3 9286   2.389   4.573  16.039 -0.3864  2.7909 -0.8035
  623MPD2     N 9287   2.294   4.548  16.484 -0.0134  0.7870  0.9079
  623MPD2    H5 9288   2.230   4.499  16.546 -0.3442  0.4381  0.2848
  623MPD2    N1 9289   1.958   4.470  16.152 -0.3948  0.8678  0.7807
  623MPD2    H7 9290   1.898   4.459  16.234  0.1470  1.0103  1.1963
  624TMC3    C1 9291   2.500   4.374  16.786  0.5498  0.1526 -0.3193
  624TMC3    C2 9292   2.382   4.329  16.831 -0.4701 -0.2860 -0.6302
  624TMC3    C3 9293   2.269   4.407  16.805  0.6744 -0.8442  0.2719
  624TMC3    C4 9294   2.513   4.498  16.724  0.4272  0.0235 -0.2041
  624TMC3    C5 9295   2.394   4.564  16.692 -0.1749 -0.3491 -0.7835
  624TMC3    C6 9296   2.274   4.520  16.732 -0.3048  0.0602  0.3097
  624TMC3     C 9297   2.619   4.299  16.800  0.3494 -0.4540  0.0515
  624TMC3     O 9298   2.724   4.364  16.812 -0.0791  0.5354 -0.1114
  624TMC3     H 9299   2.376   4.234  16.883  0.6531 -0.4743 -0.8537
  624TMC3    H1 9300   2.606   4.539  16.687  1.0496 -0.0316  1.2681
  624TMC3    H2 9301   2.183   4.578  16.723  0.2800  1.2909  2.2381
  624TMC3    C7 9302   2.404   4.593  16.551  0.6445 -0.0698 -0.4806
  624TMC3    C8 9303   2.144   4.336  16.799 -0.8626 -0.5637  0.5548
  624TMC3    O1 9304   2.505   4.636  16.498  0.0128  0.2015  0.0043
  624TMC3    O2 9305   2.070   4.379  16.712 -0.9659 -0.3353 -0.3404
  625MPD2     C 9306   2.782   0.422   0.135 -0.1976  0.0223  0.5666
  625MPD2    C1 9307   2.743   0.509   0.234  0.3347 -0.7766 -0.7270
  625MPD2    C2 9308   2.823   0.529   0.343 -0.1907  1.0941  0.3478
  625MPD2    C3 9309   2.933   0.453   0.367 -0.0191 -0.2453 -0.0457
  625MPD2    C4 9310   2.973   0.360   0.273 -0.5806  0.2564  0.5549
  625MPD2    C5 9311   2.895   0.343   0.161 -0.3247 -0.4555  0.2368
  625MPD2     H 9312   2.799   0.614   0.406  2.7203  1.2434  1.2360
  625MPD2    H1 9313   3.059   0.295   0.279 -1.1341 -0.4495  0.7774
  625MPD2    H2 9314   2.720   0.409   0.047  0.3129 -0.7658  0.3148
  625MPD2    H3 9315   2.923   0.267   0.089  0.0510 -3.6151  3.6899
  625MPD2     N 9316   3.023   0.496   0.474 -0.2826 -0.0735  0.5261
  625MPD2    H5 9317   2.998   0.571   0.538  0.0630  0.6218 -0.1510
  625MPD2    N1 9318   2.624   0.576   0.231 -0.8768  0.0601  0.0232
  625MPD2    H7 9319   2.615   0.649   0.301  0.2208  0.9861 -0.7957
  626TMC3    C1 9320   2.410   0.636   0.167 -0.0823 -0.4006  0.6777
  626TMC3    C2 9321   2.323   0.672   0.076 -0.0598  0.1192  0.3259
  626TMC3    C3 9322   2.205   0.728   0.116  0.1908  0.3495  0.1166
  626TMC3    C4 9323   2.383   0.652   0.305 -0.0174 -0.3382  0.3609
  626TMC3    C5 9324   2.275   0.722   0.342 -0.7530 -0.4157 -0.6079
  626TMC3    C6 9325   2.176   0.754   0.251 -0.4266  0.4020  0.6837
  626TMC3     C 9326   2.528   0.572   0.130 -0.2159 -0.2030 -0.3281
  626TMC3     O 9327   2.517   0.505   0.027 -0.4190  0.6560 -0.3807
  626TMC3     H 9328   2.340   0.661  17.719  1.4869 -3.0098  0.8849
  626TMC3    H1 9329   2.447   0.605   0.380 -1.2333 -1.4186  0.7064
  626TMC3    H2 9330   2.087   0.797   0.296 -1.3879 -0.2657 -0.5607
  626TMC3    C7 9331   2.246   0.722   0.483 -0.2906 -0.1205 -0.1867
  626TMC3    C8 9332   2.113   0.781   0.014 -1.0930 -0.1911 -0.0382
  626TMC3    O1 9333   2.312   0.645   0.554 -0.3819  0.1318  0.5300
  626TMC3    O2 9334   2.145   0.781  17.649 -0.2837 -0.3098  0.1637
  627MPD2     C 9335   0.620   1.375  14.303  0.3166 -0.5254  0.4208
  627MPD2    C1 9336   0.715   1.339  14.393 -0.4320  0.5648  0.4011
  627MPD2    C2 9337   0.702   1.222  14.457 -0.8142  0.0237  0.3611
  627MPD2    C3 9338   0.587   1.135  14.442  0.1233 -0.7312  0.6149
  627MPD2    C4 9339   0.488   1.179  14.359 -0.6912  0.4001 -0.8353
  627MPD2    C5 9340   0.508   1.299  14.294  0.3387  0.1712 -0.3854
  627MPD2     H 9341   0.780   1.189  14.525 -0.5033  1.1643  0.5563
  627MPD2    H1 9342   0.405   1.119  14.324 -0.9965  0.2283  0.1603
  627MPD2    H2 9343   0.635   1.466  14.245 -0.4433 -0.8788 -0.3180
  627MPD2    H3 9344   0.435   1.329  14.220  0.6754 -1.9175 -1.5953
  627MPD2     N 9345   0.577   1.018  14.520 -0.6238  0.6179  0.1967
  627MPD2    H5 9346   0.645   1.002  14.593 -0.0480 -1.7383 -0.8435
  627MPD2    N1 9347   0.835   1.411  14.400  0.3950 -0.1521  0.8426
  627MPD2    H7 9348   0.921   1.376  14.440  0.4905 -0.3884  0.4300
  628TMC3    C1 9349   0.972   1.600  14.399 -0.7627 -0.5309  0.7067
  628TMC3    C2 9350   1.065   1.522  14.462 -0.2161  0.0972 -0.3100
  628TMC3    C3 9351   1.175   1.592  14.512  0.1072  0.0700 -0.1403
  628TMC3    C4 9352   0.976   1.736  14.406 -0.8027 -0.5273 -0.9189
  628TMC3    C5 9353   1.082   1.798  14.448  0.2446 -0.2441 -0.5191
  628TMC3    C6 9354   1.185   1.729  14.504 -0.5826 -0.5790  0.0468
  628TMC3     C 9355   0.844   1.545  14.372  0.4547 -0.5893 -0.1568
  628TMC3     O 9356   0.758   1.631  14.354 -0.1655 -0.0333 -0.2144
  628TMC3     H 9357   1.056   1.414  14.469  2.7833 -0.1575 -0.3918
  628TMC3    H1 9358   0.890   1.794  14.375 -0.8091  0.5263  1.0325
  628TMC3    H2 9359   1.275   1.775  14.543 -2.1510 -0.0847  3.0736
  628TMC3    C7 9360   1.089   1.945  14.442 -0.3094  0.3578 -0.1046
  628TMC3    C8 9361   1.268   1.515  14.581  0.6674 -0.4231  0.4293
  628TMC3    O1 9362   1.135   2.015  14.533  0.0698  0.1874  0.2534
  628TMC3    O2 9363   1.228   1.407  14.617  0.0117  0.3107 -0.0319
  629MPD2     C 9364   4.261   4.498  16.846 -0.7842 -0.6929  0.6351
  629MPD2    C1 9365   4.303   4.548  16.721 -0.6652 -0.0921 -0.0245
  629MPD2    C2 9366   4.211   4.561  16.621  0.2588  0.5049  0.4878
  629MPD2    C3 9367   4.076   4.528  16.641  0.4677 -0.5090 -0.2161
  629MPD2    C4 9368   4.039   4.475  16.763 -0.7741  0.0299  0.6286
  629MPD2    C5 9369   4.133   4.454  16.854  0.1244 -0.3098  0.0811
  629MPD2     H 9370   4.249   4.587  16.523  0.5972  3.3969  1.3921
  629MPD2    H1 9371   3.934   4.460  16.785 -0.9646  0.9280  0.3145
  629MPD2    H2 9372   4.330   4.491  16.929 -0.3037  0.8731  0.3666
  629MPD2    H3 9373   4.097   4.429  16.953  0.5513 -1.2173  0.0060
  629MPD2     N 9374   3.982   4.532  16.538 -0.8114  0.2722  0.5057
  629MPD2    H5 9375   3.993   4.587  16.454  0.8410  1.1039  1.2814
  629MPD2    N1 9376   4.440   4.591  16.714 -0.4637 -0.0941  0.5733
  629MPD2    H7 9377   4.499   4.567  16.793  0.8717 -1.5779 -0.9152
  630TMC3    C1 9378   4.652   4.673  16.659  0.7204 -0.0997 -0.4208
  630TMC3    C2 9379   4.715   0.047  16.627  0.0144  0.7864 -0.1717
  630TMC3    C3 9380   0.079   0.093  16.709  0.4166  0.3025 -0.3489
  630TMC3    C4 9381   4.700   4.590  16.758  0.1098  0.1082  0.0322
  630TMC3    C5 9382   0.073   4.626  16.826 -0.0745 -0.3242  0.8589
  630TMC3    C6 9383   0.128   0.013  16.810 -0.0780 -0.2336  0.1059
  630TMC3     C 9384   4.510   4.655  16.609  0.2267  0.3638  0.2318
  630TMC3     O 9385   4.467   4.712  16.508 -0.4838 -0.1569 -0.5757
  630TMC3     H 9386   4.690   0.109  16.541 -0.0787  1.6198  0.4542
  630TMC3    H1 9387   4.662   4.489  16.754 -0.6518  0.4341 -0.8890
  630TMC3    H2 9388   0.206   0.047  16.877  0.4886  1.0782 -1.2514
  630TMC3    C7 9389   0.155   4.538  16.907 -0.2593  0.2601  0.3961
  630TMC3    C8 9390   0.155   0.203  16.667 -0.0902 -0.3447 -0.5227
  630TMC3    O1 9391   0.246   4.599  16.956 -0.3157 -0.2257 -0.4581
  630TMC3    O2 9392   0.230   0.256  16.747  0.1901 -0.2258 -0.6280
  631MPD2     C 9393   2.454   4.620  15.787 -0.1075  0.6773 -0.0777
  631MPD2    C1 9394   2.561   4.686  15.734  0.1293 -0.4704  0.0586
  631MPD2    C2 9395   2.659   4.608  15.676  0.4561  0.0199  0.4992
  631MPD2    C3 9396   2.652   4.474  15.683 -0.1420 -0.7144  0.9570
  631MPD2    C4 9397   2.550   4.409  15.745  0.3044  0.7711  0.5416
  631MPD2    C5 9398   2.449   4.488  15.796  0.1403 -0.3334  0.1057
  631MPD2     H 9399   2.728   4.663  15.612  0.1907  0.5584  0.6687
  631MPD2    H1 9400   2.536   4.302  15.742 -2.3646  1.1321  0.4093
  631MPD2    H2 9401   2.372   4.674  15.833 -0.2546 -0.4337  0.9850
  631MPD2    H3 9402   2.364   4.434  15.838 -0.3916  0.0874 -0.4411
  631MPD2     N 9403   2.755   4.403  15.611 -0.5224 -0.2778  0.4443
  631MPD2    H5 9404   2.814   4.454  15.546 -0.5217 -1.5296 -0.5308
  631MPD2    N1 9405   2.564   0.087  15.742  0.2560 -0.0521 -0.3896
  631MPD2    H7 9406   2.482   0.133  15.782  1.8383  0.8375  1.8270
  632TMC3    C1 9407   2.638   0.310  15.738  0.6923  0.0423  0.2315
  632TMC3    C2 9408   2.517   0.364  15.700  0.5271 -0.1761  0.1103
  632TMC3    C3 9409   2.501   0.495  15.700 -0.2221  0.2551  0.8338
  632TMC3    C4 9410   2.749   0.385  15.753  0.7220  0.3010 -0.6169
  632TMC3    C5 9411   2.743   0.516  15.720 -0.0733 -0.2575  0.2882
  632TMC3    C6 9412   2.622   0.577  15.688 -0.2097  0.1088 -0.4530
  632TMC3     C 9413   2.667   0.171  15.706  0.2622  0.5009  0.6570
  632TMC3     O 9414   2.776   0.144  15.660  0.3968 -0.3820  0.5944
  632TMC3     H 9415   2.426   0.307  15.719  0.0730  0.6520  0.4641
  632TMC3    H1 9416   2.844   0.336  15.773  0.4836  0.0418 -0.1167
  632TMC3    H2 9417   2.617   0.680  15.653 -2.4044 -0.1770 -0.9676
  632TMC3    C7 9418   2.853   0.557  15.630  0.1265  0.5055 -0.2368
  632TMC3    C8 9419   2.374   0.550  15.657  0.4450 -0.3285 -0.5900
  632TMC3    O1 9420   2.825   0.643  15.546  0.5671  0.6914 -0.1034
  632TMC3    O2 9421   2.287   0.472  15.626  0.5688 -0.2068 -0.3172
  633MPD2     C 9422   2.188   2.950  17.357  0.0374  0.5848 -0.8657
  633MPD2    C1 9423   2.215   2.860  17.261  0.4615  0.6039 -0.3085
  633MPD2    C2 9424   2.230   2.730  17.292 -0.7618 -0.3375 -0.3946
  633MPD2    C3 9425   2.204   2.678  17.420 -0.2751  1.0781 -0.6489
  633MPD2    C4 9426   2.184   2.771  17.521 -0.0688  0.5998 -0.2685
  633MPD2    C5 9427   2.170   2.904  17.490  0.3299  0.2871  0.0993
  633MPD2     H 9428   2.268   2.659  17.220 -0.3319 -2.1507  1.6169
  633MPD2    H1 9429   2.180   2.742  17.625  4.6980 -3.9053 -1.3633
  633MPD2    H2 9430   2.187   3.058  17.343 -0.9799  0.9879  2.2579
  633MPD2    H3 9431   2.153   2.969  17.575  0.6482  1.2378 -0.5669
  633MPD2     N 9432   2.241   2.550  17.459  0.1108 -0.6199  0.2917
  633MPD2    H5 9433   2.261   2.538  17.557  0.7209  0.0565  0.2575
  633MPD2    N1 9434   2.252   2.898  17.129  0.9676  0.4560 -0.1142
  633MPD2    H7 9435   2.283   2.824  17.067 -4.0358 -0.6949 -1.2431
  634TMC3    C1 9436   2.307   3.054  16.950  0.0116  0.3680  0.3326
  634TMC3    C2 9437   2.377   2.962  16.879  0.6067  0.4314 -0.4945
  634TMC3    C3 9438   2.411   2.986  16.744 -0.1855 -0.2182 -0.1016
  634TMC3    C4 9439   2.263   3.174  16.892 -0.1791 -0.1917 -0.1114
  634TMC3    C5 9440   2.300   3.202  16.759  0.2562 -0.0670 -0.1490
  634TMC3    C6 9441   2.374   3.108  16.684  0.2237  0.4320 -0.3681
  634TMC3     C 9442   2.243   3.026  17.080 -0.1036  0.6320 -1.1232
  634TMC3     O 9443   2.199   3.129  17.129 -0.0907 -0.1247  0.5752
  634TMC3     H 9444   2.407   2.864  16.915  0.6890  0.0412 -1.6142
  634TMC3    H1 9445   2.205   3.242  16.954 -0.6016 -0.4011 -0.2724
  634TMC3    H2 9446   2.424   3.133  16.591 -0.2992 -1.1532 -1.0806
  634TMC3    C7 9447   2.229   3.303  16.684  0.4797  0.5943 -0.5931
  634TMC3    C8 9448   2.480   2.882  16.669  0.2238  0.6650 -0.3647
  634TMC3    O1 9449   2.246   3.305  16.562  0.8535 -0.0269  0.3796
  634TMC3    O2 9450   2.531   2.798  16.740 -0.3478 -0.5182  0.1101
  635TMC3    C1 9451   2.083   3.176   0.643  0.2213 -0.1338 -0.4639
  635TMC3    C2 9452   2.126   3.048   0.620 -0.0605  0.4734 -0.0010
  635TMC3    C3 9453   2.062   2.948   0.690  0.5493  0.5806 -0.7861
  635TMC3    C4 9454   1.985   3.200   0.736  0.1967  0.4974 -0.1053
  635TMC3    C5 9455   1.917   3.092   0.791  0.0794  0.0675 -0.1539
  635TMC3    C6 9456   1.956   2.965   0.776  0.0455 -0.0404 -0.7640
  635TMC3     C 9457   2.156   3.287   0.589  0.6118  0.0060  0.0259
  635TMC3     O 9458   2.089   3.391   0.591 -0.4984  0.2804 -0.5716
  635TMC3     H 9459   2.199   3.026   0.543 -0.6684  0.3655 -0.5502
  635TMC3    H1 9460   1.938   3.296   0.753 -0.2978  0.4040 -0.9427
  635TMC3    H2 9461   1.903   2.876   0.806  0.6436 -0.0936  0.1650
  635TMC3    C7 9462   1.821   3.116   0.904 -0.4367  0.5409  0.6317
  635TMC3    C8 9463   2.119   2.812   0.687  0.1224 -0.2796 -0.0035
  635TMC3    O1 9464   1.771   3.226   0.916 -0.0438  0.0689 -0.6516
  635TMC3    O2 9465   2.050   2.720   0.732  0.1474 -0.1959  0.4458
  636MPD2     C 9466   3.774   2.488  16.543  0.6250  0.2901 -0.3911
  636MPD2    C1 9467   3.856   2.567  16.622  0.3050  0.1163  0.1806
  636MPD2    C2 9468   3.968   2.500  16.665  0.4172 -0.5648  0.6630
  636MPD2    C3 9469   3.990   2.364  16.648  0.1410  0.5257  0.4322
  636MPD2    C4 9470   3.907   2.294  16.571 -0.7709  0.4547  0.2078
  636MPD2    C5 9471   3.798   2.358  16.518  0.7248 -0.3259 -0.2281
  636MPD2     H 9472   4.034   2.555  16.731 -1.0895 -1.7806  3.1931
  636MPD2    H1 9473   3.912   2.194  16.531 -1.3157  0.4127  0.2433
  636MPD2    H2 9474   3.684   2.528  16.498 -0.7468 -1.1869  1.0427
  636MPD2    H3 9475   3.718   2.309  16.465 -0.3703 -0.1809  1.2749
  636MPD2     N 9476   4.089   2.302  16.727 -0.4292  0.3686 -0.0142
  636MPD2    H5 9477   4.123   2.362  16.802  0.2442 -2.3641  1.8849
  636MPD2    N1 9478   3.847   2.711  16.648  0.9403 -0.1516  0.0618
  636MPD2    H7 9479   3.917   2.751  16.709  1.0860 -0.5893  0.1833
  637TMC3    C1 9480   4.219   2.154  16.847  0.0971 -0.6129 -0.1188
  637TMC3    C2 9481   4.196   2.234  16.948 -0.0830 -0.2297  0.4682
  637TMC3    C3 9482   4.306   2.304  17.005  0.4432 -0.5235  0.6537
  637TMC3    C4 9483   4.338   2.145  16.787 -0.5785  1.1158 -0.5213
  637TMC3    C5 9484   4.446   2.216  16.848  0.0954  0.6881 -0.1999
  637TMC3    C6 9485   4.432   2.277  16.972 -0.1982  0.0611  0.3626
  637TMC3     C 9486   4.122   2.171  16.742  0.2248  0.0402 -0.7649
  637TMC3     O 9487   4.099   2.084  16.659  0.1818  0.1022  0.0710
  637TMC3     H 9488   4.097   2.250  16.988  0.1286  3.1716 -0.3651
  637TMC3    H1 9489   4.342   2.086  16.696 -1.5560  1.7663 -0.9790
  637TMC3    H2 9490   4.514   2.342  17.002 -0.8291  0.5968  0.9186
  637TMC3    C7 9491   4.514   2.301  16.749  0.4637  0.6854  0.1550
  637TMC3    C8 9492   4.265   2.443  17.006 -0.3091  0.0999  0.4342
  637TMC3    O1 9493   4.545   2.416  16.776 -0.0288 -0.6232  0.0098
  637TMC3    O2 9494   4.166   2.465  16.940  0.0760 -0.6674 -0.0241
  638MPD2     C 9495   3.444   1.956  15.240  0.1453 -0.5208  0.1034
  638MPD2    C1 9496   3.439   1.876  15.130 -0.3403 -0.0954 -0.3224
  638MPD2    C2 9497   3.425   1.741  15.146 -0.1562 -0.5166  0.2195
  638MPD2    C3 9498   3.413   1.686  15.272 -0.2821  0.0834 -0.1266
  638MPD2    C4 9499   3.425   1.764  15.384  0.3229 -0.1078 -0.1151
  638MPD2    C5 9500   3.448   1.897  15.366 -0.0890 -0.2055  0.4679
  638MPD2     H 9501   3.426   1.669  15.065  0.0380 -0.1469 -0.1073
  638MPD2    H1 9502   3.428   1.729  15.486  1.7406 -0.8888 -0.4198
  638MPD2    H2 9503   3.457   2.062  15.222  1.5063 -0.6901  0.0692
  638MPD2    H3 9504   3.476   1.953  15.455  1.4616 -0.2414  0.0159
  638MPD2     N 9505   3.402   1.544  15.278  0.4675  0.3512 -0.6556
  638MPD2    H5 9506   3.387   1.491  15.193 -0.9289  2.0398 -1.4684
  638MPD2    N1 9507   3.449   1.937  15.001 -0.0895 -0.2775 -0.0681
  638MPD2    H7 9508   3.484   2.032  14.999 -2.1259  0.4420 -2.2337
  639TMC3    C1 9509   3.374   1.328  15.361  0.5628 -0.6134 -0.5954
  639TMC3    C2 9510   3.320   1.299  15.243 -0.0851 -0.0577 -0.2112
  639TMC3    C3 9511   3.366   1.191  15.170  0.0903 -0.2563  0.0910
  639TMC3    C4 9512   3.471   1.255  15.411 -0.1145  0.4775 -0.0948
  639TMC3    C5 9513   3.513   1.145  15.340 -0.9059 -0.2076  0.3827
  639TMC3    C6 9514   3.462   1.110  15.220 -0.1907  0.6029 -0.3122
  639TMC3     C 9515   3.388   1.474  15.395  0.0512  0.2280 -0.2150
  639TMC3     O 9516   3.389   1.501  15.512 -0.1297  0.4648  0.1274
  639TMC3     H 9517   3.250   1.364  15.192  0.5601  0.5608 -0.3008
  639TMC3    H1 9518   3.518   1.284  15.504 -0.6078 -1.6659  0.8106
  639TMC3    H2 9519   3.496   1.020  15.171 -0.3858  0.4780 -0.2185
  639TMC3    C7 9520   3.611   1.049  15.394  0.4121 -0.5845  0.6013
  639TMC3    C8 9521   3.317   1.164  15.043  0.6363 -0.2049  0.4160
  639TMC3    O1 9522   3.604   1.010  15.513  0.5537 -0.5132 -0.9094
  639TMC3    O2 9523   3.390   1.149  14.946 -0.1119 -0.4027 -0.0721
  640MPD2     C 9524   4.308   1.098  10.373 -0.3359  0.3310  0.3552
  640MPD2    C1 9525   4.274   1.127  10.242  0.6645 -0.0189 -0.2285
  640MPD2    C2 9526   4.239   1.263  10.224  0.6963  0.2629 -0.6705
  640MPD2    C3 9527   4.234   1.355  10.323  0.2523 -0.6302 -0.2095
  640MPD2    C4 9528   4.274   1.326  10.449 -0.6400 -0.2441 -1.0239
  640MPD2    C5 9529   4.313   1.195  10.476  0.3150 -0.3590 -0.4049
  640MPD2     H 9530   4.216   1.305  10.127  1.1486  4.1528  0.9092
  640MPD2    H1 9531   4.273   1.391  10.536 -0.9986 -0.5415 -0.8057
  640MPD2    H2 9532   4.326   0.995  10.401 -0.2838  0.2557  0.0446
  640MPD2    H3 9533   4.345   1.165  10.575 -1.2516  2.6051  1.0116
  640MPD2     N 9534   4.193   1.495  10.307  0.5422 -0.3468  0.3353
  640MPD2    H5 9535   4.203   1.549  10.393  2.0761 -0.4553  0.2302
  640MPD2    N1 9536   4.272   1.024  10.139  0.9357  0.1561  0.2810
  640MPD2    H7 9537   4.305   0.933  10.171 -1.9579 -0.8778  0.3013
  641TMC3    C1 9538   4.216   0.932   9.922  0.2404 -0.6603  0.1503
  641TMC3    C2 9539   4.309   0.834   9.925 -0.3722 -0.4379  0.2413
  641TMC3    C3 9540   4.323   0.764   9.813  0.7373 -1.0923 -0.0028
  641TMC3    C4 9541   4.127   0.946   9.821  0.0281  0.4999  0.0648
  641TMC3    C5 9542   4.147   0.869   9.709 -0.3482  0.2663  0.2319
  641TMC3    C6 9543   4.243   0.771   9.706  0.0388  1.0123 -0.9373
  641TMC3     C 9544   4.210   1.043  10.016 -0.0498  0.6212 -0.1808
  641TMC3     O 9545   4.161   1.149   9.969 -0.4435  0.5453  0.6047
  641TMC3     H 9546   4.384   0.832  10.004 -1.9962 -0.6480  1.7930
  641TMC3    H1 9547   4.046   1.018   9.824 -0.2063  0.3402 -2.1341
  641TMC3    H2 9548   4.264   0.711   9.618  0.9461  0.1620 -0.1461
  641TMC3    C7 9549   4.036   0.845   9.614 -0.2467 -0.2269 -1.1749
  641TMC3    C8 9550   4.410   0.647   9.820 -0.5080  0.1559 -0.0165
  641TMC3    O1 9551   4.047   0.736   9.562 -0.3048 -0.2418 -0.3749
  641TMC3    O2 9552   4.434   0.601   9.927  0.1359  0.1732  0.3522
  642TMC3    C1 9553   0.488   1.380  12.072 -0.7732  0.2320  0.0694
  642TMC3    C2 9554   0.626   1.386  12.063 -0.3046  0.0661  0.1751
  642TMC3    C3 9555   0.689   1.295  11.986 -0.1921 -0.4693  0.3295
  642TMC3    C4 9556   0.415   1.279  12.015 -0.5876  0.0025 -0.1340
  642TMC3    C5 9557   0.489   1.186  11.945  0.1194 -0.7449 -0.0749
  642TMC3    C6 9558   0.621   1.200  11.922  0.5697  0.3315 -0.1156
  642TMC3     C 9559   0.427   1.483  12.156  0.4903  0.5666  1.0576
  642TMC3     O 9560   0.479   1.591  12.153 -0.0771  0.3706 -0.2449
  642TMC3     H 9561   0.675   1.464  12.120  1.4773 -0.4272 -0.6954
  642TMC3    H1 9562   0.308   1.272  12.029 -0.6354  2.4218  0.5999
  642TMC3    H2 9563   0.679   1.131  11.860  1.6716  2.2046 -1.1685
  642TMC3    C7 9564   0.416   1.065  11.902 -0.0615 -0.3090  0.3164
  642TMC3    C8 9565   0.836   1.295  11.967  0.0098  0.0406 -0.7979
  642TMC3    O1 9566   0.467   0.993  11.820  0.1155  0.3266 -0.3390
  642TMC3    O2 9567   0.886   1.233  11.872 -0.5314  0.2133 -0.1963
  643TMC3    C1 9568   4.351   0.055   0.083  0.0171  0.3681 -0.1514
  643TMC3    C2 9569   4.297   0.042  17.707  0.5707  0.3227 -0.0176
  643TMC3    C3 9570   4.330   0.143  17.618 -1.0159  0.0851 -0.2189
  643TMC3    C4 9571   4.428   0.158   0.122  0.2637  0.9867 -0.0421
  643TMC3    C5 9572   4.468   0.247   0.026  0.8540 -0.2392 -0.3488
  643TMC3    C6 9573   4.424   0.235  17.649  0.3600 -0.0612  0.3973
  643TMC3     C 9574   4.324   4.684   0.181 -0.0239 -0.1405 -0.1392
  643TMC3     O 9575   4.239   4.599   0.157 -1.0045 -0.3716 -0.6825
  643TMC3     H 9576   4.203   4.727  17.694  0.7777  0.1960 -1.0190
  643TMC3    H1 9577   4.446   0.178   0.227  0.9680  1.5226 -0.2560
  643TMC3    H2 9578   4.463   0.312  17.583 -0.0247 -1.2281 -1.1948
  643TMC3    C7 9579   4.449   0.381   0.070 -0.1142 -0.4705 -0.5875
  643TMC3    C8 9580   4.224   0.201  17.542  0.8168 -0.3745 -0.2205
  643TMC3    O1 9581   4.349   0.436   0.025  0.1028 -0.0568 -0.4459
  643TMC3    O2 9582   4.133   0.120  17.514  0.2025 -0.1116 -0.1409
  644MPD2     C 9583   4.555   1.075   9.762  0.2972 -0.1788  0.8105
  644MPD2    C1 9584   4.680   1.108   9.798  0.9529  0.8349  0.7001
  644MPD2    C2 9585   4.703   1.224   9.871  0.4881 -0.1037 -0.4605
  644MPD2    C3 9586   4.592   1.304   9.906  0.1753  0.4385 -0.1982
  644MPD2    C4 9587   4.460   1.264   9.879 -1.0167  0.0156 -0.2512
  644MPD2    C5 9588   4.442   1.150   9.806 -0.6800 -0.2536 -0.3244
  644MPD2     H 9589   0.065   1.252   9.901 -0.6006 -0.3911  3.4587
  644MPD2    H1 9590   4.370   1.317   9.907 -0.9751 -0.2793  0.4486
  644MPD2    H2 9591   4.533   0.989   9.699  0.3974  2.6696 -3.1216
  644MPD2    H3 9592   4.340   1.125   9.780 -1.2510  0.6992  1.0006
  644MPD2     N 9593   4.623   1.437   9.962  0.1783 -0.3573  0.0643
  644MPD2    H5 9594   4.722   1.444   9.984  0.6018 -0.8805 -1.7160
  644MPD2    N1 9595   0.048   1.025   9.759  0.4155 -0.2730  0.2288
  644MPD2    H7 9596   0.024   0.938   9.714  0.1761 -0.6018  0.9928
  645TMC3    C1 9597   4.592   1.646  10.059 -0.0213  0.6690  0.3808
  645TMC3    C2 9598   4.713   1.700  10.029  0.0940  0.0589 -0.1300
  645TMC3    C3 9599   0.019   1.809  10.103 -0.5136 -0.4404  0.6113
  645TMC3    C4 9600   4.519   1.691  10.164 -0.2120 -0.2794  0.2655
  645TMC3    C5 9601   4.569   1.803  10.241 -0.2351 -1.0385 -0.6818
  645TMC3    C6 9602   4.690   1.865  10.211 -0.3854  0.1371  0.3752
  645TMC3     C 9603   4.532   1.534   9.988 -0.8069  0.8540 -0.0084
  645TMC3     O 9604   4.408   1.544   9.986  0.3099 -0.3291 -0.0276
  645TMC3     H 9605   0.027   1.667   9.940 -2.0216  0.5895 -1.5515
  645TMC3    H1 9606   4.437   1.631  10.203 -0.2105  0.3616  1.2729
  645TMC3    H2 9607   4.726   1.950  10.268  1.4479 -0.7735  0.5562
  645TMC3    C7 9608   4.500   1.834  10.365  0.1732 -0.6347  0.0363
  645TMC3    C8 9609   0.117   1.889  10.041  0.1920 -0.5210  0.0858
  645TMC3    O1 9610   4.424   1.746  10.404 -0.8315  0.0047 -0.1468
  645TMC3    O2 9611   0.139   1.869   9.924  0.3182 -0.2890  0.5436
  646MPD2     C 9612   3.755   0.490  14.608 -0.1339  0.0756  1.5466
  646MPD2    C1 9613   3.640   0.462  14.671 -0.5006 -0.6915 -0.0526
  646MPD2    C2 9614   3.520   0.508  14.615 -0.7142  0.0326 -0.6906
  646MPD2    C3 9615   3.516   0.587  14.497  0.0924  0.4205  0.5858
  646MPD2    C4 9616   3.631   0.620  14.440 -0.7986 -0.0080  0.3519
  646MPD2    C5 9617   3.751   0.574  14.494  0.1454 -0.0606 -0.5430
  646MPD2     H 9618   3.426   0.473  14.656  0.9968 -1.2186  2.1213
  646MPD2    H1 9619   3.641   0.691  14.358 -0.3085  0.2961  0.6758
  646MPD2    H2 9620   3.847   0.449  14.648  0.7878 -0.4301 -1.0715
  646MPD2    H3 9621   3.845   0.613  14.457  0.1901  0.5555  0.2144
  646MPD2     N 9622   3.387   0.620  14.456 -0.0354 -0.5244 -0.7070
  646MPD2    H5 9623   3.304   0.615  14.515  1.2777  0.4611  1.2473
  646MPD2    N1 9624   3.653   0.394  14.792 -0.5426  0.1054  0.1538
  646MPD2    H7 9625   3.747   0.371  14.821 -0.6892 -1.1625 -0.3564
  647TMC3    C1 9626   3.601   0.319  15.014 -0.0322 -0.0871 -0.4113
  647TMC3    C2 9627   3.519   0.324  15.126  0.2831  0.3139 -0.2148
  647TMC3    C3 9628   3.555   0.286  15.252 -0.8489 -0.0144 -0.2296
  647TMC3    C4 9629   3.726   0.262  15.032  0.1171  0.1166  0.3965
  647TMC3    C5 9630   3.756   0.229  15.162 -0.9083  0.3653  0.0189
  647TMC3    C6 9631   3.685   0.255  15.274  0.2783  0.0839 -0.2637
  647TMC3     C 9632   3.555   0.379  14.889 -0.2725  0.4488  0.1144
  647TMC3     O 9633   3.437   0.418  14.885 -0.3400 -0.3159 -0.6336
  647TMC3     H 9634   3.421   0.366  15.108 -0.2688 -0.6260  0.5982
  647TMC3    H1 9635   3.780   0.225  14.946 -0.2367  0.5229 -0.0053
  647TMC3    H2 9636   3.725   0.227  15.371 -2.0356 -1.8156  0.1640
  647TMC3    C7 9637   3.837   0.106  15.188 -0.0892 -0.4756  0.5089
  647TMC3    C8 9638   3.491   0.166  15.298 -0.4499  0.3140  0.5031
  647TMC3    O1 9639   3.898   0.104  15.293  0.0058 -0.0238 -0.0902
  647TMC3    O2 9640   3.525   0.128  15.411 -0.2309  0.0580 -0.0082
  648TMC3    C1 9641   2.918   2.797  16.265 -0.1952  0.0260 -0.0996
  648TMC3    C2 9642   2.934   2.680  16.193  0.4307 -0.3311 -1.2551
  648TMC3    C3 9643   2.907   2.673  16.057  0.8609  0.7839 -0.0507
  648TMC3    C4 9644   2.866   2.901  16.191  0.0374 -0.3979 -0.1461
  648TMC3    C5 9645   2.840   2.893  16.057 -0.0905  0.4347 -0.0740
  648TMC3    C6 9646   2.866   2.782  15.984 -0.0138  0.0011 -0.9126
  648TMC3     C 9647   2.916   2.802  16.409  0.5163  0.6959  0.5234
  648TMC3     O 9648   2.864   2.901  16.459 -0.5067 -0.0854  0.3597
  648TMC3     H 9649   2.945   2.587  16.247  0.1574 -0.5540 -1.5809
  648TMC3    H1 9650   2.851   2.999  16.235  0.1612  0.1996 -1.4245
  648TMC3    H2 9651   2.844   2.781  15.878 -1.5557 -0.2102 -0.5885
  648TMC3    C7 9652   2.866   3.020  15.988  0.6392  0.4286  0.2591
  648TMC3    C8 9653   2.898   2.544  15.993  0.4579  0.2767 -0.1920
  648TMC3    O1 9654   2.943   3.028  15.897 -0.3064 -0.4408 -0.1721
  648TMC3    O2 9655   2.829   2.534  15.894 -0.7695  0.1806 -0.6963
  649TMC3    C1 9656   2.293   3.579  13.012  0.2472  0.0352  0.7038
  649TMC3    C2 9657   2.387   3.483  13.007  0.6942  0.1714  0.2564
  649TMC3    C3 9658   2.364   3.359  13.062  0.1354  0.1778  0.0081
  649TMC3    C4 9659   2.173   3.549  13.072 -0.2735  0.0532  0.6581
  649TMC3    C5 9660   2.146   3.426  13.120 -0.7148  0.3316 -0.0820
  649TMC3    C6 9661   2.249   3.335  13.138  0.2858  0.4253  0.3436
  649TMC3     C 9662   2.297   3.698  12.931 -0.0961 -0.6237 -0.1152
  649TMC3     O 9663   2.225   3.790  12.968  0.0927 -0.2680 -0.2088
  649TMC3     H 9664   2.486   3.501  12.966  0.9023  2.1288  1.6118
  649TMC3    H1 9665   2.095   3.623  13.067 -1.2320 -1.0527 -0.6600
  649TMC3    H2 9666   2.234   3.239  13.185  1.0338  1.6599  3.0867
  649TMC3    C7 9667   2.006   3.391  13.161  0.6643  0.3015  0.3419
  649TMC3    C8 9668   2.481   3.269  13.069  0.2311 -0.4178  0.2871
  649TMC3    O1 9669   2.010   3.320  13.258  0.2781  0.0348  0.0541
  649TMC3    O2 9670   2.560   3.277  12.977 -0.1775 -0.3870 -0.4219
  650TMC3    C1 9671   4.500   0.367  12.804  0.3516 -0.5681  0.0082
  650TMC3    C2 9672   4.490   0.503  12.821  0.0987 -0.1173  0.0935
  650TMC3    C3 9673   4.483   0.585  12.717  0.2631 -0.3689  0.2274
  650TMC3    C4 9674   4.479   0.307  12.681 -0.0978 -0.1271 -1.0344
  650TMC3    C5 9675   4.457   0.393  12.577  0.4179  0.0714 -0.7949
  650TMC3    C6 9676   4.461   0.530  12.592 -0.8639  0.4821  0.4203
  650TMC3     C 9677   4.498   0.289  12.921  1.2592 -0.1631 -0.1290
  650TMC3     O 9678   4.540   0.341  13.025 -0.1996  0.3048 -0.0552
  650TMC3     H 9679   4.486   0.544  12.921 -0.8015 -0.1181  0.0544
  650TMC3    H1 9680   4.471   0.201  12.664  1.7601 -0.1862 -1.5397
  650TMC3    H2 9681   4.449   0.598  12.509  0.2717 -0.1989 -0.3037
  650TMC3    C7 9682   4.409   0.328  12.452 -0.5695  0.2218 -0.1357
  650TMC3    C8 9683   4.448   0.724  12.732 -0.3790  0.0041  0.4857
  650TMC3    O1 9684   4.379   0.212  12.452 -0.2935  0.3717  0.8472
  650TMC3    O2 9685   4.506   0.801  12.655 -0.0414  0.3704 -0.0219
  651MPD2     C 9686   3.712   2.612  11.423  0.4273  0.3827  0.0530
  651MPD2    C1 9687   3.659   2.661  11.305 -0.6719 -0.4481 -0.4539
  651MPD2    C2 9688   3.750   2.705  11.207  0.0435  0.5005  0.5261
  651MPD2    C3 9689   3.885   2.708  11.225 -0.0932  0.3802 -0.3020
  651MPD2    C4 9690   3.936   2.656  11.343 -0.4353 -0.0175  0.0789
  651MPD2    C5 9691   3.849   2.604  11.436  0.1215  0.3004  0.7897
  651MPD2     H 9692   3.709   2.739  11.113  1.3929  1.2142  0.1901
  651MPD2    H1 9693   4.040   2.634  11.363 -1.2311 -2.6216  1.3911
  651MPD2    H2 9694   3.647   2.602  11.509 -3.7321  0.3106 -3.0688
  651MPD2    H3 9695   3.897   2.561  11.523 -0.2325  0.7718  1.2197
  651MPD2     N 9696   3.965   2.747  11.119 -0.7531  0.6381  0.4161
  651MPD2    H5 9697   3.914   2.767  11.033  0.3659  0.0870 -0.3763
  651MPD2    N1 9698   3.521   2.674  11.271  0.1087 -0.2210  0.2584
  651MPD2    H7 9699   3.495   2.723  11.186  1.3786  1.4251  0.8233
  652TMC3    C1 9700   4.301   2.869  10.834 -0.0792 -0.4918  0.3384
  652TMC3    C2 9701   4.271   2.811  10.951 -0.3911  0.2576  0.3327
  652TMC3    C3 9702   4.140   2.837  10.997  0.4563 -0.3360  0.1121
  652TMC3    C4 9703   4.218   2.956  10.769 -0.3454  0.1960 -0.0535
  652TMC3    C5 9704   4.098   2.985  10.831  0.5788 -0.4063 -0.2043
  652TMC3    C6 9705   4.050   2.924  10.944 -0.8533 -0.2288 -0.5490
  652TMC3     C 9706   4.440   2.870  10.776  0.8435 -0.4553 -0.0321
  652TMC3     O 9707   4.467   2.892  10.658  0.3058 -0.0427  0.8220
  652TMC3     H 9708   4.327   2.738  11.009 -0.4869  0.1141  0.2464
  652TMC3    H1 9709   4.253   2.998  10.675  0.6456 -0.4610  0.0233
  652TMC3    H2 9710   3.962   2.961  10.994 -1.3680 -0.8729 -0.9692
  652TMC3    C7 9711   4.021   3.108  10.806  0.7182 -0.6298  0.3870
  652TMC3    C8 9712   4.102   2.781  11.126 -0.2011 -0.1535 -0.0768
  652TMC3    O1 9713   3.900   3.101  10.839  0.3878  0.2429 -0.0713
  652TMC3    O2 9714   4.188   2.763  11.214  0.5201  0.2082 -0.3861
  653MPD2     C 9715   1.896   2.199  17.720 -0.3495 -1.5102  0.2911
  653MPD2    C1 9716   1.938   2.325  17.707 -0.8253  0.1104  0.2961
  653MPD2    C2 9717   1.939   2.388  17.588 -0.4820  0.1567 -0.2235
  653MPD2    C3 9718   1.890   2.321  17.475  0.1805  0.2862 -0.0674
  653MPD2    C4 9719   1.837   2.193  17.490  0.5458  0.4268  0.6123
  653MPD2    C5 9720   1.851   2.131  17.607 -0.1758 -0.2979  0.2481
  653MPD2     H 9721   1.959   2.494  17.580  0.9390 -0.3125 -2.8818
  653MPD2    H1 9722   1.791   2.142  17.406  0.8072 -0.4155  0.9877
  653MPD2    H2 9723   1.898   2.138   0.060  0.1398  0.1670  1.4214
  653MPD2    H3 9724   1.819   2.028  17.619  1.2472 -1.0672 -2.6270
  653MPD2     N 9725   1.910   2.397  17.351 -0.0448  0.1732 -0.2066
  653MPD2    H5 9726   1.900   2.498  17.352  2.1173  0.4073 -2.0069
  653MPD2    N1 9727   1.981   2.402   0.067 -0.2912 -0.4977  0.0966
  653MPD2    H7 9728   2.010   2.495   0.037  0.6793 -0.4314  1.2287
  654TMC3    C1 9729   1.876   2.413  17.113 -0.2504  0.0766 -0.4552
  654TMC3    C2 9730   1.780   2.511  17.110  0.0947  0.2198 -0.0414
  654TMC3    C3 9731   1.687   2.516  17.006  0.2333 -0.5912 -0.4858
  654TMC3    C4 9732   1.880   2.323  17.014 -0.6103 -0.7425  0.2209
  654TMC3    C5 9733   1.777   2.331  16.923 -0.3851  1.0132  0.3536
  654TMC3    C6 9734   1.676   2.424  16.911  0.2857 -0.0401  0.2196
  654TMC3     C 9735   1.892   2.331  17.233 -0.4457 -0.6290 -1.5750
  654TMC3     O 9736   1.901   2.212  17.214 -0.0985  0.4039 -0.4299
  654TMC3     H 9737   1.791   2.599  17.172 -1.7733  0.2078  0.3179
  654TMC3    H1 9738   1.958   2.250  16.992 -1.6687 -2.3336  1.6820
  654TMC3    H2 9739   1.604   2.428  16.830 -0.0895  2.4105  0.6736
  654TMC3    C7 9740   1.757   2.208  16.856  0.4172 -0.2179 -0.0106
  654TMC3    C8 9741   1.628   2.645  16.969 -0.5246  0.0365 -0.7712
  654TMC3    O1 9742   1.694   2.215  16.750 -0.5726  0.5865  0.0110
  654TMC3    O2 9743   1.598   2.664  16.849  0.0801 -0.0951 -0.7774
  655MPD2     C 9744   3.332   2.752  16.072 -0.0745 -0.3592  0.7255
  655MPD2    C1 9745   3.253   2.817  15.985 -0.1967  0.9092  0.0911
  655MPD2    C2 9746   3.224   2.759  15.858 -0.6333  0.0562 -0.4801
  655MPD2    C3 9747   3.271   2.635  15.822  0.0542 -0.2263 -0.5214
  655MPD2    C4 9748   3.359   2.584  15.908  0.6221 -0.1537 -0.6308
  655MPD2    C5 9749   3.386   2.631  16.031 -0.4650 -0.0095 -0.0120
  655MPD2     H 9750   3.153   2.810  15.793  0.2277 -0.6687 -1.9869
  655MPD2    H1 9751   3.408   2.491  15.879 -0.3425 -0.3541 -1.6363
  655MPD2    H2 9752   3.351   2.789  16.173 -1.1333 -0.9557  1.1454
  655MPD2    H3 9753   3.444   2.571  16.100 -0.2964  2.5107  2.0429
  655MPD2     N 9754   3.261   2.578  15.689 -0.1195 -0.0646 -0.2645
  655MPD2    H5 9755   3.326   2.505  15.662 -0.9568  0.0113 -2.4998
  655MPD2    N1 9756   3.196   2.944  16.013  0.1811 -0.0848  0.4822
  655MPD2    H7 9757   3.142   2.997  15.945 -1.1317 -4.3096 -1.7846
  656TMC3    C1 9758   3.160   3.148  16.119  0.1314 -0.3566 -0.2446
  656TMC3    C2 9759   3.076   3.194  16.215 -0.3072  0.5610  0.0747
  656TMC3    C3 9760   3.015   3.316  16.199  0.0460  0.3351 -0.1842
  656TMC3    C4 9761   3.169   3.209  15.996 -0.1486  0.0853  0.2826
  656TMC3    C5 9762   3.102   3.328  15.977  0.3817  0.2122  0.6436
  656TMC3    C6 9763   3.031   3.386  16.079 -0.3696  0.2778  0.3752
  656TMC3     C 9764   3.207   3.010  16.133 -0.3193  0.4993  0.5734
  656TMC3     O 9765   3.228   2.971  16.250 -0.3224  0.1331 -0.0442
  656TMC3     H 9766   3.049   3.140  16.305  1.2926 -1.2622 -0.5300
  656TMC3    H1 9767   3.233   3.173  15.915  2.8104  1.7015  1.9032
  656TMC3    H2 9768   2.970   3.472  16.052 -0.6014  0.3171  1.0165
  656TMC3    C7 9769   3.094   3.390  15.840 -0.4413  0.3380  0.3894
  656TMC3    C8 9770   2.886   3.325  16.264 -0.0237  0.4181  0.4564
  656TMC3    O1 9771   3.153   3.332  15.749 -0.2641 -0.5486  0.1198
  656TMC3    O2 9772   2.849   3.224  16.319  0.1414  0.4274 -0.0318
  657TMC3    C1 9773   2.283   2.139  15.055  0.5020  0.0369 -0.5337
  657TMC3    C2 9774   2.302   2.145  15.190 -0.0695 -0.4944  0.1426
  657TMC3    C3 9775   2.228   2.236  15.269  0.8766 -0.4188  0.0885
  657TMC3    C4 9776   2.192   2.220  14.993 -0.5778 -0.1015 -0.2420
  657TMC3    C5 9777   2.123   2.311  15.076 -0.6989  0.3110 -0.3103
  657TMC3    C6 9778   2.132   2.320  15.214 -1.9688 -0.4956 -0.2685
  657TMC3     C 9779   2.334   2.031  14.971 -0.2154 -0.4086 -0.4620
  657TMC3     O 9780   2.267   2.005  14.872  0.0268 -0.1029 -0.0665
  657TMC3     H 9781   2.368   2.074  15.239  0.8664  0.5659  0.4284
  657TMC3    H1 9782   2.173   2.213  14.887 -2.2373  0.2411  0.0367
  657TMC3    H2 9783   2.075   2.392  15.271 -0.0622 -0.9879  2.2334
  657TMC3    C7 9784   2.063   2.425  15.016  0.5097 -0.6059  0.8998
  657TMC3    C8 9785   2.273   2.260  15.401  0.4718  0.2565  0.2743
  657TMC3    O1 9786   2.069   2.525  15.081 -0.7230 -0.0910  0.3034
  657TMC3    O2 9787   2.247   2.371  15.444 -0.3449 -0.1217 -0.2182
  658MPD2     C 9788   3.756   2.317  15.394  0.4532  0.1730 -0.2551
  658MPD2    C1 9789   3.700   2.404  15.303 -0.2580 -0.1511  0.1863
  658MPD2    C2 9790   3.786   2.456  15.209  0.5552  0.3302  0.1367
  658MPD2    C3 9791   3.912   2.409  15.192 -0.1833  0.3416  0.4225
  658MPD2    C4 9792   3.962   2.313  15.270 -0.6062 -0.2474  0.6033
  658MPD2    C5 9793   3.878   2.265  15.370 -0.2363  0.5242 -0.5408
  658MPD2     H 9794   3.756   2.540  15.148  0.2693 -0.1811 -0.4310
  658MPD2    H1 9795   4.053   2.257  15.253 -1.2006 -0.9541 -0.2558
  658MPD2    H2 9796   3.690   2.276  15.469 -2.1207 -0.6059 -2.9486
  658MPD2    H3 9797   3.922   2.182  15.425 -2.3097  0.3337  0.8444
  658MPD2     N 9798   3.980   2.463  15.081 -0.1961  0.1655  0.6435
  658MPD2    H5 9799   3.927   2.523  15.018 -0.3818  0.8215  1.4284
  658MPD2    N1 9800   3.564   2.445  15.320  0.7662 -0.2115 -0.5167
  658MPD2    H7 9801   3.508   2.402  15.392  1.9738  1.8149  1.6373
  659TMC3    C1 9802   3.366   2.558  15.279  0.2328  0.0641  0.5681
  659TMC3    C2 9803   3.343   2.573  15.414 -0.6186 -0.2144  0.7827
  659TMC3    C3 9804   3.215   2.609  15.455  0.3077  0.6146  0.3066
  659TMC3    C4 9805   3.264   2.567  15.190 -0.1393 -0.2343 -0.2980
  659TMC3    C5 9806   3.145   2.624  15.236  0.4476 -0.5475 -0.0188
  659TMC3    C6 9807   3.125   2.654  15.362 -0.4861 -0.8583  1.0285
  659TMC3     C 9808   3.501   2.535  15.230  0.0041 -0.4910 -0.1266
  659TMC3     O 9809   3.534   2.575  15.121 -0.2938  0.1012  0.5122
  659TMC3     H 9810   3.424   2.552  15.483  0.2344  1.8365  0.4159
  659TMC3    H1 9811   3.290   2.546  15.087  0.3548  0.0040 -0.2187
  659TMC3    H2 9812   3.028   2.692  15.391 -0.4011  0.8296 -0.9477
  659TMC3    C7 9813   3.051   2.688  15.135 -0.5930 -0.5280  0.5330
  659TMC3    C8 9814   3.182   2.638  15.591  0.4981  0.9777  0.0019
  659TMC3    O1 9815   2.939   2.704  15.183 -0.4097  0.2408  0.1577
  659TMC3    O2 9816   3.090   2.714  15.609  0.0587 -0.1050 -0.7926
  660MPD2     C 9817   1.066   1.899  12.935  0.2349 -0.3261 -0.1646
  660MPD2    C1 9818   1.130   1.802  12.855 -0.1564 -0.7070  0.1181
  660MPD2    C2 9819   1.108   1.668  12.876  0.0870  0.2968  0.2596
  660MPD2    C3 9820   1.012   1.636  12.963  0.2236 -0.3589  0.5242
  660MPD2    C4 9821   0.933   1.729  13.032  0.0144 -0.4477 -0.0960
  660MPD2    C5 9822   0.963   1.857  13.012  0.3444 -0.4335 -0.4186
  660MPD2     H 9823   1.155   1.589  12.818  0.1159  0.1120  0.5337
  660MPD2    H1 9824   0.851   1.694  13.093 -0.0565 -0.5981 -0.2771
  660MPD2    H2 9825   1.082   2.005  12.919 -0.0675 -0.0658  1.3119
  660MPD2    H3 9826   0.903   1.934  13.061  1.7298  2.9070 -3.8982
  660MPD2     N 9827   0.968   1.502  12.974  0.3453 -0.5575  0.1261
  660MPD2    H5 9828   0.874   1.485  13.009  0.3590  0.9918  0.9381
  660MPD2    N1 9829   1.209   1.845  12.744 -0.6611  0.0280  0.0651
  660MPD2    H7 9830   1.211   1.942  12.714 -1.7633  0.1922  0.5218
  661TMC3    C1 9831   1.305   1.791  12.528  0.0895 -1.1775 -0.4465
  661TMC3    C2 9832   1.416   1.746  12.467 -0.3920 -0.7648 -0.5456
  661TMC3    C3 9833   1.416   1.742  12.330  0.5718  0.0111  0.4708
  661TMC3    C4 9834   1.192   1.835  12.462  0.0503  0.5694 -0.2593
  661TMC3    C5 9835   1.198   1.827  12.322 -0.2472  0.3959  0.3600
  661TMC3    C6 9836   1.302   1.773  12.260 -0.3384  0.2069 -0.3505
  661TMC3     C 9837   1.289   1.760  12.670 -0.2455  0.8572 -0.1809
  661TMC3     O 9838   1.331   1.647  12.700 -0.2679  0.3580  0.0582
  661TMC3     H 9839   1.503   1.716  12.525  0.8947 -0.0875 -2.1218
  661TMC3    H1 9840   1.113   1.867  12.528  0.5826 -1.3512  1.2921
  661TMC3    H2 9841   1.309   1.779  12.152  0.0247  3.3141 -0.1654
  661TMC3    C7 9842   1.064   1.804  12.270  0.4676 -0.4232 -0.3946
  661TMC3    C8 9843   1.525   1.685  12.252  0.2870 -0.6623  0.1055
  661TMC3    O1 9844   0.970   1.818  12.350 -0.3951  0.2308 -0.5546
  661TMC3    O2 9845   1.538   1.722  12.133 -0.2316 -0.1592  0.1291
  662MPD2     C 9846   0.972   0.881  16.855  0.2427 -0.6209 -0.3042
  662MPD2    C1 9847   1.091   0.894  16.916 -0.0056  0.1702 -0.1908
  662MPD2    C2 9848   1.103   1.000  17.004 -0.0923  0.2809  0.3473
  662MPD2    C3 9849   0.996   1.079  17.037  0.1553 -0.5809 -0.1283
  662MPD2    C4 9850   0.868   1.062  16.975 -0.1069 -0.1516 -0.6278
  662MPD2    C5 9851   0.855   0.954  16.888  0.0716 -0.0606  0.6071
  662MPD2     H 9852   1.195   1.027  17.053 -0.2808 -1.6074  1.7678
  662MPD2    H1 9853   0.780   1.120  17.000  1.1152  0.8734  1.2661
  662MPD2    H2 9854   0.961   0.811  16.773 -3.1744  0.1522 -0.5134
  662MPD2    H3 9855   0.759   0.957  16.838  0.9259  0.8566 -0.9488
  662MPD2     N 9856   0.994   1.188  17.125 -0.2358 -0.0344 -0.0614
  662MPD2    H5 9857   0.912   1.248  17.125 -0.6209 -0.5628 -0.4618
  662MPD2    N1 9858   1.202   0.819  16.893  0.1833 -0.1385 -0.3493
  662MPD2    H7 9859   1.288   0.849  16.938  0.0255 -0.7050  0.3480
  663TMC3    C1 9860   1.329   0.637  16.816 -0.0299  0.5626  0.4332
  663TMC3    C2 9861   1.425   0.715  16.752 -0.4888 -0.2040  0.0453
  663TMC3    C3 9862   1.548   0.716  16.810 -0.4715 -0.2443 -0.1720
  663TMC3    C4 9863   1.350   0.558  16.925  0.5652  0.3202 -0.1116
  663TMC3    C5 9864   1.470   0.570  16.983 -0.1141  0.8000 -0.1002
  663TMC3    C6 9865   1.561   0.655  16.929 -0.6354  0.6132  0.1161
  663TMC3     C 9866   1.203   0.703  16.820 -0.1014 -0.7352 -0.7132
  663TMC3     O 9867   1.106   0.640  16.780 -0.5825  0.8061  0.3739
  663TMC3     H 9868   1.396   0.793  16.683 -2.4975  1.1384  2.3893
  663TMC3    H1 9869   1.274   0.492  16.965  1.9460 -0.9591  0.4309
  663TMC3    H2 9870   1.664   0.640  16.961  0.0952 -0.4734 -2.7400
  663TMC3    C7 9871   1.494   0.516  17.119  0.4236  0.4140  0.4713
  663TMC3    C8 9872   1.595   0.856  16.820 -0.2853  0.0594 -0.3268
  663TMC3    O1 9873   1.581   0.561  17.186 -0.4239 -0.4604 -0.1766
  663TMC3    O2 9874   1.595   0.921  16.719  0.5372  0.5977 -0.1500
  664MPD2     C 9875   0.024   4.010  17.686 -0.2099 -0.2226 -0.7981
  664MPD2    C1 9876   0.081   4.115   0.000  0.0055  0.1918  0.0946
  664MPD2    C2 9877   0.039   4.145   0.131 -0.1821  0.1056 -0.0670
  664MPD2    C3 9878   4.668   4.085   0.191  0.1708  0.0398 -0.0281
  664MPD2    C4 9879   4.602   3.988   0.119  0.7943 -0.3154 -0.2654
  664MPD2    C5 9880   4.650   3.944  17.747  0.3657  0.5731  0.4634
  664MPD2     H 9881   0.091   4.223   0.186 -0.6673  0.2372  0.2070
  664MPD2    H1 9882   4.525   3.931   0.169 -2.8806  1.7196 -3.6852
  664MPD2    H2 9883   0.062   3.970  17.593  1.6705  1.0432 -0.5678
  664MPD2    H3 9884   4.599   3.861  17.700  0.3352 -0.3714  2.1693
  664MPD2     N 9885   4.637   4.117   0.320 -0.6914 -0.2110 -0.0369
  664MPD2    H5 9886   4.706   4.182   0.356 -0.6078 -0.6026  0.5223
  664MPD2    N1 9887   0.192   4.188  17.705 -0.0938 -0.4161  0.3960
  664MPD2    H7 9888   0.237   4.248   0.023 -0.9971  0.3287  0.3299
  665TMC3    C1 9889   4.536   4.100   0.532 -0.2090 -0.0578 -0.3196
  665TMC3    C2 9890   4.438   4.052   0.614 -0.4494 -0.5708  0.1488
  665TMC3    C3 9891   4.459   4.046   0.746  0.3609 -0.1587  0.4572
  665TMC3    C4 9892   4.654   4.153   0.582  0.1390  0.1192 -0.0616
  665TMC3    C5 9893   4.669   4.141   0.721  0.5319  0.7486  0.2906
  665TMC3    C6 9894   4.578   4.081   0.801  0.1824  0.1176 -0.1102
  665TMC3     C 9895   4.531   4.058   0.397 -0.1717 -0.4227 -0.7235
  665TMC3     O 9896   4.434   3.992   0.361 -0.7584  0.0941  0.2947
  665TMC3     H 9897   4.348   4.022   0.561 -1.8366  0.0131  2.1838
  665TMC3    H1 9898   4.730   4.207   0.526 -0.7048 -1.0748 -2.3703
  665TMC3    H2 9899   4.592   4.075   0.908  3.0435 -0.0455 -0.4801
  665TMC3    C7 9900   0.017   4.238   0.781  0.5392 -0.2026 -1.0944
  665TMC3    C8 9901   4.348   4.068   0.829  0.1848 -0.7005  0.0785
  665TMC3    O1 9902   0.119   4.280   0.722 -0.2295 -0.1579  0.9948
  665TMC3    O2 9903   4.376   4.145   0.917  0.7142  0.3266 -0.0111
  666TMC3    C1 9904   3.783   4.494  10.159  0.0176  0.8471 -0.0049
  666TMC3    C2 9905   3.894   4.422  10.191  0.3235  0.2480 -0.0681
  666TMC3    C3 9906   4.010   4.499  10.193 -0.0241 -0.2521  0.0716
  666TMC3    C4 9907   3.781   4.629  10.127  0.1169  0.2586  0.4790
  666TMC3    C5 9908   3.902   4.688  10.115  0.0062 -0.1052  0.7525
  666TMC3    C6 9909   4.020   4.628  10.147 -0.2726 -0.0592 -0.3093
  666TMC3     C 9910   3.668   4.458  10.243  0.1761  0.0415  0.0636
  666TMC3     O 9911   3.600   4.551  10.278  0.2341  0.8533 -0.1552
  666TMC3     H 9912   3.890   4.316  10.212  1.1236  0.2046 -0.1637
  666TMC3    H1 9913   3.688   4.675  10.096 -0.0705 -1.6384 -1.8297
  666TMC3    H2 9914   4.112   4.684  10.136 -0.3467  0.1255  0.0252
  666TMC3    C7 9915   3.909   0.088  10.061  0.4972 -0.8730  0.8150
  666TMC3    C8 9916   4.127   4.427  10.250  0.1419  0.3289 -0.3588
  666TMC3    O1 9917   3.831   0.117   9.976 -0.6558  0.2928 -0.0094
  666TMC3    O2 9918   4.098   4.313  10.281  0.0328 -0.3916 -0.4121
  667MPD2     C 9919   0.617   4.321  15.117 -0.3498  0.2565 -0.2793
  667MPD2    C1 9920   0.500   4.329  15.186  0.2261 -0.0881 -0.2450
  667MPD2    C2 9921   0.418   4.215  15.191 -0.2024  0.2651  0.2707
  667MPD2    C3 9922   0.444   4.105  15.115  0.4862  0.4742 -0.4721
  667MPD2    C4 9923   0.562   4.100  15.040 -0.1737 -0.0954  0.2437
  667MPD2    C5 9924   0.647   4.206  15.049  0.0951 -0.0398 -0.9037
  667MPD2     H 9925   0.331   4.232  15.254  0.4236  0.3782  1.1044
  667MPD2    H1 9926   0.599   4.023  14.974 -0.2919 -0.7156  0.9025
  667MPD2    H2 9927   0.689   4.400  15.103 -2.8381  2.4908 -0.4656
  667MPD2    H3 9928   0.733   4.207  14.983 -0.0276 -1.2236 -1.0917
  667MPD2     N 9929   0.373   3.988  15.131 -0.2912  0.6530 -0.4249
  667MPD2    H5 9930   0.419   3.899  15.113 -0.0756  0.5449  0.6291
  667MPD2    N1 9931   0.452   4.443  15.255 -0.0479  0.3069 -0.0889
  667MPD2    H7 9932   0.372   4.438  15.317 -0.2290 -0.7519 -0.4009
  668TMC3    C1 9933   0.453   4.663  15.316  1.1784  0.5256  0.8044
  668TMC3    C2 9934   0.454   0.060  15.275  0.7792 -0.2037 -0.4275
  668TMC3    C3 9935   0.458   0.156  15.379  0.1479  0.0264 -0.4319
  668TMC3    C4 9936   0.452   4.628  15.452 -0.1675  0.0320  0.3380
  668TMC3    C5 9937   0.442   4.729  15.541  0.5117 -0.0361 -0.5172
  668TMC3    C6 9938   0.447   0.119  15.508  0.2525  0.4359 -0.7064
  668TMC3     C 9939   0.509   4.565  15.227 -0.0309  0.3086 -0.4585
  668TMC3     O 9940   0.607   4.590  15.156  0.3417 -0.6378 -0.1584
  668TMC3     H 9941   0.487   0.079  15.174  0.8226 -0.7569 -0.5181
  668TMC3    H1 9942   0.466   4.525  15.485 -0.4769 -0.0641  0.1777
  668TMC3    H2 9943   0.448   0.191  15.589  0.4807 -1.0546  0.6333
  668TMC3    C7 9944   0.417   4.688  15.677 -0.2206  0.1489 -0.1998
  668TMC3    C8 9945   0.512   0.285  15.352 -0.1759 -0.7151  0.4803
  668TMC3    O1 9946   0.452   0.033  15.761 -0.1118 -0.0867  0.1979
  668TMC3    O2 9947   0.554   0.348  15.445  0.3309 -0.0234 -0.6682
  669TMC3    C1 9948   3.476   3.728  15.016  0.2495  0.2712 -0.4944
  669TMC3    C2 9949   3.387   3.682  14.924  0.4188  0.7725 -0.4359
  669TMC3    C3 9950   3.375   3.747  14.801  0.1772 -0.3416  0.3620
  669TMC3    C4 9951   3.558   3.835  14.980  0.2899 -0.4138 -0.0263
  669TMC3    C5 9952   3.545   3.896  14.860  0.5769 -0.3065 -0.0538
  669TMC3    C6 9953   3.450   3.856  14.769 -0.0330 -0.8442 -0.4360
  669TMC3     C 9954   3.462   3.700  15.154 -0.1525 -0.5936  0.3026
  669TMC3     O 9955   3.474   3.788  15.239  0.0933 -0.0613 -0.2072
  669TMC3     H 9956   3.343   3.583  14.936  1.0226  0.4591 -0.8429
  669TMC3    H1 9957   3.627   3.865  15.058 -1.1984 -0.9511  1.5089
  669TMC3    H2 9958   3.451   3.904  14.672  0.0981 -2.2827 -1.1441
  669TMC3    C7 9959   3.613   4.020  14.840  0.1635  0.7577 -0.2434
  669TMC3    C8 9960   3.261   3.727  14.713 -0.3122  0.0465  0.2843
  669TMC3    O1 9961   3.722   4.039  14.897 -0.0623 -0.1367 -0.2253
  669TMC3    O2 9962   3.265   3.773  14.599  0.5235 -0.4380 -0.7810
  670MPD2     C 9963   1.644   1.886  13.270 -0.1363 -0.2293  0.6873
  670MPD2    C1 9964   1.740   1.892  13.370 -0.3061 -0.3529 -0.2088
  670MPD2    C2 9965   1.700   1.899  13.507  0.4843  0.2969  0.0185
  670MPD2    C3 9966   1.570   1.871  13.539  0.6644 -0.0498 -0.2170
  670MPD2    C4 9967   1.481   1.847  13.438  0.2561 -0.3684 -0.1871
  670MPD2    C5 9968   1.512   1.871  13.304 -0.1032 -0.0310 -0.6332
  670MPD2     H 9969   1.761   1.922  13.594 -0.7173 -2.7148  1.6701
  670MPD2    H1 9970   1.377   1.822  13.458 -0.4933  4.0631  1.5686
  670MPD2    H2 9971   1.678   1.878  13.167  2.6834 -2.3743  1.7800
  670MPD2    H3 9972   1.436   1.864  13.227 -2.4643  0.8591  1.5780
  670MPD2     N 9973   1.536   1.865  13.679  0.0585 -0.5216  0.3437
  670MPD2    H5 9974   1.607   1.899  13.743 -1.2031  0.6847  1.1067
  670MPD2    N1 9975   1.879   1.902  13.343  0.3390 -0.0210  0.1061
  670MPD2    H7 9976   1.937   1.936  13.420  2.2506  0.3068 -1.4803
  671TMC3    C1 9977   1.402   1.836  13.875 -0.1868  0.0171  1.0458
  671TMC3    C2 9978   1.491   1.756  13.939  0.4040 -0.1361  0.2416
  671TMC3    C3 9979   1.459   1.707  14.064 -0.7069  0.7317 -0.1399
  671TMC3    C4 9980   1.272   1.842  13.925  0.4748 -0.3533  0.5906
  671TMC3    C5 9981   1.240   1.795  14.046  0.2888  0.4633 -0.5334
  671TMC3    C6 9982   1.335   1.730  14.121  0.1834 -0.4324 -0.5132
  671TMC3     C 9983   1.409   1.854  13.732 -0.5232  0.3515  0.5423
  671TMC3     O 9984   1.299   1.835  13.675 -0.0795  0.2234  0.5497
  671TMC3     H 9985   1.593   1.746  13.904 -0.5471 -1.8415 -1.9672
  671TMC3    H1 9986   1.186   1.874  13.867  0.4714 -0.3172  0.6156
  671TMC3    H2 9987   1.310   1.688  14.218  1.4697 -3.1567 -1.3862
  671TMC3    C7 9988   1.112   1.729  14.044  0.2775  0.0901 -0.4636
  671TMC3    C8 9989   1.551   1.643  14.151  0.0833  0.2870 -0.8222
  671TMC3    O1 9990   1.023   1.777  14.112 -0.3654  0.0060  0.0980
  671TMC3    O2 9991   1.545   1.669  14.273  0.2651 -0.0765  0.0032
  672MPD2     C 9992   2.389   2.060   0.551  0.5054 -0.1875  0.0226
  672MPD2    C1 9993   2.257   2.022   0.558 -0.5009 -0.0344 -0.8906
  672MPD2    C2 9994   2.185   2.018   0.681  0.0868 -0.3788 -0.3697
  672MPD2    C3 9995   2.255   2.049   0.793  0.4477  0.4992  0.3942
  672MPD2    C4 9996   2.390   2.081   0.789 -0.3475  0.1069  0.9002
  672MPD2    C5 9997   2.449   2.085   0.669 -0.3232  0.1221 -0.3349
  672MPD2     H 9998   2.083   1.983   0.682 -0.3437  0.8591 -0.5159
  672MPD2    H1 9999   2.449   2.111   0.875  0.6735  0.9021 -0.0784
  672MPD2    H210000   2.447   2.070   0.460  1.5855  2.0418  0.9529
  672MPD2    H310001   2.548   2.130   0.668 -0.6922  0.9618  0.6919
  672MPD2     N10002   2.183   2.042   0.914  0.2165  0.2706 -0.0676
  672MPD2    H510003   2.084   2.022   0.909  0.3049 -0.3791  0.8834
  672MPD2    N110004   2.197   1.988   0.434 -0.0246 -0.4582 -1.0868
  672MPD2    H710005   2.099   1.965   0.443 -0.2616  0.4333 -1.4746
  673TMC3    C110006   2.157   1.916   0.208  0.5313 -0.4189  0.6243
  673TMC3    C210007   2.178   1.791   0.165 -0.3217 -0.3291  0.0038
  673TMC3    C310008   2.071   1.728   0.105  0.4824 -0.0313 -0.2384
  673TMC3    C410009   2.031   1.961   0.216 -0.1687 -0.0798  1.1420
  673TMC3    C510010   1.925   1.887   0.171  0.2420  0.4088 -0.9027
  673TMC3    C610011   1.946   1.775   0.104  0.2211  0.2226 -0.1816
  673TMC3     C10012   2.254   1.953   0.313  1.2114  0.2242  0.5535
  673TMC3     O10013   2.373   1.935   0.300  0.6837  0.4001  0.4924
  673TMC3     H10014   2.279   1.754   0.158  0.1743  0.8657  0.7451
  673TMC3    H110015   2.012   2.053   0.270 -1.7998  0.0645  0.3103
  673TMC3    H210016   1.858   1.723   0.068  0.6613  0.0203 -0.9599
  673TMC3    C710017   1.788   1.913   0.210 -0.6789  0.7120 -0.0057
  673TMC3    C810018   2.079   1.583   0.079 -0.0162  0.2490 -0.2101
  673TMC3    O110019   1.705   1.828   0.186 -0.1290  0.1163 -0.2263
  673TMC3    O210020   2.028   1.537  17.724  0.1169  0.4975  0.5361
  674MPD2     C10021   1.518   2.068  17.134 -0.4665 -0.1211  1.0327
  674MPD2    C110022   1.499   1.975  17.231 -0.0948  1.1213  0.1471
  674MPD2    C210023   1.489   2.019  17.366 -0.7062 -0.0368  0.5870
  674MPD2    C310024   1.499   2.149  17.398  0.2169  0.1461 -0.0402
  674MPD2    C410025   1.510   2.243  17.298 -0.4938 -0.1557  0.1286
  674MPD2    C510026   1.525   2.199  17.170  0.5467 -0.1769 -0.3340
  674MPD2     H10027   1.482   1.944  17.443 -0.8078  0.3564  0.9622
  674MPD2    H110028   1.521   2.349  17.316  0.6986 -0.2298 -0.1939
  674MPD2    H210029   1.531   2.036  17.032 -2.4289  2.8627 -0.1712
  674MPD2    H310030   1.533   2.272  17.090  0.1771 -0.7453 -0.8862
  674MPD2     N10031   1.483   2.191  17.534  0.0616  0.2067  0.3065
  674MPD2    H510032   1.476   2.111  17.597  1.5050 -0.0685  0.1221
  674MPD2    N110033   1.480   1.844  17.190 -0.5861 -0.0245 -0.3783
  674MPD2    H710034   1.462   1.836  17.090 -1.0049 -0.0694 -0.2986
  675TMC3    C110035   1.572   1.722  17.363  0.4527 -0.2053 -0.1187
  675TMC3    C210036   1.533   1.668  17.481 -0.3266 -0.9541 -0.5121
  675TMC3    C310037   1.632   1.619  17.561 -0.3833 -0.1351  0.2849
  675TMC3    C410038   1.704   1.734  17.322  0.0602 -0.4929 -0.3205
  675TMC3    C510039   1.804   1.692  17.410 -0.5154 -0.1452 -0.3412
  675TMC3    C610040   1.765   1.637  17.526 -0.1320  0.3569  0.4864
  675TMC3     C10041   1.460   1.734  17.265  0.3076  0.7500  0.7899
  675TMC3     O10042   1.416   1.625  17.234  0.3538  0.2915 -0.3848
  675TMC3     H10043   1.430   1.641  17.498  0.0310 -1.2012  1.1753
  675TMC3    H110044   1.721   1.751  17.216  0.9801  2.7905  0.3611
  675TMC3    H210045   1.846   1.583  17.575  0.2841 -0.6322 -1.3170
  675TMC3    C710046   1.934   1.693  17.355 -0.0517 -0.2190  0.3177
  675TMC3    C810047   1.592   1.501  17.645  0.3792  0.1820  0.2928
  675TMC3    O110048   1.939   1.751  17.247 -0.5488 -0.2186 -0.0341
  675TMC3    O210049   1.547   1.403  17.587 -0.5928 -0.1964  0.4383
  676MPD2     C10050   0.510   0.967  10.701 -0.2821  0.3972  0.1826
  676MPD2    C110051   0.439   0.857  10.724 -0.6056  0.1197  0.6292
  676MPD2    C210052   0.476   0.739  10.666  0.1158 -0.8410  1.1759
  676MPD2    C310053   0.585   0.728  10.580  0.1117  0.0865 -0.3151
  676MPD2    C410054   0.661   0.845  10.555  0.1102  0.0336 -0.4537
  676MPD2    C510055   0.621   0.962  10.623 -0.5073 -0.6410  0.3652
  676MPD2     H10056   0.422   0.652  10.701 -1.5463  0.3310  1.5115
  676MPD2    H110057   0.741   0.850  10.482 -0.3109 -0.8655 -0.9748
  676MPD2    H210058   0.489   1.062  10.749 -3.8415 -0.4016  0.2058
  676MPD2    H310059   0.680   1.053  10.613  0.5939 -1.2315  1.4667
  676MPD2     N10060   0.608   0.607  10.508  0.1106 -0.3517  0.5095
  676MPD2    H510061   0.675   0.606  10.433 -0.6415 -0.1142 -0.1692
  676MPD2    N110062   0.328   0.846  10.814 -0.4547 -0.0281 -0.2987
  676MPD2    H710063   0.284   0.755  10.829  1.4740 -0.5532  2.0587
  677TMC3    C110064   0.204   0.901  11.003  0.8295  0.3132 -0.1074
  677TMC3    C210065   0.095   0.823  10.985  0.4332  0.1896 -0.8851
  677TMC3    C310066   0.039   0.775  11.104  0.2839  0.1443  0.3521
  677TMC3    C410067   0.250   0.955  11.123 -0.6483 -0.3249  0.3647
  677TMC3    C510068   0.191   0.903  11.236  0.2407  0.2499  0.2731
  677TMC3    C610069   0.083   0.819  11.226  0.0693 -0.4469  0.4170
  677TMC3     C10070   0.280   0.947  10.891  0.7561 -0.1850  0.2422
  677TMC3     O10071   0.319   1.064  10.903  0.5686 -0.0650 -0.0224
  677TMC3     H10072   0.055   0.786  10.891 -1.6870 -0.7799  0.3893
  677TMC3    H110073   0.338   1.018  11.125  0.1807 -1.4820  0.3414
  677TMC3    H210074   0.049   0.773  11.318 -1.2341 -0.1531  0.0737
  677TMC3    C710075   0.236   0.967  11.358 -0.2876 -0.2038 -0.3595
  677TMC3    C810076   4.729   0.635  11.103 -0.2960  0.2726  0.1141
  677TMC3    O110077   0.217   0.903  11.460  0.1662 -0.1946 -0.0961
  677TMC3    O210078   0.051   0.552  11.035 -0.5032 -0.5394 -0.8571
  678MPD2     C10079   1.133   0.638   1.097  0.0339  0.6190  0.5254
  678MPD2    C110080   1.068   0.544   1.020 -0.7218  0.1574 -0.5267
  678MPD2    C210081   0.949   0.487   1.059  0.9087 -0.4779 -0.0424
  678MPD2    C310082   0.894   0.528   1.183  0.0382  0.2979 -0.0413
  678MPD2    C410083   0.965   0.617   1.263 -0.0699  0.6331  0.6158
  678MPD2    C510084   1.078   0.671   1.219 -0.8459  0.8223 -0.3314
  678MPD2     H10085   0.898   0.417   0.994  1.0066  0.1432 -0.7764
  678MPD2    H110086   0.926   0.631   1.364 -0.7262  2.4346  0.1157
  678MPD2    H210087   1.228   0.680   1.067  0.2731  1.0824  1.9296
  678MPD2    H310088   1.126   0.748   1.278 -0.8285  1.8682 -1.7187
  678MPD2     N10089   0.773   0.459   1.222  0.6783  0.1830 -0.3421
  678MPD2    H510090   0.757   0.371   1.174  1.6608  0.6283 -1.4850
  678MPD2    N110091   1.117   0.501   0.893 -0.3440  0.2969  0.1827
  678MPD2    H710092   1.050   0.441   0.846  0.1947  0.8000 -1.2136
  679TMC3    C110093   1.276   0.240   0.619  0.0627 -0.4948 -0.9174
  679TMC3    C210094   1.215   0.315   0.714 -0.1939  0.2739 -0.3371
  679TMC3    C310095   1.264   0.444   0.725 -0.1108  0.2493  0.4002
  679TMC3    C410096   1.379   0.279   0.535  0.6405 -0.0403  0.3120
  679TMC3    C510097   1.413   0.413   0.546 -0.0236  0.6261 -0.6779
  679TMC3    C610098   1.352   0.493   0.637 -0.2176  0.0176  1.2201
  679TMC3     C10099   1.251   0.091   0.622 -0.3095 -0.1008  0.9056
  679TMC3     O10100   1.346   0.019   0.618 -0.2308 -0.2281 -0.2127
  679TMC3     H10101   1.142   0.275   0.784 -0.1449  0.8687  0.0514
  679TMC3    H110102   1.425   0.211   0.465 -0.8029 -0.4163 -0.2577
  679TMC3    H210103   1.371   0.600   0.637 -0.8659  0.1420  2.7946
  679TMC3    C710104   1.487   0.479   0.446 -0.2019 -0.3245  0.9015
  679TMC3    C810105   1.244   0.523   0.839  0.3389  0.3873 -0.4034
  679TMC3    O110106   1.483   0.602   0.446 -0.1785 -0.2793 -0.1881
  679TMC3    O210107   1.332   0.594   0.877  0.1989  0.3880  0.1543
  680MPD2     C10108   1.777   3.418  13.996  0.4900  0.5330  0.0252
  680MPD2    C110109   1.712   3.448  13.875 -0.4661 -0.1335 -0.3737
  680MPD2    C210110   1.722   3.578  13.831 -1.2707  0.1090  0.5925
  680MPD2    C310111   1.753   3.682  13.918  0.5274  0.6561  0.2930
  680MPD2    C410112   1.813   3.652  14.036  0.1733  0.4621  0.3612
  680MPD2    C510113   1.827   3.523  14.072  0.1487 -0.3640 -0.2635
  680MPD2     H10114   1.684   3.601  13.732 -0.0392  1.2917  0.3950
  680MPD2    H110115   1.832   3.730  14.109 -0.2296  1.1697 -0.2881
  680MPD2    H210116   1.774   3.318  14.040  0.0767  0.5274 -0.0197
  680MPD2    H310117   1.881   3.503  14.164 -0.2240  1.0520  0.2742
  680MPD2     N10118   1.739   3.811  13.876 -0.0457  0.0100 -0.4317
  680MPD2    H510119   1.794   3.875  13.933  1.2496 -1.8432  0.4012
  680MPD2    N110120   1.642   3.356  13.797  0.6017 -0.4118  0.3429
  680MPD2    H710121   1.612   3.396  13.709  1.5573  0.3091  0.3492
  681TMC3    C110122   1.536   3.158  13.737 -0.3175 -0.3089  0.1375
  681TMC3    C210123   1.414   3.111  13.783  0.3205 -0.3221  0.3912
  681TMC3    C310124   1.306   3.083  13.697  0.9613 -0.6474 -0.4753
  681TMC3    C410125   1.544   3.190  13.602 -0.6046  1.4070 -0.0271
  681TMC3    C510126   1.445   3.149  13.513 -0.5318 -0.1316  0.1375
  681TMC3    C610127   1.323   3.102  13.565  0.2798  0.0948  0.6344
  681TMC3     C10128   1.613   3.230  13.839  0.8796  0.3719 -0.1678
  681TMC3     O10129   1.635   3.177  13.946 -0.0813 -0.1581 -0.2175
  681TMC3     H10130   1.396   3.084  13.886  0.5487 -0.5402  0.3727
  681TMC3    H110131   1.629   3.249  13.570  0.4833 -1.1411 -1.8579
  681TMC3    H210132   1.246   3.075  13.494  2.1020 -0.2396 -1.2481
  681TMC3    C710133   1.429   3.220  13.386  0.6466  0.2195 -0.0627
  681TMC3    C810134   1.175   3.064  13.744 -0.9107 -0.4778  0.4948
  681TMC3    O110135   1.319   3.251  13.333 -0.2868  0.4008 -0.5153
  681TMC3    O210136   1.091   3.021  13.668 -0.4421  0.4263  0.7389
  682MPD2     C10137   3.914   0.979  11.043 -0.1995  0.2121 -0.6383
  682MPD2    C110138   3.942   0.844  11.042 -0.7040  0.3088 -0.1306
  682MPD2    C210139   3.918   0.760  11.151  0.3464  0.1287  0.2633
  682MPD2    C310140   3.858   0.814  11.266  0.0506 -0.2671  0.0346
  682MPD2    C410141   3.837   0.948  11.272 -0.4182  0.6651  0.6131
  682MPD2    C510142   3.870   1.029  11.164  0.5031 -0.1922 -0.6218
  682MPD2     H10143   3.934   0.655  11.131  0.2567 -0.2832  2.3546
  682MPD2    H110144   3.802   0.986  11.368  0.4887  1.0890  0.7723
  682MPD2    H210145   3.953   1.045  10.967  0.4320  0.5117 -0.0537
  682MPD2    H310146   3.851   1.135  11.180 -0.8929 -0.2883 -1.5811
  682MPD2     N10147   3.815   0.741  11.372 -0.1872 -0.0286  0.0445
  682MPD2    H510148   3.770   0.785  11.450 -0.0692  2.5431 -1.3407
  682MPD2    N110149   3.984   0.783  10.919 -0.0495  0.1331  0.2093
  682MPD2    H710150   3.992   0.682  10.922  0.1004  0.1132 -1.0197
  683TMC3    C110151   3.703   0.555  11.718  0.4481 -0.4435 -0.2469
  683TMC3    C210152   3.638   0.431  11.707 -0.6072  0.0387  0.4368
  683TMC3    C310153   3.651   0.366  11.588 -0.7051  0.2050  0.5888
  683TMC3    C410154   3.777   0.613  11.617  0.0379  0.9096  0.2144
  683TMC3    C510155   3.760   0.548  11.498 -0.1203  0.3209 -0.3471
  683TMC3    C610156   3.706   0.424  11.481 -0.0827  0.6389  0.4606
  683TMC3     C10157   3.723   0.611  11.856 -0.4033 -0.2268 -0.2453
  683TMC3     O10158   3.763   0.725  11.869 -0.3362  0.1030  0.2099
  683TMC3     H10159   3.582   0.391  11.791 -1.9607  1.4620  0.2134
  683TMC3    H110160   3.860   0.676  11.647  1.3912 -0.6115 -0.3552
  683TMC3    H210161   3.696   0.376  11.384  1.2181 -2.3349  1.7918
  683TMC3    C710162   3.818   0.600  11.379 -0.4583  0.0699 -0.4511
  683TMC3    C810163   3.587   0.242  11.586  0.1180 -0.4302 -0.5729
  683TMC3    O110164   3.840   0.515  11.291  0.0675 -0.2457 -0.0794
  683TMC3    O210165   3.475   0.237  11.638 -0.6086 -0.0871 -0.1405
  684MPD2     C10166   1.591   4.618  16.622  0.7005  0.3333 -0.2320
  684MPD2    C110167   1.573   4.681  16.504  0.2818  0.4057  0.1279
  684MPD2    C210168   1.576   0.079  16.501  0.2025 -0.0237 -0.1619
  684MPD2    C310169   1.612   0.157  16.612 -0.2169 -0.9397 -0.0729
  684MPD2    C410170   1.621   0.097  16.730 -0.2062  0.1519 -0.1595
  684MPD2    C510171   1.613   4.698  16.733 -0.1503  0.5801  0.2023
  684MPD2     H10172   1.576   0.122  16.402 -1.3377 -1.9054 -0.9794
  684MPD2    H110173   1.659   0.150  16.816 -1.2841 -1.7356  1.4710
  684MPD2    H210174   1.592   4.510  16.628 -1.8085  0.2288 -1.4994
  684MPD2    H310175   1.633   4.658  16.832  3.5734 -0.0902 -0.8523
  684MPD2     N10176   1.638   0.294  16.609  0.7234  0.0996 -0.4186
  684MPD2    H510177   1.688   0.338  16.686 -2.3362  1.5982  0.7045
  684MPD2    N110178   1.565   4.609  16.376 -0.2922 -0.2931 -0.1815
  684MPD2    H710179   1.558   4.668  16.293 -0.7361 -1.7122 -1.1494
  685TMC3    C110180   1.588   4.437  16.214 -0.0246  0.2811 -0.0331
  685TMC3    C210181   1.512   4.515  16.129 -0.3405 -0.6741 -0.7814
  685TMC3    C310182   1.556   4.533  16.001 -0.4384  0.2536 -0.1455
  685TMC3    C410183   1.711   4.393  16.176  0.3579  0.4383  1.3516
  685TMC3    C510184   1.752   4.426  16.048  1.1388 -0.3415  0.7163
  685TMC3    C610185   1.673   4.487  15.951 -0.3237  0.6098 -0.0281
  685TMC3     C10186   1.568   4.468  16.356 -1.1159 -0.0993 -0.0229
  685TMC3     O10187   1.603   4.384  16.439  0.2857 -0.3516  0.0059
  685TMC3     H10188   1.412   4.539  16.161 -0.3010  0.5823 -1.6321
  685TMC3    H110189   1.779   4.338  16.239 -0.5091 -0.1301  1.8047
  685TMC3    H210190   1.712   4.505  15.851  0.3268 -0.9738 -0.0677
  685TMC3    C710191   1.895   4.437  16.027 -0.2759  0.7343  0.0689
  685TMC3    C810192   1.477   4.606  15.898  0.2453 -0.0103  0.5768
  685TMC3    O110193   1.951   4.431  15.917 -0.2732  0.1257  0.2313
  685TMC3    O210194   1.500   4.601  15.784  0.4966  0.1759  0.2708
  686MPD2     C10195   2.899   0.032  15.353  0.2404 -0.6496  0.2077
  686MPD2    C110196   2.977   4.695  15.432  0.4016 -0.4879 -0.3953
  686MPD2    C210197   3.034   4.576  15.382  0.4317 -0.5216 -0.5573
  686MPD2    C310198   2.980   4.522  15.263  0.1897 -0.1909 -0.0149
  686MPD2    C410199   2.894   4.599  15.182 -0.1258 -0.8274 -0.9965
  686MPD2    C510200   2.859   4.724  15.229 -0.3661  0.1936  0.0569
  686MPD2     H10201   3.099   4.518  15.446  1.4390  1.1086 -0.1174
  686MPD2    H110202   2.855   4.555  15.091 -1.9091  1.7898 -1.4851
  686MPD2    H210203   2.853   0.125  15.384  0.3549 -0.9930  1.4265
  686MPD2    H310204   2.810   0.060  15.167 -1.3500 -0.6162 -0.1346
  686MPD2     N10205   3.020   4.396  15.211  0.3474  0.1008 -0.4298
  686MPD2    H510206   2.989   4.381  15.116  0.2161  2.1201 -0.7077
  686MPD2    N110207   2.987   4.729  15.575 -0.9144 -0.0440  0.2394
  686MPD2    H710208   2.935   0.073  15.607 -0.7026  0.8042 -1.5625
  687TMC3    C110209   3.072   4.269  15.407  0.5477  0.0971 -0.1207
  687TMC3    C210210   2.949   4.292  15.461 -0.1515  0.8431  1.0390
  687TMC3    C310211   2.922   4.246  15.587 -0.8428  0.3060 -0.5525
  687TMC3    C410212   3.169   4.199  15.481 -0.4764 -0.4354 -0.1416
  687TMC3    C510213   3.137   4.144  15.605  0.0343  0.3392  0.4287
  687TMC3    C610214   3.013   4.171  15.655  0.6231 -0.4609 -0.0588
  687TMC3     C10215   3.095   4.295  15.269  0.8737  0.4098  0.0004
  687TMC3     O10216   3.146   4.204  15.207 -0.1550 -0.1218 -0.4632
  687TMC3     H10217   2.869   4.330  15.398 -0.3917  0.0182  0.8460
  687TMC3    H110218   3.265   4.188  15.432 -1.5722 -2.5439 -1.8314
  687TMC3    H210219   2.991   4.141  15.757 -0.2885  1.3757  0.2840
  687TMC3    C710220   3.241   4.161  15.702  0.0830  0.0563  0.3561
  687TMC3    C810221   2.795   4.274  15.654  0.2817  0.0007  0.4556
  687TMC3    O110222   3.215   4.223  15.804  0.3607 -0.3396  0.6081
  687TMC3    O210223   2.762   4.204  15.750  0.6158  0.2690 -0.2677
  688MPD2     C10224   2.392   2.981   0.181  0.0392 -0.1748  0.2184
  688MPD2    C110225   2.354   2.872   0.105 -0.0792  0.3231 -0.3972
  688MPD2    C210226   2.411   2.857  17.733 -0.2481  0.5431 -0.1523
  688MPD2    C310227   2.491   2.952  17.674  0.3044  0.5022  0.0406
  688MPD2    C410228   2.525   3.055  17.748 -0.2464 -0.4489  0.1799
  688MPD2    C510229   2.477   3.074   0.129  0.1604 -0.5579 -0.7006
  688MPD2     H10230   2.372   2.775  17.673 -1.4643  0.5109  0.6811
  688MPD2    H110231   2.589   3.138  17.719 -0.1831 -0.8185 -0.7401
  688MPD2    H210232   2.341   3.006   0.273 -1.8449 -1.6398 -0.4188
  688MPD2    H310233   2.504   3.169   0.172 -3.0945  0.6825 -1.4187
  688MPD2     N10234   2.538   2.953  17.535  0.0935 -0.4286  0.5285
  688MPD2    H510235   2.579   3.039  17.500 -2.0035 -0.2088 -1.3453
  688MPD2    N110236   2.262   2.779   0.163 -0.1076  0.2762  0.1123
  688MPD2    H710237   2.241   2.692   0.115 -1.0751 -0.6634  2.2319
  689TMC3    C110238   2.070   2.707   0.288 -0.1483  0.9651 -0.3572
  689TMC3    C210239   1.973   2.743   0.378  0.0302 -0.1887 -0.7015
  689TMC3    C310240   1.890   2.644   0.431  0.3987  0.8580 -0.7873
  689TMC3    C410241   2.074   2.586   0.230 -0.6011  0.8566 -0.2796
  689TMC3    C510242   1.989   2.495   0.279 -0.3622 -0.1429 -0.1739
  689TMC3    C610243   1.892   2.521   0.375 -0.0973  0.2413 -1.3361
  689TMC3     C10244   2.175   2.808   0.267 -0.6269  0.5605 -0.0098
  689TMC3     O10245   2.166   2.917   0.321 -0.3384  0.5923  0.5608
  689TMC3     H10246   1.982   2.834   0.437  1.4486 -0.2002 -0.9112
  689TMC3    H110247   2.147   2.564   0.153 -1.1877 -0.1868 -0.5400
  689TMC3    H210248   1.828   2.444   0.418  1.2018 -0.2445 -0.2856
  689TMC3    C710249   1.965   2.376   0.201 -0.6456 -0.4258 -0.4402
  689TMC3    C810250   1.802   2.674   0.542  0.3397 -0.3519 -0.1008
  689TMC3    O110251   1.918   2.275   0.250  0.7791  0.2897  0.7779
  689TMC3    O210252   1.765   2.587   0.616 -0.1339  0.5511  0.0984
  690MPD2     C10253   4.592   0.429  15.936  0.1519  0.1882  0.0027
  690MPD2    C110254   4.525   0.458  15.815 -0.9210 -0.3883 -0.0471
  690MPD2    C210255   4.599   0.493  15.704 -0.2356 -0.1096  0.4269
  690MPD2    C310256   0.000   0.489  15.703  0.4513  0.1098 -0.5080
  690MPD2    C410257   0.067   0.453  15.821 -0.5166  0.2428 -0.1749
  690MPD2    C510258   4.729   0.423  15.929 -0.7461 -0.2300  0.0646
  690MPD2     H10259   4.548   0.507  15.609  3.8867 -0.5528 -1.8545
  690MPD2    H110260   0.173   0.448  15.839 -1.0429 -1.8104  2.3573
  690MPD2    H210261   4.540   0.400  16.027  0.1451  2.0216  0.5825
  690MPD2    H310262   0.045   0.417  16.022  0.2993  1.1192 -0.4611
  690MPD2     N10263   0.062   0.524  15.585 -0.0295 -0.0087  0.2340
  690MPD2    H510264   0.007   0.569  15.513  1.2373  2.0082  0.5186
  690MPD2    N110265   4.386   0.454  15.808 -0.4408  0.0348  0.2012
  690MPD2    H710266   4.359   0.457  15.710 -2.6478  0.3194  0.8149
  691TMC3    C110267   4.171   0.382  15.861  0.1580 -1.1601 -0.7889
  691TMC3    C210268   4.122   0.411  15.738 -0.1554  0.0642 -0.2685
  691TMC3    C310269   4.002   0.355  15.708 -0.4677 -0.1166 -0.7569
  691TMC3    C410270   4.105   0.300  15.952 -0.0690 -0.6217  0.6602
  691TMC3    C510271   3.986   0.252  15.918  0.0262 -0.3701  0.2885
  691TMC3    C610272   3.932   0.272  15.797  0.3427 -0.3715 -0.5292
  691TMC3     C10273   4.300   0.424  15.910  0.3179 -0.1331  0.4241
  691TMC3     O10274   4.323   0.427  16.029 -0.1856 -0.0031  0.2851
  691TMC3     H10275   4.175   0.468  15.663  1.1977 -1.0963 -0.1828
  691TMC3    H110276   4.151   0.282  16.048 -1.5662 -0.6860  1.3729
  691TMC3    H210277   3.837   0.237  15.759  0.4459 -0.8539 -0.3421
  691TMC3    C710278   3.999   0.111  15.957 -0.0184  0.1451  0.2012
  691TMC3    C810279   3.927   0.423  15.603  1.1517 -0.3755  0.4034
  691TMC3    O110280   4.059   0.092  16.062 -0.8039  0.2658 -0.6984
  691TMC3    O210281   3.988   0.450  15.499  0.2978 -0.1701 -0.0742
  692TMC3    C110282   1.118   1.449  15.821 -0.1747  0.1983  0.1284
  692TMC3    C210283   1.220   1.536  15.824 -0.6096  1.1466 -1.2242
  692TMC3    C310284   1.348   1.487  15.849  0.3832 -0.8633  0.3400
  692TMC3    C410285   1.139   1.318  15.860  0.0337 -0.1948 -0.3076
  692TMC3    C510286   1.263   1.280  15.895  0.2906  0.4502 -0.8183
  692TMC3    C610287   1.368   1.367  15.903 -0.2566 -0.7907 -0.1829
  692TMC3     C10288   0.995   1.500  15.882  0.7377 -0.2183 -0.1152
  692TMC3     O10289   0.933   1.410  15.936  0.4805  0.4983 -0.3571
  692TMC3     H10290   1.217   1.622  15.758  4.0440  2.1995 -0.0947
  692TMC3    H110291   1.060   1.244  15.857 -0.8716  0.6540  2.1377
  692TMC3    H210292   1.470   1.331  15.889  0.2502  0.7171 -0.2913
  692TMC3    C710293   1.294   1.137  15.894 -0.5869 -0.1862  0.4218
  692TMC3    C810294   1.451   1.588  15.882  0.0100  1.0872 -0.4002
  692TMC3    O110295   1.207   1.066  15.847  0.3438 -0.6569  0.6013
  692TMC3    O210296   1.554   1.543  15.936 -0.0673 -0.3510 -0.7770
  693MPD2     C10297   0.951   4.496  11.264  0.1112 -0.2286  0.1407
  693MPD2    C110298   0.938   4.364  11.227  0.1160  0.0441  0.0753
  693MPD2    C210299   1.057   4.300  11.193  0.6622  0.6242 -0.0614
  693MPD2    C310300   1.179   4.366  11.202 -0.2238  0.0515  0.0689
  693MPD2    C410301   1.185   4.491  11.264  0.1391 -0.4792 -0.1429
  693MPD2    C510302   1.068   4.555  11.299  0.2438 -0.4457  0.2370
  693MPD2     H10303   1.053   4.196  11.162  1.6756  0.4460  0.4079
  693MPD2    H110304   1.279   4.542  11.278 -0.2943 -0.3926  2.4056
  693MPD2    H210305   0.861   4.544  11.301  1.7270 -0.0730  3.8312
  693MPD2    H310306   1.070   4.649  11.353  1.7049  0.5996 -1.6601
  693MPD2     N10307   1.304   4.302  11.173  0.4251  0.1004  0.1910
  693MPD2    H510308   1.391   4.348  11.197 -0.5994  2.4788 -0.7329
  693MPD2    N110309   0.803   4.317  11.217  0.4639 -0.0695  0.4313
  693MPD2    H710310   0.734   4.370  11.270 -1.4872  0.3959 -2.5752
  694TMC3    C110311   0.622   4.178  11.167 -0.0444 -0.5625  0.1854
  694TMC3    C210312   0.561   4.100  11.074  0.1082 -0.8942 -1.2648
  694TMC3    C310313   0.451   4.019  11.106 -0.2123  0.2496  0.7140
  694TMC3    C410314   0.586   4.175  11.298  0.1721 -0.0687  0.0575
  694TMC3    C510315   0.484   4.090  11.331  0.8469 -0.6106 -0.6782
  694TMC3    C610316   0.408   4.019  11.239  0.2494  0.0850  0.5507
  694TMC3     C10317   0.758   4.213  11.146  0.4907  0.3817  1.4009
  694TMC3     O10318   0.822   4.133  11.080  0.2899  0.5170 -0.3071
  694TMC3     H10319   0.594   4.095  10.971  1.8305  1.5057 -0.8200
  694TMC3    H110320   0.642   4.237  11.366 -0.3085  0.6733 -0.2223
  694TMC3    H210321   0.317   3.968  11.269  0.6342  0.0639  1.6946
  694TMC3    C710322   0.454   4.086  11.465  0.4808 -0.0164  0.3176
  694TMC3    C810323   0.417   3.911  11.015  0.4480 -0.5090 -0.2464
  694TMC3    O110324   0.495   4.167  11.545 -0.0719 -0.3217  0.0193
  694TMC3    O210325   0.359   3.821  11.076  0.4629 -0.2379 -0.4732
  695MPD2     C10326   1.846   0.933  13.380  0.9295  0.5457 -1.1658
  695MPD2    C110327   1.797   0.950  13.513  0.1394  0.4144  0.1397
  695MPD2    C210328   1.655   0.977  13.525 -0.0660  0.2225  0.0142
  695MPD2    C310329   1.571   0.983  13.415 -0.8453 -0.5023 -0.0792
  695MPD2    C410330   1.623   0.959  13.285 -0.4070 -0.3822  0.4397
  695MPD2    C510331   1.758   0.946  13.275 -0.2337 -0.0242  0.6088
  695MPD2     H10332   1.620   0.998  13.625  2.3699  1.3526  0.6319
  695MPD2    H110333   1.566   0.967  13.193 -0.2175 -1.8352  0.2011
  695MPD2    H210334   1.943   0.888  13.361  1.1512  0.0552  1.1835
  695MPD2    H310335   1.790   0.908  13.178 -1.7077  0.0417  0.1013
  695MPD2     N10336   1.439   1.019  13.439 -0.3333 -0.4795  0.4433
  695MPD2    H510337   1.422   1.035  13.538  1.9602  1.2667  0.5570
  695MPD2    N110338   1.880   0.964  13.627  0.8041 -0.0520  0.7268
  695MPD2    H710339   1.830   0.961  13.716  0.3641 -2.0904  0.4272
  696TMC3    C110340   1.222   1.109  13.408 -0.2732 -0.1822  0.1651
  696TMC3    C210341   1.180   1.059  13.530  0.2681  0.0738 -0.4500
  696TMC3    C310342   1.052   1.089  13.581 -0.1427 -0.4266 -0.2252
  696TMC3    C410343   1.136   1.174  13.335 -0.1439 -0.3000  0.2240
  696TMC3    C510344   1.010   1.179  13.374 -0.6856  0.5790 -0.5804
  696TMC3    C610345   0.961   1.142  13.495  0.3861 -0.0844 -0.7952
  696TMC3     C10346   1.347   1.067  13.349  0.5887 -0.0675 -0.8872
  696TMC3     O10347   1.374   1.092  13.233  0.0459 -0.0148  1.1443
  696TMC3     H10348   1.253   1.018  13.599  0.6113  1.3501 -0.0528
  696TMC3    H110349   1.167   1.212  13.238 -1.7306 -2.3418 -1.1066
  696TMC3    H210350   0.859   1.168  13.518  0.6699  0.6584 -0.3501
  696TMC3    C710351   0.921   1.275  13.311  0.1283 -0.2261 -0.1784
  696TMC3    C810352   1.054   1.156  13.706 -0.5211  0.7138  0.0494
  696TMC3    O110353   0.798   1.244  13.313 -0.3211  0.3314 -0.0543
  696TMC3    O210354   1.154   1.155  13.771 -0.2327 -0.8116 -0.0389
  697MPD2     C10355   1.218   3.306  15.937  0.2846  0.0207  0.6659
  697MPD2    C110356   1.246   3.242  15.817 -0.2015 -0.7647 -0.0741
  697MPD2    C210357   1.246   3.325  15.706  0.1896  0.1480  0.8216
  697MPD2    C310358   1.231   3.463  15.708  0.0964  0.3992 -0.1007
  697MPD2    C410359   1.195   3.520  15.828  0.0855  0.4380 -0.2601
  697MPD2    C510360   1.181   3.436  15.933 -0.1500  0.0610 -0.1013
  697MPD2     H10361   1.281   3.283  15.612  1.4454 -0.5338  1.5847
  697MPD2    H110362   1.178   3.626  15.840 -0.6741  0.4521 -1.4073
  697MPD2    H210363   1.201   3.248  16.026 -1.2344  2.5953  2.0484
  697MPD2    H310364   1.147   3.478  16.027 -0.4313 -0.6217  0.1088
  697MPD2     N10365   1.250   3.536  15.588  0.0462 -0.1705 -0.0557
  697MPD2    H510366   1.264   3.482  15.504 -1.0104  0.6519 -0.7646
  697MPD2    N110367   1.269   3.106  15.806  0.0044 -0.2466  0.5909
  697MPD2    H710368   1.267   3.062  15.714  0.1824 -1.1006  0.9994
  698TMC3    C110369   1.227   3.708  15.432 -0.7320  0.0047 -0.3022
  698TMC3    C210370   1.287   3.826  15.395  0.2022  0.9565  0.6823
  698TMC3    C310371   1.329   3.841  15.261 -0.8382  0.4038 -0.3278
  698TMC3    C410372   1.190   3.612  15.337 -0.2819  0.0641  0.2097
  698TMC3    C510373   1.235   3.637  15.208 -0.2242  0.8931  0.6345
  698TMC3    C610374   1.303   3.745  15.168 -0.6969  1.1050 -0.1597
  698TMC3     C10375   1.239   3.671  15.570  0.8191  0.0795  0.3210
  698TMC3     O10376   1.264   3.760  15.647  0.0334 -0.1896 -0.3154
  698TMC3     H10377   1.300   3.907  15.466  0.8392  0.0998  1.5352
  698TMC3    H110378   1.141   3.520  15.365 -0.6399 -0.7562 -3.1012
  698TMC3    H210379   1.341   3.758  15.068  0.1931  1.2678  0.1936
  698TMC3    C710380   1.193   3.548  15.107 -0.0073 -1.1765 -0.0600
  698TMC3    C810381   1.411   3.947  15.223  0.9092  0.8828  0.5242
  698TMC3    O110382   1.103   3.474  15.141 -0.2414  1.1778 -0.3094
  698TMC3    O210383   1.392   3.980  15.109  0.7207 -0.0022  0.0047
  699TMC3    C110384   0.954   1.273  12.928  0.5425  0.1084 -1.2395
  699TMC3    C210385   0.992   1.162  12.996  0.5548  0.5612  0.1697
  699TMC3    C310386   0.896   1.063  13.001  0.7665  0.2510 -0.1579
  699TMC3    C410387   0.835   1.294  12.869  0.2214 -0.0499  0.2085
  699TMC3    C510388   0.740   1.197  12.890  0.1986  0.6540 -0.1074
  699TMC3    C610389   0.773   1.082  12.945  0.6070 -0.0118  0.0409
  699TMC3     C10390   1.040   1.391  12.937  0.0974  0.1840 -0.1928
  699TMC3     O10391   1.159   1.373  12.941  0.2752 -0.1686 -0.2896
  699TMC3     H10392   1.085   1.166  13.051  1.7888 -2.1779 -1.7045
  699TMC3    H110393   0.821   1.391  12.823 -2.1236 -0.4274  0.1385
  699TMC3    H210394   0.707   0.998  12.960  0.9154  0.0202  1.6067
  699TMC3    C710395   0.626   1.264  12.946  0.3441 -0.4943  0.3036
  699TMC3    C810396   0.917   0.965  13.113 -0.1294  0.2599 -1.1969
  699TMC3    O110397   0.644   1.381  12.971 -0.4483 -0.2976 -0.2021
  699TMC3    O210398   0.818   0.919  13.169  0.4238  0.4208  0.4602
  700TMC3    C110399   0.025   3.411  17.078  0.4847 -0.1331 -0.2833
  700TMC3    C210400   0.135   3.394  17.000 -0.0732 -0.0820 -0.6104
  700TMC3    C310401   0.256   3.363  17.062  0.0072  1.4544  0.0819
  700TMC3    C410402   0.041   3.417  17.217 -0.8730 -0.4074 -0.4158
  700TMC3    C510403   0.165   3.409  17.277  0.5760 -0.1498 -0.5675
  700TMC3    C610404   0.278   3.383  17.194  0.7230  0.4083  0.0171
  700TMC3     C10405   4.677   3.519  17.032  0.4045 -0.4183 -0.6403
  700TMC3     O10406   4.564   3.529  17.080 -0.4619 -0.7888  0.2133
  700TMC3     H10407   0.129   3.398  16.892  0.8025 -2.5636 -0.7663
  700TMC3    H110408   4.695   3.466  17.265 -1.4691 -1.5858 -0.2606
  700TMC3    H210409   0.379   3.398  17.231  0.6365  1.5732 -0.1986
  700TMC3    C710410   0.198   3.462  17.409 -0.4977 -0.2638  0.0158
  700TMC3    C810411   0.376   3.330  16.982 -0.3855 -0.3328 -0.0530
  700TMC3    O110412   0.312   3.498  17.437 -0.6414 -0.0284 -0.3241
  700TMC3    O210413   0.487   3.360  17.021 -0.0498  0.1331 -0.7680
  701TMC3    C110414   0.386   2.534  15.992  1.2676  0.2549  0.1433
  701TMC3    C210415   0.329   2.474  15.876  0.4602 -0.6926 -0.1714
  701TMC3    C310416   0.391   2.495  15.759  0.0033  0.1955  0.0081
  701TMC3    C410417   0.502   2.598  15.992 -0.4011 -0.3691 -0.0399
  701TMC3    C510418   0.565   2.611  15.872  0.0866 -0.0864  0.5080
  701TMC3    C610419   0.504   2.568  15.755 -0.8837  0.3487  0.1165
  701TMC3     C10420   0.343   2.466  16.112  0.2466  0.3416 -0.4479
  701TMC3     O10421   0.388   2.517  16.216  0.0306 -0.1887 -0.1109
  701TMC3     H10422   0.232   2.425  15.873 -0.6822  1.2861  4.5744
  701TMC3    H110423   0.545   2.628  16.087 -1.5394  0.0771  0.3358
  701TMC3    H210424   0.564   2.562  15.664 -0.3669 -0.5973  0.5204
  701TMC3    C710425   0.690   2.691  15.862  0.6512  0.5257  0.2677
  701TMC3    C810426   0.309   2.487  15.642 -0.1454 -0.6225  0.5139
  701TMC3    O110427   0.715   2.740  15.753  0.2731  0.1209 -0.5829
  701TMC3    O210428   0.224   2.401  15.638 -0.3336  0.1518  0.5035
  702MPD2     C10429   0.161   0.550   9.977 -0.2486  0.2086 -0.2712
  702MPD2    C110430   0.261   0.612  10.054  0.5833  0.8524  0.0295
  702MPD2    C210431   0.254   0.747  10.084 -0.1716  0.0578  0.0468
  702MPD2    C310432   0.135   0.812  10.052 -0.4074 -0.2157 -0.1107
  702MPD2    C410433   0.035   0.748   9.979 -0.1026 -0.2097  0.4366
  702MPD2    C510434   0.055   0.622   9.931  0.6944 -0.1096 -0.1003
  702MPD2     H10435   0.327   0.798  10.146  0.1522 -1.3390  0.8050
  702MPD2    H110436   4.675   0.787   9.954  0.9366  1.2846 -1.2813
  702MPD2    H210437   0.172   0.447   9.947 -0.4318  0.4159 -1.0689
  702MPD2    H310438   4.718   0.566   9.876  1.0717  0.6574 -1.4187
  702MPD2     N10439   0.113   0.934  10.125  0.2544 -0.5469  0.3614
  702MPD2    H510440   0.188   0.980  10.175  0.0027  0.1006  0.1393
  702MPD2    N110441   0.354   0.539  10.120 -0.0629  0.5396 -0.1998
  702MPD2    H710442   0.405   0.574  10.200 -0.1564  0.7410 -0.2277
  703TMC3    C110443   4.736   1.095  10.235 -0.2441  0.1431 -0.0003
  703TMC3    C210444   4.664   1.057  10.340  0.0660 -0.2121 -0.4245
  703TMC3    C310445   4.714   1.092  10.467  1.0066  0.3684  0.1072
  703TMC3    C410446   0.123   1.153  10.241  1.1640 -0.1971 -0.7300
  703TMC3    C510447   0.167   1.190  10.371 -0.1694  0.2789 -0.5462
  703TMC3    C610448   0.101   1.143  10.480 -0.1472  0.1199  0.4880
  703TMC3     C10449   4.730   0.993  10.139 -0.1574  0.0315 -0.1963
  703TMC3     O10450   4.618   0.950  10.113  0.2276 -0.2084 -0.8400
  703TMC3     H10451   4.574   0.997  10.334  2.6158 -4.0369 -0.0375
  703TMC3    H110452   0.170   1.189  10.151  0.0314 -0.9301 -1.6083
  703TMC3    H210453   0.146   1.152  10.578  1.2497 -0.6584 -0.0711
  703TMC3    C710454   0.309   1.230  10.385 -0.8655 -0.3792 -0.3053
  703TMC3    C810455   4.654   1.041  10.587 -0.7040 -0.4696 -0.2239
  703TMC3    O110456   0.382   1.190  10.293  0.9571  0.2841  0.2670
  703TMC3    O210457   4.625   1.112  10.680 -0.2029  0.0003  0.0886
  704TMC3    C110458   2.366   2.597  12.102 -0.2801  0.0639 -0.2063
  704TMC3    C210459   2.482   2.550  12.040  0.0742  0.5658  0.0775
  704TMC3    C310460   2.526   2.427  12.077  0.0671  0.6407 -0.0228
  704TMC3    C410461   2.307   2.530  12.212 -0.1359 -0.0620  0.7236
  704TMC3    C510462   2.360   2.408  12.241  0.0445  0.0617 -0.9868
  704TMC3    C610463   2.468   2.360  12.176 -0.4460  0.2840 -0.5977
  704TMC3     C10464   2.303   2.727  12.076 -0.0857 -0.0480 -0.6471
  704TMC3     O10465   2.218   2.756  12.158 -0.0565  0.2970 -0.1395
  704TMC3     H10466   2.534   2.609  11.967  1.8700 -0.9146  0.1620
  704TMC3    H110467   2.214   2.561  12.257  0.9205  0.3008  2.6578
  704TMC3    H210468   2.504   2.265  12.215  2.3726  1.8327  0.5774
  704TMC3    C710469   2.288   2.310  12.318 -0.6247 -0.1637 -0.2891
  704TMC3    C810470   2.634   2.366  12.001  0.0058 -0.1339  0.8445
  704TMC3    O110471   2.310   2.191  12.307  0.2177  0.0955  0.1894
  704TMC3    O210472   2.697   2.439  11.925 -0.0212  0.3896  0.0605
  705MPD2     C10473   1.853   1.228  16.460  0.7643 -0.5383 -0.6922
  705MPD2    C110474   1.818   1.349  16.405 -0.5295 -0.8021 -0.6151
  705MPD2    C210475   1.696   1.400  16.438  0.6580  0.6327  0.2466
  705MPD2    C310476   1.605   1.334  16.521  0.3132 -0.5390 -0.0828
  705MPD2    C410477   1.630   1.207  16.562 -0.2637  0.4299 -0.8200
  705MPD2    C510478   1.751   1.158  16.537  0.1244 -0.3103  0.0861
  705MPD2     H10479   1.680   1.500  16.400 -1.5379  0.9914  2.0765
  705MPD2    H110480   1.568   1.150  16.631  3.2031 -1.3420  0.8186
  705MPD2    H210481   1.948   1.176  16.451  1.4693  0.8529 -1.3305
  705MPD2    H310482   1.782   1.067  16.587  0.2546 -0.7641 -0.8165
  705MPD2     N10483   1.476   1.385  16.549 -0.1052 -0.0976  0.3874
  705MPD2    H510484   1.414   1.320  16.595 -1.1104  1.6774  1.5468
  705MPD2    N110485   1.896   1.416  16.312  0.2408 -0.1290  0.9900
  705MPD2    H710486   1.855   1.489  16.253  0.7188 -1.3304 -0.8427
  706TMC3    C110487   2.117   1.483  15.930  0.3904  0.4679  0.3807
  706TMC3    C210488   2.061   1.607  15.931 -0.0646  0.4149 -1.2023
  706TMC3    C310489   2.012   1.667  16.047 -0.0888 -0.6013  1.5869
  706TMC3    C410490   2.124   1.414  16.047 -0.0442 -0.4652  0.2608
  706TMC3    C510491   2.069   1.473  16.167 -0.4018  0.2140 -0.8631
  706TMC3    C610492   2.016   1.602  16.169  0.8742 -0.4743  0.1245
  706TMC3     C10493   2.164   1.416  15.808  0.5156 -0.0995 -0.2103
  706TMC3     O10494   2.267   1.352  15.799 -0.3125  0.9775  0.2210
  706TMC3     H10495   2.066   1.660  15.837  1.1146 -2.0617 -2.5333
  706TMC3    H110496   2.170   1.316  16.049  1.0658  0.0198 -1.4829
  706TMC3    H210497   1.973   1.646  16.258  2.3511 -0.0410  0.6299
  706TMC3    C710498   2.025   1.380  16.272  1.1020  0.3362 -0.6567
  706TMC3    C810499   2.016   1.811  16.038 -0.4368  0.0674 -0.5769
  706TMC3    O110500   2.098   1.288  16.297  0.2426  0.0496  0.5698
  706TMC3    O210501   2.010   1.875  15.931 -0.2898  0.1487  0.0534
  707TMC3    C110502   3.075   4.703   0.991 -0.2647  0.2485 -0.3133
  707TMC3    C210503   3.138   4.698   1.107  0.1669  0.0836 -0.9187
  707TMC3    C310504   3.083   0.033   1.211 -0.1644  0.8822  0.3537
  707TMC3    C410505   2.959   0.038   0.962 -0.1914 -0.1377 -0.0678
  707TMC3    C510506   2.900   0.083   1.075  0.2814  0.5153 -0.0830
  707TMC3    C610507   2.963   0.096   1.200 -0.8449 -0.0960  0.2472
  707TMC3     C10508   3.132   4.630   0.884 -0.0094  0.4719 -0.0039
  707TMC3     O10509   3.223   4.544   0.902 -0.1494  0.3529  0.1840
  707TMC3     H10510   3.219   4.626   1.112 -0.0289 -0.0138  0.8840
  707TMC3    H110511   2.912   0.034   0.865 -1.6710  1.8356  0.5702
  707TMC3    H210512   2.918   0.132   1.293 -2.4421 -1.7828  0.1376
  707TMC3    C710513   2.765   0.119   1.084  0.4536 -0.6669  0.0912
  707TMC3    C810514   3.154   0.031   1.343  0.1641  0.0258  0.4865
  707TMC3    O110515   2.727   0.186   1.181 -0.1168  0.0043 -0.7621
  707TMC3    O210516   3.095   0.081   1.437  0.2274 -0.1566 -0.2299
  708MPD2     C10517   4.413   4.538  14.085 -0.3053  0.1434 -0.3976
  708MPD2    C110518   4.309   4.496  14.160 -0.1399  0.1540 -0.3133
  708MPD2    C210519   4.335   4.394  14.253 -0.6050 -0.2036 -0.2260
  708MPD2    C310520   4.463   4.357  14.279 -0.0023 -0.8955 -0.1188
  708MPD2    C410521   4.567   4.409  14.207  0.0720 -0.2881  0.0211
  708MPD2    C510522   4.539   4.500  14.117  0.4872  0.7546  0.7147
  708MPD2     H10523   4.252   4.352  14.310  0.6306 -1.5389  0.5796
  708MPD2    H110524   4.670   4.384  14.231  0.4026 -0.0717 -1.1777
  708MPD2    H210525   4.406   4.603  13.998  1.5094  2.4549  1.1801
  708MPD2    H310526   4.617   4.556  14.067  2.5683  0.4139  3.5428
  708MPD2     N10527   4.478   4.266  14.380  0.3446  0.7349 -0.1990
  708MPD2    H510528   4.388   4.242  14.421 -0.6170  0.4412 -2.5084
  708MPD2    N110529   4.174   4.517  14.138 -0.1590  0.0339  0.1153
  708MPD2    H710530   4.113   4.489  14.214  0.0211 -0.4856  0.0718
  709TMC3    C110531   3.975   4.611  14.055 -1.0259 -0.7421  0.2624
  709TMC3    C210532   3.895   4.553  13.960  0.1144 -0.3862 -0.0703
  709TMC3    C310533   3.798   4.464  14.002  0.0621 -0.4358 -0.4597
  709TMC3    C410534   3.948   4.591  14.187  0.3631 -0.0990  1.0417
  709TMC3    C510535   3.862   4.487  14.223  0.2291  0.4060  0.1651
  709TMC3    C610536   3.779   4.428  14.134  0.4513  0.6120  0.2483
  709TMC3     C10537   4.119   4.588  14.038 -0.0290  0.5017  0.7901
  709TMC3     O10538   4.162   4.596  13.925 -0.0398 -0.4970  0.0213
  709TMC3     H10539   3.934   4.560  13.859  0.9922 -1.8107  0.1657
  709TMC3    H110540   4.010   4.637  14.264  0.9178  3.0051 -1.2979
  709TMC3    H210541   3.702   4.356  14.160  1.6656 -0.4746  0.8053
  709TMC3    C710542   3.907   4.411  14.341 -0.2168  0.1067 -0.4162
  709TMC3    C810543   3.713   4.394  13.906  0.0518 -0.0177 -0.5558
  709TMC3    O110544   4.010   4.453  14.398 -0.8446  0.2363 -0.5823
  709TMC3    O210545   3.628   4.319  13.947  0.0094 -0.2492  0.0705
  710TMC3    C110546   1.307   1.101  17.658 -0.5881 -0.7475  0.1542
  710TMC3    C210547   1.400   1.147  17.568  0.2521  0.6566  0.1791
  710TMC3    C310548   1.521   1.083  17.557 -0.3044 -1.0127 -0.0139
  710TMC3    C410549   1.330   0.993  17.737  1.3154 -0.2044  0.0664
  710TMC3    C510550   1.449   0.922  17.711  0.1863 -0.2705  0.0302
  710TMC3    C610551   1.543   0.964  17.624 -0.0488  0.0761 -0.7205
  710TMC3     C10552   1.188   1.170  17.654  0.4177  0.1385  0.3134
  710TMC3     O10553   1.181   1.282  17.600  0.0765 -0.2075 -0.3165
  710TMC3     H10554   1.378   1.242  17.520 -0.2307  0.8336  0.7443
  710TMC3    H110555   1.260   0.950   0.058  3.8153  1.4004  3.4620
  710TMC3    H210556   1.643   0.924  17.620 -0.2665 -0.5144 -0.1482
  710TMC3    C710557   1.483   0.819   0.056 -0.4637  0.6528  0.6519
  710TMC3    C810558   1.572   1.067  17.423 -0.6285  0.3770 -0.2321
  710TMC3    O110559   1.422   0.821   0.162 -0.2893  0.0928  0.0860
  710TMC3    O210560   1.631   0.964  17.399 -0.2314  0.3143 -0.3711
  711TMC3    C110561   1.127   2.236  14.912  0.2463 -0.4249 -0.0224
  711TMC3    C210562   1.088   2.308  15.023  0.2028 -0.2832 -0.8737
  711TMC3    C310563   1.180   2.361  15.101 -0.4991  0.5962 -0.0782
  711TMC3    C410564   1.256   2.211  14.877  0.3098  0.2337 -0.2081
  711TMC3    C510565   1.348   2.277  14.953 -0.5649  0.2148 -0.4516
  711TMC3    C610566   1.313   2.356  15.069  0.7067  0.5149 -0.2452
  711TMC3     C10567   1.044   2.123  14.873 -0.1877 -0.8113  0.5989
  711TMC3     O10568   0.922   2.128  14.854  0.0705  0.3761  0.7034
  711TMC3     H10569   0.982   2.313  15.042  0.2170  1.4153 -1.2732
  711TMC3    H110570   1.283   2.152  14.790 -1.9843 -0.2568 -0.5986
  711TMC3    H210571   1.378   2.429  15.116 -0.7585  1.2739  0.5813
  711TMC3    C710572   1.468   2.209  14.978  0.0864  0.1498 -0.5417
  711TMC3    C810573   1.150   2.359  15.245 -1.3448  0.0792  0.0637
  711TMC3    O110574   1.529   2.255  15.071 -0.5545  0.5492  0.7200
  711TMC3    O210575   1.038   2.326  15.280  0.0980 -0.4682  0.2013
  712MPD2     C10576   2.130   2.605  13.484 -0.1841  0.6861 -0.7356
  712MPD2    C110577   2.027   2.663  13.560  0.5269  0.2443 -0.0751
  712MPD2    C210578   2.063   2.732  13.675  0.0877 -0.6071  0.5360
  712MPD2    C310579   2.194   2.738  13.718  0.3747  1.1846 -0.1298
  712MPD2    C410580   2.289   2.683  13.641 -0.0204 -0.2808  0.4902
  712MPD2    C510581   2.255   2.620  13.523 -0.1065  0.0754 -0.5143
  712MPD2     H10582   1.989   2.772  13.744  4.2821  3.3723  2.8002
  712MPD2    H110583   2.395   2.672  13.660  0.2420 -0.0245 -0.8752
  712MPD2    H210584   2.112   2.549  13.393  0.7186 -1.0258  0.1525
  712MPD2    H310585   2.337   2.572  13.472 -1.2861 -1.7472 -0.6804
  712MPD2     N10586   2.241   2.806  13.836 -0.6220  0.0457  0.3952
  712MPD2    H510587   2.338   2.796  13.861  0.0535  1.4736 -1.6506
  712MPD2    N110588   1.893   2.647  13.537 -0.4701 -0.1498  0.0676
  712MPD2    H710589   1.835   2.669  13.617 -1.2356  2.8623 -1.3436
  713TMC3    C110590   2.246   2.981  13.995 -0.2419 -0.3201  0.2841
  713TMC3    C210591   2.373   2.941  14.035  0.0175 -0.2580 -0.8041
  713TMC3    C310592   2.441   3.024  14.121  0.6671  0.0910  0.1005
  713TMC3    C410593   2.186   3.092  14.046 -0.2421  0.0624 -0.0639
  713TMC3    C510594   2.265   3.170  14.126 -0.0739  0.3900  0.6178
  713TMC3    C610595   2.392   3.147  14.165  0.2144 -0.5885  0.6234
  713TMC3     C10596   2.166   2.908  13.891 -0.7388 -0.8461  0.1155
  713TMC3     O10597   2.056   2.951  13.852 -0.1402 -0.4535  0.1095
  713TMC3     H10598   2.420   2.848  14.005  2.2175  0.5201  0.2055
  713TMC3    H110599   2.083   3.116  14.023 -0.5250  1.4803  2.7603
  713TMC3    H210600   2.447   3.227  14.212 -1.6461  0.4748  0.9548
  713TMC3    C710601   2.240   3.314  14.102  0.2852 -0.5297 -0.1141
  713TMC3    C810602   2.589   3.023  14.111  0.8471  0.1762  0.0616
  713TMC3    O110603   2.249   3.389  14.199  0.3704 -0.3383 -0.2342
  713TMC3    O210604   2.636   2.965  14.015 -0.1367 -0.0778 -0.2479
  714MPD2     C10605   4.704   1.514   1.544 -0.4072 -0.3172 -0.0221
  714MPD2    C110606   4.699   1.417   1.448  0.0962 -0.2512  0.0000
  714MPD2    C210607   4.586   1.396   1.370  0.0439  0.3654 -0.4212
  714MPD2    C310608   4.483   1.486   1.386  0.5728 -0.3216 -0.6970
  714MPD2    C410609   4.480   1.586   1.482  0.7484 -0.6321 -0.0813
  714MPD2    C510610   4.597   1.604   1.557  0.0812  0.9662 -0.1405
  714MPD2     H10611   4.583   1.312   1.302  1.8457 -0.5718  0.6371
  714MPD2    H110612   4.399   1.655   1.502  1.4583  0.5452 -1.3275
  714MPD2    H210613   0.044   1.522   1.619 -0.1201  1.2855 -0.4796
  714MPD2    H310614   4.600   1.673   1.640 -0.2762  0.3510  0.3824
  714MPD2     N10615   4.381   1.465   1.297 -0.4960  0.1297 -0.0127
  714MPD2    H510616   4.388   1.404   1.216 -1.1251 -0.2838  0.2440
  714MPD2    N110617   0.073   1.332   1.434  0.1816  0.1190 -0.1954
  714MPD2    H710618   0.163   1.369   1.461 -0.0431  0.9594 -0.6209
  715TMC3    C110619   0.200   1.146   1.374 -0.4904  0.0108 -0.0015
  715TMC3    C210620   0.199   1.015   1.336 -0.1243  0.5727 -0.0321
  715TMC3    C310621   0.312   0.958   1.283 -0.1802 -0.1628  0.0557
  715TMC3    C410622   0.312   1.227   1.349  0.1807 -0.2309  0.9051
  715TMC3    C510623   0.423   1.162   1.301 -0.3108 -0.3164 -0.1018
  715TMC3    C610624   0.424   1.028   1.262  0.6436 -0.0101 -0.0661
  715TMC3     C10625   0.069   1.208   1.384 -0.0765  0.3312  0.8684
  715TMC3     O10626   4.709   1.137   1.360 -0.3065  0.1877  0.4362
  715TMC3     H10627   0.108   0.958   1.352 -1.6674  1.9839 -3.6075
  715TMC3    H110628   0.300   1.335   1.338  2.4225 -0.0307  0.3501
  715TMC3    H210629   0.514   0.982   1.223 -0.4812 -0.2209 -2.4067
  715TMC3    C710630   0.541   1.241   1.275  0.0436  0.3105 -0.0441
  715TMC3    C810631   0.285   0.833   1.205 -0.5443  0.3648 -0.2539
  715TMC3    O110632   0.622   1.203   1.190  0.5287 -0.1179 -0.3030
  715TMC3    O210633   0.168   0.810   1.183  0.4332  0.0375 -0.0435
  716MPD2     C10634   4.591   0.482   9.542 -0.3375  0.4807 -0.6109
  716MPD2    C110635   4.547   0.493   9.674 -0.5851 -0.4998 -0.7617
  716MPD2    C210636   4.555   0.387   9.764  0.9972 -0.2825  0.1567
  716MPD2    C310637   4.622   0.280   9.726 -0.6029  1.4400 -0.1138
  716MPD2    C410638   4.683   0.270   9.599  0.8046 -0.5291 -0.6724
  716MPD2    C510639   4.665   0.376   9.512 -0.0125  0.1534 -0.9826
  716MPD2     H10640   4.510   0.387   9.862  2.1615  0.3618  0.6916
  716MPD2    H110641   0.011   0.191   9.564  1.7719 -0.5231  1.1572
  716MPD2    H210642   4.591   0.557   9.465 -0.4317  0.0596 -1.0206
  716MPD2    H310643   4.723   0.361   9.422  0.5818 -0.2455 -0.5336
  716MPD2     N10644   4.626   0.184   9.826 -0.1682  0.2561 -0.1706
  716MPD2    H510645   4.555   0.198   9.897 -0.2861 -1.1284 -0.0192
  716MPD2    N110646   4.467   0.611   9.698 -0.5929  0.0266 -0.0364
  716MPD2    H710647   4.463   0.676   9.621  1.4651  0.3741  0.1590
  717TMC3    C110648   4.669   4.721   9.922 -0.1323 -0.8799  0.1902
  717TMC3    C210649   4.528   4.708   9.930  0.4894  0.6253  0.2003
  717TMC3    C310650   4.478   4.581   9.963  0.1467 -0.1342 -0.0208
  717TMC3    C410651   0.011   4.615   9.948  0.5962  0.0112 -0.2881
  717TMC3    C510652   4.690   4.499   9.985  0.1332 -0.6103 -0.7570
  717TMC3    C610653   4.560   4.469   9.980 -0.0915 -0.3345 -0.1244
  717TMC3     C10654   4.718   0.085   9.837 -0.3389  0.8940 -0.3845
  717TMC3     O10655   0.080   0.064   9.772 -0.2348  0.1822 -0.0365
  717TMC3     H10656   4.455   0.047   9.910 -0.6322  0.5077  3.6810
  717TMC3    H110657   0.117   4.630   9.957  0.1190  1.6583  2.4175
  717TMC3    H210658   4.530   4.373  10.023 -1.0675  0.8211  1.7921
  717TMC3    C710659   0.042   4.404  10.052 -0.4276  0.0546 -0.2186
  717TMC3    C810660   4.329   4.568   9.947  0.0802 -0.0864  0.0139
  717TMC3    O110661   0.017   4.287  10.026  0.5826  0.1580  0.7662
  717TMC3    O210662   4.266   4.666   9.914 -0.5315 -0.0273 -0.0388
  718MPD2     C10663   3.580   3.218  12.877  0.6012  0.0202  0.1876
  718MPD2    C110664   3.476   3.231  12.790 -0.0815 -0.0447  0.1051
  718MPD2    C210665   3.392   3.118  12.763 -0.5486 -0.0800  0.1095
  718MPD2    C310666   3.421   2.998  12.825  0.3507 -0.7998 -0.0253
  718MPD2    C410667   3.522   2.984  12.924 -0.3003 -0.7040 -0.3877
  718MPD2    C510668   3.597   3.098  12.946 -0.1874 -0.2952  0.3882
  718MPD2     H10669   3.314   3.121  12.688 -1.7180 -1.4963  1.2534
  718MPD2    H110670   3.555   2.894  12.975 -2.1440 -0.8134  0.6136
  718MPD2    H210671   3.646   3.304  12.884  0.6191 -0.0627  1.0438
  718MPD2    H310672   3.680   3.095  13.015 -0.1580  1.6437  0.4328
  718MPD2     N10673   3.345   2.884  12.789 -0.3155  0.1272  0.3907
  718MPD2    H510674   3.272   2.897  12.720  0.7976  0.4406 -0.7228
  718MPD2    N110675   3.474   3.349  12.703  0.0265  0.2300  0.0906
  718MPD2    H710676   3.559   3.405  12.695  1.5233 -1.9437  0.6388
  719TMC3    C110677   3.402   3.453  12.504 -0.3866 -0.0278 -0.0555
  719TMC3    C210678   3.316   3.405  12.403 -0.3208  0.5586 -0.1265
  719TMC3    C310679   3.362   3.340  12.293 -0.7828 -0.4491 -0.5161
  719TMC3    C410680   3.531   3.452  12.477 -0.0544 -0.4603 -0.4048
  719TMC3    C510681   3.579   3.370  12.375  0.5729  0.7410 -1.0349
  719TMC3    C610682   3.496   3.311  12.280 -0.0038 -0.9531  0.0922
  719TMC3     C10683   3.366   3.375  12.625 -0.6621 -0.4081 -0.2180
  719TMC3     O10684   3.250   3.348  12.655  0.5924 -0.6904  0.0887
  719TMC3     H10685   3.208   3.408  12.418 -0.2470  0.2602  0.4728
  719TMC3    H110686   3.607   3.489  12.545 -0.7473  0.3953 -0.0884
  719TMC3    H210687   3.542   3.257  12.198  2.8255 -1.4677  2.0255
  719TMC3    C710688   3.721   3.326  12.385 -0.1908 -0.8471 -0.0349
  719TMC3    C810689   3.268   3.236  12.244  0.0978 -0.5857  0.1366
  719TMC3    O110690   3.804   3.408  12.423 -0.1455  0.0589  0.0050
  719TMC3    O210691   3.153   3.239  12.286  0.2137  0.3345 -0.6473
  720MPD2     C10692   2.299   0.415  14.483 -0.5880  0.8838  0.6393
  720MPD2    C110693   2.379   0.319  14.429 -1.0265 -0.0173  0.9983
  720MPD2    C210694   2.492   0.279  14.494 -1.0102 -0.7194 -0.1761
  720MPD2    C310695   2.538   0.337  14.610 -0.2180 -0.0532 -0.5000
  720MPD2    C410696   2.447   0.423  14.672 -0.3944 -0.0043 -0.2925
  720MPD2    C510697   2.329   0.463  14.606  0.0337 -0.5205  0.3083
  720MPD2     H10698   2.555   0.203  14.449 -0.5309 -1.1564  1.2391
  720MPD2    H110699   2.460   0.465  14.771  1.7793  1.0749 -1.0360
  720MPD2    H210700   2.212   0.459  14.436 -1.2770  0.7263  1.7475
  720MPD2    H310701   2.260   0.536  14.648 -0.2277 -0.3342 -0.4357
  720MPD2     N10702   2.653   0.276  14.671  0.2441  0.0882  0.0518
  720MPD2    H510703   2.704   0.209  14.615 -0.5093 -2.0838  1.9860
  720MPD2    N110704   2.355   0.254  14.310  0.8059 -0.2437 -0.2864
  720MPD2    H710705   2.418   0.177  14.289  1.5132 -0.1641  1.4833
  721TMC3    C110706   2.849   0.265  14.812 -0.5117 -0.1437 -0.9372
  721TMC3    C210707   2.904   0.269  14.939 -0.3715 -0.3802  0.0441
  721TMC3    C310708   3.040   0.250  14.961 -0.4522  0.2387  0.3113
  721TMC3    C410709   2.920   0.230  14.703  0.1266 -0.5603  0.3188
  721TMC3    C510710   3.060   0.209  14.728 -1.2813 -0.9787  0.0632
  721TMC3    C610711   3.117   0.217  14.853  0.0838  0.6270  0.2639
  721TMC3     C10712   2.711   0.306  14.799 -0.1017 -0.1316  0.5247
  721TMC3     O10713   2.652   0.357  14.894 -0.0267  0.1452 -0.3241
  721TMC3     H10714   2.840   0.311  15.016 -0.6844 -0.0994 -0.3673
  721TMC3    H110715   2.873   0.227  14.606 -0.3696 -0.9815  0.5745
  721TMC3    H210716   3.221   0.188  14.862  0.3279  1.7410  0.9372
  721TMC3    C710717   3.154   0.242  14.621  0.4058 -0.0526  0.0058
  721TMC3    C810718   3.110   0.279  15.087 -0.6170  0.6187 -0.2627
  721TMC3    O110719   3.228   0.334  14.644  1.1080  0.2340  0.0075
  721TMC3    O210720   3.228   0.257  15.076 -0.3307  0.5969 -0.3146
  722MPD2     C10721   1.229   3.445  13.569 -0.1584  0.0924 -0.1430
  722MPD2    C110722   1.253   3.531  13.466 -0.1041 -0.1395 -0.2891
  722MPD2    C210723   1.144   3.577  13.395  0.3488 -0.1622 -0.0941
  722MPD2    C310724   1.012   3.525  13.423 -0.2293 -0.1580 -0.0536
  722MPD2    C410725   0.995   3.442  13.529 -0.7135 -0.1223  0.0926
  722MPD2    C510726   1.102   3.403  13.596  0.8389  0.2702  0.1179
  722MPD2     H10727   1.167   3.637  13.308  0.8380  0.4266  0.4407
  722MPD2    H110728   0.896   3.407  13.556 -0.4328  0.1714  1.4751
  722MPD2    H210729   1.300   3.407  13.642  1.0559  1.7417 -0.4768
  722MPD2    H310730   1.093   3.336  13.681  0.5701  0.7072  0.4343
  722MPD2     N10731   0.909   3.547  13.335 -0.4216 -0.4089 -0.1037
  722MPD2    H510732   0.933   3.613  13.262 -0.1641 -1.7587 -1.2355
  722MPD2    N110733   1.382   3.588  13.429 -0.0142 -0.2616 -0.0039
  722MPD2    H710734   1.377   3.658  13.356  1.6792  0.9932  1.0937
  723TMC3    C110735   0.722   3.515  13.200  0.1187 -0.0766  0.1338
  723TMC3    C210736   0.619   3.435  13.168  0.5227  0.0397 -0.0390
  723TMC3    C310737   0.527   3.488  13.077 -0.4631  0.4720 -0.1516
  723TMC3    C410738   0.732   3.642  13.154  0.2200  0.8227 -0.3508
  723TMC3    C510739   0.640   3.694  13.075 -0.0378  0.0969 -0.4237
  723TMC3    C610740   0.539   3.613  13.038 -0.0117  0.7750  0.5949
  723TMC3     C10741   0.806   3.468  13.305 -0.6666  0.6800  0.3709
  723TMC3     O10742   0.796   3.355  13.356  0.0615  0.5540 -0.0406
  723TMC3     H10743   0.612   3.332  13.203  1.9402  0.3214  1.0585
  723TMC3    H110744   0.803   3.715  13.193 -0.8238  1.4799  0.3186
  723TMC3    H210745   0.456   3.649  12.977  0.9887  2.7461  0.3970
  723TMC3    C710746   0.660   3.830  13.021  0.2667  0.0368  0.0568
  723TMC3    C810747   0.428   3.403  13.016 -0.8772 -0.5964  0.2031
  723TMC3    O110748   0.698   3.915  13.095  0.2817  0.0477 -0.0637
  723TMC3    O210749   0.351   3.467  12.944  0.3518 -0.0769  0.2170
  724TMC3    C110750   2.095   2.078  10.616  0.4617  0.2682 -0.3226
  724TMC3    C210751   2.022   2.185  10.556 -0.7620  0.1747 -0.5227
  724TMC3    C310752   2.079   2.307  10.551  0.6068  0.2628  0.5667
  724TMC3    C410753   2.215   2.104  10.669 -0.2602  0.2989 -0.3368
  724TMC3    C510754   2.266   2.234  10.669  0.2644  0.4322 -0.3082
  724TMC3    C610755   2.199   2.335  10.603  0.1163 -0.4586  0.4844
  724TMC3     C10756   2.049   1.940  10.610  0.4716  0.0145 -0.8606
  724TMC3     O10757   2.113   1.868  10.684  0.8646  0.4603 -0.5105
  724TMC3     H10758   1.931   2.175  10.499  0.5863 -2.2552 -2.2247
  724TMC3    H110759   2.276   2.024  10.709  0.1179 -0.3325 -2.1733
  724TMC3    H210760   2.250   2.429  10.590 -0.5396 -0.3785 -1.4445
  724TMC3    C710761   2.401   2.247  10.719  0.1083  0.3150 -0.0775
  724TMC3    C810762   2.001   2.419  10.512 -0.2609  0.1312  0.3400
  724TMC3    O110763   2.478   2.313  10.649  0.0596  0.4699  1.1618
  724TMC3    O210764   1.911   2.406  10.433 -0.9574 -0.4015  0.6063
  725TMC3    C110765   3.299   0.283  12.938  0.0233 -0.1759 -0.5576
  725TMC3    C210766   3.228   0.341  12.838 -0.0315  0.9327  0.0018
  725TMC3    C310767   3.148   0.263  12.759  0.2687  0.1334 -0.4765
  725TMC3    C410768   3.299   0.148  12.965 -0.2341 -0.0948  0.5829
  725TMC3    C510769   3.209   0.079  12.892 -0.2986  0.3617 -0.6328
  725TMC3    C610770   3.130   0.131  12.790 -0.2522  0.0068  0.3823
  725TMC3     C10771   3.377   0.366  13.027  0.2092 -0.7982 -0.0029
  725TMC3     O10772   3.432   0.461  12.973 -0.2058  0.1738  0.0623
  725TMC3     H10773   3.246   0.446  12.820  0.1781  0.6986 -1.1686
  725TMC3    H110774   3.363   0.103  13.040  0.9652 -1.0336 -1.0297
  725TMC3    H210775   3.059   0.066  12.740  0.6047  0.4393 -1.3920
  725TMC3    C710776   3.278   4.701  12.859 -0.3474  0.0629  1.0432
  725TMC3    C810777   3.057   0.318  12.665 -0.6905  0.2112 -0.4175
  725TMC3    O110778   3.398   4.715  12.833 -0.7480 -0.1939 -0.3324
  725TMC3    O210779   2.950   0.260  12.645  0.2627 -0.0096 -0.6991
  726MPD2     C10780   1.039   2.689   9.974 -0.4717 -0.4076  0.1955
  726MPD2    C110781   0.919   2.706  10.031 -0.4949  0.7252  0.4964
  726MPD2    C210782   0.857   2.587  10.068 -0.3624  1.4734  0.6185
  726MPD2    C310783   0.913   2.460  10.054 -1.0818 -0.0815 -0.7652
  726MPD2    C410784   1.034   2.450   9.985  1.0628  0.0660  0.2532
  726MPD2    C510785   1.099   2.568   9.949  0.5326 -0.7747  0.2494
  726MPD2     H10786   0.758   2.588  10.111 -1.0680  0.3555 -0.9450
  726MPD2    H110787   1.079   2.356   9.955 -1.5456 -0.9171 -0.6450
  726MPD2    H210788   1.081   2.780   9.932 -0.8126  0.3473  1.4642
  726MPD2    H310789   1.194   2.555   9.899  0.0380 -2.0968 -0.3533
  726MPD2     N10790   0.850   2.336  10.075 -0.8325  0.2292  0.4920
  726MPD2    H510791   0.897   2.257  10.033  1.0948  0.8416  1.5050
  726MPD2    N110792   0.862   2.831  10.068  0.3227  0.1219  0.5029
  726MPD2    H710793   0.770   2.825  10.110  0.6104  0.0776  1.1262
  727TMC3    C110794   0.838   3.054  10.104 -0.7157  0.2132 -0.7491
  727TMC3    C210795   0.870   3.134  10.203 -0.2141 -0.8503 -0.1608
  727TMC3    C310796   0.773   3.203  10.272  0.2228  0.6697  0.2745
  727TMC3    C410797   0.705   3.036  10.065 -0.5519 -0.0554 -0.0191
  727TMC3    C510798   0.613   3.117  10.128 -0.2362  0.8779  0.1598
  727TMC3    C610799   0.640   3.200  10.231 -0.2064 -0.6499 -0.0832
  727TMC3     C10800   0.934   2.948  10.089  0.1547  0.4862  0.0196
  727TMC3     O10801   1.052   2.970  10.069  0.0568  0.6171 -0.1187
  727TMC3     H10802   0.974   3.141  10.231 -0.5745 -2.3747  1.5394
  727TMC3    H110803   0.678   2.964   9.989  0.4119 -0.5731  0.1382
  727TMC3    H210804   0.561   3.264  10.269 -2.1517 -3.0919  0.0332
  727TMC3    C710805   0.475   3.120  10.074  0.1933 -0.0992 -0.4048
  727TMC3    C810806   0.817   3.267  10.390  0.1247  0.1203  0.4802
  727TMC3    O110807   0.400   3.181  10.149 -0.3229 -0.1500 -0.1319
  727TMC3    O210808   0.921   3.231  10.439 -0.3219  0.4414 -0.4602
  728TMC3    C110809   0.262   0.568  15.467 -0.4089  0.2661 -0.1745
  728TMC3    C210810   0.384   0.619  15.495  0.6749 -0.3815 -0.2096
  728TMC3    C310811   0.446   0.706  15.407  0.4113 -0.2696 -0.5150
  728TMC3    C410812   0.186   0.611  15.354  0.3359  0.2945 -0.4600
  728TMC3    C510813   0.249   0.705  15.274 -0.4688  0.4094  0.4695
  728TMC3    C610814   0.372   0.762  15.302  0.0377 -0.7920 -0.4245
  728TMC3     C10815   0.193   0.490  15.566 -0.1868 -0.3480  0.3930
  728TMC3     O10816   0.276   0.427  15.629  0.5260 -0.5566 -0.4167
  728TMC3     H10817   0.440   0.586  15.582 -1.6697  1.9144  2.1358
  728TMC3    H110818   0.090   0.575  15.319 -0.9196  3.1398  0.0569
  728TMC3    H210819   0.418   0.845  15.249  1.0481 -1.6747 -0.9426
  728TMC3    C710820   0.181   0.745  15.159 -0.2031  0.0812 -0.2950
  728TMC3    C810821   0.577   0.764  15.443 -0.4331  0.0732  0.9756
  728TMC3    O110822   0.075   0.690  15.130  0.1900 -0.1728 -0.8334
  728TMC3    O210823   0.600   0.762  15.559  0.0808  0.1882 -0.2573
  729MPD2     C10824   2.238   1.981  16.747 -0.0700 -0.9216  0.0198
  729MPD2    C110825   2.367   1.997  16.782  0.0549 -0.2105 -0.2303
  729MPD2    C210826   2.391   2.012  16.916 -0.2487  0.2318  1.0859
  729MPD2    C310827   2.288   2.012  17.011 -0.3114 -0.1707 -0.1895
  729MPD2    C410828   2.160   1.997  16.971  0.3976  0.5525 -0.1037
  729MPD2    C510829   2.137   1.979  16.837 -0.0867  0.0106 -0.1246
  729MPD2     H10830   2.492   2.037  16.948 -0.4058  0.9313  1.0460
  729MPD2    H110831   2.079   2.027  17.036 -0.9724  0.7691 -1.9237
  729MPD2    H210832   2.208   1.975  16.643  1.6198  0.7070 -0.5605
  729MPD2    H310833   2.035   1.976  16.800 -0.2154 -1.4149  0.3349
  729MPD2     N10834   2.304   2.037  17.148  0.3033 -0.2944 -0.1027
  729MPD2    H510835   2.219   2.043  17.204  0.6066  0.6908  0.2662
  729MPD2    N110836   2.464   2.007  16.679 -0.4197 -0.2737  0.5935
  729MPD2    H710837   2.428   1.988  16.586  0.2986  1.5815 -0.0768
  730TMC3    C110838   2.419   2.128  17.338 -0.1459  0.8589 -0.3137
  730TMC3    C210839   2.538   2.165  17.387 -0.5801 -0.2502  0.3171
  730TMC3    C310840   2.554   2.292  17.439 -0.0499  0.4468 -0.4608
  730TMC3    C410841   2.307   2.213  17.355  0.6585 -0.5249  0.5254
  730TMC3    C510842   2.321   2.335  17.425  0.6807  0.3087  0.1463
  730TMC3    C610843   2.453   2.380  17.465  0.7526  0.3918 -0.5239
  730TMC3     C10844   2.429   2.062  17.208  0.1153 -0.2412  1.0080
  730TMC3     O10845   2.541   2.067  17.162  0.6350  0.3740 -0.1827
  730TMC3     H10846   2.624   2.099  17.382 -0.0863  0.2171  2.5401
  730TMC3    H110847   2.208   2.190  17.317  1.5202 -1.2893 -1.2072
  730TMC3    H210848   2.468   2.483  17.495  0.4937 -0.3198  2.0937
  730TMC3    C710849   2.245   2.443  17.370  0.4403 -0.5394  0.4546
  730TMC3    C810850   2.678   2.354  17.394 -0.8061  0.5751  0.4291
  730TMC3    O110851   2.206   2.433  17.251  0.6382  0.3053 -0.4930
  730TMC3    O210852   2.727   2.444  17.465 -0.5843  0.7463  0.1361
  731MPD2     C10853   3.044   4.539  12.470 -0.7998 -0.0516  0.2554
  731MPD2    C110854   2.956   4.650  12.459  0.3776 -0.0469  0.6111
  731MPD2    C210855   2.833   4.640  12.508 -0.4563  1.1300  0.2530
  731MPD2    C310856   2.788   4.541  12.591  0.2352  0.3580  0.1843
  731MPD2    C410857   2.883   4.451  12.622 -0.2962  0.0650 -0.5060
  731MPD2    C510858   3.001   4.443  12.557  0.5205  0.3526 -0.0837
  731MPD2     H10859   2.762   4.720  12.490 -1.4041 -0.0605 -1.3308
  731MPD2    H110860   2.857   4.371  12.691  0.3404  0.8288  0.6106
  731MPD2    H210861   3.147   4.536  12.437 -0.5494 -0.3820  1.0693
  731MPD2    H310862   3.069   4.360  12.573 -1.6549 -1.5122 -0.5973
  731MPD2     N10863   2.660   4.541  12.654  0.3614  0.1282 -0.0501
  731MPD2    H510864   2.594   4.612  12.625 -0.9380 -0.5183  1.3420
  731MPD2    N110865   3.004   0.024  12.384 -0.3066 -0.7301  0.3735
  731MPD2    H710866   3.101   0.009  12.357 -0.4496  1.9706 -1.6024
  732TMC3    C110867   2.987   0.230  12.249 -0.4811 -0.2898  0.1387
  732TMC3    C210868   2.903   0.320  12.194  0.8833  0.3307  0.6215
  732TMC3    C310869   2.945   0.379  12.075 -1.0886 -0.0233  0.1660
  732TMC3    C410870   3.115   0.221  12.207  0.1036 -0.6294  0.6167
  732TMC3    C510871   3.166   0.297  12.109  0.2460  0.2484  1.2540
  732TMC3    C610872   3.077   0.374  12.028  0.0242  0.0059 -0.8705
  732TMC3     C10873   2.924   0.131  12.337  0.0648 -0.0576 -1.0409
  732TMC3     O10874   2.807   0.154  12.364  0.7451 -0.1537 -0.1588
  732TMC3     H10875   2.800   0.325  12.227 -0.0355 -0.9331 -2.0845
  732TMC3    H110876   3.186   0.155  12.256 -0.0056 -1.3706 -0.2297
  732TMC3    H210877   3.106   0.438  11.944 -1.3481 -0.0255 -1.3602
  732TMC3    C710878   3.296   0.277  12.054  0.2155 -0.3060  0.2360
  732TMC3    C810879   2.846   0.402  11.968 -0.5693  0.9362  0.1576
  732TMC3    O110880   3.318   0.318  11.941  0.2574  0.7619 -0.2322
  732TMC3    O210881   2.894   0.409  11.857  0.5837 -0.4010  0.6868
  733TMC3    C110882   3.120   2.496  12.746  0.2484  0.8301 -0.3031
  733TMC3    C210883   3.207   2.574  12.814  0.5116  0.1287 -0.1556
  733TMC3    C310884   3.275   2.669  12.750  0.6617  0.0991 -0.3787
  733TMC3    C410885   3.098   2.513  12.614 -0.0172  0.2045 -1.1334
  733TMC3    C510886   3.162   2.617  12.548  0.5704 -0.1669 -0.3946
  733TMC3    C610887   3.251   2.702  12.618  0.3894  0.2007 -0.2241
  733TMC3     C10888   3.008   2.448  12.824  0.4197  0.1547 -0.1501
  733TMC3     O10889   2.989   2.485  12.943 -0.3423 -0.2093 -0.0328
  733TMC3     H10890   3.218   2.570  12.922 -0.4763  0.3256 -0.0559
  733TMC3    H110891   3.033   2.453  12.551  0.5387 -1.7895  0.2012
  733TMC3    H210892   3.313   2.771  12.562 -0.2543 -0.2214 -1.4574
  733TMC3    C710893   3.159   2.626  12.406  0.1198  0.0579 -0.5245
  733TMC3    C810894   3.370   2.753  12.826  0.0590  0.5998  0.4615
  733TMC3    O110895   3.169   2.530  12.328 -0.6548  0.4086 -0.1057
  733TMC3    O210896   3.440   2.695  12.910  0.0820  0.3783 -0.1476
  734MPD2     C10897   0.709   0.803  12.226  0.0122  0.7265  0.0116
  734MPD2    C110898   0.646   0.760  12.112 -0.7501 -0.5144 -0.1089
  734MPD2    C210899   0.702   0.786  11.989  0.5996  0.1019  0.0338
  734MPD2    C310900   0.831   0.844  11.985 -0.5082  0.3247 -0.2952
  734MPD2    C410901   0.891   0.902  12.099  0.5450 -0.1951  0.2028
  734MPD2    C510902   0.827   0.876  12.217 -0.1357  0.1714 -0.2673
  734MPD2     H10903   0.656   0.756  11.896 -0.6832  2.2636 -0.0130
  734MPD2    H110904   0.980   0.963  12.108  0.6525 -0.2759 -0.3379
  734MPD2    H210905   0.678   0.794  12.329 -0.5410  0.9039 -0.1386
  734MPD2    H310906   0.860   0.934  12.302  0.3131  1.1184 -1.0895
  734MPD2     N10907   0.888   0.865  11.858 -0.1444 -0.2891  0.0527
  734MPD2    H510908   0.820   0.844  11.785  1.8515 -3.3129 -0.9179
  734MPD2    N110909   0.531   0.675  12.136 -0.5444 -0.5531  0.5592
  734MPD2    H710910   0.491   0.668  12.230  1.4302 -0.1980  1.4275
  735TMC3    C110911   0.383   0.485  12.074  0.2785  0.3498 -0.2903
  735TMC3    C210912   0.336   0.445  11.951  0.0602 -0.9314 -0.1267
  735TMC3    C310913   0.349   0.310  11.919  0.1997 -0.1622 -0.2400
  735TMC3    C410914   0.450   0.399  12.156  0.0360  1.0925  0.6569
  735TMC3    C510915   0.475   0.272  12.114  0.3153  0.0938  0.4618
  735TMC3    C610916   0.417   0.219  12.000  0.3274 -0.4730  0.4738
  735TMC3     C10917   0.458   0.608  12.042  0.3971  0.2465 -0.3960
  735TMC3     O10918   0.474   0.631  11.923  0.0568  0.2554  0.0186
  735TMC3     H10919   0.273   0.510  11.893 -0.5333  0.3525  1.9529
  735TMC3    H110920   0.506   0.437  12.241  2.8183  2.3390 -1.7228
  735TMC3    H210921   0.435   0.119  11.963  2.1587  0.3546 -0.8616
  735TMC3    C710922   0.615   0.244  12.137 -0.8490  0.1760  0.3780
  735TMC3    C810923   0.376   0.293  11.781  0.0645 -0.2701 -0.3483
  735TMC3    O110924   0.692   0.340  12.124  0.1604  0.1142 -0.0834
  735TMC3    O210925   0.352   0.185  11.727  0.7488 -0.3807  0.2005
  736MPD2     C10926   0.763   4.649  12.107 -0.0947  0.8546  0.1361
  736MPD2    C110927   0.759   0.046  12.108  0.2136  0.4797 -0.4620
  736MPD2    C210928   0.877   0.114  12.084 -0.9318 -0.4830 -0.1377
  736MPD2    C310929   0.992   0.047  12.041  0.5532  0.0448  0.5341
  736MPD2    C410930   0.988   4.648  12.036 -0.0918  0.1345 -0.1330
  736MPD2    C510931   0.875   4.579  12.072  0.2988  0.0242 -0.4363
  736MPD2     H10932   0.876   0.222  12.079 -1.5018 -0.3447  3.4152
  736MPD2    H110933   1.067   4.589  11.990  0.0927  1.0744 -1.0005
  736MPD2    H210934   0.673   4.592  12.125 -0.2576  0.7003 -1.2190
  736MPD2    H310935   0.867   4.473  12.051 -0.5238 -0.3348  1.6130
  736MPD2     N10936   1.116   0.109  12.012  0.4127 -0.1351 -0.0174
  736MPD2    H510937   1.176   0.036  11.976 -1.8621 -1.6373 -0.8177
  736MPD2    N110938   0.639   0.110  12.143  0.0513  0.1049  0.2623
  736MPD2    H710939   0.558   0.053  12.168 -0.4433  0.2334 -1.0532
  737TMC3    C110940   1.278   0.268  11.955  0.2976  0.8168  0.5881
  737TMC3    C210941   1.299   0.396  11.894 -0.3129 -0.3337  0.2629
  737TMC3    C310942   1.429   0.440  11.875  0.5545 -0.4035 -0.2482
  737TMC3    C410943   1.383   0.195  11.988 -0.1212 -0.5898  0.6651
  737TMC3    C510944   1.507   0.236  11.960 -0.1770 -0.2742  0.0012
  737TMC3    C610945   1.535   0.360  11.899 -0.3782  0.1222  0.0108
  737TMC3     C10946   1.144   0.242  11.999 -0.8341 -0.3048 -0.3031
  737TMC3     O10947   1.066   0.330  12.030 -0.0156  0.0792  0.6690
  737TMC3     H10948   1.219   0.464  11.867  0.4604 -0.5843 -2.6227
  737TMC3    H110949   1.365   0.097  12.030  3.8705 -2.2987 -1.6297
  737TMC3    H210950   1.633   0.394  11.868  0.3272 -1.4769  0.4801
  737TMC3    C710951   1.606   0.129  11.936  0.9092 -0.3841 -0.0292
  737TMC3    C810952   1.446   0.532  11.760 -0.2873 -0.7871 -0.5809
  737TMC3    O110953   1.578   0.015  11.970 -0.2949  0.0304  0.1337
  737TMC3    O210954   1.518   0.489  11.671  0.1178  0.5497  0.1858
  738MPD2     C10955   1.706   4.081  15.402  0.1580  0.2037 -0.1867
  738MPD2    C110956   1.612   4.073  15.297 -0.2581  0.1193  0.4373
  738MPD2    C210957   1.634   4.156  15.187  0.1277 -0.1401  0.2754
  738MPD2    C310958   1.751   4.223  15.172 -0.0782 -0.0132 -0.5435
  738MPD2    C410959   1.836   4.218  15.279  0.3147  0.6939  0.7058
  738MPD2    C510960   1.818   4.147  15.389 -0.2085  0.3020  0.4736
  738MPD2     H10961   1.555   4.163  15.114 -2.6428 -2.6554  2.9950
  738MPD2    H110962   1.927   4.275  15.268 -0.3761  2.2207  2.8091
  738MPD2    H210963   1.698   4.029  15.497  0.3552  2.3868  1.0287
  738MPD2    H310964   1.900   4.139  15.459  1.3619  1.5730 -1.2308
  738MPD2     N10965   1.779   4.314  15.063  0.0882  0.2485  0.4136
  738MPD2    H510966   1.874   4.350  15.060  0.4758 -0.7236  1.1856
  738MPD2    N110967   1.501   3.985  15.315 -0.0102 -0.7918  0.5087
  738MPD2    H710968   1.503   3.931  15.401 -1.4754 -0.7283  0.5734
  739TMC3    C110969   1.752   4.448  14.868  0.3729 -0.5246  0.0633
  739TMC3    C210970   1.687   4.471  14.751  0.6446  0.2666  0.5362
  739TMC3    C310971   1.748   4.535  14.645  0.8658 -0.0955 -0.0859
  739TMC3    C410972   1.885   4.489  14.884 -0.4208 -0.1904 -0.4185
  739TMC3    C510973   1.930   4.584  14.789  0.3283  0.4443  0.6372
  739TMC3    C610974   1.871   4.598  14.670 -0.7063  0.2826  0.1349
  739TMC3     C10975   1.694   4.346  14.958  0.3618  0.7598  0.0806
  739TMC3     O10976   1.581   4.310  14.932 -0.3038  0.0234 -0.0265
  739TMC3     H10977   1.588   4.428  14.740  0.1791  1.1881  1.1462
  739TMC3    H110978   1.929   4.495  14.983 -1.8566 -4.2408  0.4494
  739TMC3    H210979   1.916   4.649  14.585 -1.0063  0.6800  0.2107
  739TMC3    C710980   2.066   4.627  14.796 -0.5719  0.4739 -0.2019
  739TMC3    C810981   1.692   4.524  14.513 -0.4454  0.0670  0.2091
  739TMC3    O110982   2.096   4.731  14.745  0.9729  0.0387  0.0691
  739TMC3    O210983   1.639   4.415  14.492 -0.4453 -0.4451 -0.0379
  740TMC3    C110984   2.247   0.912  14.850  0.6507  0.2629  0.0522
  740TMC3    C210985   2.253   0.975  14.968  0.0604 -0.1935 -0.4162
  740TMC3    C310986   2.365   0.958  15.047  0.6391  0.1505 -0.5562
  740TMC3    C410987   2.356   0.843  14.805  1.1310  0.1856 -0.6400
  740TMC3    C510988   2.470   0.843  14.886  0.3117 -1.2049 -0.7838
  740TMC3    C610989   2.478   0.913  15.001 -0.3037  0.0627 -0.0188
  740TMC3     C10990   2.126   0.903  14.770  0.5267 -0.4065  0.2470
  740TMC3     O10991   2.136   0.917  14.648  0.1393  0.2729 -0.1774
  740TMC3     H10992   2.164   1.015  15.015  0.4743 -1.0753  1.1321
  740TMC3    H110993   2.349   0.780  14.717  0.2604 -0.4383 -0.1245
  740TMC3    H210994   2.573   0.923  15.053  0.0478  0.2558 -0.7059
  740TMC3    C710995   2.587   0.766  14.839 -0.6581  0.4893 -0.1486
  740TMC3    C810996   2.362   1.000  15.184  0.3887  0.0941  0.9201
  740TMC3    O110997   2.668   0.736  14.918 -0.5846 -0.2175  0.1757
  740TMC3    O210998   2.301   1.095  15.221  0.1303  0.7984  0.2693
  741TMC3    C110999   1.425   0.162  14.570 -0.0818 -0.0409  0.3000
  741TMC3    C211000   1.324   0.072  14.582  0.7623 -0.5782  0.4540
  741TMC3    C311001   1.318   0.001  14.698 -0.0203 -0.0487  0.3138
  741TMC3    C411002   1.531   0.171  14.658 -0.1380 -0.0272 -0.2401
  741TMC3    C511003   1.519   0.109  14.778  0.2631  0.8458 -0.3125
  741TMC3    C611004   1.415   0.017  14.806  0.2571  0.1617 -0.3202
  741TMC3     C11005   1.431   0.223  14.440  0.6545 -1.0615 -0.1145
  741TMC3     O11006   1.330   0.223  14.373 -0.1722 -0.4382  0.0532
  741TMC3     H11007   1.250   0.049  14.507  0.2748  1.5459  0.2771
  741TMC3    H111008   1.599   0.254  14.642 -0.1553 -0.2027 -1.2694
  741TMC3    H211009   1.400   4.715  14.906 -0.3165 -1.6781 -1.1420
  741TMC3    C711010   1.628   0.119  14.864 -0.0029 -0.1170 -0.2190
  741TMC3    C811011   1.205   4.652  14.717  0.0876 -0.1306  0.2904
  741TMC3    O111012   1.724   0.171  14.806 -0.2571  0.0417 -0.2102
  741TMC3    O211013   1.117   4.667  14.635 -0.6679  0.0159  0.5121
  742TMC3    C111014   1.558   3.271  15.269 -0.1256 -0.2671 -0.3352
  742TMC3    C211015   1.459   3.236  15.180 -0.5311 -0.6057 -1.2480
  742TMC3    C311016   1.484   3.140  15.083  0.2077 -0.0814  0.4749
  742TMC3    C411017   1.665   3.192  15.292  0.4791  0.1841 -0.1188
  742TMC3    C511018   1.674   3.086  15.205 -0.1484  0.4406 -0.0085
  742TMC3    C611019   1.591   3.067  15.095  0.0053 -0.5082  0.2099
  742TMC3     C11020   1.543   3.396  15.347  0.3574  0.5037  0.3540
  742TMC3     O11021   1.433   3.447  15.368 -0.2944 -0.5337 -0.1008
  742TMC3     H11022   1.380   3.308  15.166  0.1492  0.6795  1.5933
  742TMC3    H111023   1.738   3.209  15.370  1.6015 -1.9418 -0.7035
  742TMC3    H211024   1.620   2.991  15.023 -0.2060  1.2122 -1.6932
  742TMC3    C711025   1.782   2.988  15.223  1.0534  1.0129  0.7279
  742TMC3    C811026   1.387   3.096  14.994 -0.0696 -0.3692  0.2515
  742TMC3    O111027   1.797   2.907  15.136 -0.2863  0.6624  0.9638
  742TMC3    O211028   1.417   3.011  14.916  0.1113 -0.2907  0.2431
  743MPD2     C11029   4.121   4.549   1.998  0.1629 -0.2109  0.1849
  743MPD2    C111030   4.183   4.510   1.878  0.3546  0.3209  0.2153
  743MPD2    C211031   4.320   4.512   1.880 -0.2273  0.0869 -0.3745
  743MPD2    C311032   4.396   4.559   1.986  0.5487 -0.5510  1.0561
  743MPD2    C411033   4.330   4.594   2.098 -0.4120  0.1817  0.1153
  743MPD2    C511034   4.195   4.585   2.104 -0.1705  0.6566  0.6070
  743MPD2     H11035   4.379   4.467   1.800 -1.6846 -0.3103 -1.2128
  743MPD2    H111036   4.371   4.623   2.194 -2.5928  0.8682  0.8487
  743MPD2    H211037   4.013   4.543   2.009  0.2675  0.4152  1.5631
  743MPD2    H311038   4.147   4.605   2.200 -0.5365  0.4556  0.4680
  743MPD2     N11039   4.534   4.567   1.974 -0.7469 -0.6303  0.3496
  743MPD2    H511040   4.569   4.520   1.891 -0.2546  2.1393 -1.0377
  743MPD2    N111041   4.111   4.475   1.768  0.4196  0.2061  0.0001
  743MPD2    H711042   4.010   4.483   1.770  0.2732 -1.7698  0.6678
  744TMC3    C111043   4.083   4.412   1.534  0.8147  0.6131 -0.9583
  744TMC3    C211044   3.966   4.479   1.534 -0.0144  0.7482  0.0053
  744TMC3    C311045   3.889   4.461   1.422  0.0768 -0.3225 -0.1269
  744TMC3    C411046   4.106   4.311   1.444  0.0841 -0.0586  0.6263
  744TMC3    C511047   4.014   4.293   1.345  0.1905 -0.0507  0.0881
  744TMC3    C611048   3.898   4.365   1.336 -0.0832 -0.5250 -0.2592
  744TMC3     C11049   4.167   4.415   1.654  0.7278 -0.3447  0.4044
  744TMC3     O11050   4.284   4.382   1.631 -0.1273 -0.3236  0.5161
  744TMC3     H11051   3.956   4.562   1.604 -2.6150  0.7463 -0.3734
  744TMC3    H111052   4.201   4.258   1.448  0.7136  1.2174  2.2660
  744TMC3    H211053   3.835   4.358   1.248 -0.1958 -1.2503 -0.1257
  744TMC3    C711054   4.061   4.216   1.235 -0.1569  0.4447  0.5352
  744TMC3    C811055   3.763   4.532   1.402  0.1742 -0.9466  0.1552
  744TMC3    O111056   4.184   4.193   1.233  0.1315  0.2114 -0.1269
  744TMC3    O211057   3.734   4.557   1.287 -0.1808  0.0065  0.5730
  745TMC3    C111058   1.689   2.602  13.438  0.3772  0.5530  1.0754
  745TMC3    C211059   1.635   2.632  13.562  0.3866 -0.0402 -1.1380
  745TMC3    C311060   1.517   2.705  13.557  0.5665  0.1730  0.4674
  745TMC3    C411061   1.631   2.636  13.320  0.6977  0.0302  0.3339
  745TMC3    C511062   1.535   2.735  13.328 -0.5737  0.2396 -0.0340
  745TMC3    C611063   1.469   2.755  13.441  0.2147 -0.0758  0.0094
  745TMC3     C11064   1.834   2.602  13.426  0.1978 -0.0321 -0.7683
  745TMC3     O11065   1.879   2.578  13.314 -0.2323  0.0812  0.1808
  745TMC3     H11066   1.673   2.581  13.650 -0.2449  0.1665 -0.7450
  745TMC3    H111067   1.672   2.597  13.227 -2.3433 -0.6037 -0.7376
  745TMC3    H211068   1.380   2.818  13.446 -0.3560 -0.9727  1.1557
  745TMC3    C711069   1.572   2.857  13.263  0.2087 -0.0409 -0.6107
  745TMC3    C811070   1.437   2.729  13.671 -0.1439  0.3044  0.8554
  745TMC3    O111071   1.491   2.949  13.275  0.2102 -0.0226  0.4695
  745TMC3    O211072   1.316   2.746  13.653 -0.1788  0.1840 -0.0705
  746TMC3    C111073   0.580   0.398  10.416  0.1160  0.5850 -0.8420
  746TMC3    C211074   0.546   0.442  10.290 -0.3721  0.1630  0.4021
  746TMC3    C311075   0.476   0.356  10.205 -0.0095  0.7012  0.4735
  746TMC3    C411076   0.560   0.271  10.454  0.0885  0.0813 -0.0242
  746TMC3    C511077   0.492   0.188  10.367  0.3674  0.3682  0.2594
  746TMC3    C611078   0.458   0.223  10.239  0.2193  0.6655 -0.2147
  746TMC3     C11079   0.549   0.485  10.532  0.2062  0.4096 -0.3961
  746TMC3     O11080   0.474   0.442  10.613 -0.1919  0.0047  0.1654
  746TMC3     H11081   0.552   0.548  10.266 -0.3559  0.7453  2.9219
  746TMC3    H111082   0.573   0.238  10.557 -1.6683 -2.1865 -0.5308
  746TMC3    H211083   0.386   0.174  10.175  0.7245 -1.2684  0.7014
  746TMC3    C711084   0.410   0.091  10.430  0.1586 -0.1873 -0.1816
  746TMC3    C811085   0.384   0.408  10.107  0.5440  0.0660  0.3631
  746TMC3    O111086   0.313   0.053  10.369  0.0239 -0.4087  0.2679
  746TMC3    O211087   0.345   0.333  10.017 -0.9432  0.5835  0.0356
  747TMC3    C111088   2.331   0.443  11.313 -0.5796  0.2723  0.1928
  747TMC3    C211089   2.298   0.313  11.343  1.4511 -0.1907  0.5210
  747TMC3    C311090   2.279   0.290  11.472  0.5048  0.1795 -1.0353
  747TMC3    C411091   2.367   0.540  11.407 -0.0282 -0.3799 -0.4821
  747TMC3    C511092   2.346   0.504  11.541 -0.3812 -0.1826  0.1210
  747TMC3    C611093   2.303   0.378  11.577 -0.2572  0.3743  0.6972
  747TMC3     C11094   2.286   0.509  11.186  0.0823  0.4699  0.0081
  747TMC3     O11095   2.276   0.632  11.184 -0.0513  0.0342 -0.6703
  747TMC3     H11096   2.253   0.237  11.280  0.5880  0.0825  0.8032
  747TMC3    H111097   2.399   0.639  11.376  0.4681 -0.8005 -1.3076
  747TMC3    H211098   2.288   0.356  11.682 -0.0094  1.2742  0.9211
  747TMC3    C711099   2.334   0.609  11.637  0.1200  0.0984 -0.9827
  747TMC3    C811100   2.208   0.179  11.513  0.0568  1.2987  0.1346
  747TMC3    O111101   2.315   0.583  11.757 -0.3079  0.0619 -0.8606
  747TMC3    O211102   2.243   0.074  11.461  0.2605  0.6882  0.2786
  748MPD2     C11103   2.731   0.444   0.886  0.6505  0.0215 -0.2691
  748MPD2    C111104   2.812   0.358   0.814 -0.4797 -0.4741 -0.4190
  748MPD2    C211105   2.935   0.321   0.872 -0.0913 -0.3334 -0.0646
  748MPD2    C311106   2.986   0.398   0.980 -0.3800 -0.3374 -0.3172
  748MPD2    C411107   2.911   0.497   1.035 -0.5602  0.5370  0.3621
  748MPD2    C511108   2.786   0.519   0.989  0.0937  0.5739  0.1579
  748MPD2     H11109   2.997   0.242   0.832  1.8808  0.6469  1.1016
  748MPD2    H111110   2.948   0.555   1.119  0.0383 -0.4738  0.7996
  748MPD2    H211111   2.628   0.462   0.857  0.7520  0.8871 -0.1023
  748MPD2    H311112   2.723   0.586   1.047 -2.2838  0.1692 -1.9885
  748MPD2     N11113   3.120   0.377   1.010  0.8543  0.0159 -0.1809
  748MPD2    H511114   3.169   0.305   0.956  1.9304  0.6908 -0.1100
  748MPD2    N111115   2.759   0.296   0.698 -0.3430 -0.1369  0.0022
  748MPD2    H711116   2.670   0.334   0.668  1.0119  2.3889 -0.8156
  749TMC3    C111117   3.311   0.364   1.155  0.0545 -0.5440  0.0237
  749TMC3    C211118   3.355   0.328   1.285  0.3384 -0.4048  0.5926
  749TMC3    C311119   3.488   0.327   1.297 -0.3465  0.5926  0.1024
  749TMC3    C411120   3.396   0.400   1.049  0.2664 -0.0595  0.1378
  749TMC3    C511121   3.526   0.395   1.074  0.3362 -0.1670  0.0767
  749TMC3    C611122   3.573   0.356   1.198  0.1291  0.3622  0.1354
  749TMC3     C11123   3.174   0.405   1.134  0.2784 -0.0845 -0.5634
  749TMC3     O11124   3.109   0.419   1.236  0.9017 -0.3282  0.5510
  749TMC3     H11125   3.287   0.293   1.362 -0.8457 -2.6281 -1.4644
  749TMC3    H111126   3.355   0.438   0.956  1.4225  0.8015 -0.0194
  749TMC3    H211127   3.678   0.364   1.224  0.5752  1.8617 -2.0354
  749TMC3    C711128   3.614   0.471   0.998  0.5102 -0.2739 -0.3607
  749TMC3    C811129   3.535   0.288   1.434  0.2326 -0.2844 -0.7700
  749TMC3    O111130   3.578   0.580   0.950 -0.2112  0.1953 -0.1664
  749TMC3    O211131   3.457   0.302   1.526  0.1651 -0.0486 -0.2677
  750MPD2     C11132   0.374   2.045  11.669  0.2200 -0.1599  0.0566
  750MPD2    C111133   0.245   1.992  11.666 -0.1798  1.1963  0.3305
  750MPD2    C211134   0.181   1.970  11.546 -0.3341  0.2821  0.0762
  750MPD2    C311135   0.239   1.998  11.427  0.1279 -0.9973  0.0915
  750MPD2    C411136   0.362   2.050  11.424  0.5464 -0.3329  0.6159
  750MPD2    C511137   0.426   2.074  11.545 -0.2459 -0.2064 -0.2143
  750MPD2     H11138   0.083   1.924  11.542 -0.5775  0.7222  0.9000
  750MPD2    H111139   0.422   2.064  11.335  0.7612 -2.6242  0.3944
  750MPD2    H211140   0.422   2.057  11.765 -0.4991 -1.0745  0.5343
  750MPD2    H311141   0.525   2.118  11.534 -2.3287  4.0624 -2.0306
  750MPD2     N11142   0.164   1.955  11.317 -0.4246 -0.0251  0.2522
  750MPD2    H511143   0.068   1.928  11.336 -0.8874  1.5603  0.1227
  750MPD2    N111144   0.173   1.972  11.783  0.2320 -0.2875 -0.2091
  750MPD2    H711145   0.222   1.986  11.870  0.1856 -0.5348 -0.1423
  751TMC3    C111146   0.093   1.915  11.106 -0.3380 -0.0075 -0.8396
  751TMC3    C211147   4.703   1.896  11.152 -0.5268  0.0071 -0.2638
  751TMC3    C311148   4.607   1.870  11.055  0.7323 -0.2665  0.2140
  751TMC3    C411149   0.117   1.909  10.967  0.2983 -0.5116  0.0209
  751TMC3    C511150   0.020   1.877  10.878  0.0129  0.3934 -0.0170
  751TMC3    C611151   4.632   1.847  10.923  0.8504  0.7628 -0.0335
  751TMC3     C11152   0.203   1.949  11.189 -0.6905 -0.0798  0.8636
  751TMC3     O11153   0.311   1.963  11.141  0.1340  0.0107 -0.6081
  751TMC3     H11154   4.683   1.905  11.258 -1.7009  3.8616 -0.8197
  751TMC3    H111155   0.220   1.907  10.936 -0.3476  1.6707 -2.1564
  751TMC3    H211156   4.554   1.853  10.847 -1.9655  2.5157  3.0096
  751TMC3    C711157   0.058   1.832  10.736  0.5442  0.1622 -0.3911
  751TMC3    C811158   4.497   1.788  11.105  0.3104 -0.0481  0.5676
  751TMC3    O111159   0.159   1.877  10.686  0.1886 -0.1397  0.2073
  751TMC3    O211160   4.468   1.704  11.021  0.1994  0.0718  0.5381
  752TMC3    C111161   2.995   1.735  17.405  0.4908  0.0348  0.1285
  752TMC3    C211162   3.018   1.633  17.482 -0.0872  0.3929 -0.3868
  752TMC3    C311163   2.923   1.599  17.574 -0.3355  0.0694 -0.4506
  752TMC3    C411164   2.907   1.828  17.450 -0.2592 -0.5755  0.3418
  752TMC3    C511165   2.810   1.793  17.537 -0.0058  0.1901  0.6006
  752TMC3    C611166   2.807   1.668  17.589 -0.2628  0.1291 -0.8716
  752TMC3     C11167   3.103   1.784  17.315 -0.0364  0.1753 -0.1062
  752TMC3     O11168   3.211   1.732  17.321  0.3044  0.0771 -0.2600
  752TMC3     H11169   3.093   1.559  17.459  0.7841  1.3373 -0.6116
  752TMC3    H111170   2.922   1.932  17.423 -1.2258 -0.4186  0.3902
  752TMC3    H211171   2.733   1.653  17.666  0.4261 -2.3606 -0.7093
  752TMC3    C711172   2.726   1.897  17.585  0.7002  0.2912  0.0018
  752TMC3    C811173   2.923   1.466  17.624  0.1679  0.3014  1.3976
  752TMC3    O111174   2.773   2.009  17.598  0.3015 -0.1072 -0.0054
  752TMC3    O211175   2.819   1.405  17.638 -0.2516  0.0571  0.3050
  753TMC3    C111176   0.242   3.114  13.509  0.0584 -0.8887  0.3802
  753TMC3    C211177   0.265   3.063  13.636 -0.4246 -0.1551 -0.4290
  753TMC3    C311178   0.230   2.932  13.656  1.0436  0.3013 -0.3110
  753TMC3    C411179   0.165   3.048  13.414  0.1714  0.3224 -0.0308
  753TMC3    C511180   0.122   2.924  13.447  0.6213 -0.1765  0.2671
  753TMC3    C611181   0.163   2.861  13.564 -0.2992  0.5521  0.0245
  753TMC3     C11182   0.291   3.246  13.473  0.3656 -0.6577  0.4728
  753TMC3     O11183   0.209   3.312  13.407 -0.4566  0.3848  0.2382
  753TMC3     H11184   0.310   3.125  13.712  2.7088  0.4608 -2.7807
  753TMC3    H111185   0.138   3.090  13.318 -2.6492  0.2020  0.6891
  753TMC3    H211186   0.124   2.763  13.588 -0.6603  0.6394 -0.2188
  753TMC3    C711187   0.098   2.833  13.341 -0.1569  0.1947  0.1293
  753TMC3    C811188   0.235   2.872  13.785  0.4363  0.1640 -0.3161
  753TMC3    O111189   4.725   2.812  13.297  0.2199 -0.3589  0.5039
  753TMC3    O211190   0.180   2.761  13.801 -0.7039 -0.2344  0.0254
  754MPD2     C11191   4.301   1.454  13.106 -0.8985 -0.4858  0.3522
  754MPD2    C111192   4.305   1.319  13.127 -0.2278 -0.9005  0.1653
  754MPD2    C211193   4.186   1.258  13.151  0.0649 -0.3317  1.0092
  754MPD2    C311194   4.064   1.323  13.171  0.4844 -0.5218 -1.2547
  754MPD2    C411195   4.067   1.459  13.163  0.4587  0.3017 -0.0509
  754MPD2    C511196   4.184   1.517  13.131 -0.0699  0.0358 -0.3843
  754MPD2     H11197   4.187   1.149  13.150 -1.3929 -0.3287 -0.5053
  754MPD2    H111198   3.982   1.525  13.175  0.9525  0.7834  0.7996
  754MPD2    H211199   4.394   1.504  13.081  0.1852 -2.5542  0.2114
  754MPD2    H311200   4.182   1.623  13.108 -1.0079 -0.5762 -3.1748
  754MPD2     N11201   3.944   1.259  13.186 -0.6545  0.4760 -1.0195
  754MPD2    H511202   3.859   1.316  13.185  0.7975  2.6512 -1.7720
  754MPD2    N111203   4.425   1.240  13.083  0.1046 -0.0237  0.2102
  754MPD2    H711204   4.492   1.273  13.014 -0.0194  0.3343  0.2569
  755MPD2     C11205   3.014   1.324  13.556  0.3014  0.0883 -0.9765
  755MPD2    C111206   3.140   1.382  13.575  0.1274  0.2127 -0.8305
  755MPD2    C211207   3.251   1.317  13.525 -0.2515 -0.0778 -0.2172
  755MPD2    C311208   3.251   1.192  13.471 -0.2966 -0.6002  0.2922
  755MPD2    C411209   3.125   1.142  13.457 -0.9062 -0.9761 -0.3332
  755MPD2    C511210   3.012   1.202  13.497 -0.8243  0.0979  0.1502
  755MPD2     H11211   3.345   1.369  13.535 -0.9546  1.2684 -0.6262
  755MPD2    H111212   3.109   1.044  13.413  0.1905 -1.0132 -0.6408
  755MPD2    H211213   2.917   1.368  13.572  0.5720  0.2724  0.1295
  755MPD2    H311214   2.914   1.163  13.471 -1.5363  0.7031  1.9610
  755MPD2     N11215   3.365   1.124  13.422  0.3543 -0.1247 -0.1581
  755MPD2    H511216   3.364   1.029  13.386 -0.2643 -0.5478  1.0105
  755MPD2    N111217   3.170   1.503  13.643 -0.0144  0.5941  0.8614
  755MPD2    H711218   3.266   1.534  13.645  0.1977  0.0999 -2.1111
  756MPD2     C11219   4.235   2.742  10.009  0.1795  0.0892 -0.0234
  756MPD2    C111220   4.167   2.646  10.087 -0.2874  0.1655  0.0542
  756MPD2    C211221   4.047   2.599  10.037  0.4072  0.0362 -0.6999
  756MPD2    C311222   3.982   2.651   9.928 -0.1734 -0.1519 -0.6728
  756MPD2    C411223   4.051   2.753   9.867  0.0697 -0.1078 -1.2503
  756MPD2    C511224   4.175   2.789   9.894 -0.3958 -0.1310  0.3333
  756MPD2     H11225   4.001   2.518  10.093  0.5309  0.1804 -0.3874
  756MPD2    H111226   4.015   2.788   9.770 -0.7540  1.0814 -0.5159
  756MPD2    H211227   4.332   2.780  10.040  1.2326 -1.8477 -0.9611
  756MPD2    H311228   4.226   2.871   9.844  0.1538 -1.3844 -1.1820
  756MPD2     N11229   3.848   2.611   9.892  0.0368 -0.5812 -0.7248
  756MPD2    H511230   3.815   2.521   9.922 -1.5559  0.1759 -0.2196
  756MPD2    N111231   4.222   2.590  10.210  0.0252 -0.2073 -0.5211
  756MPD2    H711232   4.201   2.498  10.246  2.0029 -0.6040 -0.3854
  757MPD2     C11233   3.692   1.827   9.673 -0.1660  0.3020  0.1736
  757MPD2    C111234   3.700   1.870   9.800  0.4532 -0.2532  0.4562
  757MPD2    C211235   3.668   2.002   9.829 -0.6284  0.2539 -0.3206
  757MPD2    C311236   3.613   2.079   9.734 -0.5882  0.1139  0.7843
  757MPD2    C411237   3.599   2.030   9.604 -0.5181 -0.5930 -0.1379
  757MPD2    C511238   3.637   1.903   9.577 -0.1400 -0.0784 -0.5088
  757MPD2     H11239   3.669   2.040   9.931 -1.9081  3.2779 -1.4560
  757MPD2    H111240   3.569   2.091   9.520 -0.1463 -1.3084 -0.7842
  757MPD2    H211241   3.714   1.723   9.650 -0.4754  0.2759 -0.0125
  757MPD2    H311242   3.616   1.868   9.477  1.3077 -2.4038  0.0004
  757MPD2     N11243   3.581   2.216   9.767  0.1898 -0.0704  0.3479
  757MPD2    H511244   3.615   2.253   9.855  3.6471 -0.7248 -0.7282
  757MPD2    N111245   3.724   1.771   9.893  0.2450  0.2094 -0.5064
  757MPD2    H711246   3.772   1.692   9.852 -1.2585 -0.9517 -0.0416
  758MPD2     C11247   3.864   0.815  15.887 -0.6912 -0.0536 -0.2568
  758MPD2    C111248   3.954   0.847  15.988  0.5983 -0.1982 -0.2434
  758MPD2    C211249   3.900   0.869  16.115 -0.5906 -1.3012  0.2893
  758MPD2    C311250   3.765   0.884  16.138  0.1793 -0.0958  0.5479
  758MPD2    C411251   3.684   0.888  16.031 -0.0121  0.4421  1.2440
  758MPD2    C511252   3.732   0.844  15.910 -0.3795 -0.6326  0.0136
  758MPD2     H11253   3.964   0.909  16.193 -2.6158  0.5063  1.0127
  758MPD2    H111254   3.581   0.920  16.041 -0.3416 -0.6740  1.3558
  758MPD2    H211255   3.894   0.785  15.787  1.3417 -1.4421  0.7607
  758MPD2    H311256   3.656   0.820  15.837  1.6645 -0.7561 -2.0604
  758MPD2     N11257   3.712   0.907  16.267  0.6238  0.2636  0.1036
  758MPD2    H511258   3.616   0.939  16.276  1.1282  2.4062 -2.3038
  758MPD2    N111259   4.094   0.839  15.960  0.1051 -0.2756 -0.3939
  758MPD2    H711260   4.122   0.823  15.863  1.4194 -0.5106  0.0264
  759MPD2     C11261   3.179   4.107  10.835 -0.5096  0.2002  0.4343
  759MPD2    C111262   3.090   4.209  10.853  0.4153 -0.1531  0.9034
  759MPD2    C211263   3.122   4.344  10.833 -0.3840  0.7574 -0.3148
  759MPD2    C311264   3.254   4.380  10.809 -0.1824  0.6350 -0.1974
  759MPD2    C411265   3.341   4.278  10.798  0.3161 -0.3455 -0.0532
  759MPD2    C511266   3.306   4.146  10.802  0.9045 -0.4733  0.2784
  759MPD2     H11267   3.046   4.420  10.845 -0.0131  0.7946  1.7687
  759MPD2    H111268   3.447   4.286  10.773  0.4777 -1.9180  0.0805
  759MPD2    H211269   3.152   4.003  10.825 -1.2822  0.4501 -0.1519
  759MPD2    H311270   3.380   4.072  10.773  2.6682  0.7108  1.6885
  759MPD2     N11271   3.292   4.512  10.785 -0.2834  0.8356 -0.1321
  759MPD2    H511272   3.222   4.585  10.792 -0.3750  0.7188  0.1721
  759MPD2    N111273   2.954   4.180  10.873 -0.1895 -0.3781  0.0661
  759MPD2    H711274   2.897   4.264  10.872 -0.4147 -0.5388 -1.1162
  760MPD2     C11275   2.921   1.200  11.366 -0.1718  0.6977 -0.0259
  760MPD2    C111276   3.028   1.251  11.438  0.4493  0.1250  0.7543
  760MPD2    C211277   3.096   1.166  11.514 -0.1566 -0.5068  0.3493
  760MPD2    C311278   3.070   1.032  11.523 -0.0504  0.0467  0.4107
  760MPD2    C411279   2.966   0.989  11.448  0.0155  0.8637  1.2249
  760MPD2    C511280   2.888   1.071  11.378  0.0017  0.2024  0.1862
  760MPD2     H11281   3.171   1.210  11.578 -2.3624  2.0573  1.1297
  760MPD2    H111282   2.943   0.883  11.440 -1.8934  1.4573 -0.8566
  760MPD2    H211283   2.871   1.257  11.289 -2.1639  1.1311  1.5914
  760MPD2    H311284   2.800   1.037  11.324 -1.1913  3.7648 -0.1458
  760MPD2     N11285   3.146   0.946  11.604 -0.0132 -0.5122  0.3436
  760MPD2    H511286   3.137   0.845  11.603  0.4328 -0.5507  0.0665
  760MPD2    N111287   3.066   1.386  11.433  0.2831  0.1125 -0.2551
  760MPD2    H711288   3.147   1.411  11.489  0.0871 -0.1028  0.1286
  761MPD2     C11289   4.344   1.541  11.535 -0.1875 -0.8866  0.2298
  761MPD2    C111290   4.322   1.508  11.403  0.0205 -0.1510 -0.0044
  761MPD2    C211291   4.352   1.600  11.302  0.3367 -0.5207 -0.1904
  761MPD2    C311292   4.417   1.718  11.331  0.2716 -0.4965  0.0166
  761MPD2    C411293   4.442   1.755  11.464 -0.3318 -0.3603  0.0038
  761MPD2    C511294   4.399   1.664  11.557  0.7116 -0.4148 -1.2060
  761MPD2     H11295   4.340   1.566  11.200 -2.2471  1.5760 -0.5725
  761MPD2    H111296   4.489   1.847  11.496 -1.6949  0.0488  0.8326
  761MPD2    H211297   4.304   1.488  11.621  2.9906 -2.2047  0.9074
  761MPD2    H311298   4.411   1.689  11.662 -2.0140  0.8961 -1.1800
  761MPD2     N11299   4.468   1.816  11.241  0.6177 -0.1126  0.4332
  761MPD2    H511300   4.508   1.899  11.282 -0.4618  1.3352 -1.4799
  761MPD2    N111301   4.266   1.384  11.370 -0.1945 -0.1000  0.3550
  761MPD2    H711302   4.261   1.313  11.443  0.1207 -2.0108 -1.4660
  762MPD2     C11303   4.480   0.663  10.860 -0.6390 -0.4597 -0.5662
  762MPD2    C111304   4.449   0.794  10.872 -0.3019  0.3118 -0.1253
  762MPD2    C211305   4.507   0.878  10.779 -0.6300  0.2057 -0.1074
  762MPD2    C311306   4.582   0.821  10.677 -0.6559  0.5515  0.7280
  762MPD2    C411307   4.590   0.687  10.659  0.4967 -0.3421 -0.1118
  762MPD2    C511308   4.545   0.605  10.757 -0.4329  0.1624  0.1308
  762MPD2     H11309   4.505   0.985  10.794 -2.0962 -0.1150  1.9623
  762MPD2    H111310   4.645   0.641  10.578  1.3039  1.6099 -0.6669
  762MPD2    H211311   4.440   0.601  10.940  1.4137 -0.8953  0.1173
  762MPD2    H311312   4.547   0.499  10.736 -0.0869  0.0545  0.6998
  762MPD2     N11313   4.645   0.898  10.580 -0.0599 -0.0182  0.4816
  762MPD2    H511314   4.699   0.849  10.509  1.3798  0.5842  1.1488
  762MPD2    N111315   4.355   0.840  10.971  0.1301 -0.6533 -0.2677
  762MPD2    H711316   4.314   0.775  11.038 -0.2251 -0.7622 -0.5923
  763MPD2     C11317   1.260   1.540  16.212 -0.2066 -0.0716 -0.3592
  763MPD2    C111318   1.119   1.538  16.234  0.2921 -0.1213  0.5307
  763MPD2    C211319   1.055   1.661  16.258  0.0034  0.3481 -0.2843
  763MPD2    C311320   1.139   1.776  16.254 -0.2132  0.2697  0.3617
  763MPD2    C411321   1.270   1.769  16.244 -0.1798  0.9953 -0.1774
  763MPD2    C511322   1.330   1.656  16.210 -0.0082 -0.7114 -0.3918
  763MPD2     H11323   0.948   1.665  16.267 -0.1417 -2.9630 -0.3917
  763MPD2    H111324   1.328   1.859  16.260 -0.5015  1.3860 -1.2495
  763MPD2    H211325   1.311   1.447  16.192 -0.1133  0.1908 -1.3180
  763MPD2    H311326   1.438   1.649  16.218  0.1128 -1.6183 -2.6988
  763MPD2     N11327   1.084   1.907  16.238 -0.4378  0.1821 -0.7104
  763MPD2    H511328   1.153   1.979  16.218  0.9484 -0.6462  1.0185
  763MPD2    N111329   1.039   1.419  16.231 -0.3774 -0.3878 -0.0250
  763MPD2    H711330   0.940   1.435  16.213 -0.1859 -0.5380 -1.2142
  764MPD2     C11331   4.288   2.575  17.388 -0.2765  0.2963 -0.1201
  764MPD2    C111332   4.174   2.508  17.352 -0.9891  0.5189  0.4906
  764MPD2    C211333   4.154   2.375  17.390 -0.0583 -0.0470 -0.0636
  764MPD2    C311334   4.252   2.302  17.456  0.2909 -0.0062  0.3574
  764MPD2    C411335   4.370   2.371  17.476  0.5503  0.4481  0.2853
  764MPD2    C511336   4.389   2.508  17.452  0.0659 -0.1310  0.6979
  764MPD2     H11337   4.062   2.323  17.365 -0.7719  0.0321  2.4494
  764MPD2    H111338   4.453   2.329  17.533  0.2381  1.0395  1.1743
  764MPD2    H211339   4.312   2.675  17.354  0.5542 -0.7384 -2.5979
  764MPD2    H311340   4.477   2.553  17.496  0.7311 -0.0468 -0.7093
  764MPD2     N11341   4.229   2.174  17.504  0.0354  0.3726 -0.3101
  764MPD2    H511342   4.133   2.146  17.485  0.2820 -0.3155 -0.5456
  764MPD2    N111343   4.070   2.576  17.275  0.5767  0.2498  0.0030
  764MPD2    H711344   3.994   2.516  17.245  1.6549  0.2341 -2.6847
  765MPD2     C11345   3.508   0.625  15.411  0.0729  0.1140  0.1295
  765MPD2    C111346   3.493   0.610  15.546  0.2074 -0.2879  0.2577
  765MPD2    C211347   3.593   0.541  15.614  0.1418  0.0352 -0.3908
  765MPD2    C311348   3.708   0.510  15.549 -0.3920  0.0065 -0.0653
  765MPD2    C411349   3.726   0.538  15.415 -0.1819  0.5285 -0.2360
  765MPD2    C511350   3.625   0.594  15.346 -0.0860 -0.0966 -0.2280
  765MPD2     H11351   3.573   0.526  15.719  0.4041 -1.5160 -0.5576
  765MPD2    H111352   3.821   0.529  15.363  1.1409  1.8137  1.9527
  765MPD2    H211353   3.430   0.671  15.351  1.9377  0.5385 -1.9875
  765MPD2    H311354   3.650   0.610  15.241 -0.0035  0.4675 -0.1209
  765MPD2     N11355   3.803   0.454  15.634  0.4256 -0.0458 -0.4808
  765MPD2    H511356   3.780   0.436  15.732  2.1672  0.6413  0.0585
  765MPD2    N111357   3.369   0.659  15.597  0.1250  0.3685 -0.0934
  765MPD2    H711358   3.306   0.712  15.538  2.0185  0.3041 -2.1623
  766MPD2     C11359   2.932   0.675  15.226 -0.5919  0.3143  0.4295
  766MPD2    C111360   3.035   0.762  15.273 -0.3167 -0.0396 -0.6536
  766MPD2    C211361   3.137   0.796  15.191 -0.0428  0.1552 -0.3569
  766MPD2    C311362   3.143   0.737  15.068  0.3868  0.7820  0.2229
  766MPD2    C411363   3.036   0.668  15.018  0.6977  0.1166 -0.4997
  766MPD2    C511364   2.935   0.622  15.100 -0.7602 -0.8966 -0.9678
  766MPD2     H11365   3.225   0.848  15.227 -0.2943  0.5312 -0.2869
  766MPD2    H111366   3.048   0.634  14.916 -1.2396  1.2430 -1.0986
  766MPD2    H211367   2.847   0.653  15.290 -0.2610  0.7534  1.0125
  766MPD2    H311368   2.860   0.556  15.058 -2.6351  0.0764  0.8685
  766MPD2     N11369   3.257   0.749  14.988  0.3630 -0.4381  0.0027
  766MPD2    H511370   3.241   0.708  14.896  1.0897  1.7596 -1.0986
  766MPD2    N111371   3.039   0.803  15.410  0.0090 -0.5769  0.0143
  766MPD2    H711372   2.975   0.751  15.470  0.3487 -2.0336 -0.8710
  767MPD2     C11373   2.974   1.056  15.013  1.0268  0.2249  0.3370
  767MPD2    C111374   3.091   1.085  14.961 -0.1888 -0.4289 -0.0445
  767MPD2    C211375   3.125   1.039  14.837  0.7586  0.2805  0.1755
  767MPD2    C311376   3.033   0.975  14.760 -0.7386 -0.2835  0.2402
  767MPD2    C411377   2.904   0.959  14.811 -0.2248  0.3555 -0.6271
  767MPD2    C511378   2.880   0.994  14.935  0.3743  0.0668 -0.6676
  767MPD2     H11379   3.226   1.061  14.805  0.4413 -0.4403 -1.3473
  767MPD2    H111380   2.833   0.908  14.747 -0.2930 -0.6189  0.2250
  767MPD2    H211381   2.955   1.068  15.119  0.0489 -2.1615  0.4167
  767MPD2    H311382   2.790   0.964  14.986  0.0807 -1.1177 -1.8808
  767MPD2     N11383   3.071   0.933  14.632  0.0757  0.3339 -0.1295
  767MPD2    H511384   3.169   0.939  14.607 -0.0017 -0.4138 -0.5864
  767MPD2    N111385   3.184   1.136  15.056  0.4235 -0.0771  0.1189
  767MPD2    H711386   3.140   1.160  15.145 -0.2032  0.5504 -0.3638
  768MPD2     C11387   4.295   3.952  11.024  0.4141  0.3828  0.2710
  768MPD2    C111388   4.385   4.057  11.052 -0.1570  0.2404  0.0555
  768MPD2    C211389   4.487   4.032  11.135 -0.5535  0.9838 -0.2359
  768MPD2    C311390   4.488   3.920  11.221 -0.1344 -0.0541 -0.5356
  768MPD2    C411391   4.388   3.831  11.196 -0.1420  0.1431 -0.0360
  768MPD2    C511392   4.295   3.846  11.100  0.7086  0.3007 -0.5398
  768MPD2     H11393   4.567   4.105  11.133 -0.1911  0.6465  1.3622
  768MPD2    H111394   4.392   3.738  11.251  0.1877 -0.4332 -1.0383
  768MPD2    H211395   4.216   3.955  10.949 -0.4891  3.8250  1.3652
  768MPD2    H311396   4.230   3.760  11.086 -0.3255  1.0368 -0.2566
  768MPD2     N11397   4.587   3.893  11.321  0.3911  0.3509  0.2563
  768MPD2    H511398   4.577   3.797  11.353 -2.1355  0.9085  1.1327
  768MPD2    N111399   4.408   4.168  10.959  0.0566 -0.3259  0.3202
  768MPD2    H711400   4.484   4.231  10.983  0.3323 -0.6768  0.3662
  769MPD2     C11401   0.068   2.739  15.251  0.5771  0.4330  0.3425
  769MPD2    C111402   0.054   2.615  15.307 -0.1624  0.2510 -0.5469
  769MPD2    C211403   0.142   2.557  15.396  0.0778  0.7257 -0.1799
  769MPD2    C311404   0.245   2.631  15.446  0.5264 -0.0013 -0.6809
  769MPD2    C411405   0.270   2.757  15.390 -0.1818 -0.0803  0.5771
  769MPD2    C511406   0.187   2.806  15.290  0.1807  0.1641  0.4524
  769MPD2     H11407   0.129   2.461  15.445 -0.2675 -0.5872 -2.8437
  769MPD2    H111408   0.349   2.826  15.415 -0.7658  0.1263  1.8600
  769MPD2    H211409   4.735   2.787  15.185  0.9078 -0.7885 -0.9115
  769MPD2    H311410   0.195   2.901  15.238 -0.3684  0.1481  0.3342
  769MPD2     N11411   0.323   2.593  15.559 -0.1498  0.0058  0.4119
  769MPD2    H511412   0.397   2.660  15.578  1.3268 -1.7251  0.6678
  769MPD2    N111413   4.676   2.548  15.261 -0.0958  0.5489 -0.3186
  769MPD2    H711414   4.635   2.582  15.175 -1.5508 -0.5616 -0.0563
  770MPD2     C11415   4.222   1.548  15.417 -0.4207 -0.2059 -0.2616
  770MPD2    C111416   4.304   1.554  15.304  0.0294  0.0762 -0.1010
  770MPD2    C211417   4.348   1.684  15.261 -0.3912  0.3299  0.1832
  770MPD2    C311418   4.306   1.802  15.331  0.4371 -0.2023  0.3301
  770MPD2    C411419   4.219   1.790  15.435 -0.3070  0.7619  0.0776
  770MPD2    C511420   4.187   1.663  15.480  0.4433  0.2011 -0.4957
  770MPD2     H11421   4.401   1.697  15.168 -0.0995 -1.5077  0.1020
  770MPD2    H111422   4.177   1.876  15.487 -1.1385  0.0943  0.5135
  770MPD2    H211423   4.183   1.457  15.459  2.2981 -0.6230  1.4062
  770MPD2    H311424   4.128   1.663  15.571  0.2028 -0.9759 -0.6449
  770MPD2     N11425   4.356   1.925  15.277 -0.6445 -0.2235  0.4778
  770MPD2    H511426   4.422   1.921  15.200 -0.5668 -0.7153  0.5687
  770MPD2    N111427   4.330   1.433  15.226 -0.5109  0.2093 -0.3754
  770MPD2    H711428   4.302   1.348  15.273 -1.2854  1.0593  0.7161
  771MPD2     C11429   0.654   0.030  13.830 -0.1019 -0.2936  0.8218
  771MPD2    C111430   0.706   0.125  13.743  0.9662  0.0319  0.3682
  771MPD2    C211431   0.709   0.094  13.605 -0.1091 -0.6388  0.5105
  771MPD2    C311432   0.654   4.722  13.549 -0.1209  0.2646  0.1339
  771MPD2    C411433   0.603   4.625  13.641 -1.2282 -0.0644  0.1313
  771MPD2    C511434   0.605   4.648  13.777  0.1970 -0.0759  0.1491
  771MPD2     H11435   0.752   0.168  13.538  1.0228 -1.1648  0.6569
  771MPD2    H111436   0.556   4.535  13.601 -1.0850  0.1651 -0.5564
  771MPD2    H211437   0.645   0.051  13.936  0.9563  1.1038  0.6326
  771MPD2    H311438   0.568   4.573  13.847  0.9002  0.7477  1.4111
  771MPD2     N11439   0.660   4.704  13.410 -0.4627 -0.7300 -0.8434
  771MPD2    H511440   0.715   0.034  13.358  1.6078  0.0657  2.4176
  771MPD2    N111441   0.756   0.252  13.779  0.2295 -0.2726  0.2260
  771MPD2    H711442   0.811   0.301  13.709 -0.1226 -1.8838 -1.1798
  772MPD2     C11443   0.328   0.846  13.854  0.8752  0.1238  0.7188
  772MPD2    C111444   0.395   0.795  13.964 -0.2114  0.0166  0.3281
  772MPD2    C211445   0.326   0.780  14.087  0.4789  0.3510  0.2686
  772MPD2    C311446   0.195   0.810  14.090  0.0382  0.5594  0.5157
  772MPD2    C411447   0.132   0.871  13.981 -0.8803 -0.6784 -0.8752
  772MPD2    C511448   0.194   0.874  13.863 -0.2867  0.4257 -0.3798
  772MPD2     H11449   0.377   0.736  14.172 -2.7308 -0.1039  1.9696
  772MPD2    H111450   0.033   0.913  13.990 -1.6399 -2.3583 -1.5859
  772MPD2    H211451   0.372   0.830  13.756 -0.9302 -0.0276 -0.0776
  772MPD2    H311452   0.145   0.924  13.780 -3.1103 -0.2878  0.8471
  772MPD2     N11453   0.129   0.815  14.207 -0.1729  0.2589  0.2552
  772MPD2    H511454   0.042   0.867  14.203 -0.1382  0.2065 -1.4066
  772MPD2    N111455   0.526   0.740  13.950  0.0212 -0.1986 -0.3925
  772MPD2    H711456   0.568   0.694  14.029  2.9472  0.8713 -1.3386
  773MPD2     C11457   4.348   1.182   0.371 -0.5882  0.5769 -0.1943
  773MPD2    C111458   4.321   1.063   0.307  0.2169 -0.7759  0.4020
  773MPD2    C211459   4.369   0.946   0.359 -0.2108 -0.0751  0.0532
  773MPD2    C311460   4.452   0.951   0.468 -0.6167 -0.1566 -0.0288
  773MPD2    C411461   4.484   1.075   0.526  0.7847 -0.0643  0.4863
  773MPD2    C511462   4.428   1.188   0.477  0.6355 -0.0182  0.4659
  773MPD2     H11463   4.343   0.853   0.310 -0.2813 -0.9372  1.7193
  773MPD2    H111464   4.551   1.077   0.611  0.0595 -0.1640  1.0631
  773MPD2    H211465   4.294   1.271   0.338 -1.0121  0.5119  0.3296
  773MPD2    H311466   4.451   1.286   0.517  1.2228  0.1059 -0.1751
  773MPD2     N11467   4.501   0.822   0.510 -0.0744  0.3372 -0.1312
  773MPD2    H511468   4.483   0.746   0.445 -1.7243 -0.3269  1.0824
  773MPD2    N111469   4.237   1.053   0.198  0.5739  0.6749 -0.5229
  773MPD2    H711470   4.220   0.958   0.166 -0.1303  0.2385  1.1707
  774MPD2     C11471   4.012   0.338  13.553  0.7039  0.3688  0.5135
  774MPD2    C111472   3.965   0.456  13.614 -0.0902  0.1802 -0.5351
  774MPD2    C211473   3.998   0.579  13.559 -0.3193 -0.9298  0.1359
  774MPD2    C311474   4.089   0.585  13.447  0.1832  0.1121 -0.4475
  774MPD2    C411475   4.124   0.464  13.384  0.2871  0.3201  0.1619
  774MPD2    C511476   4.069   0.341  13.424  0.3849 -0.6990 -0.3363
  774MPD2     H11477   3.963   0.670  13.607 -3.2187 -1.1433 -1.5778
  774MPD2    H111478   4.190   0.463  13.299  0.9669 -0.7713  0.6995
  774MPD2    H211479   3.987   0.240  13.591  0.9087 -0.3282 -1.1378
  774MPD2    H311480   4.095   0.252  13.369 -0.9925 -0.3606 -1.5581
  774MPD2     N11481   4.131   0.709  13.402  0.1741  0.8180 -0.2902
  774MPD2    H511482   4.093   0.783  13.461 -1.7334  0.3357 -0.9077
  774MPD2    N111483   3.901   0.442  13.736 -0.1422 -0.2712  0.1392
  774MPD2    H711484   3.910   0.351  13.780 -1.1640  0.1696  1.2509
  775MPD2     C11485   0.719   2.247  15.818 -0.3342  0.3344 -0.1223
  775MPD2    C111486   0.757   2.306  15.935 -0.4583 -0.1420  0.3293
  775MPD2    C211487   0.860   2.395  15.924  0.1180  0.1071  0.1853
  775MPD2    C311488   0.922   2.425  15.802  0.3887 -0.6497  0.6172
  775MPD2    C411489   0.865   2.368  15.691  0.3263 -0.0551  0.0507
  775MPD2    C511490   0.769   2.277  15.698 -0.2585 -0.2759 -0.1892
  775MPD2     H11491   0.889   2.455  16.010 -0.5182 -0.5177  0.8399
  775MPD2    H111492   0.904   2.396  15.594 -2.3453 -0.8876 -1.2608
  775MPD2    H211493   0.631   2.184  15.830 -0.5898  0.4506 -1.3991
  775MPD2    H311494   0.729   2.240  15.605 -0.2950 -1.7124  0.3964
  775MPD2     N11495   1.022   2.520  15.781 -0.3423 -0.2304 -0.1185
  775MPD2    H511496   1.027   2.555  15.685 -0.7951  0.5645  0.1409
  775MPD2    N111497   0.682   2.279  16.055  0.3853  0.7591  0.1338
  775MPD2    H711498   0.607   2.211  16.053  1.2855 -0.1920 -2.2626
  776MPD2     C11499   4.266   2.261  12.037  0.1443 -0.5460  0.7405
  776MPD2    C111500   4.399   2.276  12.043  0.6515  0.0421  0.2361
  776MPD2    C211501   4.455   2.400  12.019 -0.1451  0.0594 -0.5466
  776MPD2    C311502   4.378   2.504  11.959  0.4645  0.3499 -0.0001
  776MPD2    C411503   4.246   2.483  11.936 -0.4851  0.0828 -0.7008
  776MPD2    C511504   4.192   2.361  11.980 -0.3771 -0.7577 -0.3425
  776MPD2     H11505   4.562   2.418  12.016 -0.3399  1.1398 -0.8936
  776MPD2    H111506   4.185   2.551  11.877 -0.1494  0.2765 -0.8211
  776MPD2    H211507   4.219   2.171  12.076 -0.0990 -0.1779  1.2845
  776MPD2    H311508   4.084   2.354  11.971 -0.7058  0.2880  3.1364
  776MPD2     N11509   4.433   2.621  11.904  0.0859  0.1908  0.2161
  776MPD2    H511510   4.366   2.676  11.852  2.4775  0.4670 -2.5580
  776MPD2    N111511   4.472   2.167  12.098 -0.1118 -0.2111 -0.3820
  776MPD2    H711512   4.420   2.080  12.105 -0.0746 -0.3512 -1.8291
  777MPD2     C11513   0.098   4.614   1.132 -0.1442 -0.6734  1.0252
  777MPD2    C111514   4.716   4.556   1.164  0.1368 -0.5234 -0.7208
  777MPD2    C211515   4.673   4.453   1.083 -0.2588 -0.0406  0.2061
  777MPD2    C311516   0.009   4.404   0.973  0.5435 -0.1799 -0.2192
  777MPD2    C411517   0.127   4.473   0.940 -0.1358 -0.8693  0.0932
  777MPD2    C511518   0.173   4.574   1.020  0.1381 -0.4264  0.0924
  777MPD2     H11519   4.583   4.401   1.115 -0.0644 -1.0758 -0.9050
  777MPD2    H111520   0.195   4.447   0.860  1.0640  2.1018  0.1094
  777MPD2    H211521   0.142   4.697   1.186  1.9633  0.4242 -2.3899
  777MPD2    H311522   0.268   4.621   0.995 -0.2057  0.9912  1.4130
  777MPD2     N11523   4.703   4.288   0.900  0.3445  0.0781  0.1787
  777MPD2    H511524   4.617   4.245   0.935  0.5855 -2.4602 -2.3174
  777MPD2    N111525   4.640   4.613   1.266 -0.7127  0.6733 -0.0492
  777MPD2    H711526   4.681   4.688   1.320  0.2830 -1.0308  1.5864
  778MPD2     C11527   0.728   0.446  15.232 -0.0813  0.2906  0.0776
  778MPD2    C111528   0.635   0.372  15.154  0.2282 -0.3377 -0.6582
  778MPD2    C211529   0.654   0.352  15.021  0.1024  0.5204  0.2092
  778MPD2    C311530   0.741   0.434  14.954 -0.1692  0.3606  0.0185
  778MPD2    C411531   0.829   0.525  15.026  0.4706 -0.2740 -0.6509
  778MPD2    C511532   0.824   0.527  15.166  0.1832  0.0217  0.4404
  778MPD2     H11533   0.578   0.295  14.969 -0.3260  0.6801  0.6597
  778MPD2    H111534   0.905   0.585  14.977 -1.7494  3.3576  0.3398
  778MPD2    H211535   0.726   0.464  15.339 -1.7985  0.2309  0.0658
  778MPD2    H311536   0.889   0.584  15.231 -1.6577  1.2616  1.1800
  778MPD2     N11537   0.754   0.416  14.814  0.6513 -0.6561 -0.2004
  778MPD2    H511538   0.700   0.340  14.774 -1.2948 -0.2741  1.6445
  778MPD2    N111539   0.530   0.301  15.214  0.9666  0.5408  0.6359
  778MPD2    H711540   0.466   0.252  15.153  1.8440 -0.7388  0.7546
  779MPD2     C11541   0.304   3.633  14.798  0.6646 -0.3877 -0.0940
  779MPD2    C111542   0.419   3.656  14.727 -0.1781  0.3185  0.0631
  779MPD2    C211543   0.449   3.786  14.700 -0.0039 -0.7129 -0.1460
  779MPD2    C311544   0.372   3.893  14.742 -0.2223 -0.9054  0.4550
  779MPD2    C411545   0.257   3.871  14.808  0.8666 -0.6273 -0.5482
  779MPD2    C511546   0.224   3.739  14.838  0.2857 -0.1761  0.7217
  779MPD2     H11547   0.531   3.810  14.633 -2.1259 -1.4452 -3.0104
  779MPD2    H111548   0.190   3.948  14.844  3.0598  0.3200  1.4785
  779MPD2    H211549   0.263   3.534  14.809 -0.2114 -0.0415 -0.2804
  779MPD2    H311550   0.128   3.714  14.881 -0.8252 -1.9604 -2.7733
  779MPD2     N11551   0.412   4.018  14.688  0.3157 -0.8816 -0.4403
  779MPD2    H511552   0.499   4.030  14.636  0.7730  1.8465  0.9725
  779MPD2    N111553   0.500   3.556  14.675  1.0881 -0.5975  0.0587
  779MPD2    H711554   0.590   3.581  14.634  0.7475  0.0400 -0.2963
  780MPD2     C11555   4.700   3.583   1.205 -0.2720  1.0425  0.1947
  780MPD2    C111556   4.648   3.537   1.085  0.7462 -0.0571 -0.2769
  780MPD2    C211557   4.729   3.510   0.977 -0.7388  0.0787  0.2730
  780MPD2    C311558   0.119   3.553   0.987  0.3867 -0.4870  0.6517
  780MPD2    C411559   0.161   3.620   1.100  0.3102  0.2320  0.2309
  780MPD2    C511560   0.092   3.623   1.213 -0.1449  0.0179 -0.1801
  780MPD2     H11561   4.696   3.461   0.886 -0.2192 -1.8106  1.0922
  780MPD2    H111562   0.253   3.678   1.098  0.9382 -0.7916 -0.6699
  780MPD2    H211563   4.632   3.592   1.289 -0.1039  0.6746  0.3689
  780MPD2    H311564   0.113   3.676   1.306 -1.8486  0.0087  0.2042
  780MPD2     N11565   0.196   3.545   0.872  0.2014 -0.3528  0.6543
  780MPD2    H511566   0.150   3.510   0.789  0.4904  0.2831  0.2312
  780MPD2    N111567   4.512   3.489   1.097  0.5251  0.3167 -0.6026
  780MPD2    H711568   4.477   3.485   1.193 -1.2725  3.1714 -1.1415
  781MPD2     C11569   2.407   0.861  12.747 -0.3844  0.0748  0.2426
  781MPD2    C111570   2.284   0.798  12.735 -0.0102  0.0415  0.2749
  781MPD2    C211571   2.197   0.840  12.641 -0.2901  0.1730 -0.2834
  781MPD2    C311572   2.227   0.936  12.548 -0.3814 -0.6003  0.1571
  781MPD2    C411573   2.350   0.996  12.565 -0.3158  0.1895  0.0243
  781MPD2    C511574   2.441   0.962  12.664  0.0618 -0.1471  0.0533
  781MPD2     H11575   2.102   0.788  12.635  0.4610 -1.0159 -1.7870
  781MPD2    H111576   2.377   1.082  12.505 -0.1915 -1.2599 -2.0103
  781MPD2    H211577   2.472   0.842  12.831 -0.9754 -2.7937  0.0465
  781MPD2    H311578   2.532   1.018  12.686 -0.1425  0.0933  0.2812
  781MPD2     N11579   2.145   0.979  12.447 -0.2584  0.0903  0.1479
  781MPD2    H511580   2.167   1.056  12.385  1.7777 -0.1285  0.6203
  781MPD2    N111581   2.242   0.693  12.814  0.0885 -0.9008  0.2493
  781MPD2    H711582   2.150   0.654  12.795 -0.8880  1.6312 -0.2005
  782MPD2     C11583   0.788   1.587   9.644  0.4347  0.1720 -0.1127
  782MPD2    C111584   0.673   1.584   9.721 -0.1300  0.1796 -0.3126
  782MPD2    C211585   0.632   1.683   9.805 -1.4599  0.5479 -0.2791
  782MPD2    C311586   0.716   1.789   9.830  0.6977 -0.1248  0.1425
  782MPD2    C411587   0.835   1.792   9.756  0.2041  0.2632  0.5452
  782MPD2    C511588   0.863   1.699   9.662  0.7880 -0.1350  0.3689
  782MPD2     H11589   0.534   1.684   9.852 -2.0831 -2.7867 -1.4934
  782MPD2    H111590   0.898   1.879   9.770 -1.7859  1.4849  1.9743
  782MPD2    H211591   0.813   1.503   9.580  0.1352  1.4086 -1.8459
  782MPD2    H311592   0.953   1.710   9.602  0.5963 -0.9758 -0.0634
  782MPD2     N11593   0.706   1.884   9.933  0.2226  0.7460  0.5724
  782MPD2    H511594   0.782   1.951   9.941  0.7315  0.2745 -0.3800
  782MPD2    N111595   0.603   1.454   9.716  0.2470  0.1737  0.3826
  782MPD2    H711596   0.630   1.397   9.637  0.7370 -0.3992  0.9636
  783MPD2     C11597   4.624   1.557  10.550  0.3800 -0.4631  0.3215
  783MPD2    C111598   4.713   1.660  10.568 -0.3649  0.1910 -0.2504
  783MPD2    C211599   0.084   1.659  10.483 -0.2677 -0.4362  0.4522
  783MPD2    C311600   0.097   1.571  10.378 -0.2122  0.0217  0.6740
  783MPD2    C411601   4.731   1.480  10.354 -0.3159  0.4274  0.1487
  783MPD2    C511602   4.616   1.486  10.432  0.3638  0.0341  0.2197
  783MPD2     H11603   0.169   1.721  10.509  0.1242 -0.3607 -0.9938
  783MPD2    H111604   0.000   1.399  10.282 -0.2919  1.5330 -1.0955
  783MPD2    H211605   4.547   1.555  10.627  0.4266 -0.8628  0.3528
  783MPD2    H311606   4.530   1.422  10.415  0.2149  0.4083 -0.4764
  783MPD2     N11607   0.218   1.567  10.302 -0.5494  0.6866  0.6105
  783MPD2    H511608   0.306   1.603  10.340 -1.3604  0.6923  2.5145
  783MPD2    N111609   4.710   1.741  10.688 -0.4178 -0.3083  0.1243
  783MPD2    H711610   4.626   1.726  10.744 -0.2624 -2.4935 -0.2167
  784MPD2     C11611   2.291   1.131   0.193 -0.1860 -0.2594 -0.5191
  784MPD2    C111612   2.310   1.219   0.301  0.3592 -0.4768 -0.5772
  784MPD2    C211613   2.281   1.349   0.273  0.2332 -0.4175 -0.0875
  784MPD2    C311614   2.203   1.388   0.168  0.3817  0.0207  0.3127
  784MPD2    C411615   2.178   1.299   0.065 -1.2638  0.0938 -0.1616
  784MPD2    C511616   2.219   1.171   0.081 -0.3625  0.2763  0.4125
  784MPD2     H11617   2.313   1.429   0.339  1.6163 -1.1303  0.0992
  784MPD2    H111618   2.118   1.321  17.727  1.4840  1.9057 -1.5787
  784MPD2    H211619   2.323   1.029   0.207 -0.3112 -0.5229 -2.0859
  784MPD2    H311620   2.195   1.085   0.019 -0.0336 -0.7539  1.7069
  784MPD2     N11621   2.163   1.525   0.169 -0.4803 -0.8680 -0.3849
  784MPD2    H511622   2.178   1.569   0.259 -0.0789 -0.7496 -0.5083
  784MPD2    N111623   2.355   1.195   0.427 -0.4106 -0.4202 -0.1513
  784MPD2    H711624   2.359   1.272   0.494  0.7452  0.4036 -1.1793
  785MPD2     C11625   3.107   0.005  11.173  0.3404  0.2352 -0.1803
  785MPD2    C111626   2.998   0.091  11.156 -0.0042 -0.4824 -0.4409
  785MPD2    C211627   2.878   0.043  11.106  0.0584  0.1072  0.2574
  785MPD2    C311628   2.872   4.651  11.057 -0.1803  0.5358  0.3951
  785MPD2    C411629   2.979   4.572  11.070 -0.2456  0.1896  0.3814
  785MPD2    C511630   3.096   4.617  11.121  0.0318  0.1272  0.6051
  785MPD2     H11631   2.811   0.126  11.086 -1.5899 -1.3890 -0.3286
  785MPD2    H111632   2.976   4.470  11.033  0.8089  0.2082  0.2575
  785MPD2    H211633   3.201   0.035  11.216 -0.1559 -1.2114  1.9624
  785MPD2    H311634   3.174   4.544  11.134  1.1586  1.2582  0.2070
  785MPD2     N11635   2.751   4.612  10.997  0.0747  0.4336  0.4627
  785MPD2    H511636   2.677   4.681  10.998  0.4813  0.8906 -1.2936
  785MPD2    N111637   3.009   0.228  11.197 -0.1238  0.0412 -0.3587
  785MPD2    H711638   2.921   0.277  11.182  0.4096  1.0572 -0.1658
  786MPD2     C11639   0.916   3.070  14.778  0.2886  0.5421 -0.1688
  786MPD2    C111640   1.039   3.020  14.733  0.7987  0.0939 -0.2334
  786MPD2    C211641   1.154   3.042  14.811 -1.0183 -0.7819  0.0892
  786MPD2    C311642   1.147   3.116  14.925  0.4626 -0.1759  0.1726
  786MPD2    C411643   1.020   3.171  14.960 -0.4921 -0.2235  0.9967
  786MPD2    C511644   0.913   3.137  14.891 -0.1703 -0.3987 -0.1375
  786MPD2     H11645   1.249   2.999  14.780 -0.2583  0.3059  0.9022
  786MPD2    H111646   0.994   3.237  15.042  0.1743 -0.9437  1.7784
  786MPD2    H211647   0.827   3.054  14.718  2.0075  1.1398 -2.8823
  786MPD2    H311648   0.814   3.174  14.917  0.2977 -0.5452  1.8136
  786MPD2     N11649   1.260   3.149  15.010  0.2534 -0.2035 -0.0907
  786MPD2    H511650   1.242   3.220  15.081 -4.3157 -0.5326 -0.9209
  786MPD2    N111651   1.058   2.947  14.619  0.5340 -0.0517  0.3167
  786MPD2    H711652   1.156   2.924  14.609  0.5866  1.1253 -2.0472
  787MPD2     C11653   1.482   2.498  14.717 -0.4936  0.6577 -0.2072
  787MPD2    C111654   1.458   2.482  14.585 -0.2947  0.0149 -0.0663
  787MPD2    C211655   1.513   2.383  14.506  0.1488 -0.2355  0.1931
  787MPD2    C311656   1.600   2.287  14.557 -1.0601 -0.2047 -0.4796
  787MPD2    C411657   1.646   2.310  14.685  0.6300 -0.2190 -0.6497
  787MPD2    C511658   1.591   2.416  14.762  0.0560  0.2989 -0.3373
  787MPD2     H11659   1.461   2.355  14.415  0.4057  0.8860 -0.2925
  787MPD2    H111660   1.730   2.256  14.727  1.3745  0.6057 -1.0693
  787MPD2    H211661   1.442   2.576  14.780  0.8751  1.3275 -0.1551
  787MPD2    H311662   1.629   2.435  14.861 -1.4121 -5.4163  1.3470
  787MPD2     N11663   1.661   2.189  14.466 -0.5930 -0.0377 -0.2513
  787MPD2    H511664   1.626   2.188  14.370  1.3597 -0.6441 -0.9666
  787MPD2    N111665   1.370   2.578  14.532 -0.1523  0.0918 -0.0529
  787MPD2    H711666   1.325   2.630  14.606  2.7788  1.1084  1.0234
  788MPD2     C11667   3.037   1.063   0.866 -0.6590 -0.1704  0.2776
  788MPD2    C111668   3.016   0.979   0.755  0.7709  0.1331  0.2552
  788MPD2    C211669   2.945   1.030   0.647 -0.8804 -0.3467  0.8578
  788MPD2    C311670   2.885   1.157   0.650  0.2971 -0.0474  0.1159
  788MPD2    C411671   2.904   1.238   0.757 -0.3168  0.3743  0.8074
  788MPD2    C511672   2.971   1.186   0.868 -0.0771 -0.0509 -0.6028
  788MPD2     H11673   2.920   0.970   0.560  1.0149 -1.9066  1.3964
  788MPD2    H111674   2.860   1.337   0.761  1.1628  1.0748 -0.0938
  788MPD2    H211675   3.099   1.032   0.949 -0.8079  0.4474  0.6156
  788MPD2    H311676   2.983   1.252   0.953 -0.3234 -1.5327  0.5825
  788MPD2     N11677   2.821   1.219   0.538 -0.2382 -0.5072  0.4632
  788MPD2    H511678   2.805   1.318   0.551  0.1066 -0.2999 -0.7083
  788MPD2    N111679   3.073   0.855   0.741 -0.5119  0.4011  0.2292
  788MPD2    H711680   3.059   0.804   0.654 -0.8388 -1.2524  1.2441
  789MPD2     C11681   3.515   0.810  16.784 -0.6582 -0.7469 -0.2963
  789MPD2    C111682   3.433   0.831  16.673  0.0327 -0.1099  0.2062
  789MPD2    C211683   3.363   0.959  16.665  0.1518 -0.1847  0.7932
  789MPD2    C311684   3.356   1.040  16.772  0.7314 -0.4114  0.6541
  789MPD2    C411685   3.428   1.006  16.882 -0.2135 -0.2094  0.7038
  789MPD2    C511686   3.512   0.900  16.887  0.2480 -0.0212  0.0408
  789MPD2     H11687   3.314   0.983  16.572  0.1617 -1.9411  0.3355
  789MPD2    H111688   3.428   1.073  16.968  2.7024  0.0749  0.4722
  789MPD2    H211689   3.580   0.724  16.785  0.1051 -0.1617  0.4863
  789MPD2    H311690   3.575   0.883  16.974  0.3924 -0.4584 -0.1503
  789MPD2     N11691   3.281   1.159  16.774  0.3822 -0.0643 -0.4198
  789MPD2    H511692   3.269   1.203  16.864  1.8734 -1.3421  0.4036
  789MPD2    N111693   3.429   0.757  16.553  0.1883 -0.1884  0.6390
  789MPD2    H711694   3.372   0.795  16.478 -0.6295 -1.5646  0.5748
  790MPD2     C11695   4.429   2.800  13.801 -0.6775  0.2363  0.2289
  790MPD2    C111696   4.495   2.682  13.771  0.4692  1.0172 -0.0415
  790MPD2    C211697   4.460   2.608  13.659 -0.2167  0.4548 -0.4621
  790MPD2    C311698   4.370   2.662  13.571 -0.1371  0.8338  0.2383
  790MPD2    C411699   4.314   2.784  13.588 -0.0155 -0.3114  0.0912
  790MPD2    C511700   4.344   2.851  13.703  0.3254 -1.1995  0.2113
  790MPD2     H11701   4.505   2.511  13.641  0.0678  0.5277 -0.1612
  790MPD2    H111702   4.238   2.826  13.522  0.4515 -0.3907 -0.4877
  790MPD2    H211703   4.446   2.858  13.891 -0.8714  1.5189 -0.5521
  790MPD2    H311704   4.291   2.941  13.730  0.9261 -0.9075  0.4248
  790MPD2     N11705   4.329   2.576  13.462  0.1725 -0.0381 -0.4067
  790MPD2    H511706   4.389   2.495  13.447  0.0609 -0.3896  1.1257
  790MPD2    N111707   4.579   2.633  13.871 -0.2590 -0.4578  0.3914
  790MPD2    H711708   4.582   2.679  13.961  1.9544  0.9769 -0.4236
  791MPD2     C11709   3.862   1.901  13.177  0.1824  0.0931  0.8719
  791MPD2    C111710   3.826   2.036  13.180  0.2227  0.3792 -0.4287
  791MPD2    C211711   3.685   2.063  13.204  0.4476  0.3157 -0.8257
  791MPD2    C311712   3.588   1.958  13.193  0.0032 -0.1945 -0.5082
  791MPD2    C411713   3.631   1.827  13.168  0.4084  0.1716  0.5116
  791MPD2    C511714   3.765   1.807  13.163  0.7393  0.4292 -0.3326
  791MPD2     H11715   3.654   2.166  13.220  2.1052  0.1861  3.1356
  791MPD2    H111716   3.568   1.740  13.156  1.2361 -0.2780 -0.6096
  791MPD2    H211717   3.966   1.877  13.161 -0.6884 -1.0643 -3.2097
  791MPD2    H311718   3.804   1.708  13.146  0.0290 -0.1590  1.5164
  791MPD2     N11719   3.447   1.992  13.213 -0.0795 -0.3511 -0.4048
  791MPD2    H511720   3.434   2.081  13.260  3.2994  0.2808 -0.6341
  791MPD2    N111721   3.935   2.129  13.188  0.1364 -0.2104  0.3123
  791MPD2    H711722   4.030   2.093  13.189  0.6652  1.2043  0.6024
  792MPD2     C11723   0.355   2.623  11.869 -0.0355  0.3523  0.7258
  792MPD2    C111724   0.308   2.636  11.743  0.3731  0.8483  0.0450
  792MPD2    C211725   0.204   2.561  11.706  0.7630  0.0017 -0.0320
  792MPD2    C311726   0.132   2.481  11.793 -0.0502  0.0310 -0.1441
  792MPD2    C411727   0.186   2.459  11.920 -0.1288 -0.1691  0.1965
  792MPD2    C511728   0.298   2.528  11.961 -0.4831 -0.4135 -0.7604
  792MPD2     H11729   0.174   2.564  11.602 -0.4430 -1.4479  0.2783
  792MPD2    H111730   0.140   2.397  11.996  0.9784 -3.0989 -1.5491
  792MPD2    H211731   0.440   2.681  11.903  0.5964 -0.8948  1.3193
  792MPD2    H311732   0.333   2.524  12.063 -0.2532  2.1062 -0.7335
  792MPD2     N11733   0.015   2.410  11.750 -0.4566  0.1772 -0.0899
  792MPD2    H511734   4.704   2.369  11.830  0.9295 -0.2332  0.5471
  792MPD2    N111735   0.361   2.735  11.656  0.0285  0.7165 -0.0707
  792MPD2    H711736   0.440   2.789  11.690  1.8393 -1.9468 -0.0258
  793MPD2     C11737   4.084   2.410  10.962 -0.3780 -0.2555  0.6608
  793MPD2    C111738   4.219   2.435  10.966  0.6927  1.0549  0.3185
  793MPD2    C211739   4.281   2.433  11.088 -0.0741 -0.0820  0.4869
  793MPD2    C311740   4.214   2.416  11.208 -0.8508  0.1861 -0.0492
  793MPD2    C411741   4.081   2.387  11.198 -0.2779 -0.0392  0.2996
  793MPD2    C511742   4.018   2.388  11.079 -0.5338  0.6714  0.3577
  793MPD2     H11743   4.386   2.454  11.104  0.0633 -0.5458  0.1779
  793MPD2    H111744   4.025   2.365  11.289  0.4489 -1.2910  0.4340
  793MPD2    H211745   4.037   2.418  10.865 -1.2267 -0.3894  1.0640
  793MPD2    H311746   3.911   2.368  11.074 -0.3793 -0.5549  1.9770
  793MPD2     N11747   4.290   2.413  11.325  0.2738  0.2175 -0.5758
  793MPD2    H511748   4.390   2.427  11.321  0.2226  0.6491 -0.3329
  793MPD2    N111749   4.304   2.459  10.853 -0.3599 -0.2560 -0.1679
  793MPD2    H711750   4.400   2.481  10.876  1.2604 -3.0823 -4.1102
  794MPD2     C11751   3.809   1.621  17.522  0.8846  0.6421  0.4871
  794MPD2    C111752   3.817   1.511  17.439  1.1009  0.4428 -0.3976
  794MPD2    C211753   3.807   1.535  17.302 -0.1973  0.0255 -0.0769
  794MPD2    C311754   3.783   1.662  17.251 -0.6373  0.4374  0.1387
  794MPD2    C411755   3.782   1.767  17.342 -0.1863 -0.3407  0.2852
  794MPD2    C511756   3.803   1.748  17.472 -0.3246 -0.2998 -0.0050
  794MPD2     H11757   3.810   1.452  17.232 -1.4270  0.7415 -0.9880
  794MPD2    H111758   3.769   1.868  17.306  1.5820 -0.4175 -0.6050
  794MPD2    H211759   3.817   1.623  17.630  1.3468 -1.3656  0.4931
  794MPD2    H311760   3.795   1.832  17.540  1.1154 -0.3522  0.2196
  794MPD2     N11761   3.749   1.703  17.124  0.3462  0.4522  0.1426
  794MPD2    H511762   3.726   1.801  17.109 -1.3458 -0.1674 -1.2106
  794MPD2    N111763   3.834   1.375  17.492  0.3756 -0.0741  0.1453
  794MPD2    H711764   3.852   1.301  17.425 -2.2429  0.4924 -1.1743
  795MPD2     C11765   2.106   3.703  13.782 -0.3726  0.1748 -0.6256
  795MPD2    C111766   2.063   3.590  13.723  0.3611 -0.7425 -0.0121
  795MPD2    C211767   2.094   3.474  13.791 -0.2828 -0.5396  0.0111
  795MPD2    C311768   2.152   3.464  13.914  0.5599 -0.1411 -0.1331
  795MPD2    C411769   2.169   3.586  13.979 -0.9349 -0.2578 -0.1869
  795MPD2    C511770   2.160   3.703  13.912 -0.2242  0.1307 -0.7071
  795MPD2     H11771   2.053   3.388  13.739 -0.2401 -0.5788  0.0420
  795MPD2    H111772   2.217   3.592  14.076 -0.3038  0.9400 -0.5758
  795MPD2    H211773   2.092   3.803  13.742 -0.6757  0.6431  0.6422
  795MPD2    H311774   2.190   3.796  13.960 -1.9073  0.8601 -1.0278
  795MPD2     N11775   2.180   3.336  13.976 -0.3765 -0.2769  0.4282
  795MPD2    H511776   2.187   3.262  13.908  0.2202  0.8012 -0.6821
  795MPD2    N111777   1.994   3.583  13.602  0.0102  0.6706 -0.1755
  795MPD2    H711778   1.944   3.501  13.569 -1.9914  1.9317 -0.2557
  796MPD2     C11779   1.523   0.711  15.999  0.9682  0.2461  0.4428
  796MPD2    C111780   1.557   0.797  16.108 -0.3893  0.0658 -0.0229
  796MPD2    C211781   1.518   0.931  16.093 -0.0064  0.3614  0.0894
  796MPD2    C311782   1.456   0.973  15.973  0.3059 -0.2359 -0.0389
  796MPD2    C411783   1.443   0.892  15.866 -0.2699  0.2267 -0.1648
  796MPD2    C511784   1.472   0.755  15.879 -0.1982  0.3108 -0.6987
  796MPD2     H11785   1.532   0.997  16.179 -0.3605 -2.7123  2.5252
  796MPD2    H111786   1.415   0.924  15.766  0.3396  0.0741 -0.3869
  796MPD2    H211787   1.546   0.605  16.000 -0.9247 -0.1774 -0.1496
  796MPD2    H311788   1.477   0.683  15.798 -3.4053 -1.9897  1.1225
  796MPD2     N11789   1.405   1.103  15.968  0.3094 -0.1914  0.3018
  796MPD2    H511790   1.447   1.169  16.033 -1.1651  0.9509  0.1202
  796MPD2    N111791   1.620   0.735  16.217  0.7853 -0.1630  0.4356
  796MPD2    H711792   1.640   0.636  16.225  0.8002 -0.1835  0.1618
  797MPD2     C11793   2.565   4.625  17.193  0.1145 -0.8220  0.5706
  797MPD2    C111794   2.703   4.663  17.202 -0.8858 -0.7016  0.1401
  797MPD2    C211795   2.757   0.013  17.109 -0.0363 -0.7096 -0.2381
  797MPD2    C311796   2.672   0.068  17.011  0.0419  0.3482 -0.4254
  797MPD2    C411797   2.538   0.031  17.002 -0.0770  0.1731 -0.1930
  797MPD2    C511798   2.490   4.679  17.095 -0.2637  0.0537  0.0712
  797MPD2     H11799   2.862   0.039  17.108 -0.1781 -0.0999  0.8455
  797MPD2    H111800   2.469   0.061  16.924 -0.6201  3.8727  1.7161
  797MPD2    H211801   2.523   4.557  17.266 -0.4173  0.9077  1.8688
  797MPD2    H311802   2.385   4.652  17.094 -0.1813 -0.3072  0.6279
  797MPD2     N11803   2.740   0.135  16.908 -0.1153 -0.1600  0.6039
  797MPD2    H511804   2.838   0.156  16.926  0.3082 -3.0164  1.6261
  797MPD2    N111805   2.792   4.626  17.305  0.6028 -0.6853 -0.4896
  797MPD2    H711806   2.881   4.673  17.292 -0.3761  0.9416 -1.2864
  798MPD2     C11807   3.264   0.180  17.034 -0.5659 -0.3185  0.5080
  798MPD2    C111808   3.154   0.245  17.087 -0.3054 -0.1094  0.1693
  798MPD2    C211809   3.122   0.224  17.223  0.3026  0.1822 -0.7549
  798MPD2    C311810   3.200   0.128  17.292 -0.6530 -0.2104  0.5043
  798MPD2    C411811   3.317   0.070  17.238  0.1890 -0.1767 -0.4580
  798MPD2    C511812   3.349   0.104  17.110 -0.0997  0.0640  0.3345
  798MPD2     H11813   3.040   0.270  17.276 -0.8245  0.4513 -2.7387
  798MPD2    H111814   3.383   0.012  17.301 -0.8158 -1.8476 -0.9428
  798MPD2    H211815   3.286   0.198  16.929  1.0047 -0.6935  0.7749
  798MPD2    H311816   3.444   0.065  17.077 -0.2406 -1.5348  1.8132
  798MPD2     N11817   3.159   0.090  17.422  0.4422  0.2742 -0.2134
  798MPD2    H511818   3.075   0.135  17.459  1.0387  0.4331  0.9539
  798MPD2    N111819   3.071   0.318  16.995 -0.5030  0.6731 -0.0576
  798MPD2    H711820   3.091   0.310  16.896 -1.2355 -0.1317 -0.1478
  799MPD2     C11821   1.090   2.210  14.320  0.0524 -0.4875 -1.4323
  799MPD2    C111822   1.052   2.097  14.251  0.5216 -1.0566  0.6640
  799MPD2    C211823   1.045   2.092  14.114  0.0013  0.4453 -0.1327
  799MPD2    C311824   1.075   2.215  14.042 -0.4099 -0.2719  0.3313
  799MPD2    C411825   1.115   2.326  14.114 -0.1412 -0.8331 -0.7877
  799MPD2    C511826   1.119   2.329  14.250  0.5476  0.3116 -0.6032
  799MPD2     H11827   1.034   1.997  14.062 -3.0138  0.7604 -0.0831
  799MPD2    H111828   1.139   2.413  14.054 -0.1354 -0.7784 -0.7062
  799MPD2    H211829   1.099   2.220  14.427  1.1893  2.8677 -1.8153
  799MPD2    H311830   1.144   2.416  14.309  1.1620 -0.9441  0.9977
  799MPD2     N11831   1.078   2.226  13.905  0.2112 -0.1280 -0.1999
  799MPD2    H511832   1.104   2.316  13.865 -2.2013  0.8176  0.3364
  799MPD2    N111833   1.055   1.974  14.313  0.2947 -0.5170 -0.8411
  799MPD2    H711834   1.034   1.892  14.258 -2.7990  0.7559 -1.5502
  800MPD2     C11835   1.388   2.928  14.136  0.2496 -0.3204  0.0072
  800MPD2    C111836   1.525   2.907  14.113 -0.2696 -0.2028  0.2467
  800MPD2    C211837   1.563   2.850  13.994 -0.4090  0.8117 -0.4882
  800MPD2    C311838   1.470   2.801  13.908 -0.9519 -0.1958  0.1221
  800MPD2    C411839   1.334   2.804  13.939  0.3695 -0.1851 -0.5584
  800MPD2    C511840   1.294   2.884  14.040 -0.0975  0.5867  0.2779
  800MPD2     H11841   1.664   2.855  13.955 -0.5068  0.0475 -0.8413
  800MPD2    H111842   1.257   2.759  13.878 -0.5001 -0.7830  0.9979
  800MPD2    H211843   1.356   2.982  14.224 -1.7660 -0.1719 -0.8304
  800MPD2    H311844   1.188   2.883  14.063 -0.0862  0.8463  0.3373
  800MPD2     N11845   1.512   2.752  13.787 -0.7402  0.1396 -0.0637
  800MPD2    H511846   1.612   2.764  13.775 -1.1437  2.1479 -1.3721
  800MPD2    N111847   1.621   2.965  14.199 -0.5667  0.1287 -0.2532
  800MPD2    H711848   1.583   3.019  14.277 -0.3903  0.1801 -0.2025
  801MPD2     C11849   1.697   3.576  14.577 -1.0694 -0.4673 -0.8451
  801MPD2    C111850   1.642   3.499  14.484  0.2476 -0.3880 -0.4163
  801MPD2    C211851   1.517   3.533  14.424  0.2148 -0.2654  1.0243
  801MPD2    C311852   1.456   3.648  14.479  0.1255 -0.1193 -0.4184
  801MPD2    C411853   1.527   3.730  14.570 -0.3486  0.3683  0.0453
  801MPD2    C511854   1.647   3.690  14.619  0.7240 -1.0626 -0.3423
  801MPD2     H11855   1.477   3.478  14.340  0.7137  0.5913  0.2271
  801MPD2    H111856   1.478   3.817  14.613 -1.5808 -1.4244  2.3075
  801MPD2    H211857   1.788   3.551  14.629 -1.2740 -1.5595 -1.0222
  801MPD2    H311858   1.701   3.746  14.696 -1.1989 -0.3717  0.4937
  801MPD2     N11859   1.324   3.691  14.444 -0.1721  0.1195 -0.5252
  801MPD2    H511860   1.289   3.763  14.507 -1.4744 -2.1992  1.3956
  801MPD2    N111861   1.698   3.376  14.433  0.1803 -0.9423  0.6334
  801MPD2    H711862   1.652   3.329  14.357 -0.5758 -0.5500  0.8507
  802MPD2     C11863   0.877   4.306  17.426 -0.5556 -0.4839 -0.0105
  802MPD2    C111864   0.951   4.233  17.511  0.3331 -1.0696  0.0126
  802MPD2    C211865   0.971   4.100  17.489 -0.2445  0.0553 -0.6534
  802MPD2    C311866   0.924   4.030  17.376  1.0632 -0.4758 -0.0085
  802MPD2    C411867   0.857   4.104  17.282 -0.1969 -0.0988 -0.0953
  802MPD2    C511868   0.838   4.237  17.306 -0.2563 -0.3810 -0.5981
  802MPD2     H11869   1.020   4.043  17.567 -2.1165 -1.2910 -0.4735
  802MPD2    H111870   0.819   4.066  17.188  0.3905 -0.6721 -0.1055
  802MPD2    H211871   0.857   4.411  17.437 -1.4221 -0.7015  0.5004
  802MPD2    H311872   0.793   4.295  17.226  2.3437 -0.7037 -2.2841
  802MPD2     N11873   0.967   3.889  17.365 -0.2795  0.2472 -0.0264
  802MPD2    H511874   1.027   3.858  17.441 -1.1681  0.2218  0.6655
  802MPD2    N111875   1.004   4.284  17.632  0.7964  0.5660 -0.1110
  802MPD2    H711876   1.043   4.216  17.696 -0.3876 -1.5767 -1.6550
  803MPD2     C11877   2.622   1.254  12.270 -0.3786 -0.0546 -0.2822
  803MPD2    C111878   2.590   1.381  12.227 -0.2579 -0.3924 -0.7048
  803MPD2    C211879   2.525   1.464  12.311  0.4427  0.5637  0.5065
  803MPD2    C311880   2.506   1.427  12.444 -0.4781  0.5402  0.6436
  803MPD2    C411881   2.551   1.308  12.485 -0.8928 -0.5037 -0.0720
  803MPD2    C511882   2.608   1.220  12.400 -0.5390  0.0934 -0.6045
  803MPD2     H11883   2.510   1.566  12.278  2.5705  0.7345  0.0794
  803MPD2    H111884   2.541   1.275  12.588 -0.7891 -0.0645  0.0767
  803MPD2    H211885   2.672   1.182  12.207 -2.0377  2.0437 -3.9732
  803MPD2    H311886   2.639   1.122  12.437 -1.8372 -0.0224  0.1741
  803MPD2     N11887   2.425   1.497  12.537  0.4610  0.2623  0.0388
  803MPD2    H511888   2.403   1.454  12.626 -0.6281 -0.2871 -0.4941
  803MPD2    N111889   2.623   1.431  12.095 -0.4645 -0.3466  0.1529
  803MPD2    H711890   2.602   1.528  12.075  3.9836  0.7361  0.5924
  804MPD2     C11891   1.942   3.719  17.479  0.3180 -0.2031 -0.2672
  804MPD2    C111892   2.003   3.605  17.442 -0.1864 -0.4266 -0.0116
  804MPD2    C211893   2.146   3.599  17.446  0.1220  0.1159 -0.4980
  804MPD2    C311894   2.222   3.706  17.496 -0.5795 -0.3041  0.1569
  804MPD2    C411895   2.158   3.826  17.534 -0.0662  0.6084  0.4123
  804MPD2    C511896   2.018   3.822  17.528  0.1885  0.9949 -0.0293
  804MPD2     H11897   2.191   3.501  17.454  2.0380  1.0591  0.3826
  804MPD2    H111898   2.202   3.918  17.570  1.9693  0.0012 -0.5114
  804MPD2    H211899   1.837   3.742  17.479  0.2076 -0.6308  3.2562
  804MPD2    H311900   1.965   3.916  17.527 -0.7441  0.4732 -0.1599
  804MPD2     N11901   2.366   3.692  17.498 -0.1199 -0.5539 -0.9883
  804MPD2    H511902   2.400   3.607  17.453  1.6260  0.7910 -2.2563
  804MPD2    N111903   1.919   3.498  17.398  0.1369 -0.3415 -0.5975
  804MPD2    H711904   1.819   3.514  17.403  0.3442  0.9905 -0.8049
  805MPD2     C11905   1.190   2.307  15.539 -0.3718  0.6672 -0.0987
  805MPD2    C111906   1.285   2.353  15.452  0.1792  0.0453 -0.9173
  805MPD2    C211907   1.404   2.400  15.505  0.3165 -0.4545  0.0110
  805MPD2    C311908   1.421   2.397  15.639 -0.3793 -0.4674  0.1073
  805MPD2    C411909   1.330   2.337  15.724  0.1684 -0.1573 -0.4377
  805MPD2    C511910   1.215   2.285  15.668  0.3191  0.2140 -0.5691
  805MPD2     H11911   1.484   2.443  15.446  0.8419  3.5082  3.5846
  805MPD2    H111912   1.347   2.328  15.831 -0.0317  1.6365 -0.2459
  805MPD2    H211913   1.092   2.265  15.518  0.8907 -0.5213 -3.8222
  805MPD2    H311914   1.148   2.243  15.742 -1.2868  2.1441 -0.9462
  805MPD2     N11915   1.531   2.467  15.694 -0.1891 -0.2545  1.2667
  805MPD2    H511916   1.592   2.513  15.627 -0.5167  1.8967  2.4541
  805MPD2    N111917   1.267   2.378  15.318 -0.0708  0.0055 -0.3717
  805MPD2    H711918   1.350   2.393  15.263 -1.3192  1.0816 -1.9450
  806MPD2     C11919   1.521   1.275   0.342  0.9447  0.6015 -0.2410
  806MPD2    C111920   1.599   1.388   0.369 -0.7902 -0.0392  0.9157
  806MPD2    C211921   1.633   1.468   0.260  0.6290  0.3950 -0.3000
  806MPD2    C311922   1.584   1.442   0.134  0.4047 -0.6992  0.0654
  806MPD2    C411923   1.504   1.333   0.117 -0.5921 -0.3424  0.2609
  806MPD2    C511924   1.467   1.250   0.214  0.0464  0.2369 -0.5999
  806MPD2     H11925   1.697   1.556   0.265  1.1242 -0.0489  1.0816
  806MPD2    H111926   1.455   1.317   0.022 -0.1103 -0.1573 -0.0206
  806MPD2    H211927   1.495   1.210   0.425  1.3174 -0.1238 -0.6989
  806MPD2    H311928   1.402   1.166   0.194 -0.1713  0.5583 -1.2642
  806MPD2     N11929   1.613   1.521   0.025 -0.3052  0.4615  0.4071
  806MPD2    H511930   1.676   1.596   0.051 -1.0315  0.5296  1.9660
  806MPD2    N111931   1.646   1.408   0.500 -0.3178  0.0556 -0.0353
  806MPD2    H711932   1.623   1.332   0.564 -0.4487 -0.4766 -0.7183
  807MPD2     C11933   1.574   1.819   1.212  0.5424 -0.0966 -0.1938
  807MPD2    C111934   1.579   1.683   1.213 -0.4052  0.0826 -0.7410
  807MPD2    C211935   1.497   1.612   1.305  0.0339 -0.6311  0.7480
  807MPD2    C311936   1.409   1.679   1.392  1.0895 -0.6231  0.5813
  807MPD2    C411937   1.419   1.817   1.389 -0.5480  0.8279  0.3325
  807MPD2    C511938   1.504   1.887   1.305 -0.1217  0.1408 -0.1193
  807MPD2     H11939   1.515   1.505   1.310 -2.5363 -1.2815 -3.8777
  807MPD2    H111940   1.365   1.879   1.459 -1.0254  1.5633 -0.6834
  807MPD2    H211941   1.638   1.883   1.152  0.2447 -0.5358 -0.9661
  807MPD2    H311942   1.511   1.995   1.305  1.5533  0.0428  0.1816
  807MPD2     N11943   1.324   1.603   1.477  0.1899 -0.0657 -0.4098
  807MPD2    H511944   1.320   1.503   1.460  1.2499 -0.9943  4.7775
  807MPD2    N111945   1.658   1.612   1.124  0.3288  0.1019 -0.0078
  807MPD2    H711946   1.641   1.512   1.135 -0.0771 -0.1950 -3.2213
  808MPD2     C11947   1.782   3.628  10.824 -0.5036 -0.9996  0.0359
  808MPD2    C111948   1.871   3.534  10.781  0.2001  0.8545 -0.0879
  808MPD2    C211949   1.925   3.545  10.651 -0.4894 -0.4308  0.9594
  808MPD2    C311950   1.884   3.640  10.559  0.4014 -0.6980  0.2033
  808MPD2    C411951   1.784   3.724  10.605  0.3180 -0.4649  0.4347
  808MPD2    C511952   1.739   3.724  10.737 -0.2772 -0.2285  0.6570
  808MPD2     H11953   2.003   3.475  10.625 -1.2545 -1.2049  0.7287
  808MPD2    H111954   1.739   3.796  10.537  2.5602  0.3774 -0.1464
  808MPD2    H211955   1.736   3.628  10.923  0.4579 -0.8089  0.4804
  808MPD2    H311956   1.668   3.801  10.765  0.7711  1.4788 -1.3899
  808MPD2     N11957   1.924   3.651  10.423 -0.1091  0.0987  0.7119
  808MPD2    H511958   1.895   3.738  10.378 -0.9133 -1.0739 -1.0312
  808MPD2    N111959   1.921   3.421  10.855 -0.2072 -0.1634  0.2753
  808MPD2    H711960   2.000   3.376  10.809 -0.1826 -1.6212  1.7809
  809MPD2     C11961   2.203   3.005   9.731 -0.5927 -0.1979  0.1315
  809MPD2    C111962   2.313   3.093   9.745 -0.8598  0.3289 -0.0553
  809MPD2    C211963   2.285   3.217   9.796 -0.3398 -0.4172 -0.2347
  809MPD2    C311964   2.161   3.247   9.860 -0.2618 -0.3259 -0.0563
  809MPD2    C411965   2.054   3.157   9.849 -0.4767  0.7538 -0.9956
  809MPD2    C511966   2.085   3.042   9.788  0.6603 -0.5265 -1.2767
  809MPD2     H11967   2.358   3.298   9.792  0.0344 -0.7129  0.6577
  809MPD2    H111968   1.954   3.179   9.886  0.3805  0.2595  1.6488
  809MPD2    H211969   2.208   2.908   9.684  0.6043 -0.6828  1.2559
  809MPD2    H311970   2.007   2.968   9.781  0.1883  0.0869 -2.5261
  809MPD2     N11971   2.136   3.372   9.923  0.1578  0.3288  0.6989
  809MPD2    H511972   2.044   3.380   9.964 -1.7160  0.5595 -3.5318
  809MPD2    N111973   2.442   3.072   9.692 -0.1384 -0.0824 -0.6737
  809MPD2    H711974   2.507   3.148   9.713 -0.3856 -0.3620  1.1252
  810MPD2     C11975   1.653   2.822  11.021 -0.1271 -0.4351  0.3468
  810MPD2    C111976   1.604   2.892  10.909  0.4019  0.4650 -0.1109
  810MPD2    C211977   1.550   3.016  10.929 -0.6947 -0.1205 -0.2267
  810MPD2    C311978   1.543   3.071  11.053  0.5536  0.8842 -0.1827
  810MPD2    C411979   1.609   3.007  11.159  0.3646 -0.2351  0.5383
  810MPD2    C511980   1.657   2.875  11.144 -0.2809  0.3071  0.8331
  810MPD2     H11981   1.508   3.070  10.845 -1.5544  0.9887  0.9284
  810MPD2    H111982   1.607   3.045  11.261 -0.1838  1.7302 -0.2227
  810MPD2    H211983   1.692   2.721  11.016  1.1608  0.1147 -0.6066
  810MPD2    H311984   1.704   2.830  11.230  0.5872 -0.4691 -0.0514
  810MPD2     N11985   1.471   3.192  11.083  0.3496 -0.1382 -0.3036
  810MPD2    H511986   1.487   3.225  11.178  2.4687 -0.2959 -0.5991
  810MPD2    N111987   1.603   2.820  10.788 -0.1582 -0.4312  0.9685
  810MPD2    H711988   1.644   2.728  10.801 -1.8002 -1.4338 -0.9695
  811MPD2     C11989   1.552   2.651   9.893 -0.4450 -0.1789 -0.0419
  811MPD2    C111990   1.510   2.731   9.996  0.3095  0.4031  0.0969
  811MPD2    C211991   1.530   2.869   9.989 -0.2389  0.6992 -0.3524
  811MPD2    C311992   1.588   2.920   9.872  0.1574  0.1874  0.5710
  811MPD2    C411993   1.626   2.840   9.773  0.5135  0.1810 -0.0358
  811MPD2    C511994   1.605   2.708   9.783 -0.4717  0.2317 -0.0524
  811MPD2     H11995   1.511   2.935  10.074  2.6652  0.3619  0.5507
  811MPD2    H111996   1.659   2.880   9.678  0.3722 -0.9935 -0.5844
  811MPD2    H211997   1.551   2.543   9.898  2.2666 -0.1035  1.8064
  811MPD2    H311998   1.641   2.643   9.704 -1.8567  0.3295 -0.7671
  811MPD2     N11999   1.603   3.058   9.863  0.1625  0.1652 -0.1225
  811MPD2    H512000   1.567   3.106   9.945 -3.4924 -1.3723 -0.8687
  811MPD2    N112001   1.467   2.670  10.114 -0.2049  0.8729 -0.2323
  811MPD2    H712002   1.483   2.571  10.129 -2.8389  0.6018  0.7394
  812MPD2     C12003   0.466   2.347  12.396 -1.5161 -0.4228  0.1527
  812MPD2    C112004   0.369   2.364  12.493  0.4697 -0.5282  0.0953
  812MPD2    C212005   0.321   2.254  12.561 -0.1018  1.0699 -0.4081
  812MPD2    C312006   0.375   2.127  12.538  0.4328 -0.4896 -0.4921
  812MPD2    C412007   0.459   2.102  12.432 -0.2291 -0.0524  0.1022
  812MPD2    C512008   0.509   2.215  12.365  0.3690 -0.8289  0.5505
  812MPD2     H12009   0.264   2.271  12.652  1.2942 -0.1608  0.6866
  812MPD2    H112010   0.509   2.011  12.403  0.2955 -0.4602  2.2540
  812MPD2    H212011   0.499   2.437  12.343 -0.5371 -0.3514  0.8874
  812MPD2    H312012   0.590   2.208  12.294 -0.4950  1.1201 -0.6331
  812MPD2     N12013   0.327   2.012  12.616  0.0439 -0.1895 -0.4023
  812MPD2    H512014   0.256   2.030  12.688 -0.1742  2.5725 -1.2856
  812MPD2    N112015   0.351   2.500  12.535  0.3264 -0.2972  0.0735
  812MPD2    H712016   0.404   2.573  12.488 -0.5728 -0.6474 -1.5029
  813MPD2     C12017   3.607   3.964  12.971  0.1037  0.0833  0.1657
  813MPD2    C112018   3.702   4.062  12.951 -0.2835  0.0643 -0.3987
  813MPD2    C212019   3.672   4.190  12.997 -0.3791  0.5662 -0.4938
  813MPD2    C312020   3.550   4.211  13.064  0.2095 -0.5732 -0.0331
  813MPD2    C412021   3.468   4.107  13.096 -0.4931  0.2689  0.1440
  813MPD2    C512022   3.491   3.983  13.047 -0.2781  0.5930 -0.9317
  813MPD2     H12023   3.740   4.269  12.970  0.7757 -0.3965 -0.3793
  813MPD2    H112024   3.379   4.122  13.156  0.1824  2.3938  0.6532
  813MPD2    H212025   3.624   3.868  12.924 -0.0588  0.2452 -0.2195
  813MPD2    H312026   3.416   3.905  13.052  0.6659 -0.1946  0.6553
  813MPD2     N12027   3.534   4.345  13.116  0.7346 -0.3639  0.6615
  813MPD2    H512028   3.594   4.425  13.097 -0.5142  0.7628  1.4517
  813MPD2    N112029   3.813   4.027  12.871  0.6431  0.0345  0.0422
  813MPD2    H712030   3.808   3.939  12.822 -1.0859  0.0671  0.1532
  814MPD2     C12031   0.068   0.703  11.927  0.6862 -0.7626  0.4657
  814MPD2    C112032   0.137   0.748  11.817 -0.1332 -0.1224  1.3257
  814MPD2    C212033   0.216   0.861  11.838  0.0406  0.6924  0.3236
  814MPD2    C312034   0.218   0.935  11.954 -0.3974 -0.1204  0.2539
  814MPD2    C412035   0.125   0.906  12.054  0.0483  0.5365  0.4124
  814MPD2    C512036   0.059   0.785  12.035 -0.1916  0.6549  0.1645
  814MPD2     H12037   0.274   0.899  11.754 -1.0504  1.6436 -0.0091
  814MPD2    H112038   0.109   0.961  12.146  0.3578 -1.4081  1.6227
  814MPD2    H212039   0.002   0.618  11.916 -2.3529  1.6348  0.4096
  814MPD2    H312040   4.728   0.757  12.114 -1.0753  2.6128  0.0950
  814MPD2     N12041   0.298   1.046  11.974 -0.1710 -0.6751  0.1759
  814MPD2    H512042   0.270   1.101  12.055  2.4406  1.8753 -0.6454
  814MPD2    N112043   0.150   0.686  11.694 -0.0783 -0.3699  0.7764
  814MPD2    H712044   0.193   0.751  11.629 -0.9601 -1.2951 -0.7016
  815MPD2     C12045   0.543   3.323  12.543 -0.4569  0.7264  0.6370
  815MPD2    C112046   0.493   3.406  12.450  0.4420  0.2773  0.8232
  815MPD2    C212047   0.358   3.416  12.440  0.4325 -0.2513  0.4107
  815MPD2    C312048   0.271   3.349  12.522 -0.4552 -0.4721 -0.0264
  815MPD2    C412049   0.322   3.269  12.625 -0.9901  0.1522 -0.4106
  815MPD2    C512050   0.460   3.253  12.631  0.1564 -0.8446 -0.1457
  815MPD2     H12051   0.320   3.483  12.364 -1.1483 -0.6877  0.8244
  815MPD2    H112052   0.258   3.215  12.694 -0.2199  2.4335  2.0910
  815MPD2    H212053   0.651   3.317  12.555 -0.3757 -1.1113 -0.9505
  815MPD2    H312054   0.507   3.189  12.704 -0.3902 -0.5627  0.4555
  815MPD2     N12055   0.140   3.357  12.490  1.0200  0.0420 -0.0401
  815MPD2    H512056   0.108   3.418  12.415  0.4996 -0.1484  0.0298
  815MPD2    N112057   0.587   3.463  12.365  0.0163 -0.0657 -0.4677
  815MPD2    H712058   0.679   3.467  12.405 -0.8456 -0.2617  1.5227
  816MPD2     C12059   0.332   3.159  16.657 -0.5473 -0.4116  0.3226
  816MPD2    C112060   0.406   3.211  16.761 -0.0257  0.3935  0.2270
  816MPD2    C212061   0.543   3.186  16.765 -0.4678 -0.3582  0.1267
  816MPD2    C312062   0.603   3.131  16.650  0.0681 -0.5855  0.2760
  816MPD2    C412063   0.525   3.099  16.546  0.2393 -0.0890 -0.4793
  816MPD2    C512064   0.390   3.101  16.549 -0.5489  0.1646 -0.4961
  816MPD2     H12065   0.591   3.216  16.857 -0.4415 -2.4280  0.7647
  816MPD2    H112066   0.570   3.071  16.451  0.4531 -1.5488  0.0558
  816MPD2    H212067   0.224   3.164  16.653 -0.5215 -0.8504 -0.8510
  816MPD2    H312068   0.331   3.084  16.460 -1.4076  0.0752  0.0795
  816MPD2     N12069   0.744   3.119  16.647  0.1245  0.4576  0.6884
  816MPD2    H512070   0.791   3.165  16.724  1.4113 -1.1241  0.8640
  816MPD2    N112071   0.332   3.261  16.871 -0.5097 -0.0824  0.0644
  816MPD2    H712072   0.234   3.236  16.858 -0.2873 -1.4303  0.9265
  817MPD2     C12073   0.860   0.367  10.043 -0.0598  1.9916  0.3156
  817MPD2    C112074   0.749   0.313   9.981 -1.0975 -0.2125  0.5148
  817MPD2    C212075   0.668   0.398   9.907 -0.6056  0.4725 -0.3308
  817MPD2    C312076   0.679   0.534   9.920 -0.4373 -0.2216 -1.2175
  817MPD2    C412077   0.782   0.588   9.993  0.4596 -0.0100 -0.1325
  817MPD2    C512078   0.881   0.500  10.031  0.7008  0.3993  0.3300
  817MPD2     H12079   0.583   0.362   9.851 -0.2430 -2.7692  1.2061
  817MPD2    H112080   0.809   0.693   9.986  0.6310  0.0051  0.7640
  817MPD2    H212081   0.935   0.306  10.092  0.6017  1.7304 -1.0291
  817MPD2    H312082   0.977   0.540  10.062 -0.8621  4.1991  0.2505
  817MPD2     N12083   0.581   0.609   9.854  0.2380  0.3625 -0.4771
  817MPD2    H512084   0.510   0.552   9.809  0.9321 -1.6536  0.9747
  817MPD2    N112085   0.722   0.176   9.987 -0.2502 -0.0060  0.0850
  817MPD2    H712086   0.671   0.135   9.909 -2.3889 -0.4365  1.6944
  818MPD2     C12087   4.010   0.588  10.113 -0.5351  0.1311 -0.6758
  818MPD2    C112088   4.086   0.519  10.204 -0.9007  0.6205  0.0570
  818MPD2    C212089   4.100   0.381  10.195 -0.6418 -0.2831  0.3293
  818MPD2    C312090   4.023   0.311  10.104 -0.2174  0.0802 -0.3761
  818MPD2    C412091   3.956   0.386  10.011 -0.0467  0.3736 -0.0196
  818MPD2    C512092   3.955   0.517  10.017 -0.6379  0.4445  0.2292
  818MPD2     H12093   4.175   0.334  10.258 -1.7530 -2.4937  0.0072
  818MPD2    H112094   3.902   0.340   9.929 -0.5436 -3.0454  2.2406
  818MPD2    H212095   3.989   0.695  10.110 -0.0680  0.2806  1.4952
  818MPD2    H312096   3.899   0.565   9.938 -2.1516  0.1619  1.1266
  818MPD2     N12097   4.003   0.168  10.121  0.3636 -0.2665  0.3208
  818MPD2    H512098   4.059   0.131  10.197 -0.2345 -1.3375  0.2314
  818MPD2    N112099   4.131   0.580  10.324  0.7628  0.6906 -0.2681
  818MPD2    H712100   4.166   0.518  10.396 -0.6408  0.4049  0.1659
  819MPD2     C12101   2.020   2.404  15.735  0.0206  0.3716  0.0162
  819MPD2    C112102   1.957   2.282  15.725 -1.1233 -0.6989 -0.0650
  819MPD2    C212103   2.029   2.170  15.770  1.2394  0.0620 -0.6282
  819MPD2    C312104   2.149   2.184  15.832  0.5043  0.2705 -0.7581
  819MPD2    C412105   2.206   2.309  15.843 -0.9260 -0.0987 -0.6770
  819MPD2    C512106   2.145   2.414  15.786  0.1333 -0.6270 -0.2115
  819MPD2     H12107   1.981   2.073  15.769  1.5394 -0.0597 -2.6203
  819MPD2    H112108   2.295   2.328  15.902 -2.3946 -0.3149  1.5870
  819MPD2    H212109   1.986   2.486  15.673 -0.1864 -0.0874 -0.4750
  819MPD2    H312110   2.197   2.508  15.799  1.0634 -1.3405  1.1728
  819MPD2     N12111   2.215   2.070  15.883  0.0921  0.1213 -0.0177
  819MPD2    H512112   2.160   1.985  15.875 -1.0313  0.8784 -0.2868
  819MPD2    N112113   1.846   2.268  15.639  0.2458  0.9125  0.0872
  819MPD2    H712114   1.815   2.336  15.570 -1.1633  0.4734  0.2871
  820MPD2     C12115   1.563   1.878  14.863  0.0340 -0.0514  0.1577
  820MPD2    C112116   1.579   1.992  14.940 -0.4021 -0.6807  0.4658
  820MPD2    C212117   1.656   1.992  15.051  0.0115 -0.0558  0.4515
  820MPD2    C312118   1.732   1.883  15.085  0.6753 -0.8625  0.2211
  820MPD2    C412119   1.723   1.778  15.000 -0.1127  0.0183  0.0233
  820MPD2    C512120   1.634   1.765  14.897 -0.3556 -0.3943 -0.2707
  820MPD2     H12121   1.647   2.076  15.119 -0.7943  0.6481 -0.5227
  820MPD2    H112122   1.793   1.695  15.005  1.0036  0.8894 -0.8292
  820MPD2    H212123   1.496   1.886  14.779  0.9979  2.2383 -0.3773
  820MPD2    H312124   1.626   1.671  14.844 -1.0053 -0.4980  0.0166
  820MPD2     N12125   1.827   1.872  15.187  0.1547 -0.4748  0.4998
  820MPD2    H512126   1.896   1.800  15.171 -2.1826 -1.7791 -3.8521
  820MPD2    N112127   1.496   2.098  14.904 -0.1200  0.0308  0.3019
  820MPD2    H712128   1.434   2.076  14.827  0.1887 -3.0953  0.9420
  821MPD2     C12129   1.670   3.056  13.064  0.3164 -0.7583 -0.5025
  821MPD2    C112130   1.721   2.926  13.079  1.0470  0.2491  0.2811
  821MPD2    C212131   1.831   2.894  13.006 -0.1185  0.1368 -0.2305
  821MPD2    C312132   1.900   2.986  12.921 -0.5893  0.2750  0.1321
  821MPD2    C412133   1.843   3.106  12.898  0.0132  0.0334  0.0915
  821MPD2    C512134   1.723   3.138  12.966  0.6267 -0.1223 -0.6617
  821MPD2     H12135   1.856   2.790  13.025 -0.7796  0.0954  0.3933
  821MPD2    H112136   1.889   3.180  12.834  0.7846 -1.8641 -1.5604
  821MPD2    H212137   1.578   3.090  13.112 -1.1496 -3.1461 -1.6283
  821MPD2    H312138   1.679   3.236  12.953 -1.0991 -0.9934 -1.3858
  821MPD2     N12139   2.025   2.959  12.861 -0.3603 -0.7070 -0.4333
  821MPD2    H512140   2.067   3.033  12.805 -3.5902  1.2766 -0.2692
  821MPD2    N112141   1.681   2.841  13.184 -0.1303  0.9038 -0.1568
  821MPD2    H712142   1.731   2.756  13.206 -1.8194  0.5487  2.3406
  822MPD2     C12143   2.787   3.255  15.824  0.0448 -0.3746 -0.7128
  822MPD2    C112144   2.740   3.226  15.949  0.5046 -0.1629 -1.0735
  822MPD2    C212145   2.635   3.306  16.000  0.2044 -0.4061  0.4400
  822MPD2    C312146   2.608   3.429  15.939  0.1487  0.2690  0.5223
  822MPD2    C412147   2.658   3.455  15.815 -0.5250 -0.0145 -0.5194
  822MPD2    C512148   2.744   3.367  15.756  0.1449 -0.5180  0.3979
  822MPD2     H12149   2.593   3.275  16.095  0.6316 -1.8069  0.1605
  822MPD2    H112150   2.636   3.547  15.761 -0.1385 -1.1890 -2.7019
  822MPD2    H212151   2.853   3.190  15.768  2.3338  0.8132  0.6130
  822MPD2    H312152   2.777   3.381  15.653 -0.4595  0.6379  0.3620
  822MPD2     N12153   2.522   3.513  16.010 -0.0478 -0.4176 -1.0750
  822MPD2    H512154   2.476   3.477  16.092  1.0228  1.5333  0.3695
  822MPD2    N112155   2.775   3.113  16.029  0.2511 -0.0414  0.2869
  822MPD2    H712156   2.713   3.094  16.107 -0.7440  1.1163 -0.2336
  823MPD2     C12157   2.037   3.786  16.659 -0.4344 -0.3624 -0.3478
  823MPD2    C112158   2.074   3.702  16.557  0.1930 -0.0986  0.5266
  823MPD2    C212159   2.109   3.567  16.591 -0.1477 -0.2061 -0.0554
  823MPD2    C312160   2.121   3.523  16.725  0.0038  0.2786  1.0997
  823MPD2    C412161   2.088   3.617  16.819 -0.2113  0.0748  0.1819
  823MPD2    C512162   2.050   3.743  16.786 -0.3162 -0.0442 -0.3490
  823MPD2     H12163   2.148   3.494  16.522  1.2015 -0.2175  0.7253
  823MPD2    H112164   2.083   3.586  16.923  2.0931 -0.1049  0.2429
  823MPD2    H212165   2.021   3.891  16.640 -2.1113 -0.1097  2.3857
  823MPD2    H312166   2.027   3.815  16.864  0.4297  1.1329 -1.2140
  823MPD2     N12167   2.182   3.400  16.770 -0.0936  0.6612 -0.1704
  823MPD2    H512168   2.198   3.388  16.870 -0.8225  2.0815  0.1140
  823MPD2    N112169   2.111   3.757  16.432 -0.3386  0.3172  0.0886
  823MPD2    H712170   2.109   3.858  16.431 -2.0671  0.3370  4.2008
  824MPD2     C12171   2.947   2.267  15.908  0.4678 -0.7784 -1.0791
  824MPD2    C112172   3.028   2.325  16.003  0.3719  1.2394  0.1018
  824MPD2    C212173   3.146   2.266  16.044 -0.1204  0.0825 -0.4456
  824MPD2    C312174   3.188   2.145  15.984  0.3267  0.0525 -0.3412
  824MPD2    C412175   3.103   2.093  15.892 -0.2984  1.0677 -0.9437
  824MPD2    C512176   2.984   2.146  15.856 -0.2374 -0.2873  0.4314
  824MPD2     H12177   3.212   2.306  16.120  0.1534  0.4158 -0.8629
  824MPD2    H112178   3.111   1.995  15.846  0.1356  0.6547  0.0030
  824MPD2    H212179   2.847   2.305  15.890  1.2018  0.6331 -2.1276
  824MPD2    H312180   2.915   2.102  15.785  0.0402  0.0017 -0.0142
  824MPD2     N12181   3.307   2.088  16.034 -0.3145 -0.2754 -0.1262
  824MPD2    H512182   3.360   2.135  16.107  1.0185  1.4299 -2.2180
  824MPD2    N112183   3.001   2.462  16.040  0.1720 -0.9822  0.5442
  824MPD2    H712184   3.068   2.501  16.106 -0.7091  0.0255  0.8603
  825MPD2     C12185   4.040   2.158  15.700  0.8312  0.6641  1.4970
  825MPD2    C112186   3.932   2.196  15.779  0.4669  0.4090 -0.1202
  825MPD2    C212187   3.869   2.309  15.745  0.1520 -0.4137  0.4843
  825MPD2    C312188   3.932   2.406  15.669  0.5873  0.8168  0.5257
  825MPD2    C412189   4.054   2.381  15.620  0.6144 -0.2351 -0.6023
  825MPD2    C512190   4.101   2.253  15.621  0.1706  0.1708 -0.0639
  825MPD2     H12191   3.775   2.337  15.791 -0.1905 -1.1504  0.2290
  825MPD2    H112192   4.105   2.459  15.564 -0.2955  0.9784  0.2468
  825MPD2    H212193   4.083   2.059  15.713 -0.8914 -0.4130 -0.9587
  825MPD2    H312194   4.187   2.224  15.561 -1.7719 -0.1473 -2.6599
  825MPD2     N12195   3.881   2.536  15.650 -0.0199  0.1036 -0.0777
  825MPD2    H512196   3.940   2.611  15.614  0.3469 -0.1349  0.0275
  825MPD2    N112197   3.881   2.106  15.879  0.0199  0.1698  0.0730
  825MPD2    H712198   3.910   2.009  15.864  1.0809  0.0935  2.6423
  826MPD2     C12199   3.513   1.974  13.563 -0.2270  0.5065 -0.2311
  826MPD2    C112200   3.597   2.084  13.575  0.0174 -0.2304 -0.6125
  826MPD2    C212201   3.557   2.200  13.637  0.2303 -0.7305  0.0214
  826MPD2    C312202   3.427   2.201  13.692 -0.0823 -0.9488  0.1466
  826MPD2    C412203   3.349   2.088  13.691  0.1969  0.1704 -0.3064
  826MPD2    C512204   3.391   1.981  13.625  0.0073  0.4179 -0.3682
  826MPD2     H12205   3.622   2.286  13.648  1.4308 -1.6913  0.5382
  826MPD2    H112206   3.253   2.076  13.739  0.1031  1.5226 -0.1614
  826MPD2    H212207   3.542   1.875  13.531 -0.8544  1.0081 -2.3063
  826MPD2    H312208   3.333   1.892  13.645  0.8144  0.6384  2.9375
  826MPD2     N12209   3.382   2.304  13.772  0.4877  0.4235  0.2483
  826MPD2    H512210   3.296   2.289  13.824 -0.3446 -0.0200 -1.2527
  826MPD2    N112211   3.729   2.059  13.543  1.0277 -0.4789  0.4971
  826MPD2    H712212   3.746   1.967  13.504  2.4706  0.2200 -0.5081
  827MPD2     C12213   4.452   3.792  10.241 -0.4695 -0.6387  0.2019
  827MPD2    C112214   4.424   3.660  10.252  0.0698  0.9316 -0.0719
  827MPD2    C212215   4.311   3.605  10.188  0.2726 -0.4954  0.1781
  827MPD2    C312216   4.227   3.687  10.116 -1.0528  1.0065  0.5622
  827MPD2    C412217   4.248   3.821  10.125 -0.1553 -0.2208  0.6093
  827MPD2    C512218   4.357   3.873  10.181 -0.1909 -0.1382  0.0279
  827MPD2     H12219   4.298   3.498  10.198 -0.1955 -0.5308 -0.7914
  827MPD2    H112220   4.181   3.897  10.086  0.3227 -1.9653 -3.6530
  827MPD2    H212221   4.542   3.836  10.282 -0.4252 -0.5500  0.0127
  827MPD2    H312222   4.376   3.980  10.180  2.0744 -0.5637 -0.6588
  827MPD2     N12223   4.111   3.631  10.058 -0.1122  0.5932 -0.1534
  827MPD2    H512224   4.088   3.532  10.067 -1.6497  0.8839 -0.9236
  827MPD2    N112225   4.495   3.583  10.348  0.5945  0.4374  0.4210
  827MPD2    H712226   4.584   3.621  10.379  1.5432 -0.6810 -0.9374
  828MPD2     C12227   2.471   2.689  12.484  0.1761  0.1339  0.5398
  828MPD2    C112228   2.512   2.783  12.392  0.1012 -0.0676  0.3207
  828MPD2    C212229   2.625   2.761  12.314 -0.3185 -0.1133  0.3918
  828MPD2    C312230   2.706   2.648  12.337  0.2741  0.4012  0.1444
  828MPD2    C412231   2.664   2.558  12.432 -1.0832 -0.5952  1.1950
  828MPD2    C512232   2.550   2.582  12.501  0.2835  0.0820 -0.5877
  828MPD2     H12233   2.641   2.831  12.233  1.0903  1.0761  1.6981
  828MPD2    H112234   2.713   2.464  12.454 -0.0162 -0.2991  0.0838
  828MPD2    H212235   2.382   2.699  12.545  0.6016  2.8568  0.6859
  828MPD2    H312236   2.518   2.518  12.582  2.4330  1.7073  1.5731
  828MPD2     N12237   2.814   2.605  12.253  0.9188  0.2893 -0.5014
  828MPD2    H512238   2.862   2.523  12.289  0.2861  0.2292  0.2061
  828MPD2    N112239   2.439   2.901  12.361  0.4272 -0.2370 -1.0957
  828MPD2    H712240   2.482   2.968  12.298 -1.2217  2.8001  1.0360
  829MPD2     C12241   2.602   3.498  11.765 -0.3235  0.1156  0.6529
  829MPD2    C112242   2.546   3.572  11.865  0.1586  0.2174 -0.1141
  829MPD2    C212243   2.493   3.516  11.975 -0.5191 -0.5131  0.9639
  829MPD2    C312244   2.495   3.377  11.989 -1.2020 -0.8855  0.1105
  829MPD2    C412245   2.572   3.301  11.908 -0.2858  0.2516  0.1526
  829MPD2    C512246   2.619   3.357  11.789 -0.1605  0.3014  0.1014
  829MPD2     H12247   2.433   3.576  12.042  0.5738  1.2544  0.3433
  829MPD2    H112248   2.565   3.194  11.922 -0.6551 -0.0706 -2.4199
  829MPD2    H212249   2.619   3.538  11.666 -0.9063  0.0885  0.5414
  829MPD2    H312250   2.663   3.289  11.718  2.1076  2.5937 -0.6760
  829MPD2     N12251   2.414   3.306  12.083  0.5015  0.4993  0.0462
  829MPD2    H512252   2.442   3.209  12.091 -1.4234 -0.1046 -0.6942
  829MPD2    N112253   2.552   3.716  11.834  0.6922 -0.0501  0.7773
  829MPD2    H712254   2.597   3.739  11.746 -1.3588  0.9786 -0.0208
  830MPD2     C12255   2.349   1.670  15.466 -0.3544 -0.3803  0.0155
  830MPD2    C112256   2.445   1.657  15.563  0.3382  0.3069 -0.0540
  830MPD2    C212257   2.574   1.649  15.527  0.2218  0.2747  0.5913
  830MPD2    C312258   2.608   1.634  15.393  0.5001 -0.8479 -0.2072
  830MPD2    C412259   2.511   1.639  15.289  0.0245 -0.0053 -0.3347
  830MPD2    C512260   2.380   1.650  15.331 -0.2180  0.1778 -0.1525
  830MPD2     H12261   2.645   1.660  15.609 -0.0487  0.0510  0.8578
  830MPD2    H112262   2.525   1.606  15.187 -5.0345  0.9669 -1.3614
  830MPD2    H212263   2.245   1.679  15.497 -0.6128 -1.2092 -0.6332
  830MPD2    H312264   2.296   1.644  15.263 -1.8979 -2.7723  2.2011
  830MPD2     N12265   2.741   1.608  15.350 -0.9322  0.1198 -0.2915
  830MPD2    H512266   2.753   1.612  15.250  3.4223  3.8893  0.3668
  830MPD2    N112267   2.404   1.675  15.697  0.8851  0.9284  0.1784
  830MPD2    H712268   2.307   1.704  15.700  0.7896  0.7678 -1.8038
  831MPD2     C12269   2.688   3.617  16.357  0.1438  1.1521 -0.3496
  831MPD2    C112270   2.719   3.483  16.328 -0.7266  0.1819  0.5840
  831MPD2    C212271   2.618   3.387  16.329  0.9447  0.4086  0.1031
  831MPD2    C312272   2.488   3.427  16.353 -0.5662 -1.1474  0.4346
  831MPD2    C412273   2.464   3.548  16.410 -1.0246  0.0627 -0.0849
  831MPD2    C512274   2.563   3.645  16.410 -0.1866  0.0317  0.2181
  831MPD2     H12275   2.642   3.289  16.288  3.5727  0.5027  1.4111
  831MPD2    H112276   2.363   3.573  16.440 -0.0293  1.8444  1.6892
  831MPD2    H212277   2.756   3.700  16.344  0.9668  0.3220 -1.3968
  831MPD2    H312278   2.543   3.742  16.454 -2.5258 -0.0221 -0.7249
  831MPD2     N12279   2.377   3.349  16.322  0.3646 -0.2236 -0.2188
  831MPD2    H512280   2.289   3.377  16.364  0.7226  1.2359 -0.4397
  831MPD2    N112281   2.836   3.455  16.263  0.1517  0.2902 -0.8276
  831MPD2    H712282   2.882   3.534  16.219 -3.5047  3.3219  0.8282
  832MPD2     C12283   1.138   3.961  16.949 -0.4211  0.4981 -0.3474
  832MPD2    C112284   1.087   4.083  16.988  0.0642 -0.2397 -0.1897
  832MPD2    C212285   0.962   4.121  16.943 -0.8110  0.1224 -0.1266
  832MPD2    C312286   0.883   4.035  16.873  0.5663 -0.1271  0.3063
  832MPD2    C412287   0.932   3.908  16.839 -0.3997  0.1590 -0.4140
  832MPD2    C512288   1.068   3.881  16.864  0.0785  0.2227  0.5935
  832MPD2     H12289   0.926   4.214  16.985 -3.1124  0.0802 -2.0362
  832MPD2    H112290   0.879   3.839  16.774 -1.2764 -1.9744  2.5830
  832MPD2    H212291   1.237   3.927  16.976 -0.1621  1.2796 -0.3016
  832MPD2    H312292   1.110   3.792  16.818  1.7863  0.4622  1.6909
  832MPD2     N12293   0.750   4.068  16.828  0.4490  0.5373  0.1279
  832MPD2    H512294   0.710   3.994  16.772  1.4837 -2.7290  3.7246
  832MPD2    N112295   1.161   4.158  17.083  0.0864  0.7103 -0.3532
  832MPD2    H712296   1.242   4.116  17.127 -1.6404 -2.1233  0.0439
  833MPD2     C12297   3.306   1.031  13.086  0.1398 -0.2190  0.1619
  833MPD2    C112298   3.366   1.152  13.070 -0.1554  0.9623  0.1604
  833MPD2    C212299   3.488   1.158  13.011  0.0423 -0.0829 -0.4063
  833MPD2    C312300   3.550   1.044  12.956 -0.1013 -0.3564 -0.4832
  833MPD2    C412301   3.491   0.925  12.972  0.2847 -0.0906  0.1022
  833MPD2    C512302   3.378   0.917  13.047 -0.2097  0.9609  0.5316
  833MPD2     H12303   3.534   1.253  12.988  2.4326 -1.4806 -1.4291
  833MPD2    H112304   3.533   0.828  12.947  1.4561  0.3557  0.3657
  833MPD2    H212305   3.217   1.007  13.143  0.1462  0.8199  0.6100
  833MPD2    H312306   3.329   0.823  13.067 -0.6210  1.3571  1.3835
  833MPD2     N12307   3.667   1.038  12.871 -0.2966 -0.6616  0.6097
  833MPD2    H512308   3.691   0.948  12.830 -3.7323 -0.3913 -1.9603
  833MPD2    N112309   3.286   1.262  13.110  0.0094  0.4244  0.0370
  833MPD2    H712310   3.187   1.241  13.118  0.0460  0.5579  0.8284
  834MPD2     C12311   3.732   0.409  12.155 -0.0736  0.1381  0.3826
  834MPD2    C112312   3.731   0.528  12.084 -0.4429  0.3211 -0.1303
  834MPD2    C212313   3.727   0.647  12.147  0.1884 -0.7899  0.0746
  834MPD2    C312314   3.714   0.654  12.285 -0.1525 -0.3697 -0.8749
  834MPD2    C412315   3.708   0.534  12.353  0.1588  0.0338  0.1555
  834MPD2    C512316   3.717   0.411  12.289  0.4845  0.0753 -0.1039
  834MPD2     H12317   3.724   0.741  12.092  2.8562  0.0093  1.2795
  834MPD2    H112318   3.694   0.537  12.461 -0.5223 -2.3067  0.1170
  834MPD2    H212319   3.730   0.312  12.107  0.9439 -1.2742  3.1729
  834MPD2    H312320   3.709   0.319  12.346  2.5120 -0.6162 -0.9608
  834MPD2     N12321   3.703   0.782  12.349  0.1084 -0.5487 -0.8064
  834MPD2    H512322   3.692   0.867  12.294 -1.8025 -0.1078  0.2498
  834MPD2    N112323   3.729   0.507  11.942  0.2768  0.4452 -0.4826
  834MPD2    H712324   3.738   0.411  11.908  0.4585 -0.9238  3.4244
  835MPD2     C12325   3.816   3.430  11.104  0.0282 -0.7551 -0.2675
  835MPD2    C112326   3.731   3.496  11.191 -1.0317 -0.0578 -0.1989
  835MPD2    C212327   3.758   3.486  11.325 -0.7457 -0.1927  0.2119
  835MPD2    C312328   3.875   3.420  11.369  0.5345  0.1940 -0.0151
  835MPD2    C412329   3.959   3.356  11.275 -0.3190 -0.3158 -0.1204
  835MPD2    C512330   3.926   3.359  11.142  0.0309 -0.0876 -0.2874
  835MPD2     H12331   3.690   3.544  11.386 -1.2059 -0.2759 -0.2207
  835MPD2    H112332   4.054   3.309  11.298  0.0076  1.1109  1.4542
  835MPD2    H212333   3.804   3.428  10.997  0.6793  1.6323 -0.3838
  835MPD2    H312334   3.985   3.309  11.066 -0.6451  0.1717 -0.9803
  835MPD2     N12335   3.910   3.406  11.509 -0.0840  0.0341  0.3171
  835MPD2    H512336   4.001   3.373  11.539 -0.0051 -0.4037 -0.4357
  835MPD2    N112337   3.616   3.565  11.152  0.6231  0.3731 -0.0010
  835MPD2    H712338   3.551   3.595  11.224 -0.5418  0.5208 -1.1144
  836MPD2     C12339   3.355   3.680  11.965  0.2223 -0.4272 -0.7297
  836MPD2    C112340   3.387   3.546  11.957  0.6073  0.1408 -0.6578
  836MPD2    C212341   3.282   3.455  11.961  0.1818  0.0887  0.2757
  836MPD2    C312342   3.154   3.499  11.982  0.4775  0.4443  0.0422
  836MPD2    C412343   3.124   3.629  12.020 -0.4586 -0.4076 -0.2930
  836MPD2    C512344   3.225   3.716  12.007 -0.7015 -0.4919  0.2826
  836MPD2     H12345   3.301   3.350  11.939  2.0129  0.4208  0.2760
  836MPD2    H112346   3.032   3.658  12.068 -1.2280 -0.2187 -1.8904
  836MPD2    H212347   3.424   3.761  11.944 -0.8310  1.0573  1.5284
  836MPD2    H312348   3.200   3.821  12.017  2.3187  0.1485  1.1182
  836MPD2     N12349   3.054   3.406  11.987  0.3598  0.1019 -0.2251
  836MPD2    H512350   2.968   3.438  12.031  1.1965  0.5688  1.0872
  836MPD2    N112351   3.519   3.502  11.934 -0.0956 -0.3173 -0.3697
  836MPD2    H712352   3.596   3.567  11.918 -0.5215 -0.1472 -1.7319
  837MPD2     C12353   1.970   3.846   9.821 -0.2762 -0.2427 -0.0898
  837MPD2    C112354   1.889   3.783   9.909 -0.0016 -0.0805  0.2043
  837MPD2    C212355   1.856   3.849  10.031 -0.5084  0.2466  0.9514
  837MPD2    C312356   1.904   3.976  10.059 -0.0083  0.5143 -0.4286
  837MPD2    C412357   1.995   4.033   9.971  0.5412 -0.1289  0.0783
  837MPD2    C512358   2.021   3.967   9.853  0.1341  0.5109  0.5239
  837MPD2     H12359   1.786   3.812  10.105 -0.1825 -0.6571  0.8195
  837MPD2    H112360   2.030   4.136   9.973  2.3244 -0.7430 -0.1497
  837MPD2    H212361   2.006   3.791   9.734  1.7790  1.2426 -0.1863
  837MPD2    H312362   2.076   4.015   9.772 -1.6979  2.2949  0.3394
  837MPD2     N12363   1.873   4.049  10.176 -0.2070 -0.3699  0.0080
  837MPD2    H512364   1.891   4.149  10.167  1.1962 -0.4106  2.2981
  837MPD2    N112365   1.822   3.660   9.895  0.3080 -0.1086  0.0822
  837MPD2    H712366   1.766   3.636   9.976 -1.4467 -2.1187 -1.7185
  838MPD2     C12367   4.680   1.210  11.054 -0.1956  0.0519 -0.8446
  838MPD2    C112368   4.713   1.270  11.172 -0.3837 -0.1375 -0.0002
  838MPD2    C212369   4.675   1.213  11.291 -0.4464 -0.2836  0.1259
  838MPD2    C312370   4.606   1.093  11.296  1.0756  0.2833  0.4119
  838MPD2    C412371   4.582   1.024  11.176  0.3427  0.0974  0.2925
  838MPD2    C512372   4.618   1.089  11.061 -0.0614 -0.2813  0.5019
  838MPD2     H12373   4.699   1.266  11.383 -1.1019  3.6157 -1.9861
  838MPD2    H112374   4.548   0.921  11.169  1.5705 -0.3977  1.4363
  838MPD2    H212375   4.702   1.253  10.957  2.0602  1.0362  0.0947
  838MPD2    H312376   4.601   1.040  10.966  2.3765  0.8967 -0.5445
  838MPD2     N12377   4.570   1.050  11.421  0.0490  0.3897 -0.4167
  838MPD2    H512378   4.588   1.111  11.500 -0.2880  0.1887 -0.1836
  838MPD2    N112379   0.052   1.393  11.180 -0.2387 -0.4940 -0.2159
  838MPD2    H712380   0.054   1.449  11.264  0.6287  2.4069 -2.1911
  839MPD2     C12381   0.222   1.188  11.555  0.2062 -0.6022  0.1626
  839MPD2    C112382   0.289   1.192  11.434 -0.3727 -0.6948 -0.3758
  839MPD2    C212383   0.347   1.307  11.396 -0.4995 -0.2843 -0.2783
  839MPD2    C312384   0.347   1.417  11.484 -0.4091  0.2472 -0.5545
  839MPD2    C412385   0.296   1.408  11.611  0.3501  0.3115  0.0756
  839MPD2    C512386   0.226   1.298  11.634  0.8315  0.4239  0.9762
  839MPD2     H12387   0.396   1.326  11.301  1.4209  1.0822  0.9637
  839MPD2    H112388   0.283   1.482  11.688  1.4397 -0.8057  1.3348
  839MPD2    H212389   0.164   1.100  11.582  1.1730 -1.1882  0.2968
  839MPD2    H312390   0.183   1.276  11.731  0.1558 -1.6259  0.1920
  839MPD2     N12391   0.396   1.548  11.454 -0.4010 -0.1579 -0.6851
  839MPD2    H512392   0.408   1.608  11.534 -1.0863 -1.4019  0.3452
  839MPD2    N112393   0.290   1.095  11.338  1.0703  0.0350  0.3398
  839MPD2    H712394   0.327   1.121  11.247 -0.1538 -0.7904 -0.3934
  840MPD2     C12395   0.338   3.753  10.526  0.5799  0.3949 -0.0856
  840MPD2    C112396   0.267   3.706  10.640 -0.1117 -0.2093  0.2025
  840MPD2    C212397   0.306   3.760  10.763 -0.0635 -0.0114  0.1822
  840MPD2    C312398   0.410   3.860  10.771 -0.6139  0.0720  0.0496
  840MPD2    C412399   0.472   3.906  10.657 -0.8663  0.3200  0.0116
  840MPD2    C512400   0.424   3.859  10.540  0.2245 -0.5993  0.0174
  840MPD2     H12401   0.249   3.741  10.853  1.2727  3.9026  1.8959
  840MPD2    H112402   0.552   3.979  10.655  0.9668 -1.7204 -1.1360
  840MPD2    H212403   0.312   3.716  10.428 -0.9824 -0.2862  0.5892
  840MPD2    H312404   0.468   3.898  10.449 -2.0074 -2.3799 -1.8049
  840MPD2     N12405   0.448   3.941  10.886 -0.6885  0.1828 -0.4716
  840MPD2    H512406   0.501   4.026  10.870  1.6541 -1.1128  0.3423
  840MPD2    N112407   0.163   3.620  10.622 -0.3738  0.7517 -0.6170
  840MPD2    H712408   0.154   3.584  10.527 -0.9850 -1.2480  0.2167
  841MPD2     C12409   4.183   3.417  15.261 -1.1190  0.2667  0.1619
  841MPD2    C112410   4.226   3.431  15.128  0.1301 -0.1000 -0.1396
  841MPD2    C212411   4.340   3.499  15.092 -0.5659 -0.1487 -0.7829
  841MPD2    C312412   4.421   3.543  15.195 -0.0622 -0.0813 -0.8209
  841MPD2    C412413   4.385   3.535  15.326 -0.1471 -0.3156 -0.4946
  841MPD2    C512414   4.271   3.467  15.361  1.1407  0.3417 -0.0307
  841MPD2     H12415   4.377   3.494  14.990 -2.1702  1.7581 -1.4499
  841MPD2    H112416   4.451   3.578  15.401 -2.7951 -0.3330  1.8339
  841MPD2    H212417   4.096   3.365  15.298  0.1630 -1.4830  0.7077
  841MPD2    H312418   4.241   3.453  15.465 -2.7915 -0.3334 -1.2364
  841MPD2     N12419   4.542   3.596  15.159  0.3109 -0.5606 -0.3124
  841MPD2    H512420   4.576   3.581  15.064  0.0675  0.7665 -0.6101
  841MPD2    N112421   4.145   3.386  15.023  0.2101  0.2618 -0.3322
  841MPD2    H712422   4.183   3.414  14.933 -0.3684 -1.7845 -1.2066
  842MPD2     C12423   0.119   4.193  16.995  0.6391 -0.0681  0.5479
  842MPD2    C112424   0.179   4.313  16.986  0.3226  0.0988  0.2236
  842MPD2    C212425   0.301   4.330  17.053 -0.0360 -0.1454  0.0333
  842MPD2    C312426   0.346   4.228  17.140 -0.5299  0.5111 -0.3710
  842MPD2    C412427   0.288   4.104  17.138 -0.6338  0.1658 -0.1272
  842MPD2    C512428   0.170   4.089  17.073 -0.2267 -0.4811  0.4592
  842MPD2     H12429   0.350   4.427  17.058 -0.5366  0.0753  0.8410
  842MPD2    H112430   0.324   4.020  17.196 -0.6433 -0.4805 -1.0576
  842MPD2    H212431   0.034   4.160  16.937  1.3754  0.7434 -0.9889
  842MPD2    H312432   0.116   3.996  17.082 -3.7862  1.6685  1.3815
  842MPD2     N12433   0.455   4.239  17.233 -0.0662  0.5449  0.3151
  842MPD2    H512434   0.452   4.161  17.298  0.2901 -0.4269 -0.8226
  842MPD2    N112435   0.119   4.408  16.910 -0.0443 -0.5409  0.4025
  842MPD2    H712436   0.023   4.389  16.883 -0.2624 -0.7667  1.3246
  843MPD2     C12437   2.108   4.497  17.400 -0.2484 -0.1113  0.0119
  843MPD2    C112438   2.213   4.483  17.483 -0.5818 -0.7204  0.6351
  843MPD2    C212439   2.298   4.601  17.492 -0.4852 -0.1423 -0.4366
  843MPD2    C312440   2.285   4.717  17.412 -0.5074 -0.3438  0.6979
  843MPD2    C412441   2.165   4.724  17.338  1.1804  0.0200 -0.0259
  843MPD2    C512442   2.081   4.612  17.331  0.3965  0.1948  0.2937
  843MPD2     H12443   2.380   4.592  17.562  0.2103 -0.1343 -1.2364
  843MPD2    H112444   2.131   0.075  17.286  1.3824  1.0607  1.5999
  843MPD2    H212445   2.043   4.411  17.388 -1.1764  0.2783  2.2750
  843MPD2    H312446   1.994   4.623  17.267  1.1729 -2.4522 -1.1847
  843MPD2     N12447   2.376   0.090  17.415 -0.0603  0.5227 -0.1701
  843MPD2    H512448   2.361   0.167  17.351  0.6751 -0.6300 -1.7665
  843MPD2    N112449   2.224   4.364  17.562  0.4857 -0.1372 -0.2828
  843MPD2    H712450   2.152   4.295  17.545 -0.3651  0.6864 -0.0015
  844MPD2     C12451   0.742   4.139  16.332  0.6664  0.5286  0.9491
  844MPD2    C112452   0.864   4.078  16.314  0.0007  0.8685 -0.2429
  844MPD2    C212453   0.965   4.098  16.408  0.8581  0.0852  0.1610
  844MPD2    C312454   0.942   4.191  16.509  0.0948 -0.0680  0.1696
  844MPD2    C412455   0.817   4.244  16.522 -0.5229  0.0795  0.5457
  844MPD2    C512456   0.717   4.221  16.438 -0.1905  0.0324  0.8512
  844MPD2     H12457   1.064   4.057  16.394  0.9473 -0.5094  2.4756
  844MPD2    H112458   0.796   4.317  16.600  3.6373  0.3947  1.3992
  844MPD2    H212459   0.659   4.111  16.268  0.7696  3.0928 -0.3009
  844MPD2    H312460   0.619   4.260  16.460 -0.7781 -0.6391 -0.5794
  844MPD2     N12461   1.056   4.223  16.588  0.8539  0.0896 -0.5312
  844MPD2    H512462   1.147   4.186  16.562  0.5312 -0.1827 -1.2634
  844MPD2    N112463   0.891   3.995  16.207 -0.1150 -0.1288  0.2324
  844MPD2    H712464   0.980   3.947  16.214 -0.5586 -0.9692  0.0585
  845MPD2     C12465   1.073   0.290  17.080  0.1744  0.7083 -0.1029
  845MPD2    C112466   1.098   0.182  17.156  0.3922 -0.9877 -0.1416
  845MPD2    C212467   1.153   0.072  17.090  0.9423  0.0768 -0.1169
  845MPD2    C312468   1.155   0.072  16.955 -0.2935 -0.3974 -0.1179
  845MPD2    C412469   1.111   0.173  16.881  0.4486  0.5739  0.6664
  845MPD2    C512470   1.082   0.290  16.943  0.0038  0.4615 -0.1107
  845MPD2     H12471   1.180   4.721  17.145 -4.0885 -0.0984  2.1698
  845MPD2    H112472   1.121   0.171  16.774  0.7599  0.3368  0.7013
  845MPD2    H212473   1.038   0.380  17.130 -2.1548  0.5199 -1.4380
  845MPD2    H312474   1.059   0.371  16.874 -0.3738 -0.6765 -1.3158
  845MPD2     N12475   1.222   4.708  16.888  0.0645  0.4913  0.2270
  845MPD2    H512476   1.200   4.702  16.789  1.8332 -0.2659 -0.1274
  845MPD2    N112477   1.079   0.195  17.293 -0.7172  0.1001 -0.6913
  845MPD2    H712478   1.064   0.290  17.328  0.8558  0.1221 -0.0465
  846MPD2     C12479   2.871   0.513  14.498 -0.4131 -0.2650  0.3299
  846MPD2    C112480   2.762   0.567  14.433  0.2302  0.0875  0.6330
  846MPD2    C212481   2.673   0.649  14.497  0.7652  0.5243  0.1000
  846MPD2    C312482   2.687   0.675  14.633  0.1016  0.6239 -0.0242
  846MPD2    C412483   2.796   0.622  14.696  0.2779  0.4091 -0.3854
  846MPD2    C512484   2.888   0.548  14.627 -0.5903 -0.6012  0.7081
  846MPD2     H12485   2.588   0.668  14.432  1.2501 -0.0877 -0.7111
  846MPD2    H112486   2.820   0.641  14.800 -1.9163 -2.0987  0.5877
  846MPD2    H212487   2.950   0.457  14.450  0.7647  2.7029 -1.2211
  846MPD2    H312488   2.981   0.518  14.676  0.3682  1.4219  0.1345
  846MPD2     N12489   2.588   0.745  14.704  0.0619  0.2918  0.3576
  846MPD2    H512490   2.513   0.783  14.648  0.1562  0.9210  0.6470
  846MPD2    N112491   2.738   0.538  14.298 -0.1182  0.1057 -0.3452
  846MPD2    H712492   2.649   0.566  14.259  0.4302  0.7218 -1.1380
  847MPD2     C12493   2.386   1.567  14.437 -0.2233  0.4932 -0.4915
  847MPD2    C112494   2.475   1.667  14.477 -0.7413  1.1235  0.3690
  847MPD2    C212495   2.609   1.639  14.479  0.2876  0.2460  0.2697
  847MPD2    C312496   2.663   1.516  14.463  0.1105 -0.5312  0.7896
  847MPD2    C412497   2.572   1.410  14.449  0.3177 -0.1869  0.1606
  847MPD2    C512498   2.439   1.439  14.427  0.1479 -0.0134  0.1375
  847MPD2     H12499   2.678   1.719  14.507 -0.5565  0.5997  1.3519
  847MPD2    H112500   2.605   1.307  14.447 -0.9353 -0.6132  1.0767
  847MPD2    H212501   2.278   1.580  14.440 -0.2654 -0.9748  3.5669
  847MPD2    H312502   2.377   1.356  14.394 -0.4119 -0.0046  1.1375
  847MPD2     N12503   2.803   1.498  14.480  0.5701  1.2181  0.0732
  847MPD2    H512504   2.862   1.580  14.468  0.1158  1.5672  0.2011
  847MPD2    N112505   2.448   1.797  14.519  0.3963 -0.0798  0.3199
  847MPD2    H712506   2.528   1.860  14.523 -1.2720  2.0228  0.8239
  848MPD2     C12507   0.419   4.690  16.426  0.3856 -0.1230  0.3780
  848MPD2    C112508   0.468   4.683  16.557 -0.2740 -0.0414  0.3625
  848MPD2    C212509   0.550   0.043  16.607 -0.7096  0.4930  0.3685
  848MPD2    C312510   0.599   0.141  16.520  0.7756 -0.4355  0.0788
  848MPD2    C412511   0.557   0.151  16.390 -0.2893 -0.2460 -0.2780
  848MPD2    C512512   0.456   0.061  16.346 -0.0002 -0.0077  0.4929
  848MPD2     H12513   0.574   0.040  16.713  0.0169 -0.1534  0.1878
  848MPD2    H112514   0.599   0.228  16.327 -0.8123 -1.2707 -1.8858
  848MPD2    H212515   0.338   4.626  16.392  2.1737 -1.1668 -1.9435
  848MPD2    H312516   0.426   0.072  16.242 -1.1454  0.9904  0.9255
  848MPD2     N12517   0.695   0.242  16.552  0.3628  0.2401 -0.4298
  848MPD2    H512518   0.710   0.303  16.473  2.5919  2.2928  1.5666
  848MPD2    N112519   0.430   4.579  16.642 -0.1212 -0.4263  0.4540
  848MPD2    H712520   0.460   4.588  16.738  0.7422  0.3387  0.1137
  849MPD2     C12521   3.826   4.070  14.473 -0.0851  0.5676 -0.1788
  849MPD2    C112522   3.888   4.192  14.472 -0.7520 -0.5978 -0.1883
  849MPD2    C212523   3.997   4.211  14.555 -0.3428  0.4739  0.6389
  849MPD2    C312524   4.051   4.106  14.634  0.1989 -0.4101 -0.2247
  849MPD2    C412525   3.981   3.991  14.634  0.4015 -0.1510  0.0642
  849MPD2    C512526   3.871   3.972  14.561 -0.6932  0.0780  0.1039
  849MPD2     H12527   4.058   4.301  14.557 -1.8793  1.5761 -1.6801
  849MPD2    H112528   4.009   3.908  14.699  0.5088  1.3068  1.8775
  849MPD2    H212529   3.735   4.040  14.422  0.3032 -1.1067  0.1038
  849MPD2    H312530   3.818   3.878  14.564  0.9456 -0.7885  1.5785
  849MPD2     N12531   4.172   4.113  14.712  0.0697 -0.2035  0.1482
  849MPD2    H512532   4.199   4.023  14.749  0.8254 -0.5075 -1.1233
  849MPD2    N112533   3.837   4.291  14.378 -0.8269  0.2832  1.1120
  849MPD2    H712534   3.753   4.266  14.327  0.2738 -0.9603 -0.0908
  850MPD2     C12535   2.867   2.581  14.676 -0.0029 -0.1162 -0.0280
  850MPD2    C112536   2.801   2.624  14.788  0.2201  0.2098  0.6562
  850MPD2    C212537   2.872   2.662  14.900 -0.2739 -0.2532 -0.1709
  850MPD2    C312538   3.009   2.653  14.895 -0.7535 -0.9045  0.6019
  850MPD2    C412539   3.078   2.613  14.780  0.0580 -0.4007 -0.5489
  850MPD2    C512540   3.000   2.577  14.668  0.5140  0.0373  0.4936
  850MPD2     H12541   2.822   2.686  14.993 -0.1500 -1.8801  0.3248
  850MPD2    H112542   3.186   2.626  14.782 -0.1427  1.1920 -0.3696
  850MPD2    H212543   2.813   2.552  14.587 -0.8037 -0.6527  0.6259
  850MPD2    H312544   3.052   2.553  14.576  4.3360  0.0349  2.6588
  850MPD2     N12545   3.092   2.679  15.005  0.0585 -0.1805 -0.6111
  850MPD2    H512546   3.192   2.664  14.995  0.2613  1.0857 -0.4907
  850MPD2    N112547   2.662   2.601  14.789 -0.1812 -0.0136 -0.1435
  850MPD2    H712548   2.625   2.519  14.742 -5.3200  2.8800 -1.0126
  851MPD2     C12549   2.865   2.397  15.452  0.1070 -0.5629 -0.6349
  851MPD2    C112550   2.802   2.322  15.359  0.5961 -0.3625  0.2194
  851MPD2    C212551   2.836   2.191  15.342 -0.4090 -0.1103 -0.2781
  851MPD2    C312552   2.935   2.137  15.419 -0.4326  0.0100 -0.2718
  851MPD2    C412553   2.998   2.213  15.517 -0.2416  0.6420 -0.4828
  851MPD2    C512554   2.959   2.346  15.538  0.4747  0.7693  0.0082
  851MPD2     H12555   2.796   2.131  15.261  2.3928 -0.6593 -1.2652
  851MPD2    H112556   3.074   2.188  15.589 -0.5527 -1.7009 -0.9809
  851MPD2    H212557   2.851   2.504  15.463 -0.1094 -0.4928 -1.6096
  851MPD2    H312558   3.003   2.408  15.615 -0.1283  0.8837  0.2635
  851MPD2     N12559   2.989   2.007  15.389 -0.1413  0.5289  0.3513
  851MPD2    H512560   2.946   1.964  15.307 -1.3277  1.5103  0.4607
  851MPD2    N112561   2.698   2.383  15.284 -0.2435  0.1810 -0.5158
  851MPD2    H712562   2.675   2.473  15.326 -2.1116 -0.8723  0.7202
  852MPD2     C12563   2.788   4.660  10.247  0.9987  0.0167  0.6410
  852MPD2    C112564   2.800   0.006  10.357 -0.5111  0.4214 -0.0763
  852MPD2    C212565   2.892   0.109  10.359 -0.0630 -0.0065  0.1743
  852MPD2    C312566   2.981   0.132  10.259 -0.3654 -0.4935 -0.1077
  852MPD2    C412567   2.972   0.051  10.150  0.1006  0.2430  0.3216
  852MPD2    C512568   2.879   4.689  10.145 -0.3108 -0.2913 -0.3021
  852MPD2     H12569   2.910   0.177  10.442  0.9722  0.5058 -0.4645
  852MPD2    H112570   3.028   0.073  10.059 -0.1287 -3.3697 -0.7096
  852MPD2    H212571   2.717   4.578  10.243  0.4246  0.5437  0.1057
  852MPD2    H312572   2.881   4.625  10.057  2.5699  0.7487 -0.9930
  852MPD2     N12573   3.075   0.240  10.273  0.1403  0.6128  0.4551
  852MPD2    H512574   3.088   0.270  10.369  1.5072  1.8149 -0.1033
  852MPD2    N112575   2.715   4.725  10.474 -0.0181  0.5079 -0.0085
  852MPD2    H712576   2.714   0.054  10.550  0.9987 -0.4849  0.8693
  853MPD2     C12577   4.110   4.541  12.229 -0.6099  0.5444  0.3158
  853MPD2    C112578   4.062   4.661  12.172  0.3186 -0.6554 -0.2083
  853MPD2    C212579   4.027   4.665  12.040 -0.1242  0.3882 -0.2597
  853MPD2    C312580   4.044   4.554  11.961  1.0633 -0.2815 -0.0573
  853MPD2    C412581   4.087   4.436  12.015  0.7037  0.4834 -0.0298
  853MPD2    C512582   4.125   4.433  12.148 -0.5174  0.0058 -0.9707
  853MPD2     H12583   3.985   0.021  12.004  0.9103  1.1516  0.4945
  853MPD2    H112584   4.093   4.342  11.961 -1.2077 -0.1088  0.8071
  853MPD2    H212585   4.139   4.544  12.333  1.9626 -1.0234 -0.3602
  853MPD2    H312586   4.163   4.338  12.184  2.2078  1.7259  0.6356
  853MPD2     N12587   4.036   4.566  11.824  0.0684 -0.1072 -0.3163
  853MPD2    H512588   4.078   4.488  11.774 -0.2169  0.4446 -1.4159
  853MPD2    N112589   4.033   0.032  12.263  0.0344 -0.5088 -0.0655
  853MPD2    H712590   4.052   0.030  12.363 -0.0584 -1.0400 -0.0604
  854MPD2     C12591   0.773   4.460  12.454 -1.1718  0.5044  0.4679
  854MPD2    C112592   0.903   4.495  12.475 -0.0324  0.5242 -0.0115
  854MPD2    C212593   0.990   4.398  12.523 -0.5046  0.0301 -0.0625
  854MPD2    C312594   0.949   4.274  12.569  0.2869  0.2437 -0.1375
  854MPD2    C412595   0.813   4.248  12.567 -0.0687 -0.4719 -0.4301
  854MPD2    C512596   0.729   4.345  12.507  0.4498 -0.5582 -0.9715
  854MPD2     H12597   1.095   4.422  12.530 -0.8773  2.3479 -2.4979
  854MPD2    H112598   0.773   4.152  12.596 -0.1489 -0.5126 -0.6715
  854MPD2    H212599   0.694   4.523  12.415 -0.6612  0.9530  0.1443
  854MPD2    H312600   0.628   4.320  12.479 -0.6926  1.6605  1.1383
  854MPD2     N12601   1.039   4.180  12.621  0.0855  0.3416 -0.4101
  854MPD2    H512602   1.004   4.101  12.673 -0.6008  0.7179 -0.2919
  854MPD2    N112603   0.938   4.619  12.421 -0.6372  0.8974 -0.0495
  854MPD2    H712604   0.864   4.685  12.398 -2.0208 -0.0524  1.7653
  855MPD2     C12605   1.241   4.349  13.376 -0.2526 -0.6758  0.4159
  855MPD2    C112606   1.313   4.235  13.378  0.3282 -0.2750 -0.1834
  855MPD2    C212607   1.315   4.166  13.255 -0.2773  0.0855 -0.0738
  855MPD2    C312608   1.258   4.217  13.145 -0.0146  0.5033 -0.2341
  855MPD2    C412609   1.192   4.339  13.149  0.3997 -0.0286 -0.1890
  855MPD2    C512610   1.187   4.406  13.267  0.1003 -0.4121 -0.7973
  855MPD2     H12611   1.356   4.066  13.262  0.4031  0.3625 -0.1187
  855MPD2    H112612   1.131   4.375  13.067  0.3948 -3.9841 -1.9590
  855MPD2    H212613   1.240   4.403  13.470 -0.8468 -0.0163  0.0320
  855MPD2    H312614   1.124   4.494  13.270  0.1865 -0.3998  0.6761
  855MPD2     N12615   1.273   4.166  13.019  0.1264  0.3395 -0.4338
  855MPD2    H512616   1.239   4.221  12.941 -0.2804  0.8046  0.0741
  855MPD2    N112617   1.390   4.182  13.490  0.0120 -0.1437  0.1245
  855MPD2    H712618   1.446   4.099  13.472  0.8829  0.3414  0.5827
  856MPD2     C12619   3.908   1.118  14.486 -0.1033 -0.4060 -0.3545
  856MPD2    C112620   3.840   1.241  14.474  0.3283 -0.0295  0.3115
  856MPD2    C212621   3.753   1.248  14.370  0.0954 -0.2573 -0.2004
  856MPD2    C312622   3.722   1.136  14.298  0.3964  0.0611  0.1705
  856MPD2    C412623   3.788   1.014  14.318  0.7327 -0.9201  0.3101
  856MPD2    C512624   3.872   1.005  14.420 -0.0058 -0.2148  0.1507
  856MPD2     H12625   3.706   1.344  14.357  1.6636  0.4570 -0.6437
  856MPD2    H112626   3.775   0.923  14.260  1.5076 -1.4836  1.0304
  856MPD2    H212627   3.974   1.123  14.572 -0.9613 -0.8537  0.3257
  856MPD2    H312628   3.931   0.917  14.442 -0.2292 -0.4584 -0.2203
  856MPD2     N12629   3.626   1.141  14.193 -0.8347 -0.3169  0.4518
  856MPD2    H512630   3.589   1.059  14.147 -1.3527  0.6761 -0.9057
  856MPD2    N112631   3.862   1.354  14.559 -0.2964  0.4551  0.3617
  856MPD2    H712632   3.794   1.429  14.551 -2.8999 -2.0724 -1.0827
  857MPD2     C12633   0.184   2.952  12.961 -0.1855 -0.5276  0.2809
  857MPD2    C112634   0.314   2.926  12.971 -0.0134 -0.3077 -0.0865
  857MPD2    C212635   0.405   3.034  12.999  0.1524 -0.3713  0.3991
  857MPD2    C312636   0.364   3.164  12.993 -0.9058 -0.1112  0.4058
  857MPD2    C412637   0.232   3.185  12.967  0.4541  0.2799 -0.0519
  857MPD2    C512638   0.140   3.082  12.961  0.3645 -0.7655 -0.4378
  857MPD2     H12639   0.509   3.005  13.008 -0.2895 -2.4947 -1.3082
  857MPD2    H112640   0.191   3.286  12.962  0.2940  0.1831 -0.7311
  857MPD2    H212641   0.105   2.878  12.952 -0.4701 -0.4181  1.9893
  857MPD2    H312642   0.037   3.105  12.936  0.8317  0.4165 -1.2858
  857MPD2     N12643   0.453   3.268  13.027 -0.2797  0.0045 -0.2938
  857MPD2    H512644   0.542   3.239  13.066 -0.9331 -0.8874  0.5359
  857MPD2    N112645   0.348   2.790  12.948  0.3070 -0.1903 -0.6331
  857MPD2    H712646   0.266   2.731  12.937  0.1317 -0.3867  1.6092
  858MPD2     C12647   1.243   2.696  16.298 -0.7027 -0.0277  0.5559
  858MPD2    C112648   1.176   2.596  16.370 -0.6614 -0.3300  0.1785
  858MPD2    C212649   1.171   2.598  16.507  0.8133 -0.0191  0.4271
  858MPD2    C312650   1.230   2.708  16.579  0.7829  0.0614 -0.0693
  858MPD2    C412651   1.294   2.808  16.507  0.7432  0.5953 -0.7299
  858MPD2    C512652   1.293   2.806  16.369 -0.2620 -0.1455 -0.0493
  858MPD2     H12653   1.123   2.516  16.559 -1.3581  0.8667 -0.1434
  858MPD2    H112654   1.339   2.895  16.555  3.0177 -0.3911 -1.0640
  858MPD2    H212655   1.264   2.680  16.193 -1.7743  0.1380  0.3167
  858MPD2    H312656   1.344   2.886  16.318 -1.2719  1.0289  0.8019
  858MPD2     N12657   1.229   2.709  16.722 -0.2290 -0.3970  0.7515
  858MPD2    H512658   1.260   2.793  16.770 -0.7421 -0.1421  0.6331
  858MPD2    N112659   1.115   2.494  16.295  0.6168 -0.6359  0.1184
  858MPD2    H712660   1.138   2.486  16.196  1.6465 -0.3414  0.3413
  859MPD2     C12661   4.047   3.826  15.829 -0.1801 -0.1963  0.2353
  859MPD2    C112662   4.182   3.822  15.784 -0.2073  0.4045 -0.1100
  859MPD2    C212663   4.251   3.707  15.797  0.0685 -0.6878  0.0734
  859MPD2    C312664   4.192   3.594  15.852 -0.2415  0.8058  0.0839
  859MPD2    C412665   4.059   3.599  15.885 -0.1842  0.9130 -0.2673
  859MPD2    C512666   3.987   3.710  15.880 -1.1212 -0.4538  0.7098
  859MPD2     H12667   4.358   3.705  15.783  0.2203 -3.3432  1.6608
  859MPD2    H112668   4.006   3.512  15.923  2.3713  0.0194  1.2780
  859MPD2    H212669   3.985   3.915  15.827  0.7743  0.4349 -0.8889
  859MPD2    H312670   3.887   3.722  15.920 -0.9857  1.0823  0.5849
  859MPD2     N12671   4.259   3.468  15.853 -0.2874 -0.2771 -0.6001
  859MPD2    H512672   4.198   3.394  15.884 -0.0342 -0.8517 -1.4930
  859MPD2    N112673   4.222   3.940  15.716  0.6671 -0.2753  0.0463
  859MPD2    H712674   4.154   4.015  15.712  1.5476  0.4203 -1.8094
  860MPD2     C12675   2.646   0.285  11.793  0.7485  0.1253  0.2050
  860MPD2    C112676   2.631   0.295  11.930 -0.4727 -0.4356  0.7100
  860MPD2    C212677   2.517   0.237  11.989 -0.1804 -0.2666 -0.2513
  860MPD2    C312678   2.427   0.167  11.908 -0.1378  0.6715 -0.2142
  860MPD2    C412679   2.450   0.157  11.770 -0.3238  0.1402  0.4647
  860MPD2    C512680   2.562   0.211  11.712 -0.1830 -0.3844  0.6145
  860MPD2     H12681   2.504   0.256  12.095  1.6579  0.4654 -0.1521
  860MPD2    H112682   2.385   0.100  11.704  0.2230 -0.4171  0.3945
  860MPD2    H212683   2.714   0.343  11.732  2.3581 -3.3957 -1.3552
  860MPD2    H312684   2.574   0.187  11.607 -0.9248 -0.5777  0.5774
  860MPD2     N12685   2.319   0.102  11.968 -0.0462  0.1143 -0.5531
  860MPD2    H512686   2.308   0.126  12.067  0.3550  0.1729 -0.5233
  860MPD2    N112687   2.721   0.367  12.013  0.6144  0.1985  0.4162
  860MPD2    H712688   2.705   0.357  12.113 -2.3933 -0.8525 -0.1948
  861MPD2     C12689   1.171   2.937  11.218 -0.1744  0.5623  0.0899
  861MPD2    C112690   1.157   3.030  11.321  0.2389  0.1072  0.1258
  861MPD2    C212691   1.044   3.116  11.311  0.2589  0.8681 -0.3904
  861MPD2    C312692   0.947   3.100  11.214 -0.4492 -0.0799 -0.1853
  861MPD2    C412693   0.955   2.994  11.133  0.0788  0.1583 -0.4618
  861MPD2    C512694   1.066   2.919  11.132  0.2673 -0.2520  0.2282
  861MPD2     H12695   1.047   3.197  11.383 -0.1079 -0.3092  0.9564
  861MPD2    H112696   0.879   2.981  11.057  0.0741  0.1984 -0.4640
  861MPD2    H212697   1.262   2.879  11.212 -1.3435 -1.5272  2.3108
  861MPD2    H312698   1.083   2.841  11.057 -1.0065  0.7114 -1.0558
  861MPD2     N12699   0.840   3.189  11.198 -0.3286  0.4236 -0.2629
  861MPD2    H512700   0.765   3.160  11.136  0.1652  0.6111 -0.9431
  861MPD2    N112701   1.252   3.048  11.423  0.3743  0.3756  0.0789
  861MPD2    H712702   1.228   3.121  11.489  1.2118 -0.0904  0.8916
  862MPD2     C12703   0.369   3.313  10.659  0.4082  0.6426  0.0884
  862MPD2    C112704   0.484   3.262  10.718 -1.0377 -0.5006  0.1740
  862MPD2    C212705   0.547   3.154  10.662  0.0327  0.1239 -0.8897
  862MPD2    C312706   0.500   3.091  10.550 -0.1798 -0.1307 -0.2486
  862MPD2    C412707   0.379   3.131  10.497  0.1240 -0.3828  0.5542
  862MPD2    C512708   0.320   3.243  10.552  0.7487 -0.3656  0.9213
  862MPD2     H12709   0.643   3.120  10.699 -0.8270 -0.4328  0.8507
  862MPD2    H112710   0.335   3.076  10.414  4.0041  0.1694 -1.8452
  862MPD2    H212711   0.321   3.405  10.691 -2.4712 -0.7776 -0.1537
  862MPD2    H312712   0.229   3.276  10.505 -0.1329 -0.7474  2.3643
  862MPD2     N12713   0.575   2.991  10.482 -0.1524 -0.0556 -0.0927
  862MPD2    H512714   0.524   2.940  10.410  0.3074 -1.5296  0.6261
  862MPD2    N112715   0.547   3.318  10.834 -0.0618 -0.0853  0.2574
  862MPD2    H712716   0.641   3.288  10.859 -0.9999 -1.9022  1.5930
  863MPD2     C12717   4.040   0.615  16.951  0.6637 -0.3678  0.2452
  863MPD2    C112718   4.038   0.753  16.946 -0.3624  0.1563 -0.8068
  863MPD2    C212719   4.113   0.829  17.040 -0.2484  0.1715 -0.3627
  863MPD2    C312720   4.194   0.764  17.129 -0.7470  0.2834 -0.0698
  863MPD2    C412721   4.185   0.628  17.136 -0.4553 -0.8397  0.4353
  863MPD2    C512722   4.105   0.552  17.052 -0.1775  0.0286  0.2010
  863MPD2     H12723   4.107   0.938  17.037 -0.7863  0.1456 -0.1943
  863MPD2    H112724   4.235   0.572  17.214  1.8773 -0.6605 -0.9448
  863MPD2    H212725   3.985   0.556  16.879  0.8524 -2.1646  1.5803
  863MPD2    H312726   4.105   0.445  17.068  0.7402 -0.0217 -0.1288
  863MPD2     N12727   4.281   0.832  17.219  0.1051 -0.9596  0.5364
  863MPD2    H512728   4.326   0.772  17.286  2.8357  1.8326  1.1947
  863MPD2    N112729   3.951   0.810  16.848  0.9561 -0.2492  0.1070
  863MPD2    H712730   3.897   0.747  16.789  1.9827 -0.6611 -0.3791
  864MPD2     C12731   0.031   2.121  17.471  0.5959 -0.3885 -0.0228
  864MPD2    C112732   0.122   2.045  17.399  0.4678  0.2181 -0.6520
  864MPD2    C212733   0.247   2.098  17.368  0.3076  0.0863  0.4245
  864MPD2    C312734   0.282   2.226  17.413 -0.1146  0.1732 -0.0172
  864MPD2    C412735   0.180   2.293  17.483 -0.3648 -0.6268 -0.0550
  864MPD2    C512736   0.063   2.242  17.517 -0.9439 -0.8863 -0.3327
  864MPD2     H12737   0.319   2.045  17.306  1.9044  1.0389  1.4793
  864MPD2    H112738   0.189   2.397  17.511 -0.1360 -0.0818 -2.1580
  864MPD2    H212739   4.669   2.081  17.490  1.3039 -1.7918  0.7305
  864MPD2    H312740   4.736   2.308  17.574  0.8433  0.7585 -0.2099
  864MPD2     N12741   0.400   2.300  17.381 -0.1034 -0.6828  0.1551
  864MPD2    H512742   0.408   2.396  17.415  1.6717 -0.7198 -0.1585
  864MPD2    N112743   0.079   1.909  17.364  0.8889  0.0060 -0.2096
  864MPD2    H712744   4.724   1.878  17.392  0.7557  0.2738 -0.3469
  865MPD2     C12745   0.453   2.759  16.721  1.4277 -0.6519  0.3473
  865MPD2    C112746   0.522   2.641  16.716 -0.2696  0.3997  0.1737
  865MPD2    C212747   0.603   2.604  16.828 -0.2318  0.1722  0.1718
  865MPD2    C312748   0.603   2.681  16.944  0.1968  0.7869  0.2767
  865MPD2    C412749   0.543   2.807  16.941 -1.1029  0.5545  0.1571
  865MPD2    C512750   0.472   2.840  16.834 -0.0682  0.5555 -0.3825
  865MPD2     H12751   0.666   2.516  16.830  0.3172  0.6059  2.0273
  865MPD2    H112752   0.543   2.871  17.029  0.5785  2.1252 -0.9938
  865MPD2    H212753   0.379   2.788  16.647  0.7496  2.8494  2.3668
  865MPD2    H312754   0.418   2.934  16.836  1.0288  1.2189 -2.1297
  865MPD2     N12755   0.675   2.642  17.052  0.7179 -0.4024 -0.5229
  865MPD2    H512756   0.744   2.568  17.041  0.6955 -0.5321  0.2348
  865MPD2    N112757   0.509   2.548  16.612  0.1942  0.1982 -0.3954
  865MPD2    H712758   0.461   2.577  16.528  1.2023 -1.0961 -1.4106
  866MPD2     C12759   1.949   3.798  11.707 -0.3630  0.0917 -0.4588
  866MPD2    C112760   1.887   3.771  11.589  0.4444  0.0812 -0.0764
  866MPD2    C212761   1.751   3.783  11.586 -0.7219  0.0854  0.0873
  866MPD2    C312762   1.676   3.804  11.700  0.2020 -0.5869  0.1967
  866MPD2    C412763   1.733   3.828  11.820  0.4684 -0.8416  0.0094
  866MPD2    C512764   1.864   3.819  11.817 -0.2078  0.5684 -0.0057
  866MPD2     H12765   1.709   3.751  11.491  3.6980 -1.6967 -1.2438
  866MPD2    H112766   1.670   3.848  11.906 -0.5385  1.5780 -1.2830
  866MPD2    H212767   2.055   3.780  11.723 -0.6891 -0.1931  1.3391
  866MPD2    H312768   1.913   3.821  11.914  0.2797  0.0165 -0.2386
  866MPD2     N12769   1.538   3.813  11.706 -0.3374  0.3300 -0.1662
  866MPD2    H512770   1.495   3.838  11.795 -3.4547 -1.6632 -1.1212
  866MPD2    N112771   1.978   3.748  11.480 -0.3964 -0.6316  0.6038
  866MPD2    H712772   2.075   3.748  11.509  0.1439 -0.3960 -1.1916
  867MPD2     C12773   3.419   2.280  16.625  0.0263 -0.4742  0.0242
  867MPD2    C112774   3.519   2.234  16.710 -0.0572  0.4183  0.2576
  867MPD2    C212775   3.588   2.325  16.784 -0.7685 -0.2682  0.3732
  867MPD2    C312776   3.549   2.459  16.792  0.0625  0.1999 -0.0278
  867MPD2    C412777   3.449   2.504  16.705  0.4157 -0.5402 -0.6643
  867MPD2    C512778   3.386   2.414  16.623  0.1115  0.2521 -0.3352
  867MPD2     H12779   3.673   2.292  16.843 -0.3371 -1.5559 -0.9749
  867MPD2    H112780   3.407   2.604  16.696 -0.1645 -0.7176  0.1214
  867MPD2    H212781   3.351   2.222  16.564  0.6103 -0.1893 -0.9003
  867MPD2    H312782   3.314   2.452  16.552 -0.2297  3.0321  1.5082
  867MPD2     N12783   3.615   2.550  16.878 -0.2245 -0.1939  0.4193
  867MPD2    H512784   3.578   2.645  16.881 -0.5156 -0.3261  0.9038
  867MPD2    N112785   3.534   2.099  16.723  0.4341 -0.2454  0.1585
  867MPD2    H712786   3.473   2.044  16.665 -1.3251  1.4212  0.4187
  868MPD2     C12787   0.281   1.162  13.003 -0.5962  0.2470  0.1680
  868MPD2    C112788   0.393   1.238  13.017  0.4116  0.0609 -0.4822
  868MPD2    C212789   0.383   1.351  13.097  0.6079  0.1610 -0.5637
  868MPD2    C312790   0.269   1.382  13.171 -0.3864 -0.3828  0.3510
  868MPD2    C412791   0.148   1.316  13.137  0.9121  0.4207 -0.1950
  868MPD2    C512792   0.159   1.202  13.053  0.2259 -0.3285  0.1824
  868MPD2     H12793   0.469   1.411  13.123  0.6766 -0.3305  0.3748
  868MPD2    H112794   0.050   1.339  13.178  1.2100 -0.7186  1.1589
  868MPD2    H212795   0.272   1.095  12.918 -3.0104 -0.1472  0.7294
  868MPD2    H312796   0.066   1.154  13.023 -0.0409 -0.7434  1.7049
  868MPD2     N12797   0.275   1.469  13.280 -0.5494 -0.4320  0.3953
  868MPD2    H512798   0.357   1.525  13.301  0.0926 -2.0427  2.0833
  868MPD2    N112799   0.511   1.183  12.965  0.4211 -0.0150 -0.1347
  868MPD2    H712800   0.493   1.095  12.918 -1.3543 -0.2207  0.9674
  869MPD2     C12801   0.754   3.554   0.709  0.6393  0.5478 -0.5496
  869MPD2    C112802   0.810   3.538   0.587  1.2211 -0.2868  0.3952
  869MPD2    C212803   0.901   3.631   0.549 -0.1881 -0.0565  0.2155
  869MPD2    C312804   0.935   3.739   0.628  0.6260  0.6175  0.5556
  869MPD2    C412805   0.879   3.742   0.757  0.1666  0.2625  0.6544
  869MPD2    C512806   0.789   3.651   0.790 -0.1710 -0.0218  0.4268
  869MPD2     H12807   0.932   3.633   0.445 -0.4821  0.3156  0.1326
  869MPD2    H112808   0.889   3.826   0.825  0.4625  0.8051 -0.0523
  869MPD2    H212809   0.697   3.469   0.743  2.2314 -0.0768  0.5433
  869MPD2    H312810   0.752   3.651   0.892 -0.0046 -1.0466  0.4884
  869MPD2     N12811   1.026   3.836   0.593  0.8507  0.4830 -0.5214
  869MPD2    H512812   1.041   3.914   0.656  1.5791  0.3397 -0.5113
  869MPD2    N112813   0.774   3.423   0.512 -0.6094  0.3626  0.0975
  869MPD2    H712814   0.713   3.355   0.556  0.4194 -0.0272  0.9362
  870MPD2     C12815   0.111   2.941   1.428 -0.4217  0.4328  0.5241
  870MPD2    C112816   0.240   2.889   1.407  0.3029  0.3250 -0.2540
  870MPD2    C212817   0.285   2.873   1.274  0.8186  0.1625 -0.2999
  870MPD2    C312818   0.193   2.876   1.167 -0.3769 -0.2337 -0.8399
  870MPD2    C412819   0.059   2.906   1.198  0.6967  0.0976  0.4431
  870MPD2    C512820   0.022   2.931   1.328  1.1077  0.0897 -0.2275
  870MPD2     H12821   0.386   2.841   1.249  0.4779 -2.0690  1.1852
  870MPD2    H112822   4.717   2.907   1.124  0.6097 -0.7721  0.5285
  870MPD2    H212823   0.076   2.970   1.527  1.3123  0.1625  1.2102
  870MPD2    H312824   4.660   2.962   1.354  0.9183  1.1744 -2.2203
  870MPD2     N12825   0.246   2.839   1.044  0.0182 -0.1743  0.0243
  870MPD2    H512826   0.346   2.824   1.034 -0.2267 -0.7208 -1.5904
  870MPD2    N112827   0.331   2.881   1.518  0.3309 -0.0087 -0.1268
  870MPD2    H712828   0.304   2.903   1.614 -1.4769 -1.5650 -0.2799
  871MPD2     C12829   2.491   2.800  16.310 -0.2898 -0.0373 -0.3022
  871MPD2    C112830   2.503   2.779  16.446 -0.2099 -0.2942  0.0328
  871MPD2    C212831   2.559   2.662  16.483  0.2487  0.4160 -0.0789
  871MPD2    C312832   2.617   2.564  16.397  0.3533  0.2706 -0.7634
  871MPD2    C412833   2.601   2.585  16.260 -0.0851 -0.2896  0.2777
  871MPD2    C512834   2.544   2.704  16.213  0.1327  0.3433  0.1233
  871MPD2     H12835   2.583   2.652  16.588  0.4562 -1.5585 -0.3091
  871MPD2    H112836   2.670   2.536  16.192 -1.2042 -0.3813 -0.7986
  871MPD2    H212837   2.453   2.888  16.260  1.4855 -0.3474 -2.1742
  871MPD2    H312838   2.541   2.719  16.106  1.8065  0.4589  0.0929
  871MPD2     N12839   2.674   2.451  16.451  0.3039  0.2313  0.6612
  871MPD2    H512840   2.677   2.437  16.551 -0.6579 -1.2191  0.4880
  871MPD2    N112841   2.472   2.890  16.533 -0.3736  0.1751 -0.3717
  871MPD2    H712842   2.445   2.980  16.495 -0.9410  0.8453  1.6098
  872MPD2     C12843   3.247   0.230  14.124  0.2615  0.3084 -0.3133
  872MPD2    C112844   3.308   0.301  14.225  0.7687  0.2970  0.4525
  872MPD2    C212845   3.262   0.297  14.350 -0.0244 -0.0879 -0.8478
  872MPD2    C312846   3.147   0.226  14.380  0.0443  0.5786  0.0579
  872MPD2    C412847   3.078   0.172  14.281  0.5630  0.5857  0.5579
  872MPD2    C512848   3.120   0.182  14.150 -0.2439 -0.4789 -0.6630
  872MPD2     H12849   3.311   0.362  14.421 -0.8901 -0.7937  0.4016
  872MPD2    H112850   2.990   0.114  14.307  1.2674 -0.3075  0.9489
  872MPD2    H212851   3.285   0.218  14.024 -0.0256 -1.1456 -0.2538
  872MPD2    H312852   3.073   0.128  14.069  2.2720 -0.4494 -2.1411
  872MPD2     N12853   3.100   0.197  14.509 -0.7615 -0.0857  0.3153
  872MPD2    H512854   3.027   0.129  14.524 -1.6765  0.8317 -0.0148
  872MPD2    N112855   3.431   0.369  14.207  0.0678 -0.1226 -0.8313
  872MPD2    H712856   3.477   0.407  14.290  2.3330 -0.6335 -1.8355
  873MPD2     C12857   0.774   4.606   1.080  0.6794  0.3585 -0.0811
  873MPD2    C112858   0.649   4.624   1.144 -0.4947 -1.5020  0.4705
  873MPD2    C212859   0.556   4.525   1.139 -0.3380  0.3570  0.1425
  873MPD2    C312860   0.574   4.403   1.069 -0.3965  0.1372 -0.8880
  873MPD2    C412861   0.704   4.377   1.030  0.6370 -0.6700 -0.3221
  873MPD2    C512862   0.796   4.483   1.027 -0.9042  0.4098  0.1126
  873MPD2     H12863   0.454   4.545   1.169 -0.0659  0.1397  1.2234
  873MPD2    H112864   0.716   4.284   0.974  1.7593 -0.4596 -0.4300
  873MPD2    H212865   0.838   4.693   1.068  0.6102  0.3202 -0.6831
  873MPD2    H312866   0.897   4.462   0.995 -1.3244 -0.9709 -0.3339
  873MPD2     N12867   0.474   4.303   1.054 -0.3123  0.4326  0.5787
  873MPD2    H512868   0.470   4.239   0.975 -0.2592  1.7939 -0.5090
  873MPD2    N112869   0.614   0.021   1.183  0.2819 -0.1735 -0.6102
  873MPD2    H712870   0.681   0.091   1.156 -0.3397  1.4196  1.9946
  874MPD2     C12871   0.224   0.314  16.324 -0.0181 -0.3660  0.1310
  874MPD2    C112872   0.225   0.315  16.463 -0.1588 -0.4699 -0.0447
  874MPD2    C212873   0.324   0.395  16.526  0.7768  0.3417  0.2324
  874MPD2    C312874   0.411   0.468  16.448  0.5070 -1.2804  0.9249
  874MPD2    C412875   0.399   0.469  16.311 -1.0667  0.5109  0.4574
  874MPD2    C512876   0.304   0.396  16.251 -0.5540  0.0784  0.4808
  874MPD2     H12877   0.335   0.414  16.632  0.1574  0.8476  0.2056
  874MPD2    H112878   0.466   0.530  16.251 -0.7895 -0.3805 -0.1499
  874MPD2    H212879   0.160   0.245  16.270  0.2837  0.1661 -0.9059
  874MPD2    H312880   0.304   0.395  16.143 -0.6350  2.6210  0.4427
  874MPD2     N12881   0.520   0.531  16.520  0.5059 -0.2164  0.3825
  874MPD2    H512882   0.525   0.512  16.620  1.3095 -0.4899  0.2913
  874MPD2    N112883   0.141   0.227  16.533 -0.1352  0.1802  0.0581
  874MPD2    H712884   0.081   0.170  16.474 -2.2801  0.4746  1.9611
  875MPD2     C12885   1.220   3.362  14.634  0.1589  0.6771  0.0796
  875MPD2    C112886   1.110   3.392  14.708 -0.4579  0.2010  0.0353
  875MPD2    C212887   1.132   3.448  14.834  0.7020 -0.0918  0.0017
  875MPD2    C312888   1.260   3.480  14.874  0.4758  0.0987  0.0490
  875MPD2    C412889   1.363   3.476  14.789 -0.2924  0.2664  0.5228
  875MPD2    C512890   1.341   3.405  14.676  0.0363 -0.9314 -0.3244
  875MPD2     H12891   1.046   3.479  14.892  1.2069 -2.0925  1.8181
  875MPD2    H112892   1.465   3.501  14.814  0.7523 -1.5310 -1.9871
  875MPD2    H212893   1.207   3.303  14.544 -0.8507  1.1342 -0.0775
  875MPD2    H312894   1.424   3.360  14.624  2.0871  2.1042  0.3224
  875MPD2     N12895   1.281   3.545  14.999  0.2484 -0.2662 -0.3339
  875MPD2    H512896   1.372   3.591  15.009  1.5793 -2.8317 -0.6063
  875MPD2    N112897   0.969   3.367  14.671 -0.3697 -0.4060 -0.3794
  875MPD2    H712898   0.898   3.382  14.742 -0.5212  0.4395 -0.7064
  876MPD2     C12899   4.244   4.361  16.323 -0.2326  0.5033 -0.4823
  876MPD2    C112900   4.364   4.357  16.258  0.6843 -0.2583 -0.4444
  876MPD2    C212901   4.451   4.251  16.283 -0.0672 -0.1978  0.1354
  876MPD2    C312902   4.416   4.148  16.364 -0.2170  0.9532 -0.1145
  876MPD2    C412903   4.289   4.154  16.421  0.1341  0.3052 -0.3435
  876MPD2    C512904   4.201   4.263  16.410  0.4034 -0.4282  0.4258
  876MPD2     H12905   4.550   4.240  16.241 -0.4852 -3.4615 -0.0457
  876MPD2    H112906   4.249   4.081  16.491  0.5370  1.3151  0.9479
  876MPD2    H212907   4.178   4.446  16.309 -0.5418  0.2452 -0.5813
  876MPD2    H312908   4.104   4.270  16.457 -0.7544 -0.8053 -1.8947
  876MPD2     N12909   4.505   4.039  16.383  0.7035  0.3835 -0.8904
  876MPD2    H512910   4.598   4.055  16.345  0.6937 -1.0620 -1.5291
  876MPD2    N112911   4.397   4.467  16.173 -0.4671 -0.0297  0.2280
  876MPD2    H712912   4.341   4.551  16.175 -0.5986 -0.1364  0.9125
  877MPD2     C12913   4.241   0.156  15.531 -0.2217 -0.0794 -0.1558
  877MPD2    C112914   4.378   0.158  15.549  0.3165 -0.1855 -0.2144
  877MPD2    C212915   4.464   0.222  15.459  0.6664 -0.1456  0.3284
  877MPD2    C312916   4.417   0.260  15.330  0.2770  0.1878 -0.1623
  877MPD2    C412917   4.281   0.235  15.304 -0.2974 -0.7985 -0.1099
  877MPD2    C512918   4.198   0.193  15.407 -0.3253  0.4113 -0.0307
  877MPD2     H12919   4.569   0.221  15.485  1.3808  0.3115 -2.4574
  877MPD2    H112920   4.250   0.253  15.202  0.3537 -0.5163 -0.2606
  877MPD2    H212921   4.173   0.112  15.603 -0.3085  1.5377  0.7471
  877MPD2    H312922   4.090   0.187  15.399 -0.3614 -1.0724  1.5564
  877MPD2     N12923   4.499   0.309  15.227 -0.1942 -0.9878  0.2558
  877MPD2    H512924   4.453   0.332  15.139  1.2108  0.0579 -0.2108
  877MPD2    N112925   4.430   0.128  15.678  0.3041  0.0554  0.5462
  877MPD2    H712926   4.526   0.156  15.697  0.7278 -0.3032 -1.0682
  878MPD2     C12927   3.613   4.241  13.428 -1.0405 -0.1247  0.6719
  878MPD2    C112928   3.747   4.271  13.441 -0.3528 -0.0429  0.0822
  878MPD2    C212929   3.802   4.323  13.556  0.4879 -0.8194 -0.0896
  878MPD2    C312930   3.718   4.337  13.664 -0.0960 -0.1090  0.0567
  878MPD2    C412931   3.584   4.299  13.661 -0.2970  0.7900 -0.2422
  878MPD2    C512932   3.535   4.256  13.540  1.0093 -0.2360 -0.3643
  878MPD2     H12933   3.905   4.357  13.563 -0.4400  2.1595 -0.8484
  878MPD2    H112934   3.509   4.337  13.729  0.3064 -0.9043  1.3815
  878MPD2    H212935   3.569   4.198  13.338 -0.2977 -0.8424  0.6483
  878MPD2    H312936   3.431   4.227  13.541  0.9828 -0.1457 -0.4493
  878MPD2     N12937   3.769   4.395  13.781  0.0128  0.2833 -0.5637
  878MPD2    H512938   3.869   4.414  13.783  0.4554 -2.2922  0.9432
  878MPD2    N112939   3.826   4.237  13.327  0.2642 -0.6016 -0.7157
  878MPD2    H712940   3.788   4.202  13.240 -0.1794 -2.1610  0.1159
  879MPD2     C12941   0.367   1.089  17.299 -0.2347  0.3071  0.7482
  879MPD2    C112942   0.275   1.008  17.367 -0.2607 -0.3735 -1.1861
  879MPD2    C212943   0.221   0.903  17.290  0.0119 -0.4345  0.3167
  879MPD2    C312944   0.273   0.873  17.168  0.2918  0.5205 -0.0961
  879MPD2    C412945   0.358   0.964  17.109 -0.5674  0.1945  0.2161
  879MPD2    C512946   0.411   1.071  17.170 -0.3575 -0.0829  1.0191
  879MPD2     H12947   0.153   0.835  17.341 -2.7650 -0.8009 -3.8665
  879MPD2    H112948   0.398   0.942  17.011 -0.8130 -0.0907  0.1797
  879MPD2    H212949   0.403   1.176  17.352 -0.2794  0.0825  1.1482
  879MPD2    H312950   0.480   1.132  17.114  1.5523 -2.1938  1.0680
  879MPD2     N12951   0.230   0.762  17.093 -0.5725 -0.1636  0.0434
  879MPD2    H512952   0.264   0.762  16.997  2.5672 -0.7580  1.1688
  879MPD2    N112953   0.246   1.027  17.503 -0.2774 -0.3706 -0.1528
  879MPD2    H712954   0.315   1.085  17.550  0.0858 -1.0572  0.1574
  880MPD2     C12955   1.422   2.111   0.517 -0.5966 -0.1668  0.0866
  880MPD2    C112956   1.497   2.222   0.466  1.0190  0.4639  0.2998
  880MPD2    C212957   1.612   2.185   0.399  0.0037 -0.1330  0.2710
  880MPD2    C312958   1.641   2.054   0.364 -0.4410  0.2607  0.0035
  880MPD2    C412959   1.568   1.949   0.423 -0.5820 -0.2250 -0.4700
  880MPD2    C512960   1.454   1.981   0.492 -0.0856 -0.3448 -1.2604
  880MPD2     H12961   1.657   2.264   0.339 -0.7897 -0.3825 -0.6419
  880MPD2    H112962   1.583   1.849   0.386 -2.1463 -0.0829 -1.4599
  880MPD2    H212963   1.325   2.140   0.555 -0.8342 -0.7780 -0.0484
  880MPD2    H312964   1.381   1.906   0.522  0.2331 -0.1711 -0.0496
  880MPD2     N12965   1.758   2.032   0.279 -0.3095  0.2844 -0.1079
  880MPD2    H512966   1.818   2.114   0.285 -0.7047  0.4609  1.5369
  880MPD2    N112967   1.448   2.358   0.480  0.9478 -0.0335 -0.0135
  880MPD2    H712968   1.359   2.372   0.526  0.9990 -0.9436  0.3547
  881MPD2     C12969   1.354   3.323  17.690 -0.0914  0.1298 -0.6140
  881MPD2    C112970   1.427   3.210  17.664  1.1555  0.4933  0.4222
  881MPD2    C212971   1.442   3.116   0.015 -0.3199 -0.3956  0.2356
  881MPD2    C312972   1.363   3.112   0.127  0.2483  0.2561 -0.1796
  881MPD2    C412973   1.273   3.219   0.136  0.8357  0.0100 -0.1000
  881MPD2    C512974   1.283   3.322   0.050  0.7270  0.0310 -0.1400
  881MPD2     H12975   1.521   3.042   0.002 -0.2787 -0.6713  1.9839
  881MPD2    H112976   1.195   3.217   0.210  1.5297  1.9055  0.6792
  881MPD2    H212977   1.338   3.404  17.620 -0.9749  0.5403  0.0606
  881MPD2    H312978   1.221   3.410   0.065  0.5887 -0.7528  3.9010
  881MPD2     N12979   1.348   3.004   0.223  0.1982 -0.4245  0.0880
  881MPD2    H512980   1.283   3.014   0.300 -0.4586 -0.9508 -0.3966
  881MPD2    N112981   1.519   3.222  17.556  0.1939  0.1234 -0.2890
  881MPD2    H712982   1.519   3.308  17.502 -0.0240  0.6942  0.6245
  882MPD2     C12983   4.591   0.014  14.587 -1.0285 -0.0926 -0.1852
  882MPD2    C112984   4.572   0.064  14.711 -0.9281  0.5384  0.4898
  882MPD2    C212985   4.491   4.728  14.797  0.0061 -0.1059 -0.5886
  882MPD2    C312986   4.429   4.612  14.753 -0.2320  0.1443  0.6732
  882MPD2    C412987   4.459   4.560  14.631 -0.0862 -0.4254 -0.3299
  882MPD2    C512988   4.537   4.634  14.545  0.4411 -0.2991 -0.3103
  882MPD2     H12989   4.465   0.037  14.892  0.7575 -0.1732 -0.3515
  882MPD2    H112990   4.418   4.464  14.601  1.1582 -1.3282  0.8577
  882MPD2    H212991   4.651   0.072  14.517 -0.7825 -0.3086 -0.1504
  882MPD2    H312992   4.552   4.600  14.444  1.1118  0.1912 -0.3765
  882MPD2     N12993   4.333   4.546  14.833  0.0208  0.4563  0.3060
  882MPD2    H512994   4.279   4.478  14.780 -0.1475  1.5269 -0.9212
  882MPD2    N112995   4.615   0.193  14.748  0.5215  0.2322 -0.4938
  882MPD2    H712996   4.672   0.245  14.682 -0.2865  2.3876  0.4763
  883MPD2     C12997   1.705   0.423  15.934 -0.7795  0.4227  0.4112
  883MPD2    C112998   1.792   0.495  15.859  0.0443 -0.7960  0.7054
  883MPD2    C212999   1.908   0.554  15.916 -0.8560 -0.3749 -0.4621
  883MPD2    C313000   1.942   0.537  16.050 -0.3864  0.5374  0.1666
  883MPD2    C413001   1.852   0.462  16.128  0.1640 -0.1186  0.9384
  883MPD2    C513002   1.737   0.413  16.068 -0.3309  0.3087 -0.0394
  883MPD2     H13003   1.967   0.613  15.847  2.0125 -1.7319  0.8433
  883MPD2    H113004   1.864   0.446  16.234 -0.9365 -3.0381  0.6134
  883MPD2    H213005   1.616   0.379  15.892  0.9582 -1.0717 -1.6991
  883MPD2    H313006   1.676   0.348  16.129 -1.6277  0.6443 -0.9968
  883MPD2     N13007   2.064   0.591  16.095 -0.4554 -0.2290  0.5877
  883MPD2    H513008   2.118   0.650  16.033 -0.8226 -0.7441 -0.2090
  883MPD2    N113009   1.775   0.513  15.715 -0.8279 -0.1909 -0.7000
  883MPD2    H713010   1.852   0.558  15.666 -0.8905  0.5434 -0.1257
  884MPD2     C13011   4.085   0.852  15.334  0.0998 -0.5127  0.2331
  884MPD2    C113012   4.063   0.942  15.234  0.7726  1.0425 -0.7915
  884MPD2    C213013   3.935   0.998  15.220 -0.2628  0.2487  0.1763
  884MPD2    C313014   3.832   0.971  15.305  0.6212  0.1419  0.4077
  884MPD2    C413015   3.858   0.873  15.400 -0.8536  0.2956  0.6652
  884MPD2    C513016   3.985   0.825  15.421 -0.1439  0.5834  0.4303
  884MPD2     H13017   3.919   1.069  15.139  0.6815  0.3158  0.0497
  884MPD2    H113018   3.786   0.841  15.475  0.5618 -1.8529  1.1247
  884MPD2    H213019   4.183   0.813  15.357  1.1467  1.6567 -0.5272
  884MPD2    H313020   4.001   0.760  15.507 -0.2600 -0.0686 -0.0411
  884MPD2     N13021   3.714   1.046  15.301 -0.3735  0.0190  0.6207
  884MPD2    H513022   3.698   1.111  15.225  0.9382  1.3384  1.4829
  884MPD2    N113023   4.162   0.989  15.146 -0.0680 -0.0483 -0.5925
  884MPD2    H713024   4.138   1.065  15.083 -0.6019  0.0068 -0.3227
  885MPD2     C13025   1.834   1.017   0.067  0.4419 -1.1868 -0.2118
  885MPD2    C113026   1.940   0.958  17.744 -0.5580 -0.2953 -0.0993
  885MPD2    C213027   1.959   0.990  17.612  0.5137 -0.5135  0.3735
  885MPD2    C313028   1.904   1.107  17.557  0.0686  0.2573 -0.1537
  885MPD2    C413029   1.818   1.176  17.641 -0.2339  0.6990  0.0047
  885MPD2    C513030   1.782   1.129   0.014  0.2450  0.4262 -0.0711
  885MPD2     H13031   2.028   0.938  17.546 -1.7400  0.5724 -2.8176
  885MPD2    H113032   1.781   1.273  17.610 -2.1121 -0.1025 -0.2761
  885MPD2    H213033   1.805   0.985   0.166  0.4025 -3.3729 -0.9226
  885MPD2    H313034   1.698   1.174   0.065 -0.3334 -0.8061  0.0786
  885MPD2     N13035   1.949   1.149  17.426  0.0305  0.4396  0.4609
  885MPD2    H513036   2.009   1.091  17.369 -0.0893  0.4407  0.3334
  885MPD2    N113037   2.011   0.860   0.070  0.5615  0.6398  0.1746
  885MPD2    H713038   2.002   0.865   0.171  4.6686 -0.9969  0.6085
  886MPD2     C13039   3.401   4.433  15.125 -0.6559  0.5323  0.1464
  886MPD2    C113040   3.479   4.470  15.230 -0.8795 -0.1470 -0.4962
  886MPD2    C213041   3.493   4.608  15.253 -0.3041 -0.3967  0.0137
  886MPD2    C313042   3.424   4.697  15.176 -0.1115  0.5944  0.5211
  886MPD2    C413043   3.336   4.656  15.076  0.5366 -0.0672  0.4540
  886MPD2    C513044   3.328   4.525  15.055  0.7545  0.2343 -0.1189
  886MPD2     H13045   3.560   4.652  15.326  0.3000 -3.0539  1.0656
  886MPD2    H113046   3.289   4.730  15.012 -1.1397  0.3554  2.1843
  886MPD2    H213047   3.370   4.331  15.110 -0.6844  0.2996  1.7741
  886MPD2    H313048   3.265   4.489  14.974 -0.6322 -1.7477  1.8492
  886MPD2     N13049   3.441   0.095  15.191  0.0283 -0.4607 -0.3914
  886MPD2    H513050   3.395   0.148  15.118  0.8312 -1.4762 -1.6324
  886MPD2    N113051   3.553   4.386  15.314 -0.2411  0.1832  0.1257
  886MPD2    H713052   3.620   4.432  15.375 -1.1542 -0.5193  1.6557
  887MPD2     C13053   4.012   4.342  15.883 -0.3043  0.5908 -0.4378
  887MPD2    C113054   3.933   4.410  15.779  0.3864  0.0455 -1.0245
  887MPD2    C213055   3.898   4.545  15.790  0.3001  0.5383  0.4199
  887MPD2    C313056   3.945   4.621  15.892 -0.1941  0.0405  0.2882
  887MPD2    C413057   3.999   4.558  16.004  0.4472  0.6370 -0.2087
  887MPD2    C513058   4.029   4.424  15.999  0.3267 -0.1225 -0.4890
  887MPD2     H13059   3.851   4.597  15.708 -1.8756 -1.5543  0.3339
  887MPD2    H113060   4.042   4.606  16.091 -1.2830 -0.0591  1.0530
  887MPD2    H213061   4.037   4.237  15.881 -0.4838  0.5284  0.4765
  887MPD2    H313062   4.069   4.382  16.091 -0.3291  0.0663 -0.1169
  887MPD2     N13063   3.939   0.022  15.876  0.1747  0.4544 -0.5283
  887MPD2    H513064   3.903   0.055  15.787 -1.3940 -0.1573 -0.1161
  887MPD2    N113065   3.882   4.340  15.667  0.4000 -0.3970 -0.1720
  887MPD2    H713066   3.844   4.392  15.589  3.6111  0.4220 -1.1907
  888MPD2     C13067   1.016   0.081  14.955 -0.0564  0.4098 -0.5070
  888MPD2    C113068   1.098   0.071  15.065  0.0721 -0.0452 -0.1697
  888MPD2    C213069   1.162   0.182  15.113  0.2043  0.3328  0.4565
  888MPD2    C313070   1.143   0.300  15.049  0.1338 -0.4072  0.0308
  888MPD2    C413071   1.074   0.304  14.930  1.0016  0.4328 -0.3349
  888MPD2    C513072   1.016   0.196  14.884  0.0156 -0.1359 -0.0230
  888MPD2     H13073   1.231   0.188  15.197 -2.8010 -0.4189  2.9544
  888MPD2    H113074   1.058   0.394  14.871 -0.8875 -0.1577 -0.7292
  888MPD2    H213075   0.975   0.001  14.893 -4.3230  1.9764  0.2706
  888MPD2    H313076   0.957   0.189  14.794  1.7770 -1.0836 -1.1102
  888MPD2     N13077   1.214   0.408  15.108 -0.8155  1.0140  0.0903
  888MPD2    H513078   1.258   0.404  15.199  0.8666 -2.3183 -0.8412
  888MPD2    N113079   1.118   4.693  15.139 -0.1281 -0.2658  0.4339
  888MPD2    H713080   1.173   4.702  15.224  1.0691 -0.3950 -0.3150
  889MPD2     C13081   0.515   3.971  12.719  0.2399 -0.3107 -0.5821
  889MPD2    C113082   0.589   3.972  12.833 -0.3369 -0.3743 -0.1122
  889MPD2    C213083   0.593   4.091  12.895  0.7372 -0.5190 -0.1400
  889MPD2    C313084   0.541   4.208  12.854 -0.7325  0.9427 -0.1059
  889MPD2    C413085   0.470   4.199  12.734 -0.8209 -0.1158  0.4103
  889MPD2    C513086   0.456   4.088  12.672 -0.9411  0.0293 -0.1962
  889MPD2     H13087   0.611   4.096  13.002 -1.4942 -0.5123  0.2216
  889MPD2    H113088   0.425   4.282  12.681 -0.2389  0.5387  0.9543
  889MPD2    H213089   0.488   3.872  12.683 -2.2773 -0.5905  2.0421
  889MPD2    H313090   0.403   4.082  12.577  1.3109  0.3762 -1.4785
  889MPD2     N13091   0.552   4.331  12.923  0.3646 -0.0268 -0.0039
  889MPD2    H513092   0.621   4.337  12.997  0.3641 -0.4190  0.0263
  889MPD2    N113093   0.605   3.847  12.898  0.4336  0.2880  1.1691
  889MPD2    H713094   0.572   3.761  12.856  0.4585  0.1057  1.5232
  890MPD2     C13095   0.131   1.005  14.712  0.1942 -0.4489  0.2625
  890MPD2    C113096   0.233   1.058  14.781 -0.2272 -0.1938 -0.3995
  890MPD2    C213097   0.270   1.002  14.907 -0.1298  0.3173  0.6023
  890MPD2    C313098   0.198   0.891  14.953 -0.0050  0.2048  1.0064
  890MPD2    C413099   0.093   0.837  14.879  0.1207 -0.0448  0.0911
  890MPD2    C513100   0.070   0.894  14.754  0.3387  0.1704  0.3827
  890MPD2     H13101   0.340   1.053  14.972 -0.6914  0.7007  0.9017
  890MPD2    H113102   0.029   0.759  14.919 -1.1687  1.1961  0.4235
  890MPD2    H213103   0.094   1.042  14.618  0.2143  0.5332  0.6488
  890MPD2    H313104   4.725   0.846  14.705  0.5055  1.1154 -0.8141
  890MPD2     N13105   0.239   0.849  15.081  0.5845 -0.0225 -0.2374
  890MPD2    H513106   0.322   0.900  15.109  1.2978 -0.5172 -1.4639
  890MPD2    N113107   0.298   1.171  14.722 -0.7488 -0.2575  0.3997
  890MPD2    H713108   0.279   1.195  14.625 -0.4309 -2.3539 -0.1803
  891MPD2     C13109   2.659   3.951  16.676 -0.2385 -0.4902 -0.2702
  891MPD2    C113110   2.700   4.071  16.717  0.7972  0.3042 -0.1405
  891MPD2    C213111   2.837   4.098  16.730  0.4183 -0.8291  0.0295
  891MPD2    C313112   2.931   3.996  16.712 -0.2212  0.0818  0.0721
  891MPD2    C413113   2.884   3.869  16.680 -0.4313 -0.2648  0.1419
  891MPD2    C513114   2.749   3.853  16.659 -0.2646 -1.2520  0.0164
  891MPD2     H13115   2.875   4.193  16.768 -0.9477 -0.6516  0.9506
  891MPD2    H113116   2.947   3.782  16.670  1.2625  1.0453 -0.6844
  891MPD2    H213117   2.555   3.928  16.652 -0.6968  0.4907  0.7986
  891MPD2    H313118   2.718   3.753  16.630 -2.6506 -1.5071  3.3831
  891MPD2     N13119   3.064   4.022  16.747 -0.4334  0.7296  0.1542
  891MPD2    H513120   3.089   4.119  16.765 -1.3598  0.8570  0.7832
  891MPD2    N113121   2.601   4.170  16.751  0.0596  0.3258  0.7938
  891MPD2    H713122   2.502   4.146  16.748 -0.1691  1.3170  0.4054
  892MPD2     C13123   4.109   0.768  14.860  0.2271 -0.5320 -0.6158
  892MPD2    C113124   3.998   0.692  14.871  0.4433 -0.1703 -0.1214
  892MPD2    C213125   4.002   0.555  14.880  0.0324  0.0119  0.4500
  892MPD2    C313126   4.128   0.491  14.872  0.3585  0.2700  0.3702
  892MPD2    C413127   4.238   0.571  14.868 -0.6454  0.3993  0.7002
  892MPD2    C513128   4.226   0.708  14.859  0.5249  0.0021  0.2411
  892MPD2     H13129   3.911   0.500  14.900 -0.4159  0.2232 -0.9889
  892MPD2    H113130   4.338   0.529  14.867 -0.2485  1.3755 -2.1959
  892MPD2    H213131   4.109   0.875  14.842  0.2468 -0.3762  0.3149
  892MPD2    H313132   4.309   0.777  14.848  0.3978 -0.1218 -1.3684
  892MPD2     N13133   4.147   0.345  14.864  0.3838 -0.9422 -0.9330
  892MPD2    H513134   4.238   0.300  14.868  1.0537  0.5591  1.0220
  892MPD2    N113135   3.861   0.740  14.883  0.1567  0.6729 -0.4422
  892MPD2    H713136   3.783   0.676  14.892  0.4905  0.3656  0.2580
  893MPD2     C13137   4.719   3.496   1.718 -0.2902 -0.2850  0.6239
  893MPD2    C113138   4.690   3.460   1.587 -0.5907  0.1199 -0.5776
  893MPD2    C213139   4.562   3.497   1.544 -0.6449 -0.4175  0.1270
  893MPD2    C313140   4.470   3.567   1.616  0.1413 -0.0326 -0.2234
  893MPD2    C413141   4.500   3.605   1.749  0.1884  0.1249 -0.9077
  893MPD2    C513142   4.624   3.563   1.790  0.1101 -0.4747 -0.5946
  893MPD2     H13143   4.541   3.473   1.440 -0.8990 -0.3836  0.1699
  893MPD2    H113144   4.437   3.663   1.816  2.1277 -1.5843  2.4110
  893MPD2    H213145   0.074   3.471   1.767  1.2628  1.4218 -1.4233
  893MPD2    H313146   4.635   3.587   1.895 -0.0391 -0.6586 -0.5366
  893MPD2     N13147   4.352   3.605   1.560  0.1923 -0.4772 -0.1809
  893MPD2    H513148   4.286   3.642   1.627  1.0941  2.3737 -0.8472
  893MPD2    N113149   0.054   3.399   1.514  0.0704 -0.0405 -0.9087
  893MPD2    H713150   0.143   3.387   1.559 -0.8064 -1.6371  0.4087
  894MPD2     C13151   3.496   1.427   0.946  0.2758  0.0024  0.4167
  894MPD2    C113152   3.576   1.360   1.039 -0.0105  0.8691 -0.2957
  894MPD2    C213153   3.703   1.409   1.065 -0.3634 -0.6359  0.0689
  894MPD2    C313154   3.751   1.523   0.995 -0.2268 -0.6103 -0.1567
  894MPD2    C413155   3.678   1.584   0.902  0.3789 -0.5733 -0.3892
  894MPD2    C513156   3.550   1.531   0.875 -0.0156 -0.9044 -0.5231
  894MPD2     H13157   3.758   1.360   1.145  1.1885 -0.8560 -1.1358
  894MPD2    H113158   3.699   1.678   0.853  1.0998 -0.6576 -0.2467
  894MPD2    H213159   3.392   1.409   0.924  0.8239  0.2404 -2.3799
  894MPD2    H313160   3.483   1.590   0.814 -0.1386  0.6081  1.0658
  894MPD2     N13161   3.878   1.567   1.045 -0.0631  0.5234 -0.0945
  894MPD2    H513162   3.926   1.502   1.107 -0.2218  1.7978  1.3604
  894MPD2    N113163   3.530   1.249   1.118  0.0020 -0.5809  0.1193
  894MPD2    H713164   3.597   1.207   1.182  0.0850  1.2745  1.2671
  895MPD2     C13165   3.214   4.162  13.817  0.5559 -0.0140  0.8632
  895MPD2    C113166   3.101   4.108  13.776  0.4578 -1.1252 -0.1005
  895MPD2    C213167   3.092   3.976  13.724  0.2410 -0.5524 -0.2364
  895MPD2    C313168   3.204   3.898  13.706 -0.0208 -0.6535  0.4776
  895MPD2    C413169   3.319   3.957  13.742 -0.0836 -0.9391 -0.0584
  895MPD2    C513170   3.329   4.087  13.791  0.7206  0.2571  0.5945
  895MPD2     H13171   2.999   3.953  13.673 -0.9938  2.7487  0.4844
  895MPD2    H113172   3.419   3.915  13.737 -0.6673 -2.3459  0.1433
  895MPD2    H213173   3.225   4.252  13.875 -1.8902 -0.0294  1.3560
  895MPD2    H313174   3.428   4.113  13.825  0.4991 -1.6570  2.6942
  895MPD2     N13175   3.208   3.765  13.663  0.2789  0.6948 -0.5560
  895MPD2    H513176   3.298   3.717  13.656  0.2435  0.7740 -1.5213
  895MPD2    N113177   2.979   4.176  13.782  0.1081  0.0218  0.4716
  895MPD2    H713178   2.894   4.121  13.779  0.4656 -0.3853 -2.2882
  896MPD2     C13179   0.743   1.966   1.506  0.5213  0.8517  0.1781
  896MPD2    C113180   0.740   1.930   1.369 -0.7049 -0.4562  0.5412
  896MPD2    C213181   0.632   1.878   1.310 -0.3819 -1.2849 -0.0476
  896MPD2    C313182   0.513   1.853   1.382  0.4587  0.1170  0.4467
  896MPD2    C413183   0.523   1.893   1.515  0.7899 -0.5023 -0.1206
  896MPD2    C513184   0.630   1.946   1.574 -0.4318  0.5775 -0.2367
  896MPD2     H13185   0.619   1.854   1.205  0.0173  0.8320 -0.5945
  896MPD2    H113186   0.438   1.879   1.581  0.4215  2.4741  0.0391
  896MPD2    H213187   0.828   2.009   1.557  1.4288 -0.6905 -0.0044
  896MPD2    H313188   0.614   1.982   1.675  0.4167 -1.7607  0.7129
  896MPD2     N13189   0.399   1.802   1.318 -0.0432  0.7023  0.5370
  896MPD2    H513190   0.406   1.777   1.220 -1.1389 -1.3406  0.9731
  896MPD2    N113191   0.852   1.966   1.295 -0.3915  0.1865 -0.2695
  896MPD2    H713192   0.927   2.011   1.346  0.0655 -2.0091  0.9836
  897MPD2     C13193   2.050   4.157  10.551  0.3154 -0.4146  0.0624
  897MPD2    C113194   1.991   4.270  10.609 -0.9402  0.1594  0.5504
  897MPD2    C213195   1.891   4.256  10.704  0.1286 -0.1207 -0.0583
  897MPD2    C313196   1.869   4.138  10.774  0.2832  0.4258  0.5707
  897MPD2    C413197   1.942   4.024  10.727  0.3870  0.3998 -0.3413
  897MPD2    C513198   2.029   4.034  10.615 -0.0864  0.8410  0.9550
  897MPD2     H13199   1.847   4.348  10.741  3.8686  2.4787 -2.0991
  897MPD2    H113200   1.922   3.929  10.775  1.8501 -0.3703 -1.2689
  897MPD2    H213201   2.127   4.173  10.477  3.3383 -0.2988  3.2024
  897MPD2    H313202   2.093   3.953  10.585 -2.0139 -0.3212 -0.0280
  897MPD2     N13203   1.769   4.138  10.876  0.2208 -0.6410 -0.1709
  897MPD2    H513204   1.700   4.212  10.887  2.0659  1.1556 -0.5601
  897MPD2    N113205   2.031   4.395  10.563  0.2300 -0.5425  0.0916
  897MPD2    H713206   2.090   4.393  10.480  0.9530  0.1946  0.5778
  898MPD2     C13207   4.053   0.156  16.958 -0.6687  0.1423  0.1604
  898MPD2    C113208   4.012   0.115  17.081 -0.5245  0.8390  1.0827
  898MPD2    C213209   3.905   0.173  17.143  0.4270  0.3605  0.2483
  898MPD2    C313210   3.821   0.256  17.075 -0.0840  0.0310  0.8026
  898MPD2    C413211   3.850   0.293  16.946  0.4880  0.9372 -0.2429
  898MPD2    C513212   3.973   0.251  16.899  0.2714 -0.6818  0.1706
  898MPD2     H13213   3.885   0.156  17.249 -1.9533 -3.6317 -0.8515
  898MPD2    H113214   3.789   0.356  16.882  0.0727  2.3246  1.5252
  898MPD2    H213215   4.129   0.101  16.904  0.5770  1.5412  0.4864
  898MPD2    H313216   4.005   0.263  16.796 -1.1363  1.5798  0.0044
  898MPD2     N13217   3.711   0.299  17.146 -0.2667 -0.5729  0.4413
  898MPD2    H513218   3.693   0.242  17.228 -0.8362  0.0112  0.7220
  898MPD2    N113219   4.073   0.014  17.158 -0.4217  1.0804 -0.0577
  898MPD2    H713220   4.022   4.722  17.240 -2.1055 -3.8441 -2.9438
  899MPD2     C13221   4.656   0.831   0.199 -0.4609  0.1147 -0.0883
  899MPD2    C113222   4.565   0.796   0.104 -0.1014 -0.3948 -0.0495
  899MPD2    C213223   4.526   0.663   0.096  0.3822  0.5610 -0.8474
  899MPD2    C313224   4.581   0.562   0.174  0.3660  0.0802  0.1604
  899MPD2    C413225   4.689   0.598   0.261  0.1052  0.9139 -0.2295
  899MPD2    C513226   4.722   0.729   0.269  0.0454 -0.0545 -0.7213
  899MPD2     H13227   4.463   0.634   0.013  0.5877  1.6860 -1.3817
  899MPD2    H113228   0.007   0.526   0.320 -1.3247  2.4321  2.9894
  899MPD2    H213229   4.684   0.935   0.211 -1.3520  0.3918 -0.4837
  899MPD2    H313230   0.056   0.753   0.347 -2.6657  0.9923  1.4381
  899MPD2     N13231   4.554   0.425   0.152  0.1372 -0.0409  0.7655
  899MPD2    H513232   4.614   0.352   0.190  0.2493  0.2711  1.1825
  899MPD2    N113233   4.535   0.888  17.748 -0.4943  0.0262 -0.4130
  899MPD2    H713234   4.603   0.963  17.740 -0.6545  0.4035  1.7252
  900MPD2     C13235   4.369   2.096  12.460 -0.5765 -0.1191  0.1197
  900MPD2    C113236   4.274   1.998  12.487 -0.2456  0.2140 -0.3167
  900MPD2    C213237   4.144   2.033  12.454 -0.2618  0.6883  0.0307
  900MPD2    C313238   4.118   2.155  12.392 -0.2378  0.0407  0.1978
  900MPD2    C413239   4.217   2.242  12.363 -0.0687  0.5806 -0.2750
  900MPD2    C513240   4.343   2.217  12.403  0.3742  0.2999 -0.5850
  900MPD2     H13241   4.062   1.964  12.470 -1.4147  2.3681  1.2174
  900MPD2    H113242   4.194   2.331  12.307 -2.9818  0.8672  1.3727
  900MPD2    H213243   4.473   2.077  12.486 -0.1362  0.5092 -1.1482
  900MPD2    H313244   4.426   2.282  12.378  2.6906 -2.6769 -0.6069
  900MPD2     N13245   3.985   2.170  12.354  0.6119 -0.6673  0.4225
  900MPD2    H513246   3.917   2.095  12.367 -2.0430  1.5966 -0.4181
  900MPD2    N113247   4.308   1.872  12.538  0.5683 -0.0416  0.3352
  900MPD2    H713248   4.402   1.836  12.554 -0.7127 -1.8435  3.7739
  901MPD2     C13249   4.148   0.852  12.907 -0.7265 -0.2906  0.9424
  901MPD2    C113250   4.249   0.862  12.817 -0.2930 -0.0808  0.1619
  901MPD2    C213251   4.289   0.986  12.774 -0.6806 -0.5669  0.1971
  901MPD2    C313252   4.210   1.094  12.801  0.2926  0.1772  0.6660
  901MPD2    C413253   4.098   1.085  12.882 -0.1981 -0.0246 -0.0940
  901MPD2    C513254   4.077   0.963  12.941 -0.0437  0.5624 -0.4474
  901MPD2     H13255   4.381   0.996  12.719 -1.2801 -0.5863 -0.8154
  901MPD2    H113256   4.039   1.168  12.919 -1.6795 -0.5802 -1.2342
  901MPD2    H213257   4.119   0.754  12.944  0.5007  0.6511  4.4319
  901MPD2    H313258   3.985   0.947  12.997  0.6716 -0.6753  0.3681
  901MPD2     N13259   4.250   1.210  12.741 -0.4064  0.2461  0.4307
  901MPD2    H513260   4.333   1.216  12.684 -2.1916 -2.2024 -2.4756
  901MPD2    N113261   4.328   0.740  12.802 -0.6197  0.1605 -0.4113
  901MPD2    H713262   4.296   0.653  12.845  1.7522 -0.9053 -0.8056
  902MPD2     C13263   3.183   4.347  12.854 -0.0499 -0.1317 -0.1733
  902MPD2    C113264   3.263   4.454  12.848 -0.4342  0.5056  0.1044
  902MPD2    C213265   3.394   4.431  12.809  0.6984  0.1699 -0.8199
  902MPD2    C313266   3.437   4.307  12.761  0.1512  0.1716 -0.2082
  902MPD2    C413267   3.346   4.199  12.765 -0.2314 -0.4140 -0.7686
  902MPD2    C513268   3.223   4.220  12.814  0.0146 -0.5237  0.3055
  902MPD2     H13269   3.468   4.511  12.804 -0.9850  1.8256  0.8130
  902MPD2    H113270   3.376   4.096  12.756 -1.0195 -0.8435  1.6432
  902MPD2    H213271   3.082   4.351  12.896  0.6437  0.8627  1.4143
  902MPD2    H313272   3.159   4.135  12.832  0.6369 -0.7735  1.3366
  902MPD2     N13273   3.566   4.278  12.720  0.3535  0.0046 -0.2000
  902MPD2    H513274   3.587   4.186  12.683 -0.8412  0.1592 -1.2415
  902MPD2    N113275   3.208   4.581  12.880  0.0203 -0.1143 -0.2518
  902MPD2    H713276   3.108   4.589  12.898  0.6368 -2.1264  4.0444
  903MPD2     C13277   3.686   4.692  11.999 -0.5891  0.2724 -0.6001
  903MPD2    C113278   3.656   4.706  12.132  0.0764 -0.5052 -0.3473
  903MPD2    C213279   3.557   0.057  12.173  0.4714  0.2750  0.2388
  903MPD2    C313280   3.494   0.132  12.085  0.1019 -0.6156  0.0225
  903MPD2    C413281   3.533   0.124  11.951 -0.9543 -0.6091  0.2484
  903MPD2    C513282   3.617   0.029  11.911  0.0510  0.1343  0.0406
  903MPD2     H13283   3.539   0.081  12.278 -0.0681  3.0959 -0.4903
  903MPD2    H113284   3.488   0.188  11.876  1.1848  1.7380  0.9677
  903MPD2    H213285   3.768   4.639  11.953  0.0626  0.8146 -0.0771
  903MPD2    H313286   3.639   0.020  11.806 -1.7170  0.6615 -0.3617
  903MPD2     N13287   3.384   0.209  12.137 -0.1346  0.2824 -0.1955
  903MPD2    H513288   3.377   0.210  12.238 -0.0178  1.0203 -0.1964
  903MPD2    N113289   3.737   4.627  12.221 -0.4164  0.0553  0.3437
  903MPD2    H713290   3.774   4.540  12.184  0.1137 -0.6636  2.5839
  904MPD2     C13291   2.610   4.222  14.130  0.5260 -0.1660 -0.0369
  904MPD2    C113292   2.695   4.135  14.206  0.1870  0.4400  0.1513
  904MPD2    C213293   2.818   4.183  14.247  0.3971  0.0547  0.3303
  904MPD2    C313294   2.867   4.309  14.202 -0.0497  0.2914 -0.2112
  904MPD2    C413295   2.777   4.392  14.141 -0.5150 -0.0326 -0.4237
  904MPD2    C513296   2.657   4.341  14.095  0.1048 -0.3791  0.1979
  904MPD2     H13297   2.877   4.118  14.309  0.1123 -0.4553  0.0669
  904MPD2    H113298   2.817   4.485  14.101  1.1389 -0.6067 -0.1420
  904MPD2    H213299   2.509   4.198  14.097  0.8013 -1.3991 -0.0106
  904MPD2    H313300   2.594   4.407  14.037  0.3302 -0.1402  0.2226
  904MPD2     N13301   2.992   4.344  14.249  0.3670  0.4739 -0.1283
  904MPD2    H513302   3.046   4.269  14.292  2.5108  2.0337 -0.0881
  904MPD2    N113303   2.651   4.002  14.241  0.0892 -0.0357  0.3747
  904MPD2    H713304   2.715   3.945  14.297 -1.1247 -2.9446 -1.1981
  905MPD2     C13305   2.421   3.576  13.622  1.4520 -0.2325 -0.6625
  905MPD2    C113306   2.501   3.518  13.723  0.4376  0.5090  0.8235
  905MPD2    C213307   2.607   3.429  13.694  0.2567  0.1468  0.6907
  905MPD2    C313308   2.646   3.422  13.559  0.4679 -0.6191  0.0311
  905MPD2    C413309   2.573   3.492  13.460  0.4183 -0.1820 -1.0004
  905MPD2    C513310   2.456   3.553  13.491  0.1663  0.2381 -0.5375
  905MPD2     H13311   2.675   3.392  13.769  1.1412 -0.0614 -0.2135
  905MPD2    H113312   2.611   3.500  13.359 -1.5202 -1.8788 -1.8599
  905MPD2    H213313   2.345   3.645  13.656 -0.4888 -2.1685 -1.0166
  905MPD2    H313314   2.395   3.600  13.415  1.5153  2.5396 -0.1944
  905MPD2     N13315   2.775   3.376  13.516 -0.3492  0.0896  0.0226
  905MPD2    H513316   2.802   3.401  13.421 -1.7075 -0.9764 -0.6636
  905MPD2    N113317   2.474   3.557  13.855 -0.1042  0.5132  0.1961
  905MPD2    H713318   2.409   3.635  13.869 -0.3334  0.8197 -2.5565
  906MPD2     C13319   0.444   3.961  11.739  0.1490  0.5839  0.0663
  906MPD2    C113320   0.388   3.906  11.623  0.4223  0.1515  0.4677
  906MPD2    C213321   0.320   3.786  11.643  0.7874 -0.1371  0.3242
  906MPD2    C313322   0.293   3.726  11.765  0.0654  0.4486 -0.2871
  906MPD2    C413323   0.338   3.791  11.880  0.0372 -0.2196  0.1878
  906MPD2    C513324   0.417   3.900  11.863  0.2866 -0.2653 -0.1086
  906MPD2     H13325   0.278   3.730  11.560  3.0389 -0.2274 -0.7637
  906MPD2    H113326   0.325   3.750  11.979 -1.0020 -1.3118 -0.4060
  906MPD2    H213327   0.514   4.043  11.745  0.4386  0.4459 -1.6082
  906MPD2    H313328   0.468   3.935  11.952 -1.3102 -0.4279  0.8736
  906MPD2     N13329   0.216   3.609  11.781  0.1439  0.3640 -0.2179
  906MPD2    H513330   0.234   3.552  11.863  0.4689  0.9766  0.1430
  906MPD2    N113331   0.410   3.962  11.496 -0.6987 -0.4013  0.0702
  906MPD2    H713332   0.388   3.900  11.419  0.7800 -1.8786  0.8497
  907MPD2     C13333   3.538   3.080  16.029  0.3792 -0.4838 -0.6345
  907MPD2    C113334   3.618   2.987  15.988  0.1726 -0.0334 -0.6293
  907MPD2    C213335   3.712   2.938  16.077 -0.1494 -0.0699 -0.3880
  907MPD2    C313336   3.736   2.992  16.202  0.1248  0.0747  0.2082
  907MPD2    C413337   3.641   3.079  16.241 -0.0951  0.3247  0.7696
  907MPD2    C513338   3.544   3.126  16.159  0.6795 -0.7089 -0.5944
  907MPD2     H13339   3.785   2.868  16.038 -0.8435 -1.5458  0.9552
  907MPD2    H113340   3.646   3.121  16.341  0.5280 -1.5777  1.5266
  907MPD2    H213341   3.476   3.130  15.955  1.3493 -0.0151 -1.1356
  907MPD2    H313342   3.486   3.211  16.192  1.0788 -0.6395 -0.0718
  907MPD2     N13343   3.849   2.944  16.279  0.0769 -0.3186  0.2151
  907MPD2    H513344   3.897   2.861  16.246  1.2961  0.6275 -0.3833
  907MPD2    N113345   3.607   2.940  15.852  0.2015 -0.6369  0.2094
  907MPD2    H713346   3.674   2.868  15.827  1.2693  0.8153 -1.1442
  908MPD2     C13347   2.020   4.407   9.760  0.3838  0.0060 -0.0375
  908MPD2    C113348   1.931   4.375   9.857  0.2110  0.9425 -0.5876
  908MPD2    C213349   1.940   4.431   9.985 -0.0582 -0.0819 -0.8117
  908MPD2    C313350   2.027   4.536  10.004 -0.6134  0.5899  0.0648
  908MPD2    C413351   2.100   4.593   9.894 -0.4018  0.3225  0.5405
  908MPD2    C513352   2.098   4.518   9.784  0.1966 -0.1563 -0.8632
  908MPD2     H13353   1.888   4.403  10.075  0.4813  2.5947  0.3321
  908MPD2    H113354   2.170   4.674   9.906  0.3563 -0.1386 -0.8280
  908MPD2    H213355   2.027   4.362   9.662  0.0974 -2.0634  0.8876
  908MPD2    H313356   2.167   4.538   9.703 -0.3852 -0.8253 -1.5277
  908MPD2     N13357   2.030   4.588  10.137 -0.8614  0.3371 -0.5851
  908MPD2    H513358   1.979   4.536  10.208  0.7249 -1.1884 -0.5517
  908MPD2    N113359   1.830   4.277   9.825  0.0990 -0.5049 -0.2508
  908MPD2    H713360   1.834   4.232   9.734 -1.5054 -0.0508 -0.5378
  909MPD2     C13361   2.030   1.841  12.137  0.2412  0.1823 -0.0851
  909MPD2    C113362   2.018   1.968  12.075  0.0539  0.2896  0.0447
  909MPD2    C213363   1.915   2.056  12.113  0.3459 -0.4260 -0.2155
  909MPD2    C313364   1.826   2.025  12.213  0.2866 -0.9630  0.1552
  909MPD2    C413365   1.844   1.904  12.277 -0.0694  0.2261 -0.0628
  909MPD2    C513366   1.947   1.817  12.244  0.0129 -0.1755 -0.0964
  909MPD2     H13367   1.890   2.144  12.056 -0.6938 -0.3647  0.3346
  909MPD2    H113368   1.777   1.870  12.355 -1.1289  0.1094 -1.0162
  909MPD2    H213369   2.095   1.760  12.104  0.9245  0.3866  0.7713
  909MPD2    H313370   1.938   1.725  12.301  1.9068  0.5079  1.3128
  909MPD2     N13371   1.713   2.107  12.254  0.6692 -0.0363 -0.1934
  909MPD2    H513372   1.704   2.194  12.203 -1.3345 -1.2260 -1.8565
  909MPD2    N113373   2.106   2.000  11.962 -0.2315  0.1492  0.0198
  909MPD2    H713374   2.078   2.080  11.906 -0.7061 -0.0362 -0.0003
  910MPD2     C13375   3.218   3.303  16.589 -0.5841  0.3398 -0.1624
  910MPD2    C113376   3.338   3.289  16.522 -0.6440  0.6678  0.7366
  910MPD2    C213377   3.361   3.363  16.407  0.4500 -0.5771 -1.1677
  910MPD2    C313378   3.271   3.460  16.372  0.8972  0.3286 -0.3966
  910MPD2    C413379   3.159   3.486  16.450  0.2500 -0.2727 -0.4108
  910MPD2    C513380   3.133   3.406  16.554 -0.1026  0.2148  0.4631
  910MPD2     H13381   3.454   3.361  16.351  1.3531  2.5283  0.1828
  910MPD2    H113382   3.090   3.568  16.433  0.4724 -0.2228 -1.0749
  910MPD2    H213383   3.194   3.237  16.671 -0.0467 -0.5936 -0.7541
  910MPD2    H313384   3.041   3.431  16.608 -0.2789 -0.8111  0.6299
  910MPD2     N13385   3.273   3.544  16.261 -0.5328 -0.2536  0.3268
  910MPD2    H513386   3.215   3.627  16.269 -2.4996 -1.9956  3.7902
  910MPD2    N113387   3.440   3.206  16.567 -0.8062  0.2482 -0.2874
  910MPD2    H713388   3.524   3.204  16.510 -1.5450  0.2542 -1.3848
  911MPD2     C13389   1.258   4.253  15.999  1.2094  0.8390  0.0697
  911MPD2    C113390   1.270   4.258  16.139  0.2693 -0.0926  0.1386
  911MPD2    C213391   1.185   4.346  16.209 -0.0927  0.0403  0.0027
  911MPD2    C313392   1.099   4.422  16.135 -0.3658 -0.0783 -1.0676
  911MPD2    C413393   1.103   4.425  16.004  0.0194 -1.4635 -0.1588
  911MPD2    C513394   1.185   4.343  15.932  0.3584 -0.6377  0.0918
  911MPD2     H13395   1.187   4.347  16.318  2.6094 -1.0601 -0.0347
  911MPD2    H113396   1.036   4.486  15.945  0.8388  0.8421  1.2606
  911MPD2    H213397   1.326   4.188  15.946  1.0082  1.3541 -0.8224
  911MPD2    H313398   1.187   4.344  15.824  1.2257  0.7101  0.1194
  911MPD2     N13399   0.999   4.505  16.194 -0.0942 -0.0664 -0.2247
  911MPD2    H513400   0.930   4.531  16.124 -0.1015 -0.5989 -0.4207
  911MPD2    N113401   1.366   4.177  16.199 -0.4008 -0.6012 -0.2397
  911MPD2    H713402   1.420   4.119  16.135  0.7875 -0.1608  0.3511
  912MPD2     C13403   0.846   4.619  15.709  0.0169 -0.0901  0.2428
  912MPD2    C113404   0.794   4.550  15.816 -0.3305 -0.5437  0.2020
  912MPD2    C213405   0.817   4.409  15.830  0.3751 -0.0827 -0.3559
  912MPD2    C313406   0.904   4.343  15.742  0.0908  0.6399 -0.5061
  912MPD2    C413407   0.955   4.413  15.638  0.5631  0.0185  0.2470
  912MPD2    C513408   0.923   4.546  15.621 -0.1746  0.0255  0.3088
  912MPD2     H13409   0.781   4.348  15.913  1.2377  0.1019  0.1483
  912MPD2    H113410   1.029   4.372  15.571  1.2089  0.9648  0.3803
  912MPD2    H213411   0.832   4.726  15.693  0.9377 -0.2249 -1.3905
  912MPD2    H313412   0.969   4.599  15.538 -0.7654  0.9271  0.5637
  912MPD2     N13413   0.931   4.211  15.769 -0.5371  0.0814  0.1853
  912MPD2    H513414   0.872   4.164  15.837  0.0239 -0.8665  0.0160
  912MPD2    N113415   0.733   4.630  15.917 -0.6090  0.1465  1.0844
  912MPD2    H713416   0.734   4.731  15.906  1.0087  0.1674  1.4230
  913MPD2     C13417   1.656   1.015  10.387  0.6721 -0.6392  0.2548
  913MPD2    C113418   1.756   1.091  10.443  0.0354 -0.6327 -0.4232
  913MPD2    C213419   1.787   1.212  10.379 -0.1033 -0.0788  0.0610
  913MPD2    C313420   1.717   1.247  10.264 -0.6218 -0.2283 -0.1759
  913MPD2    C413421   1.614   1.171  10.211 -1.0009  0.3689  0.7766
  913MPD2    C513422   1.584   1.058  10.276 -0.0938  0.8002 -0.5310
  913MPD2     H13423   1.856   1.283  10.424  0.7770  0.0827 -1.5494
  913MPD2    H113424   1.554   1.213  10.130 -1.5217  1.1007  1.5476
  913MPD2    H213425   1.624   0.917  10.423 -2.3849  0.7554  1.2752
  913MPD2    H313426   1.495   1.005  10.243  0.0568  0.7779 -0.8967
  913MPD2     N13427   1.738   1.368  10.198  0.1194 -0.2468 -0.1162
  913MPD2    H513428   1.674   1.388  10.121  0.7154 -1.0181 -0.8104
  913MPD2    N113429   1.818   1.037  10.560 -0.2490  0.6459  0.1669
  913MPD2    H713430   1.778   0.958  10.611 -1.4335  0.5096 -0.9780
  914MPD2     C13431   4.311   0.405  11.947 -0.2248 -0.3196  0.6615
  914MPD2    C113432   4.380   0.516  12.004  0.6610 -0.2907 -0.4443
  914MPD2    C213433   4.420   0.516  12.131  0.5721  0.5167 -0.2070
  914MPD2    C313434   4.397   0.409  12.215  0.6240  0.2743  0.7184
  914MPD2    C413435   4.335   0.297  12.164  0.4708 -0.1282  1.1008
  914MPD2    C513436   4.285   0.301  12.037  0.4639  0.4696  0.3663
  914MPD2     H13437   4.469   0.605  12.168  0.8344 -0.3044  1.4111
  914MPD2    H113438   4.317   0.216  12.233  0.3485 -0.8204  0.2634
  914MPD2    H213439   4.274   0.392  11.846  3.3825 -1.0629 -0.5619
  914MPD2    H313440   4.226   0.222  11.993 -0.8554  1.1848  0.8339
  914MPD2     N13441   4.424   0.420  12.348 -0.6250  0.0187 -0.7180
  914MPD2    H513442   4.481   0.500  12.377 -1.0366  1.2099 -3.2152
  914MPD2    N113443   4.408   0.638  11.932  0.3514 -0.2879 -0.1459
  914MPD2    H713444   4.440   0.720  11.981  0.2816 -0.6340  0.4784
  915MPD2     C13445   2.080   1.296  15.319 -0.2292 -0.5281  0.0802
  915MPD2    C113446   1.955   1.299  15.379 -0.1910 -0.4028  0.3600
  915MPD2    C213447   1.958   1.347  15.512 -0.5442 -0.0392 -0.1164
  915MPD2    C313448   2.079   1.392  15.575 -0.1605 -0.3392 -0.0355
  915MPD2    C413449   2.197   1.371  15.518  0.0413  0.3066  0.0185
  915MPD2    C513450   2.197   1.320  15.394  0.1422 -0.4866  0.3204
  915MPD2     H13451   1.865   1.348  15.569  0.3219  0.3435  1.2959
  915MPD2    H113452   2.293   1.393  15.565  0.8493  0.3138 -1.6402
  915MPD2    H213453   2.092   1.259  15.218  2.1099 -0.8377  0.4636
  915MPD2    H313454   2.287   1.304  15.335  1.7209  2.4524  1.9640
  915MPD2     N13455   2.073   1.435  15.713 -0.4563  0.3204  0.1447
  915MPD2    H513456   1.985   1.479  15.739 -1.4279 -0.3947 -1.8916
  915MPD2    N113457   1.845   1.248  15.318 -0.2627  1.0352 -0.1567
  915MPD2    H713458   1.866   1.207  15.227 -1.9476  0.3581 -0.2440
  916MPD2     C13459   0.271   4.011  16.016  0.0189 -0.4086  0.0428
  916MPD2    C113460   0.292   3.892  16.093  0.2166 -1.3582  0.5574
  916MPD2    C213461   0.370   3.788  16.047 -0.3571 -0.6288  0.0538
  916MPD2    C313462   0.463   3.815  15.949 -0.5132  0.3234  0.0805
  916MPD2    C413463   0.466   3.946  15.893  0.8220 -0.6527 -0.1045
  916MPD2    C513464   0.374   4.043  15.930  0.1650 -0.5240 -0.4450
  916MPD2     H13465   0.389   3.695  16.100  1.1310  0.5281  1.5886
  916MPD2    H113466   0.539   3.964  15.816  0.0818  1.5055 -0.3226
  916MPD2    H213467   0.199   4.087  16.045  1.2529  0.6343  0.3635
  916MPD2    H313468   0.374   4.137  15.876  1.1805 -0.2194  0.0921
  916MPD2     N13469   0.564   3.719  15.915 -0.8543  0.2191 -0.5059
  916MPD2    H513470   0.553   3.637  15.973 -0.9849 -0.3562 -1.3422
  916MPD2    N113471   0.195   3.876  16.194  0.7201  0.1879  0.4379
  916MPD2    H713472   0.133   3.957  16.192 -0.2433 -0.5436  0.6189
  917MPD2     C13473   0.842   1.607  10.933  0.4633 -0.6097 -0.1161
  917MPD2    C113474   0.915   1.616  11.054 -0.5856  0.4170  0.0252
  917MPD2    C213475   1.018   1.712  11.053 -0.3213 -0.3371 -0.5408
  917MPD2    C313476   1.048   1.786  10.943  0.0068  0.1667 -0.2575
  917MPD2    C413477   0.967   1.769  10.833 -0.5711 -0.2994 -0.1446
  917MPD2    C513478   0.873   1.679  10.824  1.2803 -0.0506  0.7643
  917MPD2     H13479   1.070   1.727  11.147  0.5712 -0.2684 -1.0460
  917MPD2    H113480   0.981   1.833  10.746 -2.3378  3.5620  2.4256
  917MPD2    H213481   0.762   1.536  10.916  0.2144  0.3383 -3.0503
  917MPD2    H313482   0.827   1.661  10.727  0.2489  2.1298  0.8463
  917MPD2     N13483   1.149   1.893  10.937  0.1558  0.1915  0.0111
  917MPD2    H513484   1.155   1.955  10.857 -0.7337  0.6528  0.2992
  917MPD2    N113485   0.878   1.533  11.163  0.0502  0.2299 -0.4625
  917MPD2    H713486   0.803   1.466  11.150  0.0721 -0.2932  2.1252
  918MPD2     C13487   0.809   1.796  12.126  1.0931 -0.5641  0.4006
  918MPD2    C113488   0.933   1.744  12.073  0.4896 -0.3573  0.0325
  918MPD2    C213489   0.932   1.673  11.959  0.2914 -0.2658  0.3295
  918MPD2    C313490   0.808   1.639  11.899  0.1645 -0.2146 -0.2684
  918MPD2    C413491   0.693   1.693  11.945 -0.0739  0.1035  0.0278
  918MPD2    C513492   0.690   1.773  12.062  0.0370 -0.0421  0.2964
  918MPD2     H13493   1.030   1.641  11.928 -0.5043 -1.6271 -0.7445
  918MPD2    H113494   0.599   1.679  11.893  0.4291 -0.7697 -0.6429
  918MPD2    H213495   0.801   1.852  12.219 -0.6077 -0.4495  0.1759
  918MPD2    H313496   0.602   1.826  12.098  0.1796 -0.0307  0.6233
  918MPD2     N13497   0.818   1.562  11.780 -0.3795 -0.5286 -0.1710
  918MPD2    H513498   0.913   1.539  11.751  0.4462 -0.3078  2.3430
  918MPD2    N113499   1.054   1.766  12.138  0.0445  0.2187 -0.0522
  918MPD2    H713500   1.144   1.745  12.094 -0.0299 -0.4136  0.1012
  919MPD2     C13501   1.365   0.886  11.706  0.1924 -0.5381  0.0097
  919MPD2    C113502   1.382   0.757  11.675  0.2682  0.0130  0.5977
  919MPD2    C213503   1.413   0.732  11.544  0.1159  0.0442  0.2070
  919MPD2    C313504   1.427   0.829  11.442 -0.2208  0.0018 -0.3859
  919MPD2    C413505   1.409   0.957  11.480 -0.3591 -0.4711  1.0237
  919MPD2    C513506   1.374   0.982  11.611 -0.1309 -0.5005 -0.4588
  919MPD2     H13507   1.434   0.628  11.519  2.6258  0.4884  0.3974
  919MPD2    H113508   1.412   1.042  11.413 -0.5914 -0.3621  1.1499
  919MPD2    H213509   1.349   0.912  11.810  0.2489  0.2805 -0.1808
  919MPD2    H313510   1.381   1.084  11.645  2.6762 -0.6159 -0.7008
  919MPD2     N13511   1.453   0.800  11.304  0.4990  0.7895  0.2280
  919MPD2    H513512   1.443   0.881  11.243  1.6912  1.0252  0.3398
  919MPD2    N113513   1.380   0.652  11.772 -0.4342 -0.0739  0.2565
  919MPD2    H713514   1.346   0.674  11.865 -0.1200  2.0377 -0.1246
  920MPD2     C13515   1.465   1.344  10.622 -0.1163 -0.4059  0.3940
  920MPD2    C113516   1.402   1.234  10.569 -0.6015 -0.0182 -0.6725
  920MPD2    C213517   1.412   1.110  10.637 -0.0737 -0.5080 -0.1900
  920MPD2    C313518   1.472   1.099  10.757 -0.8330  0.1591  0.4109
  920MPD2    C413519   1.537   1.203  10.804  0.1105  0.4824  0.0616
  920MPD2    C513520   1.536   1.323  10.739 -0.4782  0.1994  0.1438
  920MPD2     H13521   1.358   1.026  10.596  0.3028 -1.8852  2.1536
  920MPD2    H113522   1.604   1.194  10.889  1.1366 -1.0492 -0.9245
  920MPD2    H213523   1.450   1.443  10.581 -0.4408 -0.8125 -0.4844
  920MPD2    H313524   1.588   1.405  10.787 -1.3828  1.0288 -0.3046
  920MPD2     N13525   1.475   0.982  10.838 -0.8820  0.0320 -0.0052
  920MPD2    H513526   1.539   0.980  10.917 -0.4557 -1.1847 -0.3923
  920MPD2    N113527   1.318   1.249  10.459 -0.3738 -0.1104 -0.5809
  920MPD2    H713528   1.249   1.175  10.449 -1.3635  0.4750  1.9914
  921MPD2     C13529   1.988   4.100  17.034 -0.0061 -0.3393  0.5693
  921MPD2    C113530   2.009   4.162  16.916  0.6850 -0.1799  0.2748
  921MPD2    C213531   1.913   4.137  16.818 -0.1757 -0.0433 -0.8087
  921MPD2    C313532   1.819   4.033  16.835 -0.0280 -0.5159 -0.4438
  921MPD2    C413533   1.809   3.966  16.950  0.6559 -0.2277  0.4654
  921MPD2    C513534   1.895   4.001  17.051 -0.7405  1.0443 -0.1663
  921MPD2     H13535   1.930   4.192  16.726  2.3212 -0.0103 -0.3386
  921MPD2    H113536   1.723   3.904  16.968  0.5384 -0.6638 -1.7225
  921MPD2    H213537   2.061   4.123  17.111  1.6401  1.5748 -1.5324
  921MPD2    H313538   1.895   3.949  17.146 -1.1396 -3.2719 -2.5291
  921MPD2     N13539   1.735   3.993  16.724  0.1516  0.4217 -0.4761
  921MPD2    H513540   1.667   3.921  16.744 -1.6494  1.1716 -3.8543
  921MPD2    N113541   2.118   4.253  16.903  0.3044 -0.0052 -0.2135
  921MPD2    H713542   2.185   4.241  16.978  0.4538  0.6550 -0.2456
  922MPD2     C13543   3.066   2.322  17.062 -0.8790 -0.0580 -0.6693
  922MPD2    C113544   3.051   2.398  17.177 -0.8279  0.2094 -0.2898
  922MPD2    C213545   2.929   2.397  17.243 -0.3026 -0.3494  0.6040
  922MPD2    C313546   2.832   2.314  17.207 -0.1906 -0.1203  0.8224
  922MPD2    C413547   2.849   2.240  17.088  0.2866 -0.0028  0.3563
  922MPD2    C513548   2.957   2.256  17.014 -0.1012 -0.1660 -0.6605
  922MPD2     H13549   2.931   2.461  17.330  1.2217 -0.5618  0.7351
  922MPD2    H113550   2.776   2.163  17.064 -1.1286  1.5333 -0.2355
  922MPD2    H213551   3.156   2.316  17.002 -0.1606  0.8794  0.3134
  922MPD2    H313552   2.964   2.201  16.920  5.4777 -1.4105  0.4575
  922MPD2     N13553   2.721   2.285  17.284 -0.0591 -0.1372 -0.0866
  922MPD2    H513554   2.668   2.204  17.252 -2.5557  1.1877  0.6770
  922MPD2    N113555   3.163   2.475  17.219 -0.1193  0.2490  0.2046
  922MPD2    H713556   3.144   2.524  17.306  1.1821  1.6941 -0.3386
  923MPD2     C13557   3.915   4.282   9.843 -0.1406 -0.1507 -0.2483
  923MPD2    C113558   3.935   4.413   9.815  0.5676  0.2017  0.5985
  923MPD2    C213559   4.054   4.469   9.855  0.3444  0.0750 -0.3589
  923MPD2    C313560   4.160   4.394   9.904  0.2692 -0.8111 -0.0933
  923MPD2    C413561   4.137   4.255   9.919 -0.5156  0.2859 -0.1024
  923MPD2    C513562   4.015   4.201   9.891 -0.4953  0.0735  0.6816
  923MPD2     H13563   4.074   4.573   9.831  1.8645 -1.0048 -3.8711
  923MPD2    H113564   4.217   4.188   9.948 -0.9734 -0.5996 -0.9119
  923MPD2    H213565   3.822   4.230   9.820  0.3030 -0.7719 -0.6158
  923MPD2    H313566   4.002   4.093   9.885 -0.6262  0.1800 -0.9352
  923MPD2     N13567   4.283   4.441   9.944 -0.0047 -0.0893 -0.1129
  923MPD2    H513568   4.344   4.366   9.973  0.7825  0.0890 -1.3214
  923MPD2    N113569   3.824   4.497   9.771 -0.9484 -0.2814 -0.2646
  923MPD2    H713570   3.731   4.457   9.759  0.0174 -2.0268 -1.9209
  924MPD2     C13571   4.447   2.246  16.390  0.9300  0.0408 -0.1034
  924MPD2    C113572   4.472   2.317  16.510 -0.3618  0.1060 -0.1016
  924MPD2    C213573   4.429   2.447  16.516 -0.0285 -0.3946  0.7674
  924MPD2    C313574   4.380   2.510  16.400 -0.1377  0.5131 -0.2362
  924MPD2    C413575   4.372   2.448  16.282 -0.5313  0.3194  0.0779
  924MPD2    C513576   4.396   2.313  16.282  0.1884  0.6400  0.5593
  924MPD2     H13577   4.441   2.507  16.606 -0.3743  1.2167 -0.2681
  924MPD2    H113578   4.326   2.498  16.197 -0.8806 -0.3912 -0.1493
  924MPD2    H213579   4.465   2.139  16.377  1.1652 -0.0254  0.7216
  924MPD2    H313580   4.363   2.254  16.197  1.7406  0.2686  0.2116
  924MPD2     N13581   4.323   2.637  16.418 -0.1222 -0.5346  0.1691
  924MPD2    H513582   4.304   2.665  16.514 -1.7908  0.6977 -0.5213
  924MPD2    N113583   4.509   2.248  16.622  0.3611  0.1785  0.0936
  924MPD2    H713584   4.526   2.148  16.620  2.0639  0.4177  2.0996
  925MPD2     C13585   3.203   0.324  15.355 -0.1330 -0.1186 -0.0895
  925MPD2    C113586   3.082   0.362  15.316 -0.0940 -0.3146  0.6622
  925MPD2    C213587   3.007   0.426  15.412 -0.0354 -0.8237 -0.0906
  925MPD2    C313588   3.044   0.441  15.539  0.1576  0.2182  0.9630
  925MPD2    C413589   3.164   0.388  15.573  0.6992 -0.2319  0.0263
  925MPD2    C513590   3.250   0.346  15.483 -0.0637  0.3654  0.1592
  925MPD2     H13591   2.912   0.470  15.388  1.7040  1.3852 -2.9151
  925MPD2    H113592   3.195   0.403  15.675  1.6665  0.8959 -0.4411
  925MPD2    H213593   3.277   0.289  15.283  0.0146  1.2705 -0.6229
  925MPD2    H313594   3.352   0.322  15.512  0.1943 -1.1423 -1.9495
  925MPD2     N13595   2.965   0.485  15.646  0.3607  0.1121 -0.1122
  925MPD2    H513596   2.995   0.465  15.741 -0.6559 -2.8061 -0.4050
  925MPD2    N113597   3.040   0.339  15.186 -0.6632 -0.7079  0.0316
  925MPD2    H713598   2.940   0.357  15.181 -0.4429  0.4705 -0.1363
  926MPD2     C13599   1.509   3.434  13.189  0.1813 -0.7690 -0.8634
  926MPD2    C113600   1.598   3.346  13.246 -0.5036  0.1900  0.3995
  926MPD2    C213601   1.730   3.357  13.226  0.3419 -0.6046  0.2061
  926MPD2    C313602   1.774   3.450  13.137  0.1191  0.1143  0.4764
  926MPD2    C413603   1.686   3.523  13.068 -0.1485 -0.2952  0.4123
  926MPD2    C513604   1.554   3.519  13.093  0.2919 -0.1258  0.2038
  926MPD2     H13605   1.802   3.283  13.257  2.1114 -0.2388 -3.1158
  926MPD2    H113606   1.724   3.602  13.005 -0.4166 -0.7811 -0.3524
  926MPD2    H213607   1.402   3.434  13.205  0.4739 -0.0279  1.0460
  926MPD2    H313608   1.486   3.580  13.035 -1.3823 -1.6071  0.6063
  926MPD2     N13609   1.911   3.470  13.111 -0.0154  0.6112  0.0022
  926MPD2    H513610   1.930   3.530  13.031 -1.0813 -1.1139 -1.5217
  926MPD2    N113611   1.553   3.249  13.338 -0.1537  0.5513 -0.0295
  926MPD2    H713612   1.627   3.193  13.380 -0.4817  1.1111  1.2883
  927MPD2     C13613   1.593   1.270  17.122  0.5460 -0.6710  0.3256
  927MPD2    C113614   1.587   1.161  17.201  0.0265 -0.5009  0.1421
  927MPD2    C213615   1.597   1.042  17.135  0.7095 -0.1355  0.3502
  927MPD2    C313616   1.615   1.024  16.999  0.6028  0.1170  0.2649
  927MPD2    C413617   1.633   1.139  16.922  0.3372 -0.0757  0.1769
  927MPD2    C513618   1.625   1.260  16.986 -0.0167  0.1999 -0.0586
  927MPD2     H13619   1.582   0.950  17.191 -1.5038 -0.5791 -1.0005
  927MPD2    H113620   1.662   1.141  16.817 -0.0555 -0.4270  0.0608
  927MPD2    H213621   1.572   1.367  17.165 -1.0683 -1.4246  1.2343
  927MPD2    H313622   1.640   1.351  16.929 -1.7414  1.0073  0.7736
  927MPD2     N13623   1.600   0.892  16.950 -0.1494  0.1488 -0.0260
  927MPD2    H513624   1.577   0.822  17.019 -0.5254  1.2446  0.9544
  927MPD2    N113625   1.551   1.171  17.336 -0.3203 -0.2071  0.0992
  927MPD2    H713626   1.517   1.258  17.375  4.4850  1.2123  1.0129
  928MPD2     C13627   3.869   4.030   0.992  1.0313  0.2572 -0.0444
  928MPD2    C113628   3.980   4.092   1.043  0.2880  0.1349  0.4101
  928MPD2    C213629   4.098   4.089   0.972 -0.3132 -0.3965  0.7151
  928MPD2    C313630   4.114   4.003   0.865  0.5698 -0.4546  0.2417
  928MPD2    C413631   4.004   3.954   0.810  0.3306 -0.1913  0.5174
  928MPD2    C513632   3.883   3.962   0.873  0.1072  0.7983 -0.4157
  928MPD2     H13633   4.182   4.143   1.014 -0.4746  1.2266 -1.1240
  928MPD2    H113634   4.009   3.890   0.722  0.5585  2.1355 -1.1674
  928MPD2    H213635   3.767   4.041   1.026  1.6338 -0.0110  1.8298
  928MPD2    H313636   3.790   3.917   0.840 -0.9000  2.7823 -0.3062
  928MPD2     N13637   4.239   3.992   0.803 -0.1783  0.8175  0.1106
  928MPD2    H513638   4.251   3.922   0.730 -0.6454  0.9364 -0.0792
  928MPD2    N113639   3.957   4.165   1.161 -0.2502  0.3216 -0.4393
  928MPD2    H713640   3.863   4.180   1.198  0.2545  0.6722  0.7113
  929MPD2     C13641   4.611   4.394  10.415 -0.1698  0.8123  0.0204
  929MPD2    C113642   4.506   4.307  10.435  0.0376  0.2726  0.2867
  929MPD2    C213643   4.383   4.346  10.380 -0.1603  0.4572 -0.3279
  929MPD2    C313644   4.356   4.472  10.324 -0.4591  0.1987 -0.1548
  929MPD2    C413645   4.455   4.561  10.324  0.2781 -0.4898  0.1909
  929MPD2    C513646   4.585   4.517  10.354 -0.0559 -0.2162 -0.2364
  929MPD2     H13647   4.310   4.266  10.375  1.1358 -0.8747  2.1588
  929MPD2    H113648   4.446   4.665  10.297  1.0364 -0.5582 -0.3361
  929MPD2    H213649   4.715   4.373  10.437  0.1423  2.0940 -0.1891
  929MPD2    H313650   4.670   4.585  10.349 -1.8228  2.0921  0.9268
  929MPD2     N13651   4.238   4.511  10.269  0.4764  0.0382  0.4938
  929MPD2    H513652   4.230   4.608  10.240  1.9083 -0.1696 -0.5852
  929MPD2    N113653   4.531   4.183  10.494  0.8941  0.3766 -0.2596
  929MPD2    H713654   4.627   4.160  10.518  1.0843 -0.3516 -1.7564
  930MPD2     C13655   0.877   1.549  13.998  0.2329  0.4877 -0.1948
  930MPD2    C113656   1.002   1.531  13.945 -0.3367 -0.7857  0.5076
  930MPD2    C213657   1.020   1.415  13.869 -0.0514  0.9255 -0.0911
  930MPD2    C313658   0.920   1.335  13.827 -0.3523 -0.2055  0.4577
  930MPD2    C413659   0.790   1.370  13.862  0.1222 -0.0818  0.0018
  930MPD2    C513660   0.770   1.473  13.949  0.0641  0.8979 -0.4548
  930MPD2     H13661   1.117   1.393  13.826 -0.3063 -2.0068  0.8065
  930MPD2    H113662   0.705   1.317  13.819  0.7905 -0.0095 -1.4012
  930MPD2    H213663   0.859   1.640  14.055  0.3300 -2.6343  4.7918
  930MPD2    H313664   0.672   1.493  13.990  0.9915  0.2448  2.1229
  930MPD2     N13665   0.933   1.221  13.744  0.5461  0.4027 -0.2816
  930MPD2    H513666   0.850   1.189  13.695  0.5957  0.5498 -0.4605
  930MPD2    N113667   1.113   1.614  13.965 -0.3144  0.5356  0.0961
  930MPD2    H713668   1.199   1.573  13.931 -0.4087 -0.8280  1.4776
  931MPD2     C13669   1.648   0.505  17.710 -0.5750 -0.3222  0.5096
  931MPD2    C113670   1.578   0.592   0.042  0.5693 -0.3159  0.5808
  931MPD2    C213671   1.559   0.564   0.178  0.1534  0.5507 -0.1793
  931MPD2    C313672   1.587   0.438   0.229 -0.1775 -0.2360  0.0434
  931MPD2    C413673   1.640   0.348   0.138 -0.6801  0.0134  0.0458
  931MPD2    C513674   1.673   0.380   0.006 -0.6228  0.0596  0.0500
  931MPD2     H13675   1.483   0.623   0.229 -1.1700 -0.1429 -1.3607
  931MPD2    H113676   1.654   0.246   0.173 -1.4505 -1.1708 -3.1587
  931MPD2    H213677   1.658   0.527  17.604  1.5759  1.9739  1.2102
  931MPD2    H313678   1.714   0.304  17.689  1.6683 -1.0855  2.7609
  931MPD2     N13679   1.555   0.398   0.365  0.0952 -0.3148 -0.3830
  931MPD2    H513680   1.564   0.298   0.380  0.0224 -0.0169  1.5980
  931MPD2    N113681   1.541   0.714  17.734 -0.7055 -0.5310  0.3205
  931MPD2    H713682   1.551   0.718  17.633  0.3125 -0.7483  0.4141
  932MPD2     C13683   3.440   0.020  11.456 -0.4503  0.5737  0.0148
  932MPD2    C113684   3.579   0.035  11.450  0.2736  0.6447 -0.8973
  932MPD2    C213685   3.656   4.667  11.418 -0.1823  0.0573 -0.1214
  932MPD2    C313686   3.603   4.547  11.382 -0.2760  0.1526  0.6556
  932MPD2    C413687   3.461   4.539  11.380  0.6529 -0.5651  0.1433
  932MPD2    C513688   3.385   4.640  11.420 -0.0453 -0.1424  0.3917
  932MPD2     H13689   3.762   4.684  11.433 -0.0009 -2.0052  1.0298
  932MPD2    H113690   3.409   4.449  11.350 -1.5574  0.8079 -0.2125
  932MPD2    H213691   3.375   0.103  11.480 -2.5608 -1.2631  0.6035
  932MPD2    H313692   3.277   4.626  11.428  0.1894 -1.2484  1.6368
  932MPD2     N13693   3.679   4.440  11.341  1.0283  0.1469 -0.0279
  932MPD2    H513694   3.624   4.357  11.322 -0.6360  0.9752  1.1991
  932MPD2    N113695   3.645   0.151  11.506  0.5292 -0.9400  0.2379
  932MPD2    H713696   3.741   0.172  11.479 -0.5394  1.2675 -1.8229
  933MPD2     C13697   3.514   4.598   1.668 -0.1199  0.4624 -0.2541
  933MPD2    C113698   3.565   4.592   1.541 -0.0791 -0.4731 -0.1062
  933MPD2    C213699   3.488   4.636   1.436 -0.4119  0.5708 -0.2181
  933MPD2    C313700   3.359   4.683   1.450 -1.3114 -0.0805  0.0341
  933MPD2    C413701   3.304   4.676   1.576 -0.6555  0.0697  1.0028
  933MPD2    C513702   3.385   4.647   1.679 -0.0601 -0.4265 -0.0043
  933MPD2     H13703   3.534   4.642   1.337 -0.2123  1.4662 -0.0791
  933MPD2    H113704   3.199   4.697   1.595 -0.5680 -0.3849  1.9786
  933MPD2    H213705   3.575   4.570   1.753 -1.2938 -0.0776  0.4053
  933MPD2    H313706   3.352   4.663   1.782 -1.2283 -1.6025 -0.1858
  933MPD2     N13707   3.284   4.719   1.336  0.0356 -0.3015 -0.4189
  933MPD2    H513708   3.332   4.714   1.247  0.6165  0.2579 -0.1385
  933MPD2    N113709   3.696   4.545   1.519 -0.7390  0.4141  0.0007
  933MPD2    H713710   3.739   4.504   1.602  2.2681 -1.7746 -2.6488
  934MPD2     C13711   0.857   1.613   1.414  0.1431 -0.1909 -0.4300
  934MPD2    C113712   0.851   1.554   1.296 -0.4540  0.7554 -0.6051
  934MPD2    C213713   0.749   1.454   1.280 -0.1791  0.0052  0.0633
  934MPD2    C313714   0.647   1.448   1.364  0.1775 -0.4170  0.5547
  934MPD2    C413715   0.643   1.517   1.484  0.0365 -0.1137  0.7843
  934MPD2    C513716   0.757   1.590   1.509  0.3709  1.3363 -0.6983
  934MPD2     H13717   0.743   1.395   1.190 -0.0540 -1.0521  0.7568
  934MPD2    H113718   0.567   1.504   1.559 -0.9922 -0.6987 -0.3545
  934MPD2    H213719   0.941   1.677   1.439 -1.6780  1.9955  0.1433
  934MPD2    H313720   0.756   1.646   1.602  0.6034 -0.1166  0.1871
  934MPD2     N13721   0.537   1.362   1.345 -0.8953 -0.0066 -0.3409
  934MPD2    H513722   0.450   1.374   1.395 -0.1566  1.7421  0.4954
  934MPD2    N113723   0.942   1.576   1.188 -0.3566 -1.3759  0.6579
  934MPD2    H713724   0.932   1.513   1.109  2.0767  0.1547 -0.8962
  935MPD2     C13725   0.435   0.418   0.966  0.0044  0.0278 -0.2215
  935MPD2    C113726   0.312   0.455   1.002 -0.3189  0.3116 -0.9726
  935MPD2    C213727   0.296   0.581   1.062 -0.3387 -0.9904 -0.7675
  935MPD2    C313728   0.407   0.661   1.080  0.4145 -0.5166 -0.4696
  935MPD2    C413729   0.528   0.616   1.036  0.3232 -0.3370  0.1046
  935MPD2    C513730   0.542   0.490   0.993  0.2123 -0.0603 -0.6733
  935MPD2     H13731   0.193   0.609   1.084  0.6463  0.8533  1.4107
  935MPD2    H113732   0.618   0.673   1.053  0.3038 -0.1731 -0.3603
  935MPD2    H213733   0.457   0.315   0.941  2.4084  0.6428 -0.6744
  935MPD2    H313734   0.639   0.442   0.981 -0.0839 -1.2089  1.4501
  935MPD2     N13735   0.397   0.787   1.142  0.1274 -0.5066 -0.2169
  935MPD2    H513736   0.487   0.830   1.160  0.5500 -1.2886 -0.4418
  935MPD2    N113737   0.199   0.374   0.987 -0.3106 -0.6136 -0.1470
  935MPD2    H713738   0.113   0.410   1.029  1.9633  2.0268  2.2806
  936MPD2     C13739   3.255   2.750  12.160  0.1253  0.0390 -0.1786
  936MPD2    C113740   3.199   2.825  12.255  0.8714 -0.0871  0.2499
  936MPD2    C213741   3.212   2.961  12.253  0.4873 -0.3378 -0.4772
  936MPD2    C313742   3.288   3.016  12.153  0.0765 -0.5308 -0.6990
  936MPD2    C413743   3.350   2.943  12.063  0.3339  0.2692 -0.4259
  936MPD2    C513744   3.334   2.805  12.062  0.4307  0.5137  0.0270
  936MPD2     H13745   3.194   3.026  12.338  0.9061 -0.7627 -0.0607
  936MPD2    H113746   3.409   2.986  11.983 -1.6420  0.4084 -1.8167
  936MPD2    H213747   3.251   2.642  12.151  1.0592 -0.1475  1.5809
  936MPD2    H313748   3.387   2.741  11.992  1.0614 -2.2513  3.0298
  936MPD2     N13749   3.329   3.153  12.163 -0.4932  0.1641  0.0330
  936MPD2    H513750   3.404   3.181  12.100 -0.4426  0.9770  0.4643
  936MPD2    N113751   3.157   2.760  12.372 -0.2559  0.2055  0.0698
  936MPD2    H713752   3.134   2.824  12.447  0.5774 -1.7779  2.0234
  937MPD2     C13753   1.802   4.718  11.752 -0.2622 -0.1720  0.4807
  937MPD2    C113754   1.821   0.106  11.805 -0.9236  0.4433 -0.8999
  937MPD2    C213755   1.932   0.174  11.759  0.2135 -1.0045  0.3051
  937MPD2    C313756   2.024   0.125  11.667  0.0536 -0.2861 -0.3208
  937MPD2    C413757   2.005   4.734  11.614  0.6962  0.3023 -0.0833
  937MPD2    C513758   1.897   4.665  11.664  0.1857  1.0634  0.4458
  937MPD2     H13759   1.943   0.273  11.800 -1.8955 -0.7200  0.2298
  937MPD2    H113760   2.066   4.690  11.536  1.0149  0.2041  0.2191
  937MPD2    H213761   1.707   4.665  11.763 -0.8549  0.7047 -0.5024
  937MPD2    H313762   1.871   4.566  11.629  1.5966  1.8623 -2.8610
  937MPD2     N13763   2.115   0.214  11.606  0.4619  0.2805  0.7367
  937MPD2    H513764   2.114   0.306  11.648 -2.3923  0.6586 -0.1171
  937MPD2    N113765   1.718   0.174  11.879  0.2006 -0.0495 -0.2451
  937MPD2    H713766   1.742   0.270  11.901 -2.3091  0.7617 -1.0563
  938MPD2     C13767   4.040   0.522   0.725 -0.4278  0.3838 -0.6158
  938MPD2    C113768   3.950   0.619   0.772  0.2994 -0.0376 -0.8966
  938MPD2    C213769   3.845   0.573   0.854 -0.4404  0.5317  0.0584
  938MPD2    C313770   3.834   0.443   0.897  0.5419  0.0852  0.0153
  938MPD2    C413771   3.928   0.349   0.855 -1.0476  0.6684 -0.1895
  938MPD2    C513772   4.027   0.391   0.768 -0.2591  0.6379  0.6970
  938MPD2     H13773   3.781   0.649   0.898  2.0387  2.2753  0.6588
  938MPD2    H113774   3.925   0.250   0.899  0.4575 -0.1057 -1.8165
  938MPD2    H213775   4.117   0.543   0.652 -0.1849 -0.7333 -0.6767
  938MPD2    H313776   4.098   0.320   0.728  1.3953  2.6674  0.0140
  938MPD2     N13777   3.722   0.400   0.978 -0.5182 -0.1907 -0.2712
  938MPD2    H513778   3.717   0.305   1.013  1.4237 -0.6787 -1.2837
  938MPD2    N113779   3.960   0.750   0.729 -0.0407 -0.3723  0.2106
  938MPD2    H713780   3.884   0.807   0.764 -0.0639 -0.2548 -0.0307
  939MPD2     C13781   0.529   2.156   0.955  0.1961  0.2637  0.8804
  939MPD2    C113782   0.443   2.257   0.913  0.5224 -0.3542  0.5717
  939MPD2    C213783   0.450   2.293   0.779  0.1841 -0.3360  0.1816
  939MPD2    C313784   0.548   2.248   0.695 -0.2772  0.3045 -0.4893
  939MPD2    C413785   0.634   2.150   0.740 -0.6860  0.5021  0.3894
  939MPD2    C513786   0.619   2.102   0.866  0.2369  0.4486 -0.5647
  939MPD2     H13787   0.373   2.358   0.738  2.2829  2.6991  1.0148
  939MPD2    H113788   0.714   2.110   0.679 -1.9199 -0.5623 -0.5391
  939MPD2    H213789   0.525   2.121   1.058 -1.6529 -2.3599 -0.0949
  939MPD2    H313790   0.671   2.011   0.893 -1.3682 -0.2499  0.1697
  939MPD2     N13791   0.532   2.280   0.562  0.7943  0.0227 -0.0421
  939MPD2    H513792   0.476   2.360   0.535  0.5760 -0.2577 -0.4313
  939MPD2    N113793   0.354   2.305   1.010 -0.0954 -0.0645 -0.3605
  939MPD2    H713794   0.359   2.260   1.101 -0.0535 -1.4880 -1.0686
  940MPD2     C13795   3.600   3.393  13.518  0.0820  0.6198  1.0628
  940MPD2    C113796   3.716   3.444  13.576 -0.5148  0.2909  0.1864
  940MPD2    C213797   3.842   3.389  13.553  0.2379  0.2064  0.6205
  940MPD2    C313798   3.856   3.307  13.440 -0.2463 -0.6073  0.5739
  940MPD2    C413799   3.739   3.268  13.377 -0.0079  0.0913  0.1356
  940MPD2    C513800   3.605   3.302  13.418  0.3130  0.2572  0.0283
  940MPD2     H13801   3.928   3.434  13.602 -2.0854  2.9192  2.1728
  940MPD2    H113802   3.737   3.201  13.292 -1.5405 -1.0502  1.0776
  940MPD2    H213803   3.499   3.424  13.545  0.9381  3.0376  1.4987
  940MPD2    H313804   3.517   3.263  13.368  1.5996 -2.3986 -0.1464
  940MPD2     N13805   3.973   3.245  13.395  0.4665 -0.4640 -0.5599
  940MPD2    H513806   3.963   3.180  13.318  0.3179  0.5217 -1.3817
  940MPD2    N113807   3.699   3.557  13.665  0.0209 -0.0773 -0.0189
  940MPD2    H713808   3.780   3.585  13.718 -2.6181  3.2348  2.2501
  941MPD2     C13809   3.289   2.653  10.065 -0.0382 -0.2269 -0.1805
  941MPD2    C113810   3.408   2.592  10.081 -0.4491 -0.2931  0.2528
  941MPD2    C213811   3.411   2.451  10.069  0.3775  0.1486 -0.0740
  941MPD2    C313812   3.304   2.383  10.012 -0.7227 -0.4314  0.0310
  941MPD2    C413813   3.189   2.449   9.988 -0.6143 -0.0504  0.2172
  941MPD2    C513814   3.186   2.579  10.020 -0.3902  0.1207 -0.0310
  941MPD2     H13815   3.499   2.395  10.099  1.4320  2.1250  0.5545
  941MPD2    H113816   3.104   2.391   9.953 -0.0142 -0.4051 -0.6484
  941MPD2    H213817   3.281   2.760  10.079 -2.9863 -0.0312 -3.5097
  941MPD2    H313818   3.089   2.626  10.016 -1.6239 -2.3436  0.6218
  941MPD2     N13819   3.313   2.246   9.972 -0.1023  0.1865  0.6603
  941MPD2    H513820   3.234   2.208   9.922  0.0483  1.6997 -0.7224
  941MPD2    N113821   3.527   2.656  10.128 -0.4318  0.3075  0.1839
  941MPD2    H713822   3.610   2.604  10.153 -0.1812  0.5951 -0.0585
  942MPD2     C13823   3.225   4.662   9.589  0.0137 -0.0806 -0.2161
  942MPD2    C113824   3.319   4.565   9.639  0.4416  0.5164 -0.3877
  942MPD2    C213825   3.435   4.538   9.571 -0.3808 -0.4387  0.5532
  942MPD2    C313826   3.458   4.611   9.457  0.1900 -0.1441  0.3067
  942MPD2    C413827   3.364   4.695   9.400  0.6006  0.1639 -0.1769
  942MPD2    C513828   3.255   4.727   9.470 -0.2279  0.0486 -0.3628
  942MPD2     H13829   3.512   4.478   9.619  2.4031  2.8421  0.2401
  942MPD2    H113830   3.393   0.013   9.312 -0.4838  0.7880 -0.1434
  942MPD2    H213831   3.131   4.685   9.638 -1.3999 -2.3734 -1.8736
  942MPD2    H313832   3.190   0.067   9.433 -1.9632 -2.1683 -1.9851
  942MPD2     N13833   3.576   4.593   9.381  0.5587  0.1818 -0.7474
  942MPD2    H513834   3.593   4.659   9.305  0.0016  1.8406  0.5829
  942MPD2    N113835   3.301   4.494   9.758 -0.0796 -0.5059 -0.2485
  942MPD2    H713836   3.365   4.422   9.789 -1.2185 -0.6743  1.7082
  943MPD2     C13837   2.838   2.958  10.296 -0.9125 -0.2283  0.0161
  943MPD2    C113838   2.781   2.835  10.326 -0.4048 -0.1891  0.0902
  943MPD2    C213839   2.860   2.728  10.373 -1.0184 -0.3673  0.5136
  943MPD2    C313840   2.994   2.740  10.387 -0.0889 -0.1277  0.1617
  943MPD2    C413841   3.046   2.862  10.364  0.4075 -0.4766 -0.4881
  943MPD2    C513842   2.975   2.964  10.315 -0.0228  0.0237 -0.7842
  943MPD2     H13843   2.806   2.639  10.405 -0.3710 -0.7678  0.4773
  943MPD2    H113844   3.151   2.875  10.389  0.1718  0.8989 -0.1858
  943MPD2    H213845   2.784   3.045  10.261 -0.1254  0.1141 -0.3634
  943MPD2    H313846   3.026   3.060  10.308 -0.5787  0.3371 -0.5180
  943MPD2     N13847   3.076   2.636  10.440  0.1992 -0.3566  0.0856
  943MPD2    H513848   3.171   2.663  10.462  0.1108 -0.0716  0.1124
  943MPD2    N113849   2.642   2.824  10.311 -0.3758 -0.0623  0.1171
  943MPD2    H713850   2.584   2.883  10.253 -1.1056 -2.4352 -1.5321
  944MPD2     C13851   1.989   1.406  10.882  0.0402  1.0251  0.5001
  944MPD2    C113852   2.119   1.397  10.941 -0.1166  0.0110  0.1442
  944MPD2    C213853   2.122   1.413  11.077  0.5477 -0.1566 -0.4539
  944MPD2    C313854   2.012   1.453  11.151 -0.1226  0.1738 -0.1531
  944MPD2    C413855   1.895   1.486  11.089 -0.3064  0.3586 -0.4747
  944MPD2    C513856   1.878   1.453  10.954  0.1437 -0.8993  0.5107
  944MPD2     H13857   2.221   1.402  11.122  1.3759  1.1519 -1.9748
  944MPD2    H113858   1.810   1.520  11.147 -0.8720 -1.8423  0.0084
  944MPD2    H213859   1.982   1.388  10.775  2.7072  2.0687  0.1519
  944MPD2    H313860   1.781   1.468  10.908  1.8959  0.2610 -2.7907
  944MPD2     N13861   2.034   1.456  11.295 -0.9401  0.8150 -0.1371
  944MPD2    H513862   2.124   1.424  11.328 -1.0064 -0.2045 -0.9205
  944MPD2    N113863   2.230   1.357  10.861  0.6833 -0.0800 -0.3716
  944MPD2    H713864   2.209   1.356  10.762  1.6029 -1.7176 -0.5400
    1TMC1    C113865   0.433   2.267  14.603 -0.4867 -0.5234  0.5000
    1TMC1    C213866   0.327   2.258  14.515  0.1461  0.2956 -0.0141
    1TMC1    C313867   0.305   2.130  14.466  0.0813  0.4042  0.2264
    1TMC1    C413868   0.508   2.160  14.641 -0.0225  0.1799 -0.5800
    1TMC1    C513869   0.492   2.041  14.586  0.0137 -0.2739 -0.1262
    1TMC1    C613870   0.389   2.024  14.500 -0.6060  0.2865 -0.0615
    1TMC1     C13871   0.436   2.380  14.685 -0.0893 -0.2303 -0.2308
    1TMC1     O13872   0.513   2.378  14.781 -0.2640 -0.3446  0.1041
    1TMC1     H13873   0.269   2.343  14.482  1.7343  1.0164 -0.9747
    1TMC1    H113874   0.591   2.177  14.709  0.7490 -0.0559 -1.4701
    1TMC1    H213875   0.369   1.926  14.460  0.3715  0.1044 -0.1073
    1TMC1    C713876   0.549   1.926  14.662 -0.6451  0.4827 -0.3469
    1TMC1    C813877   0.192   2.111  14.372  0.3724 -0.3726  0.0688
    1TMC1    O113878   0.478   1.832  14.694 -0.7460  0.1992  0.0446
    1TMC1    O213879   0.148   2.217  14.325 -0.0649 -0.1951 -0.2308
    1TMC1    O313880   0.670   1.917  14.605  0.3470  0.1857 -0.5891
    1TMC1    H313881   0.716   2.004  14.598 -1.3195  1.0839 -0.3242
    1TMC1    O513882   0.112   2.013  14.429  0.1228  0.3027  0.0208
    1TMC1    H513883   0.140   1.943  14.492  0.8891  0.3240 -0.3030
    2MPD2     C13884   0.222   2.810  14.870  0.0638 -0.4947  0.6604
    2MPD2    C113885   0.183   2.797  14.743 -0.1408 -0.5917 -0.1024
    2MPD2    C213886   0.229   2.686  14.666  0.4496 -0.5652 -0.1614
    2MPD2    C313887   0.316   2.594  14.717  0.5854 -0.1244 -0.3276
    2MPD2    C413888   0.343   2.608  14.848  1.2395 -0.3140  0.6917
    2MPD2    C513889   0.299   2.712  14.931 -0.2505 -0.1906  0.0531
    2MPD2     H13890   0.213   2.682  14.559  1.4627 -1.4150 -0.2835
    2MPD2    H113891   0.401   2.531  14.898 -0.0061 -0.9121  1.2333
    2MPD2    H213892   0.194   2.897  14.929  0.9140  0.9995 -1.1515
    2MPD2    H313893   0.315   2.707  15.038 -2.3663  1.5926  0.4315
    2MPD2     N13894   0.365   2.487  14.638 -0.3268 -0.1166 -0.2711
    2MPD2    H513895   0.327   2.482  14.544  0.8571  0.5070 -0.7862
    2MPD2    N113896   0.086   2.886  14.696 -0.3577 -0.3091 -0.2306
    2MPD2    H713897   0.065   2.969  14.750  0.3082 -0.5368  0.3720
    3TMC2    C113898   4.718   3.005  14.536  0.4909 -0.0391  0.8906
    3TMC2    C213899   0.022   3.122  14.599  0.5358  0.5251 -0.0695
    3TMC2    C313900   4.722   3.240  14.539 -0.4291 -0.0874 -0.3348
    3TMC2    C413901   4.646   3.003  14.417  0.0713  0.7760 -0.1896
    3TMC2    C513902   4.618   3.122  14.358  0.3354  0.5133  1.5477
    3TMC2    C613903   4.651   3.243  14.419  0.9200 -0.5343  0.0197
    3TMC2     C13904   0.029   2.881  14.575 -0.4801 -0.0995 -0.1365
    3TMC2     O13905   0.025   2.787  14.496  0.3235 -0.1458  1.2859
    3TMC2     H13906   0.083   3.123  14.688  0.8766 -0.1834 -0.2931
    3TMC2    H113907   4.597   2.907  14.404 -0.8325  1.3927 -1.2970
    3TMC2    H213908   4.614   3.338  14.383 -0.4858 -0.4104  1.7909
    3TMC2    C713909   4.536   3.111  14.238  0.3618  0.3158 -0.3728
    3TMC2    C813910   4.731   3.365  14.619  0.2315 -0.0072  0.1035
    3TMC2    O113911   4.482   3.003  14.221  0.3050 -0.7564  0.2981
    3TMC2    O213912   4.723   3.369  14.741 -0.8055 -0.4655  0.5750
    3TMC2    O513913   0.019   3.462  14.533 -0.4881  0.1489  0.7929
    3TMC2    H513914   0.050   3.422  14.449 -0.3515 -0.5141  1.1585
    4TMC2    C113915   4.381   3.901  13.692 -0.0772  0.7353  0.3387
    4TMC2    C213916   4.480   3.983  13.654  0.1574 -1.3326 -1.2477
    4TMC2    C313917   4.610   3.935  13.660 -0.2714 -0.2796 -0.6558
    4TMC2    C413918   4.396   3.769  13.714  0.9565  0.4520  0.5899
    4TMC2    C513919   4.526   3.721  13.706  0.1033  0.0144  0.4916
    4TMC2    C613920   4.628   3.801  13.677  0.3312 -0.2199  0.4344
    4TMC2     C13921   4.244   3.944  13.675 -0.2131 -0.2220  0.1919
    4TMC2     O13922   4.232   4.066  13.693  0.0192  0.3677  1.0569
    4TMC2     H13923   4.462   4.086  13.627  2.4854 -0.6067 -0.1192
    4TMC2    H113924   4.310   3.711  13.745  1.0742 -0.1405 -0.2104
    4TMC2    H213925   4.722   3.747  13.670  0.7927  0.4613  1.4846
    4TMC2    C713926   4.561   3.591  13.775 -0.5775  0.1034 -1.0791
    4TMC2    C813927   4.706   3.995  13.571 -0.2505 -0.3918  0.2800
    4TMC2    O113928   4.661   3.593  13.837 -0.3822 -0.0131 -0.1793
    4TMC2    O213929   4.682   4.091  13.501 -0.0064  0.4014 -0.0725
    4TMC2    O513930   0.095   3.962  13.614 -0.9548  0.1160  0.2218
    4TMC2    H513931   0.095   3.892  13.682  0.0596 -0.0945  0.0028
    5MPD2     C13932   3.747   3.948  13.585 -0.5248 -0.2059 -0.1329
    5MPD2    C113933   3.804   3.860  13.496  0.4440 -0.9293  0.1084
    5MPD2    C213934   3.940   3.820  13.501 -0.4904  0.2724  0.4387
    5MPD2    C313935   4.020   3.885  13.596 -0.0431  0.1913  0.6903
    5MPD2    C413936   3.966   3.982  13.668  0.3787 -0.1288 -0.1601
    5MPD2    C513937   3.828   4.001  13.680 -0.0788  0.1839  0.0157
    5MPD2     H13938   3.987   3.745  13.439 -1.5162 -0.0583  0.0774
    5MPD2    H113939   4.023   4.023  13.750 -0.5287  1.3984 -0.2887
    5MPD2    H213940   3.643   3.975  13.572 -0.1627  2.1293  1.8722
    5MPD2    H313941   3.790   4.073  13.752  0.1611  0.1030  0.2203
    5MPD2     N13942   4.159   3.861  13.612  0.0412 -0.5531  0.6444
    5MPD2    H513943   4.203   3.783  13.565  0.0180 -0.0596 -0.1994
    5MPD2    N113944   3.723   3.796  13.403 -0.7733 -0.1967 -0.4782
    5MPD2    H713945   3.624   3.791  13.426 -0.9167 -1.2319 -1.3368
    6MPD1     C13946   2.992   4.687  13.128 -0.2893 -0.6288  0.1817
    6MPD1    C113947   3.012   4.588  13.221 -0.2577  0.2017  0.3603
    6MPD1    C213948   2.949   4.471  13.194 -0.7757 -0.0737  0.1926
    6MPD1    C313949   2.880   4.451  13.068 -0.0670  0.2186 -0.1941
    6MPD1    C413950   2.879   4.551  12.981 -0.3892  1.0446  0.2605
    6MPD1    C513951   2.935   4.664  13.013 -0.1367 -0.4739 -1.4664
    6MPD1     H13952   2.942   4.397  13.273 -0.7169 -1.5049 -1.1529
    6MPD1    H113953   2.820   4.543  12.890  0.6781  0.3364 -0.3634
    6MPD1    H213954   3.030   0.050  13.143  0.0334 -0.7741  0.3462
    6MPD1    H313955   2.913   0.012  12.951  0.8618  3.0524  3.0711
    6MPD1     N13956   2.817   4.330  13.027  0.1197 -0.0067  0.1553
    6MPD1    H513957   2.781   4.333  12.933 -2.4372  3.4140  1.2595
    6MPD1    N113958   3.056   4.622  13.347  0.3292  0.0545  0.0249
    6MPD1    H613959   2.977   4.659  13.400  0.0871  1.3734 -1.2740
    6MPD1    H713960   3.095   4.546  13.403 -0.4305 -2.1942 -2.5270
    7MPD2     C13961   2.794   3.474  13.183 -0.1344 -0.1540 -0.1923
    7MPD2    C113962   2.865   3.590  13.195 -0.8807  0.0268 -0.4775
    7MPD2    C213963   3.002   3.583  13.216 -0.3456  0.2380 -0.5068
    7MPD2    C313964   3.066   3.459  13.242  0.4045 -0.0476  0.2760
    7MPD2    C413965   2.994   3.342  13.221  0.4833  0.4462  0.7345
    7MPD2    C513966   2.860   3.358  13.196 -0.4192 -0.3099 -0.3265
    7MPD2     H13967   3.052   3.679  13.213 -0.0496  0.1294  0.8989
    7MPD2    H113968   3.037   3.242  13.223 -1.7083 -0.4882  0.9352
    7MPD2    H213969   2.691   3.462  13.153 -0.3441  1.7421 -0.2437
    7MPD2    H313970   2.803   3.266  13.198  0.2114 -0.7542 -2.7746
    7MPD2     N13971   3.209   3.447  13.254  0.0543  0.4773 -0.0654
    7MPD2    H513972   3.252   3.358  13.230 -0.2493 -0.0843  1.4784
    7MPD2    N113973   2.808   3.718  13.170  0.6666 -0.2726 -0.0311
    7MPD2    H713974   2.874   3.794  13.171  3.6654 -2.8582  0.2326
    8TMC3    C113975   3.437   3.527  13.243 -0.1616 -0.1558 -0.3047
    8TMC3    C213976   3.535   3.607  13.303 -0.5846  0.1530  0.6959
    8TMC3    C313977   3.646   3.642  13.228 -0.2334  0.2267 -0.1094
    8TMC3    C413978   3.443   3.491  13.107 -0.1962 -0.1296  0.0669
    8TMC3    C513979   3.539   3.548  13.035 -0.4906  0.0458  1.0460
    8TMC3    C613980   3.649   3.614  13.094 -0.6265 -0.3081  0.3501
    8TMC3     C13981   3.299   3.550  13.294 -0.4887  0.2578  0.3241
    8TMC3     O13982   3.268   3.654  13.350 -0.7718  0.0319 -0.0847
    8TMC3     H13983   3.526   3.633  13.408 -1.6789 -0.7628  0.8324
    8TMC3    H113984   3.359   3.436  13.067  0.1740 -2.1201  1.9995
    8TMC3    H213985   3.724   3.656  13.028 -0.1678 -3.6116 -1.2311
    8TMC3    C713986   3.501   3.617  12.912 -0.0481 -0.0745  0.4433
    8TMC3    C813987   3.757   3.712  13.296  0.3389 -0.3392 -0.0634
    8TMC3    O113988   3.583   3.621  12.822  0.2443 -0.0960 -0.4934
    8TMC3    O213989   3.858   3.710  13.229 -0.2642  0.2225 -0.0610
    9TMC3    C113990   2.764   4.104  13.028 -0.1502 -0.1318 -0.2108
    9TMC3    C213991   2.779   4.089  12.892 -0.6340  0.0191  0.2723
    9TMC3    C313992   2.744   3.972  12.830 -0.6000 -0.3076 -0.5181
    9TMC3    C413993   2.728   3.991  13.102  0.5902  0.3406  0.7657
    9TMC3    C513994   2.697   3.874  13.037 -0.7939  0.0498  0.8477
    9TMC3    C613995   2.699   3.866  12.902  0.3382  0.0517  0.0605
    9TMC3     C13996   2.809   4.219  13.108 -0.0672 -0.3264  0.2619
    9TMC3     O13997   2.822   4.202  13.229  0.2599 -0.2089 -0.7425
    9TMC3     H13998   2.817   4.174  12.837 -0.5740  2.4429  4.0631
    9TMC3    H113999   2.713   3.991  13.210 -1.1374 -2.4135  0.5438
    9TMC3    H214000   2.664   3.771  12.862  1.4370 -0.8826  1.3332
    9TMC3    C714001   2.688   3.746  13.107  0.4167  0.5288 -0.4852
    9TMC3    C814002   2.849   3.930  12.742 -0.8059 -0.3468 -0.5932
    9TMC3    O114003   2.591   3.677  13.075 -0.5594 -0.2701  0.1190
    9TMC3    O214004   2.834   3.954  12.623 -0.1792 -0.5010  0.0084
   10MPD2     C14005   3.344   3.778  12.703 -0.5158  1.0386 -0.6751
   10MPD2    C114006   3.300   3.744  12.827  0.0225 -0.2925  0.0579
   10MPD2    C214007   3.172   3.788  12.862 -0.3321 -0.0386 -0.8401
   10MPD2    C314008   3.080   3.841  12.778  0.1556  0.2863  0.5500
   10MPD2    C414009   3.121   3.872  12.648  0.2113 -0.1191  0.3615
   10MPD2    C514010   3.252   3.843  12.619  0.2027 -0.4440 -0.5174
   10MPD2     H14011   3.133   3.764  12.961 -0.4331 -2.8538 -1.5505
   10MPD2    H114012   3.059   3.917  12.571 -0.7114 -0.0734  1.1376
   10MPD2    H214013   3.451   3.777  12.686 -0.1052 -0.6010  1.9262
   10MPD2    H314014   3.286   3.862  12.518 -0.9651  1.3116 -0.5710
   10MPD2     N14015   2.950   3.874  12.816  0.7820  0.2977 -0.6417
   10MPD2    H514016   2.933   3.871  12.916 -2.0502 -1.1452 -1.1631
   10MPD2    N114017   3.373   3.669  12.924 -0.3323 -0.7636  0.3065
   10MPD2    H714018   3.320   3.641  13.006 -0.0111 -2.8226 -0.1690
   11MPD2     C14019   4.375   3.157  13.999  0.3756  0.5519  0.4863
   11MPD2    C114020   4.477   3.245  14.039 -0.1019  0.3052 -0.6055
   11MPD2    C214021   4.517   3.350  13.964  0.2275  0.2051  0.0628
   11MPD2    C314022   4.446   3.383  13.852  0.5486  0.2728  0.1157
   11MPD2    C414023   4.341   3.304  13.816 -0.2537  0.4107  0.3025
   11MPD2    C514024   4.299   3.193  13.889  0.4804 -0.1929  0.9642
   11MPD2     H14025   4.595   3.415  14.002  2.2153 -0.2082 -3.3208
   11MPD2    H114026   4.281   3.324  13.728 -1.1795  1.1536  1.1143
   11MPD2    H214027   4.339   3.076  14.062  2.4035 -0.8704 -0.1993
   11MPD2    H314028   4.216   3.133  13.855 -1.3902  3.3244 -0.6988
   11MPD2     N14029   4.461   3.494  13.763  0.1674  0.1858  0.2151
   11MPD2    H514030   4.402   3.501  13.681 -1.8275  0.7889  1.7097
   11MPD2    N114031   4.543   3.225  14.163  0.2792 -0.0656 -0.0679
   11MPD2    H714032   4.607   3.298  14.193 -0.2205  0.2033  0.3445
    1MPD1     C14033   2.101   0.221  17.013 -0.2364  0.4628  0.2464
    1MPD1    C114034   2.041   0.172  16.896  0.1317  0.1798 -0.0586
    1MPD1    C214035   2.106   0.160  16.778 -0.0594  0.9204 -0.3015
    1MPD1    C314036   2.241   0.201  16.769 -0.1108 -0.3608  0.6039
    1MPD1    C414037   2.297   0.257  16.882 -0.6755  0.6221  0.7383
    1MPD1    C514038   2.233   0.265  17.003  0.6697 -0.0624  0.1793
    1MPD1     H14039   2.042   0.128  16.696 -0.8502 -0.4294  0.8543
    1MPD1    H114040   2.397   0.298  16.872 -1.2931  2.2154  1.2175
    1MPD1    H214041   2.045   0.225  17.106 -1.5084  1.8108 -0.5767
    1MPD1    H314042   2.274   0.331  17.079  0.9145  1.8701 -1.6064
    1MPD1     N14043   2.313   0.210  16.647  0.2130 -0.1812 -0.2753
    1MPD1    H514044   2.410   0.233  16.662  0.5027  0.0502 -2.4912
    1MPD1    N114045   1.897   0.150  16.897  0.0985 -0.4172  0.3154
    1MPD1    H614046   1.878   0.066  16.843 -0.4870  1.5509 -2.4924
    1MPD1    H714047   1.865   0.133  16.992 -2.4268 -0.6620 -0.6034
    2MPD1     C14048   3.138   0.467  16.554  0.4512 -0.1766  0.2173
    2MPD1    C114049   3.110   0.340  16.600  0.4573  0.7674  1.1847
    2MPD1    C214050   2.995   0.278  16.545 -1.3912  0.4928 -0.1335
    2MPD1    C314051   2.906   0.343  16.461  0.0991  1.1361  0.5734
    2MPD1    C414052   2.942   0.470  16.417 -0.0269 -1.0072 -0.2832
    2MPD1    C514053   3.058   0.525  16.467  0.8117  0.7400 -0.5799
    2MPD1     H14054   2.975   0.181  16.587  3.0698 -0.2617  0.2768
    2MPD1    H114055   2.879   0.532  16.353 -1.6077 -1.8808  0.4120
    2MPD1    H214056   3.217   0.534  16.586  1.2301  0.3741 -2.9292
    2MPD1    H314057   3.098   0.622  16.439  1.9018  0.0397 -1.4286
    2MPD1     N14058   2.789   0.274  16.428 -0.6067  0.1387 -0.2802
    2MPD1    H514059   2.779   0.181  16.466  0.1968 -0.1210 -0.7037
    2MPD1    N114060   3.160   0.285  16.718 -0.5638 -0.5977  0.6055
    2MPD1    H614061   3.152   0.184  16.720 -2.1881 -0.5331 -2.5120
    2MPD1    H714062   3.255   0.320  16.732 -0.6920  0.2099 -0.5540
    3TMC3    C114063   2.574   0.254  16.316  0.2160 -0.5172  0.3543
    3TMC3    C214064   2.520   0.268  16.191 -0.2381  0.4172  0.3422
    3TMC3    C314065   2.382   0.251  16.183  0.1638  0.2102  0.4840
    3TMC3    C414066   2.495   0.227  16.428  0.0347  0.5844 -0.2859
    3TMC3    C514067   2.357   0.221  16.409  0.4676 -1.3301  0.1721
    3TMC3    C614068   2.298   0.235  16.285 -0.0044  0.2797 -0.3013
    3TMC3     C14069   2.693   0.330  16.341 -0.3585 -0.3747 -0.4183
    3TMC3     O14070   2.711   0.419  16.258 -0.0300  0.9576 -0.7498
    3TMC3     H14071   2.580   0.288  16.103 -0.8082 -1.0222 -0.3835
    3TMC3    H114072   2.544   0.223  16.525 -2.2870 -0.9974  0.8326
    3TMC3    H214073   2.192   0.254  16.276 -0.1651 -0.4197  0.1855
    3TMC3    C714074   2.259   0.194  16.518 -0.0799 -0.3703 -0.5587
    3TMC3    C814075   2.324   0.263  16.050  0.5324  0.3044  0.1335
    3TMC3    O114076   2.143   0.167  16.489 -0.5639 -0.6476 -0.4863
    3TMC3    O214077   2.391   0.318  15.965  0.0718  0.4857 -0.1420
    4MPD1     C14078   1.928   0.196  15.724  0.3646  0.3209  0.1286
    4MPD1    C114079   1.902   0.120  15.840 -0.5382 -0.8904  0.8947
    4MPD1    C214080   1.998   0.119  15.942 -0.5516  0.4867 -0.1360
    4MPD1    C314081   2.114   0.194  15.930 -0.4027 -0.4631 -0.7454
    4MPD1    C414082   2.139   0.271  15.815 -0.1546 -0.2119 -0.1441
    4MPD1    C514083   2.050   0.266  15.709  0.1498  0.0392 -0.5547
    4MPD1     H14084   1.984   0.064  16.034 -0.4031  0.7402  0.0375
    4MPD1    H114085   2.225   0.338  15.808  0.1440 -0.4684  0.9549
    4MPD1    H214086   1.862   0.195  15.638 -0.6617 -1.1881  0.9492
    4MPD1    H314087   2.062   0.315  15.613  1.3268  2.7502  0.9815
    4MPD1     N14088   2.195   0.203  16.045 -0.4876  0.3346 -0.0074
    4MPD1    H514089   2.171   0.147  16.126 -1.1926  2.3036  1.1430
    4MPD1    N114090   1.781   0.056  15.848 -0.0282  0.3593 -0.4048
    4MPD1    H614091   1.700   0.108  15.814  0.6383  1.9940  0.5133
    4MPD1    H714092   1.757   0.033  15.944 -0.4537 -0.8106 -0.7792
    1TCq1    O114093   3.329   3.192  10.687 -0.3995 -0.6291  0.0505
    1TCq1    C114094   3.407   3.301  10.668 -0.3988 -0.0770 -0.0943
    1TCq1    O214095   3.516   3.320  10.720 -0.6080 -0.9148 -0.1584
    1TCq1    C214096   3.337   3.414  10.610  0.0995 -0.5157  0.0134
    1TCq1    C314097   3.202   3.405  10.588 -0.5863 -0.4734 -0.0143
    1TCq1    C414098   3.141   3.529  10.573 -0.3355 -0.0116 -0.6620
    1TCq1    C514099   3.201   3.655  10.596  0.3724 -0.3703  0.3432
    1TCq1    C614100   3.333   3.647  10.623 -0.6352 -1.0079  0.5904
    1TCq1    C714101   3.401   3.529  10.623  0.5448  0.6240 -0.1337
    1TCq1    C814102   3.401   3.777  10.650 -0.8064 -0.0884  0.0568
    1TCq1    O414103   3.330   3.875  10.640  1.2654  0.0985  0.3195
    1TCq1    C914104   2.999   3.518  10.574 -0.1873  0.7592 -0.2015
    1TCq1    O514105   2.956   3.406  10.548 -0.5897  0.8112  0.1168
    1TCq1    O614106   2.943   3.631  10.590  0.3892 -0.1656 -0.0398
    1TCq1    H114107   3.232   3.193  10.672 -0.5356 -0.1982  0.9573
    1TCq1    H214108   3.151   3.314  10.560 -1.4667  0.0723 -0.1675
    1TCq1    H314109   3.142   3.746  10.602  1.4579  0.2362  1.7162
    1TCq1    H414110   3.507   3.530  10.646  0.5077 -0.5859  0.0978
    2MPD1     C14111   3.801   4.068  10.741  1.0409 -0.6166  0.2640
    2MPD1    C114112   3.830   3.949  10.796 -0.3062 -0.6507  0.4554
    2MPD1    C214113   3.742   3.844  10.777  0.8170  0.3376 -0.5414
    2MPD1    C314114   3.618   3.869  10.710  0.6752 -0.1290 -0.1582
    2MPD1    C414115   3.594   3.999  10.653  0.0779 -0.1185 -0.1048
    2MPD1    C514116   3.689   4.090  10.674 -0.5898 -0.2510  0.2422
    2MPD1     H14117   3.756   3.747  10.824  0.8628  0.0199 -1.2126
    2MPD1    H114118   3.503   4.027  10.600 -1.5980 -1.3799  2.0857
    2MPD1    H214119   3.860   4.159  10.750 -0.3375 -0.0733  3.8564
    2MPD1    H314120   3.676   4.195  10.648  1.2067 -0.1947 -0.3941
    2MPD1     N14121   3.532   3.762  10.695 -0.6270 -0.1234  0.4615
    2MPD1    H514122   3.568   3.670  10.717  1.0304  0.4018 -0.0276
    2MPD1    N114123   3.944   3.938  10.878 -0.1518  0.1746  0.8199
    2MPD1    H614124   3.969   4.031  10.912 -1.1875  0.9112 -0.4632
    2MPD1    H714125   3.917   3.883  10.959  1.1574 -1.0171  0.4552
    1TMC1    C114126   3.505   3.717  17.264 -0.0978 -0.2956 -0.0996
    1TMC1    C214127   3.480   3.752  17.397 -0.0497 -0.1771 -0.2024
    1TMC1    C314128   3.586   3.759  17.483 -0.1637  0.0903  0.5041
    1TMC1    C414129   3.633   3.699  17.218 -0.2989  0.8218  0.0104
    1TMC1    C514130   3.734   3.739  17.300  0.3057 -0.6675  0.2210
    1TMC1    C614131   3.716   3.769  17.436  0.3192 -0.0224  0.3586
    1TMC1     C14132   3.394   3.707  17.169 -0.1355 -0.0845 -0.1010
    1TMC1     O14133   3.416   3.696  17.049  0.1658  0.0581  0.4284
    1TMC1     H14134   3.381   3.773  17.435 -1.1591  1.3135 -3.9229
    1TMC1    H114135   3.644   3.659  17.117 -1.2222 -1.4285  0.8191
    1TMC1    H214136   3.791   3.802  17.507  1.1268 -0.9952 -0.0531
    1TMC1    C714137   3.866   3.770  17.248  0.5632 -0.1035  0.2055
    1TMC1    C814138   3.550   3.806  17.616 -0.7477  0.3164  0.6832
    1TMC1    O114139   3.953   3.795  17.331 -0.2212 -0.3387  1.0072
    1TMC1    O214140   3.439   3.847  17.640 -0.1577 -0.1720  0.3153
    1TMC1    O314141   3.878   3.769  17.117 -0.4275  0.0405 -0.3748
    1TMC1    H314142   3.796   3.760  17.064 -0.6739  1.5890 -0.2569
    1TMC1    O514143   3.646   3.760  17.704 -0.1283  0.5358 -0.6505
    1TMC1    H514144   3.715   3.700  17.668 -0.8311 -0.4286 -0.3720
    2MPD1     C14145   2.892   3.636  17.094  0.9181 -0.5102 -0.6050
    2MPD1    C114146   2.911   3.616  17.224  0.3592  0.3478  0.3528
    2MPD1    C214147   3.038   3.643  17.268 -0.3872 -0.3821 -0.2801
    2MPD1    C314148   3.145   3.671  17.193 -0.6881 -0.5255  0.5509
    2MPD1    C414149   3.119   3.686  17.059 -0.5234 -0.7855 -0.5512
    2MPD1    C514150   2.989   3.685  17.017  0.0297  0.5706  0.4491
    2MPD1     H14151   3.063   3.615  17.369 -1.4392  0.1950  0.1332
    2MPD1    H114152   3.199   3.708  16.989 -0.3364  1.5598  0.4040
    2MPD1    H214153   2.794   3.622  17.050 -0.3141  0.4694  1.8108
    2MPD1    H314154   2.975   3.684  16.909 -0.5182 -1.6055  0.5382
    2MPD1     N14155   3.274   3.680  17.240  1.0419 -0.3339 -0.6266
    2MPD1    H514156   3.284   3.676  17.341 -0.2739  3.0783 -0.3802
    2MPD1    N114157   2.810   3.553  17.300  0.3461  0.2983  0.1673
    2MPD1    H614158   2.814   3.554  17.402 -2.4045 -0.1446  0.2752
    2MPD1    H714159   2.717   3.570  17.263  0.2859  0.1909  0.2702
    1MPD1     C14160   1.257   3.841  12.371 -0.2915  0.0719  0.0693
    1MPD1    C114161   1.135   3.900  12.347 -0.2264  0.3438  0.6508
    1MPD1    C214162   1.124   3.993  12.246  1.0387 -0.4895 -0.0750
    1MPD1    C314163   1.217   3.987  12.147  0.0926  0.0803 -0.0273
    1MPD1    C414164   1.334   3.917  12.160  0.4524  0.0808  0.0044
    1MPD1    C514165   1.364   3.850  12.281  0.5722 -0.1753  0.0095
    1MPD1     H14166   1.034   4.050  12.227  2.0583  2.0369  2.7495
    1MPD1    H114167   1.413   3.946  12.091  0.8131 -0.3585  0.2337
    1MPD1    H214168   1.273   3.792  12.467 -2.9284  3.8982  2.4510
    1MPD1    H314169   1.463   3.812  12.301  0.5553  0.4347  1.2789
    1MPD1     N14170   1.179   4.065  12.029 -0.1859 -0.1880  0.1964
    1MPD1    H514171   1.104   4.132  12.039 -0.6890 -1.1949  2.9852
    1MPD1    N114172   1.021   3.897  12.438  0.4065  0.0448 -0.1560
    1MPD1    H614173   0.930   3.913  12.394 -0.2407 -0.3606  1.0516
    1MPD1    H714174   1.017   3.817  12.500 -0.3320  1.9498  2.2626
    2MPD1     C14175   0.048   0.589  10.330 -0.1950  0.0899 -0.6124
    2MPD1    C114176   0.128   0.653  10.421 -0.8237 -0.5492 -0.0659
    2MPD1    C214177   0.168   0.591  10.538 -0.0307 -0.3812 -0.5826
    2MPD1    C314178   0.135   0.457  10.560 -0.4096  0.2998 -0.2460
    2MPD1    C414179   0.059   0.393  10.466  0.1789  0.7389  0.0997
    2MPD1    C514180   0.020   0.454  10.348 -0.6967  0.0581  0.3819
    2MPD1     H14181   0.230   0.638  10.613  0.3543 -3.0795  0.8090
    2MPD1    H114182   0.032   0.288  10.467 -0.6500  0.9520 -0.3274
    2MPD1    H214183   0.015   0.647  10.245  0.3900  2.5949  0.8709
    2MPD1    H314184   4.701   0.401  10.272 -0.5995  0.3486  0.1048
    2MPD1     N14185   0.165   0.402  10.683 -0.3554  0.1388 -0.3103
    2MPD1    H514186   0.217   0.463  10.745 -1.1480  0.3481  0.1602
    2MPD1    N114187   0.141   0.793  10.400 -0.5749  0.5693  0.2338
    2MPD1    H614188   0.232   0.821  10.436 -0.6938  0.2043  0.8309
    2MPD1    H714189   0.137   0.817  10.302  2.8104  0.5323  0.0593
    3MPD1     C14190   4.432   4.399  11.158 -0.7100  0.2091 -0.5172
    3MPD1    C114191   4.388   4.512  11.085  0.3464 -0.2648 -0.8413
    3MPD1    C214192   4.485   4.609  11.054 -0.4123 -0.1606  0.0101
    3MPD1    C314193   4.621   4.588  11.089 -0.1929  0.0820 -0.5664
    3MPD1    C414194   4.654   4.482  11.157 -0.1582  0.5952  0.2312
    3MPD1    C514195   4.564   4.384  11.189 -0.7785  0.1264  0.0317
    3MPD1     H14196   4.441   4.692  11.001  1.5736  0.4756 -0.6113
    3MPD1    H114197   0.020   4.471  11.186  0.6528 -0.1495 -3.0284
    3MPD1    H214198   4.373   4.310  11.177  0.6543 -0.1839  1.8670
    3MPD1    H314199   4.594   4.303  11.254 -1.4658  0.8727  1.2812
    3MPD1     N14200   4.714   4.692  11.049 -0.2960  0.2039 -0.4275
    3MPD1    H514201   4.678   0.040  11.011 -0.1871  0.6312  0.4392
    3MPD1    N114202   4.263   4.511  11.023  0.4716  0.7735 -0.2005
    3MPD1    H614203   4.191   4.449  11.059 -0.3268  1.6737 -0.2278
    3MPD1    H714204   4.235   4.608  11.041  0.1262  0.4147  1.1513
    4MPD2     C14205   0.756   4.607  11.767 -0.1119  0.7069  0.9739
    4MPD2    C114206   0.890   4.588  11.726 -0.2944  0.2773 -0.8576
    4MPD2    C214207   0.971   4.697  11.692 -0.9833  0.2186 -0.9810
    4MPD2    C314208   0.920   0.088  11.693  1.0289 -0.1589  0.0041
    4MPD2    C414209   0.786   0.106  11.731 -0.0380 -0.3020 -0.1713
    4MPD2    C514210   0.710   4.735  11.774 -0.4133  0.3286  0.4170
    4MPD2     H14211   1.071   4.678  11.657 -0.7732 -0.6783  0.1213
    4MPD2    H114212   0.743   0.205  11.731  0.9011  0.0975  1.9919
    4MPD2    H214213   0.690   4.525  11.794  3.1342 -2.1057  0.3464
    4MPD2    H314214   0.614   0.013  11.821 -1.2894  1.2343 -1.6643
    4MPD2     N14215   0.994   0.195  11.636  0.5022 -0.0374  0.0952
    4MPD2    H514216   0.944   0.282  11.621  1.2786  0.0443 -1.9672
    4MPD2    N114217   0.954   4.470  11.701 -0.6737  0.4054  0.1213
    4MPD2    H714218   1.049   4.475  11.665 -1.0662 -1.1516 -1.1555
    5TMC3    C114219   1.011   4.250  11.698  0.3393 -0.3292  0.1873
    5TMC3    C214220   1.057   4.166  11.791  0.9431 -1.0128 -0.0285
    5TMC3    C314221   1.187   4.136  11.802  0.2575 -0.1259 -0.4765
    5TMC3    C414222   1.097   4.284  11.596  0.5872 -0.0619 -0.1457
    5TMC3    C514223   1.231   4.264  11.609 -0.5008 -0.2795 -0.2670
    5TMC3    C614224   1.277   4.190  11.712  0.4239  0.3947  0.2194
    5TMC3     C14225   0.905   4.344  11.732  0.1957 -0.4197 -0.0062
    5TMC3     O14226   0.810   4.312  11.809 -0.7048 -0.1049 -0.7323
    5TMC3     H14227   0.990   4.141  11.872  4.2792 -3.2244  2.0585
    5TMC3    H114228   1.059   4.353  11.521  0.8151  1.6246  1.2855
    5TMC3    H214229   1.383   4.193  11.735  0.2087  0.2063  1.2174
    5TMC3    C714230   1.302   4.392  11.595  0.2004 -0.0790  1.0054
    5TMC3    C814231   1.252   4.063  11.911 -0.6539 -0.6372  0.4194
    5TMC3    O114232   1.231   4.487  11.628 -0.2541  0.5248 -0.2439
    5TMC3    O214233   1.361   4.018  11.881  0.1347 -0.4209  0.0245
    6TMC3    C114234   0.180   0.231  10.849 -0.8553  0.2829 -0.2738
    6TMC3    C214235   0.117   0.125  10.902 -0.7038  0.7949  0.2956
    6TMC3    C314236   0.184   0.069  11.012  0.3033  0.0870 -0.0900
    6TMC3    C414237   0.311   0.272  10.883  0.2688  0.1992  0.4294
    6TMC3    C514238   0.369   0.202  10.985 -0.0300  0.2706 -0.6270
    6TMC3    C614239   0.314   0.096  11.043 -0.0072 -0.3768  0.1272
    6TMC3     C14240   0.109   0.289  10.735  0.3688  0.0119 -0.0066
    6TMC3     O14241   0.012   0.230  10.693 -0.0890 -0.2093  0.7946
    6TMC3     H14242   0.018   0.095  10.870 -0.5315  1.8483 -1.2128
    6TMC3    H114243   0.354   0.359  10.835  1.8425 -0.4065  0.7374
    6TMC3    H214244   0.366   0.049  11.126  2.4556  1.1887 -0.5338
    6TMC3    C714245   0.508   0.227  11.020 -0.0067 -0.9755 -0.1101
    6TMC3    C814246   0.113   4.699  11.075 -0.0955  0.0053 -0.1562
    6TMC3    O114247   0.563   0.156  11.106 -0.0772 -0.2243 -0.6095
    6TMC3    O214248   0.184   4.616  11.135  0.4142  0.1567  0.6617
    7MPD2     C14249   1.627   4.720  11.388 -0.0477  0.4558  0.6035
    7MPD2    C114250   1.505   4.737  11.440  0.0242 -0.1272  0.3485
    7MPD2    C214251   1.430   4.632  11.479 -0.4744 -0.5654 -0.2923
    7MPD2    C314252   1.494   4.506  11.503  0.1147 -0.2233 -0.4685
    7MPD2    C414253   1.623   4.492  11.465 -0.3669 -0.1634  0.8453
    7MPD2    C514254   1.687   4.599  11.406  0.2913 -0.7836 -0.1962
    7MPD2     H14255   1.330   4.655  11.513 -0.5215 -0.2032 -0.6791
    7MPD2    H114256   1.679   4.399  11.473  2.1095  1.2000 -0.5937
    7MPD2    H214257   1.684   0.064  11.346  1.7478 -0.7808  0.6148
    7MPD2    H314258   1.792   4.590  11.379  0.5070 -1.3555  0.8532
    7MPD2     N14259   1.428   4.387  11.551  0.3837 -0.3864 -0.5352
    7MPD2    H514260   1.480   4.301  11.553 -0.3019 -0.7794  0.4692
    7MPD2    N114261   1.445   0.127  11.453 -0.0295  0.8560 -0.4149
    7MPD2    H714262   1.355   0.128  11.500 -0.9104  1.6278 -2.1509
    8TMC3    C114263   1.378   0.338  11.421 -0.2630  1.3541  0.8874
    8TMC3    C214264   1.312   0.369  11.310 -0.2632  0.1495  0.5124
    8TMC3    C314265   1.174   0.375  11.318  0.6435 -0.0269 -0.7724
    8TMC3    C414266   1.313   0.319  11.535  0.0729  0.0639 -0.3725
    8TMC3    C514267   1.178   0.313  11.538  0.0697 -0.5288 -0.3431
    8TMC3    C614268   1.102   0.349  11.430 -0.0743 -0.0482  0.4104
    8TMC3     C14269   1.485   0.245  11.403 -0.2555 -0.0124  0.3266
    8TMC3     O14270   1.579   0.274  11.326 -0.3210  0.1243  0.7711
    8TMC3     H14271   1.371   0.398  11.224 -2.4138 -1.8786 -1.5985
    8TMC3    H114272   1.361   0.298  11.630 -0.1482 -2.0348 -0.7177
    8TMC3    H214273   0.994   0.360  11.434 -0.1103 -0.4776  0.6160
    8TMC3    C714274   1.130   0.195  11.611 -0.4456  0.2514  0.2775
    8TMC3    C814275   1.107   0.429  11.195  0.9676  0.0040 -0.4588
    8TMC3    O114276   1.212   0.109  11.642 -0.1847 -0.3071  0.4340
    8TMC3    O214277   1.178   0.489  11.115 -0.7759 -0.1122 -0.2637
    9MPD2     C14278   0.918   0.518  10.978 -0.4970 -0.0582 -0.4970
    9MPD2    C114279   0.890   0.425  11.074 -0.0741 -0.3118 -0.0293
    9MPD2    C214280   0.775   0.352  11.059 -0.0088  0.9405 -0.0371
    9MPD2    C314281   0.690   0.385  10.951  0.4461 -0.4928 -0.1911
    9MPD2    C414282   0.725   0.479  10.861  0.3115 -0.2940  0.5295
    9MPD2    C514283   0.847   0.529  10.862  0.0064  0.2166 -0.7461
    9MPD2     H14284   0.745   0.297  11.147  1.6935  2.0102  1.2337
    9MPD2    H114285   0.674   0.504  10.769 -2.3648 -0.0523  2.0603
    9MPD2    H214286   1.000   0.589  10.984  0.2268 -1.0588  1.4803
    9MPD2    H314287   0.879   0.596  10.782  1.5890 -3.0899 -2.8527
    9MPD2     N14288   0.559   0.325  10.940 -0.2755 -0.4299  0.1918
    9MPD2    H514289   0.501   0.362  10.866 -0.6369 -1.2134  0.0878
    9MPD2    N114290   0.976   0.383  11.183  0.5842 -0.2099 -0.0184
    9MPD2    H714291   0.940   0.310  11.243  0.6337  0.0945  0.3854
    1MPD1     C14292   0.293   2.959  16.218  1.1250  0.0753  0.8529
    1MPD1    C114293   0.396   3.039  16.165 -0.3547  0.7215  0.7016
    1MPD1    C214294   0.362   3.167  16.115  0.4537  0.2208 -0.7227
    1MPD1    C314295   0.232   3.211  16.112 -0.0292 -0.2596 -0.2512
    1MPD1    C414296   0.136   3.135  16.180  0.1124 -0.1577  0.3000
    1MPD1    C514297   0.170   3.014  16.226 -0.4421  0.8051 -0.0764
    1MPD1     H14298   0.441   3.233  16.081  0.9801 -0.5998 -1.1032
    1MPD1    H114299   0.034   3.170  16.175  0.6014  1.4899  1.5599
    1MPD1    H214300   0.302   2.854  16.244  1.6517 -1.0638 -4.0300
    1MPD1    H314301   0.085   2.955  16.259 -0.1137  0.2924 -0.1439
    1MPD1     N14302   0.193   3.334  16.056  0.4333  0.8093 -0.3392
    1MPD1    H514303   0.096   3.356  16.078  1.5346  3.8902  1.3815
    1MPD1    N114304   0.516   2.978  16.130  0.1996 -0.0335 -0.4749
    1MPD1    H614305   0.587   3.050  16.124 -3.0437  3.2731  0.8824
    1MPD1    H714306   0.541   2.903  16.195  1.5972 -0.2935 -1.3199
    2TMC2    C114307   0.021   3.670  15.914  0.9534 -0.3018  0.6476
    2TMC2    C214308   0.054   3.720  15.794  0.1991  0.4492  0.1993
    2TMC2    C314309   0.163   3.658  15.735 -0.1165  0.0540  0.0211
    2TMC2    C414310   0.084   3.573  15.982  0.3575  0.1697 -0.4760
    2TMC2    C514311   0.190   3.517  15.916 -0.6398  0.3815 -0.0261
    2TMC2    C614312   0.230   3.563  15.793  0.1866  0.2891  0.8517
    2TMC2     C14313   4.659   3.728  15.998  0.1075 -0.2533 -0.2082
    2TMC2     O14314   4.601   3.655  16.079  0.3561  0.3557 -0.1634
    2TMC2     H14315   0.000   3.801  15.747  0.0685  0.5886  0.5915
    2TMC2    H114316   0.075   3.566  16.090  0.5441 -1.0144 -0.5299
    2TMC2    H214317   0.316   3.523  15.740 -0.2001  0.1207  0.3583
    2TMC2    C714318   0.272   3.414  15.980  0.1873 -0.0201 -0.4736
    2TMC2    C814319   0.193   3.702  15.607 -0.4235  0.2884 -0.9259
    2TMC2    O114320   0.375   3.387  15.921  0.1891  0.1529 -0.5688
    2TMC2    O214321   0.300   3.675  15.553 -0.0166  0.0820 -0.1330
    2TMC2    O514322   0.080   3.716  15.530 -0.2472  0.3752 -0.2889
    2TMC2    H514323   4.730   3.707  15.573  0.3136  0.8821  0.9788
    3MPD1     C14324   4.280   4.069  16.073 -0.1489  0.0759 -0.2903
    3MPD1    C114325   4.378   4.129  15.992  0.1047  0.5087 -0.4900
    3MPD1    C214326   4.493   4.051  15.966 -0.2029  0.6424 -0.6124
    3MPD1    C314327   4.506   3.916  16.006  0.8843  0.4949 -0.3300
    3MPD1    C414328   4.404   3.865  16.085 -0.5680  0.0218  0.4106
    3MPD1    C514329   4.293   3.942  16.116 -0.2556  0.1212 -0.6883
    3MPD1     H14330   4.570   4.092  15.902 -1.1919 -0.4892 -2.4988
    3MPD1    H114331   4.398   3.761  16.114 -0.3460 -0.3196 -0.7749
    3MPD1    H214332   4.196   4.131  16.103 -0.2772 -0.3636  0.2475
    3MPD1    H314333   4.218   3.904  16.184 -0.5952  3.2453  0.6925
    3MPD1     N14334   4.619   3.854  15.957  0.0301  0.3215  0.1917
    3MPD1    H514335   4.683   3.905  15.896 -1.4641  0.5539 -1.1772
    3MPD1    N114336   4.345   4.243  15.916 -0.1779 -0.6357  0.2216
    3MPD1    H614337   4.280   4.312  15.951  1.5384  1.9164 -1.6133
    3MPD1    H714338   4.426   4.287  15.872 -1.6666 -0.3800 -2.2692
    1TMC1    C114339   3.366   2.692  13.445 -0.0543 -0.2051  0.8950
    1TMC1    C214340   3.256   2.756  13.384  0.7774  0.6216 -0.2512
    1TMC1    C314341   3.181   2.699  13.285  0.5583  0.1748 -0.2277
    1TMC1    C414342   3.390   2.563  13.404 -0.1931  0.3048 -0.1178
    1TMC1    C514343   3.325   2.514  13.298 -0.0532  0.0352 -0.2892
    1TMC1    C614344   3.224   2.576  13.235 -0.6574  0.4869  0.5775
    1TMC1     C14345   3.479   2.785  13.479 -0.5331 -0.0602 -0.1974
    1TMC1     O14346   3.473   2.896  13.426  0.1526 -0.9325  0.1643
    1TMC1     H14347   3.238   2.857  13.420  1.2384  0.6808 -0.1861
    1TMC1    H114348   3.467   2.504  13.450  0.3707  0.1446 -1.2559
    1TMC1    H214349   3.169   2.530  13.154 -1.8923  0.9328  1.1633
    1TMC1    C714350   3.380   2.395  13.229  0.3281  0.3052 -0.4972
    1TMC1    C814351   3.112   2.802  13.206 -0.7117  0.2149  0.0228
    1TMC1    O114352   3.323   2.352  13.132  0.5548  0.2035 -0.3546
    1TMC1    O214353   3.154   2.916  13.208  0.1233 -0.0379 -0.2483
    1TMC1    O314354   3.447   2.324  13.320 -0.3566  0.5385 -0.6287
    1TMC1    H314355   3.504   2.373  13.383 -0.5665  0.1770 -0.1583
    1TMC1    O514356   3.035   2.750  13.108 -0.0345 -0.8367 -0.9426
    1TMC1    H514357   3.009   2.656  13.123  0.5288 -0.6343  1.2420
    2MPD2     C14358   3.698   2.942  13.605  0.8841  0.0501 -0.7808
    2MPD2    C114359   3.696   2.807  13.606 -0.1506 -0.2790  0.6776
    2MPD2    C214360   3.788   2.740  13.676  0.2439 -0.4415 -0.2860
    2MPD2    C314361   3.897   2.802  13.739 -0.1481 -0.2395 -0.3599
    2MPD2    C414362   3.900   2.938  13.734 -0.2205 -0.5083  0.4863
    2MPD2    C514363   3.807   3.004  13.657  0.6923  0.2646  0.2145
    2MPD2     H14364   3.776   2.633  13.690  0.5664 -0.3328  0.8179
    2MPD2    H114365   3.977   3.001  13.779 -0.4852  0.3986 -0.3289
    2MPD2    H214366   3.617   3.001  13.563  0.9967  1.0837  0.4527
    2MPD2    H314367   3.800   3.113  13.657  1.2965  0.3089 -2.4937
    2MPD2     N14368   3.988   2.733  13.818  0.3571 -0.1218 -0.4532
    2MPD2    H514369   3.980   2.632  13.812 -1.6302  0.0331 -0.2945
    2MPD2    N114370   3.585   2.733  13.557 -0.9710 -0.4028 -0.0840
    2MPD2    H714371   3.575   2.636  13.585  1.8532 -0.9157 -0.8701
    3TCq1    O114372   4.241   2.494  14.382  0.4105  0.0054  0.1929
    3TCq1    C114373   4.244   2.616  14.320 -0.1292  0.3193 -0.3952
    3TCq1    O214374   4.203   2.721  14.377  0.1141 -0.0391 -0.1636
    3TCq1    C214375   4.227   2.586  14.177  0.4748 -0.3950  0.5446
    3TCq1    C314376   4.220   2.457  14.130  0.1010 -0.5677 -0.1225
    3TCq1    C414377   4.182   2.444  13.997  0.5478  0.2321  0.0755
    3TCq1    C514378   4.144   2.546  13.912 -0.4819  0.1454 -0.0747
    3TCq1    C614379   4.151   2.670  13.972  0.4358  0.3732  0.2499
    3TCq1    C714380   4.202   2.697  14.096  0.2845 -0.6875  0.3019
    3TCq1    C814381   4.085   2.775  13.903 -0.2932  0.1433 -0.0426
    3TCq1    O414382   4.114   2.888  13.941  0.1007  0.8488  0.4366
    3TCq1    C914383   4.178   2.319  13.933  0.8032  0.1247  0.1522
    3TCq1    O514384   4.227   2.217  13.983 -0.0591  0.0019 -0.0654
    3TCq1    O614385   4.111   2.319  13.827 -1.0315  0.6865 -0.1603
    3TCq1    H114386   4.300   2.437  14.327  0.0928 -0.2146  0.0790
    3TCq1    H214387   4.236   2.364  14.183  0.9874  1.0482  2.4720
    3TCq1    H314388   4.115   2.532  13.809  1.5123  0.1502 -0.6352
    3TCq1    H414389   4.202   2.797  14.136 -3.0487 -0.0928 -1.1372
    1MPD2     C14390   2.416   3.863  15.229 -0.3512  0.0320 -0.1452
    1MPD2    C114391   2.299   3.787  15.215 -0.6664  0.6408  0.1482
    1MPD2    C214392   2.306   3.651  15.231 -0.2952 -0.7745 -0.4626
    1MPD2    C314393   2.428   3.580  15.232 -0.6721 -0.3238 -0.0245
    1MPD2    C414394   2.541   3.652  15.251  0.1358 -0.4150  0.0676
    1MPD2    C514395   2.532   3.791  15.248  0.1129  0.5397  0.9567
    1MPD2     H14396   2.212   3.598  15.223 -0.5581 -0.4531  0.4518
    1MPD2    H114397   2.638   3.604  15.256  0.1832 -0.2476  0.7411
    1MPD2    H214398   2.419   3.971  15.241  1.7550 -0.1660  0.9986
    1MPD2    H314399   2.627   3.838  15.268 -0.5453  0.9083  3.2034
    1MPD2     N14400   2.440   3.439  15.225 -0.0396 -0.0690 -0.3953
    1MPD2    H514401   2.533   3.399  15.216  0.9488  2.1803 -0.1978
    1MPD2    N114402   2.174   3.856  15.187  0.2262  0.5202  0.4656
    1MPD2    H714403   2.187   3.956  15.178 -1.7302  0.8087  0.8815
    2TMC3    C114404   1.948   3.900  15.162  0.9474  0.5656 -0.1916
    2TMC3    C214405   1.825   3.841  15.188 -1.0994 -0.2216  0.0588
    2TMC3    C314406   1.732   3.833  15.085  0.0392 -0.4771  0.5194
    2TMC3    C414407   1.964   3.972  15.047 -0.1078 -0.3636  0.9181
    2TMC3    C514408   1.874   3.958  14.945 -0.6415 -0.2253 -0.0145
    2TMC3    C614409   1.756   3.895  14.966  0.2460 -0.1980  0.1463
    2TMC3     C14410   2.048   3.800  15.198 -0.8533  0.0354  0.2364
    2TMC3     O14411   2.013   3.692  15.237  0.1068 -0.0081 -0.2108
    2TMC3     H14412   1.803   3.793  15.283 -2.2952 -1.4830 -0.8441
    2TMC3    H114413   2.049   4.038  15.042 -1.8880  2.0326  2.3363
    2TMC3    H214414   1.675   3.895  14.894  0.5163  0.7734 -0.1689
    2TMC3    C714415   1.877   4.059  14.845 -0.3469  0.1733  0.1303
    2TMC3    C814416   1.681   3.702  15.062  0.1823 -0.0866 -0.4191
    2TMC3    O114417   1.768   4.098  14.808  0.3788  0.2798  0.1393
    2TMC3    O214418   1.583   3.694  14.994 -0.1339 -0.5051  0.1264
    3TCq1    O114419   2.713   0.030  14.422  0.2002 -0.6602  0.8402
    3TCq1    C114420   2.808   4.675  14.461 -0.3270 -0.6949  0.0956
    3TCq1    O214421   2.913   4.709  14.507 -0.0555  0.3898  0.6033
    3TCq1    C214422   2.749   4.550  14.488 -0.0717 -0.0443 -0.0971
    3TCq1    C314423   2.818   4.455  14.542  0.1297  0.0840 -0.1864
    3TCq1    C414424   2.764   4.336  14.582 -0.1548 -0.2354  0.6043
    3TCq1    C514425   2.634   4.312  14.557  0.4721  0.0258 -0.1119
    3TCq1    C614426   2.559   4.407  14.489 -0.1089  0.0674  0.1173
    3TCq1    C714427   2.620   4.528  14.453  0.5743  0.0796  0.0191
    3TCq1    C814428   2.415   4.411  14.501  0.0197  0.2446  0.3004
    3TCq1    O414429   2.365   4.518  14.470  0.2496 -0.0910  0.0486
    3TCq1    C914430   2.853   4.236  14.640 -0.1443  0.3510  0.2105
    3TCq1    O514431   2.980   4.257  14.633  0.2819 -0.3865  0.4019
    3TCq1    O614432   2.796   4.130  14.690  0.3510 -0.5335 -0.2144
    3TCq1    H114433   2.648   4.734  14.357  0.2515  0.3331  0.2783
    3TCq1    H214434   2.917   4.486  14.572  1.0942 -0.8498 -2.4060
    3TCq1    H314435   2.587   4.223  14.597 -1.8184  1.3000 -0.0010
    3TCq1    H414436   2.563   4.616  14.424 -2.5756 -1.8155  0.4858
    4MPD2     C14437   2.125   4.346  14.516 -0.6348  0.4312 -0.5409
    4MPD2    C114438   2.223   4.276  14.578 -0.4559  0.2011 -0.0573
    4MPD2    C214439   2.183   4.172  14.666 -0.4501 -0.4921 -0.0581
    4MPD2    C314440   2.046   4.152  14.697 -0.1910  0.3920 -0.2795
    4MPD2    C414441   1.957   4.230  14.621  0.0514 -0.3913  0.1591
    4MPD2    C514442   1.998   4.324  14.528 -0.4758 -0.1856 -0.0986
    4MPD2     H14443   2.262   4.116  14.714  0.2164  0.4739 -0.0233
    4MPD2    H114444   1.849   4.236  14.630  0.1382  0.1655  0.8509
    4MPD2    H214445   2.152   4.420  14.442  0.5967  0.3147 -0.1965
    4MPD2    H314446   1.923   4.367  14.463 -1.4147 -1.4872  0.1192
    4MPD2     N14447   2.003   4.075  14.801 -0.6532  1.2173  0.6094
    4MPD2    H514448   2.070   4.008  14.838 -1.6170  1.3525  2.5686
    4MPD2    N114449   2.362   4.297  14.559 -0.5741 -0.2656 -0.3675
    4MPD2    H714450   2.432   4.228  14.582 -1.1266 -0.8474 -0.4424
    5TMC2    C114451   2.214   3.073  15.085 -0.2596 -1.1067  0.4177
    5TMC2    C214452   2.292   3.063  14.975 -0.2146  0.0112 -0.0941
    5TMC2    C314453   2.407   3.135  14.971  0.0587  0.1819 -0.7007
    5TMC2    C414454   2.246   3.151  15.195  0.1128  0.7927 -0.0354
    5TMC2    C514455   2.362   3.219  15.186 -0.0727  0.8116  0.6596
    5TMC2    C614456   2.447   3.222  15.073  0.1508  0.9507 -0.3810
    5TMC2     C14457   2.081   3.088  15.054  0.4945 -0.1928 -0.3345
    5TMC2     O14458   2.040   3.002  14.978  0.0366 -0.4272 -0.1981
    5TMC2     H14459   2.256   3.014  14.885 -1.7841 -0.3972  0.7566
    5TMC2    H114460   2.193   3.149  15.290 -1.0719  2.0299 -0.6801
    5TMC2    H214461   2.537   3.282  15.069  0.7603  0.1020  0.5678
    5TMC2    C714462   2.340   3.353  15.235  0.7234  0.0354  0.5911
    5TMC2    C814463   2.474   3.150  14.847 -0.1220  0.4495  0.5583
    5TMC2    O114464   2.225   3.378  15.258  0.0346  0.5415 -0.3888
    5TMC2    O214465   2.567   3.228  14.839  0.3383  0.5491  0.0481
    5TMC2    O514466   2.467   3.034  14.783  0.2138 -0.0789  0.1108
    5TMC2    H514467   2.392   2.972  14.794 -1.4190  2.1476  1.4705
    6MPD2     C14468   1.718   3.427  14.939 -0.4500  0.5168  0.0335
    6MPD2    C114469   1.785   3.472  15.054 -0.0930 -0.0982  0.1397
    6MPD2    C214470   1.883   3.387  15.101 -0.1415 -0.8265  0.1140
    6MPD2    C314471   1.920   3.273  15.041 -0.7366 -0.1976  0.7115
    6MPD2    C414472   1.846   3.218  14.936  0.6571 -1.0018  0.1885
    6MPD2    C514473   1.756   3.306  14.881 -0.0368 -0.3996  0.3473
    6MPD2     H14474   1.940   3.431  15.182  0.9241 -1.6742 -0.1740
    6MPD2    H114475   1.869   3.123  14.889 -1.0573 -1.5251  0.3982
    6MPD2    H214476   1.640   3.488  14.897 -1.1634 -0.2766  0.1922
    6MPD2    H314477   1.708   3.266  14.792 -0.0190 -0.9179  0.5691
    6MPD2     N14478   2.031   3.202  15.103  0.1426 -0.2603 -0.6009
    6MPD2    H514479   2.084   3.251  15.175 -3.3232  0.5527  1.3725
    6MPD2    N114480   1.779   3.606  15.099 -0.6276  0.2193 -0.5118
    6MPD2    H714481   1.852   3.636  15.163  1.8637 -4.8863 -0.9774
  945NH3     N114482   4.394   3.489  11.144 -0.3907 -0.7253 -0.5732
  945NH3     H214483   4.384   3.389  11.131 -3.2968 -0.4644 -0.3111
  945NH3     H314484   4.389   3.529  11.052 -3.2864  2.4382  0.9603
  945NH3     H414485   4.494   3.498  11.155 -0.3006 -1.4589 -0.7931
  946SOD     NA14486   2.110   1.332  10.409 -0.5632 -0.6567  0.4013
  947SOD     NA14487   4.616   3.897  14.194 -0.4345  0.0099 -0.2157
  948SOD     NA14488   1.761   2.499  11.429  0.2234 -0.0341 -0.1345
  949SOD     NA14489   2.851   0.864   7.191  0.3503  0.0720 -0.2131
  950SOD     NA14490   2.459   1.301   5.526 -0.4964  0.4732  0.1362
  951SOD     NA14491   2.916   3.757  10.771  0.1755 -0.3264  0.0880
  952SOD     NA14492   0.880   4.454  16.937 -0.5268 -0.2298  0.3846
  953SOD     NA14493   4.174   1.155  16.937 -0.0395  0.1117 -0.0408
  954SOL     OW14494   1.268   2.619  12.740  0.2470  0.5590 -0.5161
  954SOL    HW114495   1.284   2.711  12.717  1.0404  0.7455  0.7277
  954SOL    HW214496   1.290   2.620  12.833  1.9109 -0.0196 -0.8968
  955SOL     OW14497   2.607   1.851   8.322 -0.1301  0.3579  0.0581
  955SOL    HW114498   2.520   1.811   8.324  0.3887 -0.7271  1.1607
  955SOL    HW214499   2.607   1.892   8.235  1.1626  0.2021 -0.0169
  956SOL     OW14500   1.289   1.007  11.141  0.2779 -0.2214  0.0651
  956SOL    HW114501   1.217   0.982  11.083  1.9531 -0.3273 -1.9436
  956SOL    HW214502   1.240   1.084  11.171  0.3294  0.1049 -0.7044
  957SOL     OW14503   0.360   1.508   0.918 -0.0330 -0.3138 -0.3154
  957SOL    HW114504   0.310   1.469   0.989 -2.8502  1.5205 -1.2783
  957SOL    HW214505   0.304   1.489   0.842  1.4379 -0.1277 -1.4512
  958SOL     OW14506   3.034   2.988   7.058 -0.3965  0.7710  0.3045
  958SOL    HW114507   2.991   2.920   7.109 -1.5255  0.2349 -1.3655
  958SOL    HW214508   3.077   2.923   7.001 -2.0973 -0.8074  0.8331
  959SOL     OW14509   4.269   3.370   3.549  0.1739  0.0005  0.2552
  959SOL    HW114510   4.196   3.393   3.606 -1.9680 -2.6932 -1.4375
  959SOL    HW214511   4.223   3.352   3.467  0.5100  0.0791  0.0455
  960SOL     OW14512   2.658   4.649  12.057  0.4205 -0.4948  0.0556
  960SOL    HW114513   2.647   4.671  11.965 -1.1082 -0.8865  0.1389
  960SOL    HW214514   2.589   4.583  12.060 -0.4154  0.4368  1.8292
  961SOL     OW14515   0.740   2.889   7.244 -0.3746  0.1361 -0.4176
  961SOL    HW114516   0.833   2.869   7.237  0.3192  3.1210  0.3173
  961SOL    HW214517   0.744   2.983   7.228  0.9631  0.1897  0.2235
  962SOL     OW14518   2.509   3.476   6.315  0.5245 -0.0032  0.8822
  962SOL    HW114519   2.489   3.414   6.384 -1.5576  0.0517  0.3126
  962SOL    HW214520   2.540   3.408   6.255  0.3050  0.3232  0.3951
  963SOL     OW14521   0.748   3.126   4.846 -0.3459 -0.3509  0.1435
  963SOL    HW114522   0.665   3.084   4.872 -0.0100 -2.1033 -1.5830
  963SOL    HW214523   0.793   3.050   4.808  1.2843 -0.9543  3.2537
  964SOL     OW14524   4.662   4.232   3.874 -0.6305  0.0071  0.1584
  964SOL    HW114525   0.006   4.281   3.871 -0.0847 -0.8745  0.8734
  964SOL    HW214526   4.648   4.246   3.967  0.6976 -1.3818  0.5573
  965SOL     OW14527   0.593   0.138   2.915 -0.1656 -0.4668 -0.2758
  965SOL    HW114528   0.658   0.083   2.959  1.2301  1.4286  0.0264
  965SOL    HW214529   0.625   0.224   2.941 -3.9342  0.3609  1.6530
  966SOL     OW14530   4.692   0.474  14.064 -0.2058  0.8248 -0.1644
  966SOL    HW114531   0.026   0.417  14.091  0.5751  2.4558  1.2119
  966SOL    HW214532   4.728   0.506  13.982 -0.4351  2.0096  0.2004
  967SOL     OW14533   3.219   3.013   1.049  0.4195  0.2243  0.6576
  967SOL    HW114534   3.152   3.044   1.110  0.6592 -0.2696  1.1690
  967SOL    HW214535   3.243   3.098   1.011 -0.4420  0.4381  0.5898
  968SOL     OW14536   2.152   2.273   7.304  0.0178 -0.0207 -0.5947
  968SOL    HW114537   2.140   2.269   7.399  0.4320 -1.5475 -0.5906
  968SOL    HW214538   2.130   2.182   7.280 -0.7949 -0.2153  0.8952
  969SOL     OW14539   1.810   3.796   8.372  0.0494 -0.3113  0.0514
  969SOL    HW114540   1.772   3.869   8.323 -1.2629 -1.5704 -0.8383
  969SOL    HW214541   1.766   3.799   8.457  1.5709  1.9599  0.7522
  970SOL     OW14542   4.043   1.251  12.444 -0.4494 -0.0940  0.6951
  970SOL    HW114543   3.978   1.318  12.423  1.2174  0.3280 -2.9151
  970SOL    HW214544   4.019   1.215  12.530 -0.6441 -1.4052  0.0960
  971SOL     OW14545   4.619   2.893   9.344 -1.1113 -0.3817  0.3410
  971SOL    HW114546   4.568   2.959   9.297 -2.9717 -1.7975  0.3799
  971SOL    HW214547   4.621   2.832   9.270  2.8812  0.5621 -0.3192
  972SOL     OW14548   4.108   2.757   6.185 -0.4118  0.1327  0.1029
  972SOL    HW114549   4.031   2.701   6.177 -0.8814  0.7774  0.0404
  972SOL    HW214550   4.074   2.819   6.250 -1.9204  0.2649 -0.8034
  973SOL     OW14551   1.634   3.303   7.441 -0.1192  0.3528  0.7912
  973SOL    HW114552   1.587   3.357   7.377 -0.7362  1.0903  1.8530
  973SOL    HW214553   1.623   3.356   7.520  1.3137  2.7726 -0.6267
  974SOL     OW14554   4.077   0.001  13.579 -0.2647 -0.2353  0.0840
  974SOL    HW114555   4.125   0.010  13.497  2.7419 -2.1984  1.6278
  974SOL    HW214556   4.122   0.058  13.641  0.7344 -0.8296 -0.0986
  975SOL     OW14557   0.891   3.309   3.833  0.5945  0.8290 -0.6133
  975SOL    HW114558   0.862   3.278   3.747  0.0089 -0.9805  0.2412
  975SOL    HW214559   0.851   3.396   3.841  0.5666  0.8449 -0.9126
  976SOL     OW14560   2.557   2.042   2.787  0.2127  0.1925 -0.4389
  976SOL    HW114561   2.531   2.086   2.868 -0.6436 -1.4115  0.1767
  976SOL    HW214562   2.512   2.104   2.731  2.0778  1.1402 -0.8796
  977SOL     OW14563   2.026   4.489   9.157  0.1092  0.6081 -0.0358
  977SOL    HW114564   2.005   4.579   9.135 -0.5147  0.4608 -0.0524
  977SOL    HW214565   1.941   4.445   9.166 -0.0907  1.2816  1.3613
  978SOL     OW14566   2.234   4.083   8.780 -0.0370 -0.0022 -0.1195
  978SOL    HW114567   2.189   4.126   8.853 -0.0518  0.9800 -0.7172
  978SOL    HW214568   2.210   4.133   8.702  1.4192 -1.0585 -1.2450
  979SOL     OW14569   3.865   2.418   3.160  0.0453  0.1574  0.3754
  979SOL    HW114570   3.797   2.461   3.108  0.7444 -0.8381 -1.3880
  979SOL    HW214571   3.917   2.490   3.195  0.1289  0.4646 -0.3649
  980SOL     OW14572   1.384   0.362   5.086  0.1437 -0.7204  0.0330
  980SOL    HW114573   1.466   0.323   5.115  1.1906  0.3254 -1.5739
  980SOL    HW214574   1.404   0.454   5.101  0.3449 -0.6455 -0.6832
  981SOL     OW14575   1.312   0.253  16.619 -0.8296 -0.1079 -0.0097
  981SOL    HW114576   1.361   0.268  16.538  0.4266 -1.3195  0.5316
  981SOL    HW214577   1.262   0.334  16.608 -1.2781 -0.7068 -2.5564
  982SOL     OW14578   1.363   3.735   9.750 -0.0556 -0.0753 -0.0650
  982SOL    HW114579   1.310   3.717   9.828  0.7195 -2.8574 -0.1565
  982SOL    HW214580   1.324   3.676   9.685 -2.3347  0.5973  0.6751
  983SOL     OW14581   2.139   2.618  11.336  0.0728 -0.0752  0.0430
  983SOL    HW114582   2.044   2.628  11.344  0.2203  1.2170  0.1666
  983SOL    HW214583   2.177   2.700  11.367  0.1906 -0.2229  0.2861
  984SOL     OW14584   4.551   1.776   5.213  0.2498 -0.6683 -0.5688
  984SOL    HW114585   4.572   1.821   5.131  0.5413 -0.9155 -0.6276
  984SOL    HW214586   4.526   1.693   5.174 -4.4586  0.0730  0.8592
  985SOL     OW14587   2.947   3.920   2.279  0.0387  0.1612 -0.0334
  985SOL    HW114588   2.960   3.873   2.196  0.1836 -0.4617  0.3416
  985SOL    HW214589   3.019   3.982   2.273  1.3628 -1.4470 -1.0887
  986SOL     OW14590   1.642   1.904   6.051 -0.4489 -0.1360 -0.3247
  986SOL    HW114591   1.576   1.865   5.993 -0.3359  0.6791 -1.0115
  986SOL    HW214592   1.650   1.985   6.000  0.7649  0.9855  1.6915
  987SOL     OW14593   1.938   2.423   3.269 -0.5414 -0.2039 -0.3488
  987SOL    HW114594   1.871   2.456   3.208 -0.7351  0.7238  0.3572
  987SOL    HW214595   1.889   2.428   3.351 -1.5756  0.1409 -0.9778
  988SOL     OW14596   1.011   0.922   2.500  0.1288  0.4471  0.1985
  988SOL    HW114597   0.995   1.011   2.468 -0.1006 -0.3312 -1.8264
  988SOL    HW214598   1.106   0.934   2.506 -0.0995  1.1876  2.2528
  989SOL     OW14599   1.929   2.988   4.655 -0.2968  0.3407  0.3863
  989SOL    HW114600   1.834   2.995   4.647 -0.2809 -0.0044 -0.1767
  989SOL    HW214601   1.948   2.914   4.597 -1.3477 -0.7034  1.3697
  990SOL     OW14602   0.146   4.222   4.222  0.3460  0.2283  0.7532
  990SOL    HW114603   0.138   4.131   4.194  1.9018  0.1747  0.4342
  990SOL    HW214604   0.076   4.263   4.171 -0.4029 -1.1405  0.6784
  991SOL     OW14605   2.601   3.876   7.570  0.3778 -0.1045 -0.0776
  991SOL    HW114606   2.691   3.902   7.551  0.6785 -1.2336 -0.1745
  991SOL    HW214607   2.552   3.958   7.580 -3.0096 -2.2344  0.7069
  992SOL     OW14608   0.825   0.906   4.114 -0.2024 -0.2406 -0.2716
  992SOL    HW114609   0.890   0.870   4.173 -1.5354 -2.3961 -0.1208
  992SOL    HW214610   0.884   0.956   4.057 -0.0924  0.0961  0.1391
  993SOL     OW14611   3.484   3.041   0.059  0.4074 -0.0214  0.9167
  993SOL    HW114612   3.559   2.984   0.072  0.4949  0.1928  1.3846
  993SOL    HW214613   3.449   3.006  17.727  1.9064 -0.9563  0.6814
  994SOL     OW14614   1.628   0.744   7.175 -0.2311 -0.0008 -0.3980
  994SOL    HW114615   1.609   0.653   7.196 -1.9343  0.2229 -0.9595
  994SOL    HW214616   1.599   0.784   7.257 -2.2931 -1.1153 -0.5878
  995SOL     OW14617   3.221   0.347   9.689 -0.0197  0.6730  0.1481
  995SOL    HW114618   3.146   0.349   9.630 -1.8683 -0.9792  2.4572
  995SOL    HW214619   3.185   0.282   9.749  1.6045 -1.1767 -0.8680
  996SOL     OW14620   1.985   0.868   9.848 -0.4549  0.0236 -0.1089
  996SOL    HW114621   1.893   0.863   9.822 -0.7246  3.6493  0.1009
  996SOL    HW214622   1.967   0.869   9.942 -1.4241 -0.5681 -0.2878
  997SOL     OW14623   0.242   2.835   6.273  0.3412  0.0643 -0.0867
  997SOL    HW114624   0.177   2.850   6.205  0.0668 -0.7410 -0.0092
  997SOL    HW214625   0.241   2.739   6.283  0.2362  0.3282  2.5253
  998SOL     OW14626   1.317   1.600   9.758 -0.3891  0.0597 -0.1896
  998SOL    HW114627   1.283   1.525   9.807 -0.2467  0.9479  1.2496
  998SOL    HW214628   1.378   1.633   9.823 -0.0633  0.0038 -0.4653
  999SOL     OW14629   2.628   4.226  12.060  0.0801  0.4852 -0.3488
  999SOL    HW114630   2.694   4.204  11.995  0.2024  0.7901 -0.3278
  999SOL    HW214631   2.691   4.279  12.110  1.8932 -0.0702 -2.0711
 1000SOL     OW14632   0.843   2.206   7.666  0.3325  0.1376 -0.2525
 1000SOL    HW114633   0.900   2.210   7.590 -0.8006  0.5124 -1.0930
 1000SOL    HW214634   0.756   2.185   7.632  0.0975  4.3827 -2.3299
 1001SOL     OW14635   3.534   2.810   3.132  0.4580 -0.6139  0.5150
 1001SOL    HW114636   3.594   2.820   3.059 -0.7546 -0.3806 -0.4504
 1001SOL    HW214637   3.485   2.737   3.094 -0.2433  0.5142 -0.7285
 1002SOL     OW14638   3.100   0.136   9.837  0.2475  0.2226  0.3144
 1002SOL    HW114639   3.135   0.176   9.917  0.3893 -1.5258  1.1224
 1002SOL    HW214640   3.122   0.043   9.846 -1.3460 -0.1091  0.6678
 1003SOL     OW14641   3.716   1.168   1.326 -0.0364  0.6363  0.1713
 1003SOL    HW114642   3.807   1.197   1.331  0.0087  0.3455  0.9768
 1003SOL    HW214643   3.688   1.173   1.417 -1.2753  1.1595 -0.2375
 1004SOL     OW14644   0.112   2.952   5.619  0.5317 -1.1748 -0.4568
 1004SOL    HW114645   0.151   2.874   5.660  1.9018  0.5450  1.4787
 1004SOL    HW214646   0.142   3.015   5.684  2.8392 -0.9917 -1.6790
 1005SOL     OW14647   3.506   2.950   4.722  0.3676  0.9308 -0.4277
 1005SOL    HW114648   3.509   3.029   4.668 -0.1449 -1.4899 -4.0625
 1005SOL    HW214649   3.489   2.984   4.809 -0.6625  0.0721 -0.2893
 1006SOL     OW14650   2.235   0.928   5.983 -0.6534 -0.1143  0.3735
 1006SOL    HW114651   2.192   0.974   6.055  0.6237 -1.8623  2.2317
 1006SOL    HW214652   2.171   0.862   5.957 -0.5150  0.5644 -1.7240
 1007SOL     OW14653   1.650   4.544   9.610  0.5170 -0.0046  0.5443
 1007SOL    HW114654   1.734   4.582   9.635  1.0340 -1.4769  1.0600
 1007SOL    HW214655   1.676   4.477   9.547  0.7874 -1.6209  2.3815
 1008SOL     OW14656   3.156   1.305   4.961  0.6129  0.5169  0.4073
 1008SOL    HW114657   3.102   1.261   4.896 -1.4923  0.4893  2.1784
 1008SOL    HW214658   3.196   1.229   5.002 -3.4264 -1.6354  0.3011
 1009SOL     OW14659   1.426   0.750   4.305  0.2658 -0.2551 -0.0505
 1009SOL    HW114660   1.520   0.744   4.323  0.3358 -0.0059 -0.3180
 1009SOL    HW214661   1.436   0.796   4.221  2.3837 -0.0268  0.3234
 1010SOL     OW14662   3.838   4.493  17.172 -0.2285 -0.3032  0.6524
 1010SOL    HW114663   3.859   4.432  17.102 -1.2227 -0.9585  0.9370
 1010SOL    HW214664   3.745   4.475  17.178 -0.4477  0.5531 -0.2922
 1011SOL     OW14665   2.606   1.931  10.078  0.3551  0.2867  0.3909
 1011SOL    HW114666   2.510   1.926  10.083  0.3443  0.6832  0.5939
 1011SOL    HW214667   2.615   1.874  10.002 -0.6898  2.4898 -1.3814
 1012SOL     OW14668   2.826   2.274   6.392  0.4646  0.0371 -0.5462
 1012SOL    HW114669   2.730   2.270   6.392  0.5424 -2.2020 -1.3238
 1012SOL    HW214670   2.843   2.343   6.455  2.3160  0.8427 -1.9328
 1013SOL     OW14671   1.963   3.087   8.422  0.1746 -0.2441  0.4693
 1013SOL    HW114672   1.969   3.023   8.493 -0.3826  1.1365  1.7642
 1013SOL    HW214673   1.895   3.146   8.456  0.0655 -0.4134  0.5472
 1014SOL     OW14674   0.867   0.185  15.215 -0.0935  0.0236  0.0579
 1014SOL    HW114675   0.780   0.202  15.180  0.6259 -1.6085 -2.5179
 1014SOL    HW214676   0.922   0.187  15.136  0.3924  2.4190  0.4484
 1015SOL     OW14677   2.508   2.302   9.239 -0.5300  0.0746  0.8470
 1015SOL    HW114678   2.603   2.312   9.239 -0.4927 -0.2703  2.1462
 1015SOL    HW214679   2.495   2.242   9.312 -1.8767 -2.8320 -1.7738
 1016SOL     OW14680   3.012   2.878  12.851  0.7302 -0.3932  0.1448
 1016SOL    HW114681   2.937   2.825  12.824 -0.0848  1.2111 -0.7151
 1016SOL    HW214682   3.021   2.852  12.942  2.0855 -0.5159 -0.0275
 1017SOL     OW14683   1.686   3.001   7.647 -0.5036  0.2049  0.6785
 1017SOL    HW114684   1.773   2.988   7.609 -1.1730  1.1140 -1.1660
 1017SOL    HW214685   1.701   3.021   7.740  1.5140 -0.7700  0.5628
 1018SOL     OW14686   2.562   1.052   6.948 -0.2791  0.6072  0.4363
 1018SOL    HW114687   2.525   1.096   6.871  1.2343  0.1748 -0.5273
 1018SOL    HW214688   2.613   0.990   6.896 -0.2508 -0.2865  1.5240
 1019SOL     OW14689   1.910   3.307  13.514  0.5053  0.2684 -0.1860
 1019SOL    HW114690   1.948   3.224  13.544 -1.3918 -0.2683  0.7298
 1019SOL    HW214691   1.942   3.304  13.424  1.3175  0.6060  0.0833
 1020SOL     OW14692   2.400   0.001   7.530  0.2265 -0.8601  0.2497
 1020SOL    HW114693   2.413   0.004   7.624  0.9491  0.2465  0.1170
 1020SOL    HW214694   2.305   4.733   7.528  0.2136 -0.4467 -0.1980
 1021SOL     OW14695   3.196   2.975   7.792 -0.3831  0.3908  0.0168
 1021SOL    HW114696   3.112   2.993   7.833 -0.0609  1.0216  0.4048
 1021SOL    HW214697   3.209   3.064   7.759  0.3646 -0.0263 -0.8247
 1022SOL     OW14698   3.131   2.395   3.280  0.0754  0.3844  0.9014
 1022SOL    HW114699   3.089   2.368   3.362  0.2336 -1.5896  0.3318
 1022SOL    HW214700   3.159   2.311   3.243  0.5252 -0.0451  2.2306
 1023SOL     OW14701   2.503   1.244   6.444 -0.3302 -0.0022  0.1744
 1023SOL    HW114702   2.562   1.271   6.374  0.0532  0.6921  0.7636
 1023SOL    HW214703   2.427   1.289   6.405  1.4411  1.0556 -2.0392
 1024SOL     OW14704   0.988   1.952   2.165  0.2963  0.1411 -0.7920
 1024SOL    HW114705   0.913   1.892   2.158 -1.0452  1.7632 -0.2926
 1024SOL    HW214706   0.965   2.011   2.093  1.7634 -1.4167 -2.5698
 1025SOL     OW14707   0.032   0.063   8.330 -0.1241 -0.2717 -0.5752
 1025SOL    HW114708   0.021   0.012   8.249 -2.3747 -1.4500  0.4650
 1025SOL    HW214709   4.684   0.060   8.373  0.3862 -0.1269  0.4464
 1026SOL     OW14710   3.870   0.316   3.145 -0.2393 -0.1633 -0.2715
 1026SOL    HW114711   3.874   0.241   3.205 -4.5829 -0.8244 -0.8076
 1026SOL    HW214712   3.808   0.279   3.082  2.6931 -1.9242 -2.1097
 1027SOL     OW14713   3.064   2.188  12.545 -0.0806  0.4858  0.3844
 1027SOL    HW114714   3.147   2.183  12.591 -0.0778  0.8409  0.4224
 1027SOL    HW214715   3.054   2.103  12.502  0.0941  1.4033 -1.4961
 1028SOL     OW14716   2.372   4.031  14.933  0.9394 -0.2147  0.2185
 1028SOL    HW114717   2.346   3.963  14.870  0.3643  1.1379 -1.0155
 1028SOL    HW214718   2.467   4.015  14.934  0.8519 -1.1510 -3.4522
 1029SOL     OW14719   2.283   1.809   1.470  0.0028 -0.6822  0.1454
 1029SOL    HW114720   2.209   1.753   1.495  1.4996 -2.4860  0.5630
 1029SOL    HW214721   2.328   1.767   1.396 -0.3706 -0.1614 -0.3697
 1030SOL     OW14722   2.871   4.732  14.041  0.3344 -0.3552 -0.8119
 1030SOL    HW114723   2.938   0.010  13.974 -0.7691 -1.2031 -2.1248
 1030SOL    HW214724   2.921   4.673  14.098 -1.1700 -1.1800 -0.3569
 1031SOL     OW14725   0.081   1.626   8.125  0.1217  0.6217  0.0192
 1031SOL    HW114726   0.059   1.694   8.190 -0.4400  0.1050  0.3647
 1031SOL    HW214727   0.030   1.551   8.155  0.5335  0.9428  1.5200
 1032SOL     OW14728   0.586   3.118   3.349  0.1705 -0.0355 -0.2461
 1032SOL    HW114729   0.583   3.212   3.332  0.4041 -0.0929 -0.6158
 1032SOL    HW214730   0.623   3.087   3.266  0.1214 -0.7910  0.0113
 1033SOL     OW14731   1.987   1.334   5.076 -0.0770 -1.0289 -0.3890
 1033SOL    HW114732   1.993   1.378   4.991 -0.4130 -0.6730 -0.2320
 1033SOL    HW214733   1.908   1.372   5.115  0.4561  0.5059 -0.7984
 1034SOL     OW14734   4.267   2.742  11.635 -0.2608 -0.6302  0.1169
 1034SOL    HW114735   4.235   2.777  11.718 -0.1890  0.8504 -0.4839
 1034SOL    HW214736   4.201   2.773  11.573 -2.0174 -1.4099  1.5932
 1035SOL     OW14737   0.411   0.496   5.574  0.4954 -0.0066  0.2024
 1035SOL    HW114738   0.434   0.558   5.505  0.1681  0.6819  0.7067
 1035SOL    HW214739   0.498   0.475   5.608  1.2245  2.1018 -0.3709
 1036SOL     OW14740   1.030   2.351  11.646 -0.2025  0.4390 -0.5433
 1036SOL    HW114741   0.991   2.425  11.598  0.0525  0.6476 -0.4319
 1036SOL    HW214742   1.057   2.395  11.726  0.4179  0.4001 -0.7315
 1037SOL     OW14743   1.067   0.606   3.905 -0.8482 -0.1697 -0.1614
 1037SOL    HW114744   1.139   0.626   3.965 -1.4645 -1.9331  1.1779
 1037SOL    HW214745   1.087   0.638   3.817 -2.0724  0.5359 -0.1793
 1038SOL     OW14746   2.462   4.023  14.547 -0.1876 -0.9944 -0.1300
 1038SOL    HW114747   2.547   3.980  14.549  1.2191  1.8753  1.7253
 1038SOL    HW214748   2.420   3.963  14.485 -0.7104 -0.5621 -0.1878
 1039SOL     OW14749   1.517   0.532  13.589  0.0019  0.0321 -0.8160
 1039SOL    HW114750   1.505   0.617  13.632  1.0737  0.6824 -1.8047
 1039SOL    HW214751   1.520   0.466  13.658 -0.3754  0.5477 -0.3013
 1040SOL     OW14752   0.239   2.615   9.385  0.3173 -0.0865  0.3916
 1040SOL    HW114753   0.333   2.620   9.402  0.0263 -0.9903  2.3266
 1040SOL    HW214754   0.219   2.700   9.347  2.2045  0.9321  1.6800
 1041SOL     OW14755   2.293   4.249  17.139 -0.0727 -0.0343  0.7386
 1041SOL    HW114756   2.384   4.219  17.132 -0.1613  0.0901 -0.9113
 1041SOL    HW214757   2.304   4.294  17.223  1.7147  2.5264 -0.8558
 1042SOL     OW14758   3.174   2.889   0.098  0.0626 -0.4412 -0.3024
 1042SOL    HW114759   3.235   2.886   0.024  0.7204 -1.3186  0.2821
 1042SOL    HW214760   3.097   2.855   0.054  1.3612 -1.3123 -1.9114
 1043SOL     OW14761   2.690   0.521  10.568 -0.3580  0.1716 -0.3776
 1043SOL    HW114762   2.614   0.530  10.626 -0.2690 -2.9838  0.2219
 1043SOL    HW214763   2.762   0.559  10.618  1.0525 -2.5360 -0.2969
 1044SOL     OW14764   4.653   2.944   1.732  0.0813 -0.1129 -0.1704
 1044SOL    HW114765   0.007   2.966   1.742 -0.2928  1.7893 -0.8512
 1044SOL    HW214766   4.626   3.005   1.664  1.0195  0.6998  0.1908
 1045SOL     OW14767   2.795   1.962  13.549  0.3444  0.1829 -0.5221
 1045SOL    HW114768   2.858   2.017  13.596 -0.4800 -1.4079  2.4265
 1045SOL    HW214769   2.733   1.928  13.614  0.8989  0.5650  0.2160
 1046SOL     OW14770   0.977   2.542   6.816 -0.3233  0.1176 -0.7382
 1046SOL    HW114771   1.070   2.557   6.832  0.2602 -3.2217 -1.0648
 1046SOL    HW214772   0.950   2.630   6.842 -2.0091 -0.1899 -1.4737
 1047SOL     OW14773   1.482   0.973   8.995  0.6241 -0.4034  0.1067
 1047SOL    HW114774   1.510   0.981   9.086 -0.9369 -2.8155  0.7687
 1047SOL    HW214775   1.389   0.971   9.014  0.5378  0.3048 -0.2055
 1048SOL     OW14776   2.530   4.081   4.147 -0.8351 -0.0999  0.2877
 1048SOL    HW114777   2.520   4.164   4.194 -0.3135  0.1271 -0.0003
 1048SOL    HW214778   2.600   4.107   4.087  0.5690 -1.4779  1.3287
 1049SOL     OW14779   0.809   4.693   4.524 -0.2194  0.4149  0.1935
 1049SOL    HW114780   0.853   4.610   4.545  1.1524  1.2279  0.5124
 1049SOL    HW214781   0.874   0.016   4.558  3.4552 -2.7680 -1.1096
 1050SOL     OW14782   3.835   4.632  12.925  0.1972 -0.2953  0.1607
 1050SOL    HW114783   3.755   4.686  12.924  0.9576  0.8445  1.0740
 1050SOL    HW214784   3.792   4.561  12.878 -0.7746 -0.9673  2.0712
 1051SOL     OW14785   4.151   4.353   7.162 -0.1361  0.2896  0.0122
 1051SOL    HW114786   4.199   4.273   7.138  0.1201  0.6370 -0.6165
 1051SOL    HW214787   4.096   4.369   7.086  0.0672 -0.2130 -0.2389
 1052SOL     OW14788   1.785   2.633  15.080 -0.3453  0.2067  0.4701
 1052SOL    HW114789   1.775   2.727  15.091 -0.2191 -0.0421  2.7449
 1052SOL    HW214790   1.880   2.621  15.086 -0.0157  1.4449 -2.7759
 1053SOL     OW14791   2.347   1.843  10.001  0.6587  0.0757 -0.7183
 1053SOL    HW114792   2.327   1.768   9.946 -1.3397 -0.1214  0.2755
 1053SOL    HW214793   2.317   1.810  10.086 -1.5504  0.0076 -1.5056
 1054SOL     OW14794   3.563   2.710   4.396  0.5675  0.1777 -0.4722
 1054SOL    HW114795   3.647   2.690   4.354  1.6807  1.3104  1.2225
 1054SOL    HW214796   3.596   2.753   4.475 -0.5659  1.6867 -0.8206
 1055SOL     OW14797   4.395   0.247   2.867 -0.3248 -0.2013  0.3614
 1055SOL    HW114798   4.458   0.285   2.806  1.4813 -3.0171  0.4893
 1055SOL    HW214799   4.353   0.325   2.904  0.0716 -1.7423  4.0582
 1056SOL     OW14800   4.330   2.619   1.887  0.0354 -0.3980  0.2100
 1056SOL    HW114801   4.373   2.704   1.878  0.0708 -0.3287  1.1125
 1056SOL    HW214802   4.412   2.573   1.901  0.1957 -0.0350  0.4468
 1057SOL     OW14803   0.361   0.632   8.194  0.1175  0.2442 -0.0334
 1057SOL    HW114804   0.295   0.565   8.214 -0.2235  1.1939  2.0281
 1057SOL    HW214805   0.324   0.707   8.242  0.4534  0.6164 -0.3542
 1058SOL     OW14806   1.020   4.557  13.864  0.4264  0.3914  0.5022
 1058SOL    HW114807   0.974   4.545  13.781 -0.4547  0.8213  0.9218
 1058SOL    HW214808   0.951   4.524  13.923 -0.6692  1.6651 -0.0540
 1059SOL     OW14809   1.539   4.468   7.461  1.0100 -0.0325  0.5068
 1059SOL    HW114810   1.565   4.376   7.457 -0.5744 -0.5321  1.4620
 1059SOL    HW214811   1.547   4.493   7.369 -0.4837 -1.5003 -0.0392
 1060SOL     OW14812   4.499   3.040   9.150 -0.2739 -0.1964  0.0933
 1060SOL    HW114813   4.519   3.024   9.058  0.5827  1.7604 -0.0769
 1060SOL    HW214814   4.445   3.119   9.148  1.2985  0.8982  0.5930
 1061SOL     OW14815   3.298   2.487   3.746 -0.1261 -0.5246  0.0248
 1061SOL    HW114816   3.356   2.413   3.726  1.7929  0.2787  2.7100
 1061SOL    HW214817   3.266   2.516   3.661 -1.4428  0.7815  0.9590
 1062SOL     OW14818   3.989   2.735   3.902  0.3005 -0.2344  0.3862
 1062SOL    HW114819   3.952   2.773   3.823 -1.2815  0.0070  1.2446
 1062SOL    HW214820   3.927   2.667   3.928 -0.2944  1.4728  3.4576
 1063SOL     OW14821   1.166   1.809   8.314  0.0327 -0.4804 -0.2364
 1063SOL    HW114822   1.191   1.737   8.373  0.3664  1.0977  1.5292
 1063SOL    HW214823   1.072   1.796   8.301 -0.3854  0.9820  1.4430
 1064SOL     OW14824   4.534   3.804   3.483  0.1402  0.0753  0.0607
 1064SOL    HW114825   4.496   3.844   3.561 -1.1029  1.5180 -1.2637
 1064SOL    HW214826   4.629   3.798   3.494 -0.0592 -1.1977  1.0103
 1065SOL     OW14827   3.683   3.244   4.875 -0.2753 -0.0259  0.4004
 1065SOL    HW114828   3.727   3.287   4.803  0.7522 -1.3999  0.2138
 1065SOL    HW214829   3.694   3.308   4.946  1.1378  1.4736 -1.1907
 1066SOL     OW14830   0.398   0.913   8.542 -0.8408  0.3412  0.3036
 1066SOL    HW114831   0.422   0.828   8.578 -1.9269  0.4914  1.3675
 1066SOL    HW214832   0.418   0.973   8.614  0.2537  2.7648 -2.0055
 1067SOL     OW14833   3.961   2.105   6.685  0.1919 -0.0841  0.4598
 1067SOL    HW114834   3.870   2.134   6.677  0.0051 -0.9508 -0.4328
 1067SOL    HW214835   3.997   2.138   6.602  1.4132 -0.6875  0.7550
 1068SOL     OW14836   3.244   0.605   8.337  0.4989  0.4114  0.2887
 1068SOL    HW114837   3.238   0.700   8.330  0.8184  0.4121 -0.0026
 1068SOL    HW214838   3.200   0.594   8.252 -0.8296 -0.4019  1.0857
 1069SOL     OW14839   1.368   4.349  14.495 -0.2117 -0.2588  0.5354
 1069SOL    HW114840   1.460   4.368  14.515 -0.6188 -0.7211  2.8568
 1069SOL    HW214841   1.362   4.403  14.416 -2.3095  0.0992  0.9380
 1070SOL     OW14842   0.340   1.115   7.906  0.0832  0.1863  0.0790
 1070SOL    HW114843   0.416   1.090   7.855  0.7319  0.2482  1.0233
 1070SOL    HW214844   0.320   1.196   7.857 -0.4936 -1.4350 -2.3735
 1071SOL     OW14845   0.418   0.028   7.182 -0.6662 -0.1949 -0.5310
 1071SOL    HW114846   0.394   0.105   7.130  0.7284  1.8278  1.8288
 1071SOL    HW214847   0.474   4.718   7.121 -1.1782 -0.6311 -0.6506
 1072SOL     OW14848   3.880   3.532   6.684  0.1937  0.6980  0.1149
 1072SOL    HW114849   3.890   3.590   6.608  2.9201 -1.2930 -1.0783
 1072SOL    HW214850   3.938   3.461   6.655 -0.8819 -0.1852  0.1117
 1073SOL     OW14851   4.380   1.733  17.468  0.2064  0.1611 -0.5455
 1073SOL    HW114852   4.288   1.746  17.445  0.3181 -0.5677 -1.4180
 1073SOL    HW214853   4.387   1.638  17.470 -0.9606  0.0979  0.4678
 1074SOL     OW14854   3.032   0.333   9.448  0.8010  1.2533 -0.1385
 1074SOL    HW114855   3.069   0.265   9.392  0.1955  1.8318 -1.2362
 1074SOL    HW214856   2.952   0.359   9.403 -0.0670  0.0674  0.7315
 1075SOL     OW14857   1.216   0.130   6.816 -0.1908 -0.1907  0.2551
 1075SOL    HW114858   1.312   0.137   6.814 -0.2130 -0.3294 -1.1903
 1075SOL    HW214859   1.201   0.223   6.799 -1.4199 -0.6293 -1.0559
 1076SOL     OW14860   1.963   0.757   6.313 -0.3752 -0.6658  0.4605
 1076SOL    HW114861   2.046   0.710   6.305  0.2037  0.0461  2.3310
 1076SOL    HW214862   1.915   0.711   6.383 -0.7867 -0.2622  0.4453
 1077SOL     OW14863   0.468   2.401  13.560 -0.5262 -0.4020  0.1658
 1077SOL    HW114864   0.457   2.395  13.465 -0.0913 -0.0064  0.0929
 1077SOL    HW214865   0.376   2.393  13.587 -1.0592  1.3969 -1.0851
 1078SOL     OW14866   0.731   3.379   3.176 -0.2810  0.2084  0.5311
 1078SOL    HW114867   0.688   3.457   3.212 -2.2512 -0.8559  0.4564
 1078SOL    HW214868   0.684   3.379   3.092 -2.8710  4.3574  1.9431
 1079SOL     OW14869   1.605   3.593  17.351  0.4751 -0.0494 -0.1114
 1079SOL    HW114870   1.602   3.593  17.447 -0.3774 -1.3051 -0.1328
 1079SOL    HW214871   1.528   3.539  17.334  0.3675  0.0213  0.1461
 1080SOL     OW14872   1.409   0.537   1.946 -0.8299  0.4498 -0.0557
 1080SOL    HW114873   1.395   0.452   1.905 -0.9123  1.1093 -1.3903
 1080SOL    HW214874   1.381   0.599   1.879  1.8115  0.7951 -0.8345
 1081SOL     OW14875   0.539   2.519  15.192  0.5938  0.4558  0.5366
 1081SOL    HW114876   0.565   2.611  15.186  0.8699  0.2766 -0.9835
 1081SOL    HW214877   0.628   2.484  15.187  0.3768  0.3976 -3.2179
 1082SOL     OW14878   0.788   0.326  15.598  0.5769 -0.1778  0.4840
 1082SOL    HW114879   0.795   0.417  15.629 -2.5313  0.3388 -0.3434
 1082SOL    HW214880   0.709   0.322  15.543 -0.1870 -1.3151  1.6525
 1083SOL     OW14881   4.472   3.177  15.074 -0.2389  0.6132 -0.1259
 1083SOL    HW114882   4.396   3.204  15.126 -1.5270  0.9770 -2.1910
 1083SOL    HW214883   4.483   3.084  15.091  0.7437  0.8931  0.7524
 1084SOL     OW14884   0.295   1.874   5.502 -0.2041  0.6973 -0.1147
 1084SOL    HW114885   0.367   1.843   5.448 -0.7043 -1.2947  0.3555
 1084SOL    HW214886   0.220   1.856   5.445 -1.0579 -0.9001  1.4972
 1085SOL     OW14887   0.457   3.024   3.580 -0.1320 -0.0284  0.1869
 1085SOL    HW114888   0.510   3.057   3.507 -0.2010  0.9315  0.5799
 1085SOL    HW214889   0.369   3.031   3.543  0.1779  3.1624  0.0604
 1086SOL     OW14890   0.946   0.071   2.389  0.4974  0.3678  0.6069
 1086SOL    HW114891   0.873   0.121   2.424  0.3932 -0.0980  1.0536
 1086SOL    HW214892   1.009   0.057   2.459 -0.4163  2.5838  1.8799
 1087SOL     OW14893   0.156   2.062   3.519 -0.7924 -0.3417  0.3078
 1087SOL    HW114894   0.098   2.002   3.472  1.1643 -1.4500 -0.6765
 1087SOL    HW214895   0.163   2.131   3.453  0.2415 -0.6550  0.0958
 1088SOL     OW14896   1.749   2.986  12.615  0.4360 -0.6671  0.3072
 1088SOL    HW114897   1.818   3.047  12.590 -0.2363 -0.2229 -0.4780
 1088SOL    HW214898   1.674   3.045  12.607  1.0920  0.3698  1.8944
 1089SOL     OW14899   4.382   0.735   2.109 -0.3295  0.7701 -0.5728
 1089SOL    HW114900   4.397   0.655   2.058 -0.3383  1.5649 -1.8154
 1089SOL    HW214901   4.450   0.732   2.176 -0.1864 -2.3608 -0.8317
 1090SOL     OW14902   4.482   1.019   7.540  0.2422  0.8048 -0.1251
 1090SOL    HW114903   4.545   1.056   7.601 -1.0529 -1.2756  2.4529
 1090SOL    HW214904   4.468   0.935   7.583  0.9863 -0.1217 -1.6952
 1091SOL     OW14905   1.905   0.146   7.196  0.0021 -0.2432  0.1421
 1091SOL    HW114906   1.999   0.153   7.182  0.4328  0.1949  3.2571
 1091SOL    HW214907   1.886   0.240   7.197 -1.1612 -0.4845  0.2696
 1092SOL     OW14908   4.484   1.905   9.447 -0.0816  0.3080 -0.2419
 1092SOL    HW114909   4.530   1.829   9.412 -0.1472  0.3030 -0.3156
 1092SOL    HW214910   4.398   1.874   9.418 -0.2664 -1.4106  2.0741
 1093SOL     OW14911   3.740   1.593  14.226 -0.2291  0.0788 -0.0486
 1093SOL    HW114912   3.692   1.620  14.305  1.2614 -1.9452  1.5493
 1093SOL    HW214913   3.683   1.522  14.198 -1.8152  0.9805  0.8678
 1094SOL     OW14914   2.289   4.016  17.316 -0.0072  0.1554  0.2392
 1094SOL    HW114915   2.351   3.994  17.386 -0.5718 -0.5182  0.5322
 1094SOL    HW214916   2.327   4.092  17.273 -1.7923  0.9516  0.0817
 1095SOL     OW14917   4.458   4.234   5.384 -0.2615  0.3858  0.7526
 1095SOL    HW114918   4.522   4.187   5.331  0.3252  1.6296  0.3747
 1095SOL    HW214919   4.393   4.164   5.395 -0.8009  0.3697 -2.5947
 1096SOL     OW14920   0.724   0.002  11.462 -0.5630  0.2588 -0.4773
 1096SOL    HW114921   0.741   4.726  11.556 -2.2720  3.0445  0.2262
 1096SOL    HW214922   0.629   0.011  11.465 -0.5345 -0.2349  2.8411
 1097SOL     OW14923   1.508   4.435  12.710 -0.1703  0.3013  0.4012
 1097SOL    HW114924   1.588   4.486  12.722 -0.2693  0.6501 -0.4560
 1097SOL    HW214925   1.490   4.402  12.798 -0.3857  1.9809  0.9902
 1098SOL     OW14926   1.763   3.045  13.429 -0.2796  0.7577 -0.2352
 1098SOL    HW114927   1.784   3.002  13.346  2.5524 -0.3194  1.0563
 1098SOL    HW214928   1.853   3.058  13.460 -0.4782 -0.4214  0.8201
 1099SOL     OW14929   0.877   2.221   2.982 -0.5855  0.0604  0.1376
 1099SOL    HW114930   0.941   2.237   3.052 -1.4977  0.8240  0.7881
 1099SOL    HW214931   0.935   2.202   2.908  1.1944  0.0959  1.5315
 1100SOL     OW14932   3.887   2.041   4.957  0.2080  0.2254 -0.4243
 1100SOL    HW114933   3.825   2.114   4.958  0.3015  0.3374 -1.8259
 1100SOL    HW214934   3.940   2.074   4.885  1.1359 -1.6505 -0.5966
 1101SOL     OW14935   0.076   1.842   5.328  0.2494 -0.0721 -0.6034
 1101SOL    HW114936   4.730   1.810   5.295  0.1108 -0.6805  0.3388
 1101SOL    HW214937   0.131   1.830   5.251 -0.1067 -2.5483 -0.4542
 1102SOL     OW14938   1.507   2.288   4.736  0.2870  0.4923  0.0644
 1102SOL    HW114939   1.575   2.355   4.734  0.1585  0.5900 -0.8025
 1102SOL    HW214940   1.433   2.332   4.693  0.7725 -0.6446 -1.9214
 1103SOL     OW14941   3.599   1.103   7.989 -0.0700 -0.3788 -0.2509
 1103SOL    HW114942   3.653   1.153   8.050 -0.9625  1.0035 -0.5649
 1103SOL    HW214943   3.664   1.053   7.939  1.0201  0.2479  0.5439
 1104SOL     OW14944   0.659   1.115  12.332  0.5861  1.0478  0.2415
 1104SOL    HW114945   0.714   1.055  12.281  0.2319  0.0407  1.0421
 1104SOL    HW214946   0.582   1.064  12.306  0.6869  1.5290 -1.0185
 1105SOL     OW14947   1.372   0.913   7.016  0.1430 -0.1652  0.1921
 1105SOL    HW114948   1.438   0.976   7.045 -1.0401  2.2877 -2.4537
 1105SOL    HW214949   1.425   0.851   6.966  0.8408 -0.2732  1.0688
 1106SOL     OW14950   0.220   0.623   5.233  0.1046 -0.6679  0.0227
 1106SOL    HW114951   0.236   0.536   5.195 -0.7582 -0.7024 -0.2638
 1106SOL    HW214952   0.299   0.629   5.286  0.1071 -0.3895 -0.0123
 1107SOL     OW14953   3.165   2.879   4.237  0.1832  0.5079  0.2988
 1107SOL    HW114954   3.087   2.833   4.269 -0.8435  1.7216 -0.5098
 1107SOL    HW214955   3.216   2.810   4.195 -2.0913 -1.3138  0.5079
 1108SOL     OW14956   4.039   1.831  16.583 -0.2793  0.2306  0.2727
 1108SOL    HW114957   3.991   1.862  16.506 -0.0958 -2.3252 -0.9000
 1108SOL    HW214958   4.050   1.919  16.617  2.2232 -0.2585  0.7160
 1109SOL     OW14959   3.465   2.043   8.263 -0.1529 -0.2312 -0.0273
 1109SOL    HW114960   3.414   1.989   8.324 -0.0019  0.4327  0.6922
 1109SOL    HW214961   3.442   2.132   8.292 -0.4512 -1.2700  2.9063
 1110SOL     OW14962   1.721   1.935   4.871  0.0463  0.1865 -0.0298
 1110SOL    HW114963   1.661   1.998   4.912 -2.1914 -0.1488 -2.8152
 1110SOL    HW214964   1.741   1.974   4.786 -0.0159  2.7039  1.1215
 1111SOL     OW14965   4.170   1.475  17.679  0.1735 -0.4270 -0.0616
 1111SOL    HW114966   4.259   1.492  17.650  0.2609  0.9272  0.9970
 1111SOL    HW214967   4.197   1.410  17.744 -0.0095  0.2423  0.6987
 1112SOL     OW14968   2.317   2.602  14.606 -0.0547 -0.8468 -0.1497
 1112SOL    HW114969   2.242   2.557  14.567  0.5249  0.3594 -2.6509
 1112SOL    HW214970   2.362   2.655  14.541  0.1209 -1.0120 -0.1618
 1113SOL     OW14971   4.317   3.813   3.306  0.0880 -0.0053  0.0401
 1113SOL    HW114972   4.242   3.788   3.359 -1.0711  0.0237 -1.5758
 1113SOL    HW214973   4.389   3.798   3.368  0.6899 -0.0102 -0.6552
 1114SOL     OW14974   4.471   2.582   6.557  1.0841  0.0377  0.3075
 1114SOL    HW114975   4.462   2.593   6.652  0.2282  0.1083  0.2183
 1114SOL    HW214976   4.383   2.562   6.526  0.2977  2.5926  0.8725
 1115SOL     OW14977   0.812   3.800   7.024  0.3428 -0.4671  0.7711
 1115SOL    HW114978   0.765   3.750   6.957  0.1057 -0.3133  0.8234
 1115SOL    HW214979   0.749   3.872   7.034  0.1161 -0.2630 -2.0572
 1116SOL     OW14980   4.297   4.397   5.161  0.3029  0.1040 -0.4610
 1116SOL    HW114981   4.334   4.438   5.083  0.4552  0.9687  0.0547
 1116SOL    HW214982   4.203   4.405   5.148  0.1596 -1.6290 -0.4229
 1117SOL     OW14983   0.152   0.672  12.690  0.2589  0.4572  0.4211
 1117SOL    HW114984   0.094   0.604  12.725 -0.2302  1.4813  1.6306
 1117SOL    HW214985   0.227   0.619  12.664 -0.7785 -0.9572  0.3304
 1118SOL     OW14986   2.583   1.205  11.204 -0.4247  0.3215  0.4020
 1118SOL    HW114987   2.591   1.241  11.292  0.2602  1.0742  0.0281
 1118SOL    HW214988   2.489   1.210  11.184  0.3466 -3.0393 -4.0487
 1119SOL     OW14989   3.063   4.105   9.370  0.1297  0.0699  0.2418
 1119SOL    HW114990   2.981   4.056   9.372  0.2106 -0.1875 -2.9736
 1119SOL    HW214991   3.097   4.102   9.459 -3.2890  0.4549  1.5672
 1120SOL     OW14992   0.820   0.598   7.036 -0.4171 -0.5914  0.0984
 1120SOL    HW114993   0.814   0.525   7.098 -0.3923  0.7088  1.6538
 1120SOL    HW214994   0.785   0.664   7.096  0.0078  0.5816 -0.9567
 1121SOL     OW14995   1.735   0.038  16.129  0.1424 -0.2362  0.4013
 1121SOL    HW114996   1.674   0.109  16.145  3.1136  2.2886  0.5573
 1121SOL    HW214997   1.799   0.056  16.198 -1.8946 -0.3486  2.2841
 1122SOL     OW14998   2.833   3.813  12.396  0.2538 -0.0040 -0.3791
 1122SOL    HW114999   2.848   3.866  12.474 -0.8424  0.9928 -0.8514
 1122SOL    HW215000   2.818   3.729  12.439  1.4747 -0.1540 -0.2486
 1123SOL     OW15001   0.063   0.298   3.509  0.6871 -0.3056 -0.3731
 1123SOL    HW115002   0.006   0.253   3.572 -0.8062  0.4409 -1.1959
 1123SOL    HW215003   0.054   0.246   3.429 -1.4102  1.2760 -1.1791
 1124SOL     OW15004   3.071   3.020   8.150 -0.2506  0.0945 -0.3200
 1124SOL    HW115005   3.026   3.060   8.075  0.8072  0.0893 -0.9624
 1124SOL    HW215006   3.010   2.954   8.184  1.2164 -1.6566 -1.1113
 1125SOL     OW15007   4.432   0.238   4.423 -0.0596 -0.1328  0.3529
 1125SOL    HW115008   4.367   0.307   4.439  2.3904  2.5543 -1.2429
 1125SOL    HW215009   4.374   0.162   4.427  0.6200 -0.6421  0.5155
 1126SOL     OW15010   4.676   0.557   5.780  0.0769  0.3332  0.1274
 1126SOL    HW115011   0.019   0.511   5.759  1.5562  1.9018  2.4204
 1126SOL    HW215012   4.621   0.539   5.703 -0.7909  0.6617  0.6771
 1127SOL     OW15013   4.420   4.657   3.673 -0.2828  0.0283  0.4187
 1127SOL    HW115014   4.466   4.671   3.591  1.2881  1.6013  1.5785
 1127SOL    HW215015   4.475   4.713   3.727  0.5231 -0.8219  0.4824
 1128SOL     OW15016   0.111   4.029  10.468 -0.6532  0.1925  0.1673
 1128SOL    HW115017   0.147   4.059  10.551 -1.3838 -0.8422  0.8622
 1128SOL    HW215018   0.183   4.058  10.412 -0.1132 -1.6118 -0.0434
 1129SOL     OW15019   1.066   4.478   7.461  0.0766 -0.0637  0.4236
 1129SOL    HW115020   1.135   4.412   7.467  0.8084  0.8079  1.7229
 1129SOL    HW215021   1.118   4.536   7.406 -0.4074  0.0927  0.1249
 1130SOL     OW15022   2.929   2.049   3.085 -0.1078  0.1798 -0.1727
 1130SOL    HW115023   2.871   2.033   3.159 -1.5069 -1.0271 -1.5345
 1130SOL    HW215024   2.953   1.962   3.053 -1.5401 -0.6108  0.9662
 1131SOL     OW15025   0.823   0.652  10.330 -1.2682  0.0114 -0.3102
 1131SOL    HW115026   0.771   0.687  10.257  0.5225 -0.8382 -2.0167
 1131SOL    HW215027   0.906   0.699  10.322 -1.7306  0.9649  0.5520
 1132SOL     OW15028   1.746   0.736   8.204 -0.0367 -0.1310  0.1207
 1132SOL    HW115029   1.691   0.661   8.181 -0.2906 -0.4747  1.8338
 1132SOL    HW215030   1.820   0.691   8.244  0.1562 -0.5304 -0.6879
 1133SOL     OW15031   1.384   0.774   7.607  0.0898 -0.1535  0.3517
 1133SOL    HW115032   1.394   0.678   7.606  2.7503  0.1542 -2.0214
 1133SOL    HW215033   1.382   0.803   7.516  2.5776  0.2873  0.4361
 1134SOL     OW15034   1.668   4.106   2.674  0.5757 -0.2942  0.0104
 1134SOL    HW115035   1.704   4.074   2.591  1.5921 -1.1267  0.7787
 1134SOL    HW215036   1.607   4.033   2.680  0.3459 -0.1941 -1.1010
 1135SOL     OW15037   2.222   4.048   3.323 -0.4627  0.0169  0.0517
 1135SOL    HW115038   2.200   4.079   3.235 -3.8931 -2.5830 -0.0401
 1135SOL    HW215039   2.279   3.973   3.310 -1.4210 -0.4349 -1.5090
 1136SOL     OW15040   3.827   0.236   5.737 -0.3427  0.4337  0.1281
 1136SOL    HW115041   3.901   0.235   5.797 -0.7007 -1.0684  0.5409
 1136SOL    HW215042   3.817   0.141   5.735  0.6221  0.3878 -2.1902
 1137SOL     OW15043   3.423   0.690   7.349  0.2071 -0.1316  0.4988
 1137SOL    HW115044   3.388   0.602   7.336  2.3503 -0.7406 -1.0992
 1137SOL    HW215045   3.413   0.695   7.444  1.2611  0.0270  0.5989
 1138SOL     OW15046   2.065   4.333  15.061  0.0611 -0.4128  0.2106
 1138SOL    HW115047   2.128   4.267  15.090 -0.0841  0.2842  2.0569
 1138SOL    HW215048   2.108   4.413  15.089 -1.8415  0.6653  0.0168
 1139SOL     OW15049   1.394   0.209   9.517  0.6102 -0.1664  0.2645
 1139SOL    HW115050   1.470   0.253   9.480  0.3949 -1.6169 -1.9116
 1139SOL    HW215051   1.423   0.119   9.532  1.2740 -0.1251 -0.7903
 1140SOL     OW15052   1.836   0.598   2.454  0.1762 -0.4583 -0.1560
 1140SOL    HW115053   1.791   0.671   2.497 -0.4881 -0.2787 -1.1641
 1140SOL    HW215054   1.761   0.547   2.425 -0.8370  1.4203 -0.8699
 1141SOL     OW15055   1.279   4.198   1.454 -0.5425 -0.3281 -0.1603
 1141SOL    HW115056   1.289   4.292   1.473 -0.0788 -0.6571  1.2395
 1141SOL    HW215057   1.362   4.162   1.484 -0.7197 -0.7833 -0.2257
 1142SOL     OW15058   4.580   1.465   8.068 -0.3776  0.5438  0.1638
 1142SOL    HW115059   4.565   1.549   8.026 -0.5655  1.2543  1.6585
 1142SOL    HW215060   4.490   1.435   8.060  0.2081 -0.9965 -0.8292
 1143SOL     OW15061   3.717   1.444  13.136  0.0383  0.1946  0.0099
 1143SOL    HW115062   3.760   1.490  13.064 -0.3679 -1.2273 -1.1467
 1143SOL    HW215063   3.624   1.464  13.125  0.3104  0.9600 -0.9420
 1144SOL     OW15064   1.623   4.422   4.628  0.5230  0.4339  0.3639
 1144SOL    HW115065   1.699   4.473   4.657  1.0033  0.4205 -0.8668
 1144SOL    HW215066   1.629   4.351   4.691 -1.0033 -0.6099 -0.6632
 1145SOL     OW15067   1.740   2.668   5.688  0.3741 -0.5155  0.6210
 1145SOL    HW115068   1.717   2.734   5.623  0.9393  1.0950  2.0750
 1145SOL    HW215069   1.834   2.662   5.699  0.7855  1.5951 -1.7695
 1146SOL     OW15070   0.339   3.163  14.816  0.0361 -0.1110 -0.1805
 1146SOL    HW115071   0.337   3.229  14.746 -0.7560 -1.4159 -1.3770
 1146SOL    HW215072   0.283   3.202  14.884 -1.4136  1.7989 -2.4369
 1147SOL     OW15073   4.028   3.310   2.369 -1.0454 -0.0289  0.0817
 1147SOL    HW115074   4.063   3.377   2.427  0.8759 -2.0345  1.2542
 1147SOL    HW215075   4.072   3.227   2.385 -0.7494 -0.1219 -1.1994
 1148SOL     OW15076   3.090   2.615   1.844  0.3490 -0.1018 -0.2028
 1148SOL    HW115077   3.115   2.583   1.758 -0.5232  1.2993 -0.9671
 1148SOL    HW215078   3.005   2.569   1.847  1.1450 -1.4801  1.2779
 1149SOL     OW15079   3.931   3.899   7.500  0.5647 -0.1412  0.1922
 1149SOL    HW115080   3.853   3.890   7.554  1.0086  1.0828  1.0311
 1149SOL    HW215081   3.906   3.941   7.418  3.7793  0.3338 -0.5270
 1150SOL     OW15082   2.288   1.387   3.581 -0.3292 -0.0523 -0.4126
 1150SOL    HW115083   2.257   1.466   3.624  2.4111  1.4687 -1.2200
 1150SOL    HW215084   2.304   1.413   3.490 -1.2763  1.1095 -0.2433
 1151SOL     OW15085   4.436   2.265   7.187 -0.2007  0.3697  0.0380
 1151SOL    HW115086   4.361   2.219   7.225  0.7697 -0.7189  0.6061
 1151SOL    HW215087   4.422   2.240   7.096 -1.1086 -2.6884  1.0424
 1152SOL     OW15088   1.797   3.349   3.209  0.3440  0.3927 -0.3779
 1152SOL    HW115089   1.709   3.318   3.230 -0.1493  1.4137 -0.9819
 1152SOL    HW215090   1.779   3.357   3.116  0.2786  1.5393 -0.2674
 1153SOL     OW15091   1.300   1.411  11.809 -0.2685  0.2846  0.0085
 1153SOL    HW115092   1.364   1.481  11.822 -0.5156  0.6762 -0.9262
 1153SOL    HW215093   1.313   1.338  11.871  2.7571  0.9922  0.2135
 1154SOL     OW15094   2.591   3.739  17.054  0.8334 -0.4084  0.2670
 1154SOL    HW115095   2.555   3.704  16.973 -0.1113  3.6550 -1.0567
 1154SOL    HW215096   2.513   3.779  17.092  1.6929 -0.1299  1.7403
 1155SOL     OW15097   0.486   2.618   2.354 -0.2682 -0.5227  0.0087
 1155SOL    HW115098   0.493   2.584   2.265  0.8706  0.9900 -0.4859
 1155SOL    HW215099   0.577   2.639   2.376 -0.9284 -0.2553  2.5176
 1156SOL     OW15100   2.490   4.514   8.330  0.5377  0.1937 -0.1496
 1156SOL    HW115101   2.442   4.592   8.359  0.8214  0.4191 -0.2875
 1156SOL    HW215102   2.439   4.483   8.254 -0.3303 -1.4842  1.1153
 1157SOL     OW15103   1.595   0.701  14.334  0.0094 -0.1846  0.5753
 1157SOL    HW115104   1.633   0.638  14.273  0.1614 -0.0774  0.5612
 1157SOL    HW215105   1.595   0.785  14.290  1.7203 -0.7451 -0.4771
 1158SOL     OW15106   4.569   1.340   3.572 -0.2600  0.2184 -0.2573
 1158SOL    HW115107   4.613   1.422   3.597  0.4227  0.1266 -1.1219
 1158SOL    HW215108   4.601   1.283   3.641  0.9336 -0.6239 -1.4974
 1159SOL     OW15109   0.116   3.026   7.411 -0.1152  0.7295  0.2734
 1159SOL    HW115110   0.149   2.949   7.457 -0.3327 -0.3582 -1.3826
 1159SOL    HW215111   0.183   3.021   7.342  1.1775  0.7455  1.5171
 1160SOL     OW15112   1.699   4.292   7.084 -0.2200 -0.0345  0.1661
 1160SOL    HW115113   1.764   4.326   7.145 -1.1147  1.1798  0.4491
 1160SOL    HW215114   1.641   4.254   7.150 -0.1351 -1.7235 -0.7337
 1161SOL     OW15115   2.534   3.882   5.143  0.4821  0.2194 -0.2511
 1161SOL    HW115116   2.459   3.827   5.165  2.8239 -3.2469 -0.9142
 1161SOL    HW215117   2.530   3.964   5.193 -0.6882  1.7517 -2.8436
 1162SOL     OW15118   0.693   0.330   4.980 -0.2946  0.4971 -0.2216
 1162SOL    HW115119   0.645   0.412   4.970  0.3802  0.6469 -2.2974
 1162SOL    HW215120   0.690   0.298   4.890  1.0601 -0.1666 -0.0284
 1163SOL     OW15121   0.257   3.977   3.617 -0.8254  0.8748  0.2284
 1163SOL    HW115122   0.309   3.916   3.668 -0.3533 -1.2366 -2.8060
 1163SOL    HW215123   0.314   4.053   3.628  1.2386 -0.3008 -2.2684
 1164SOL     OW15124   1.755   2.161   3.649 -0.6262 -0.0813 -0.4625
 1164SOL    HW115125   1.743   2.067   3.644  1.4283 -0.3847  0.3477
 1164SOL    HW215126   1.677   2.172   3.703  0.7648  0.2025  1.4605
 1165SOL     OW15127   2.244   3.033  13.499 -0.2419 -0.0704 -0.5445
 1165SOL    HW115128   2.270   2.995  13.416  1.9587  1.9134 -0.7785
 1165SOL    HW215129   2.243   3.128  13.482  0.8834 -0.0349 -0.3789
 1166SOL     OW15130   2.903   4.522  16.633  0.1261 -0.1852  0.7717
 1166SOL    HW115131   2.821   4.491  16.672 -0.5575 -1.4486 -1.6576
 1166SOL    HW215132   2.884   4.611  16.603 -1.8753 -1.1662 -0.8586
 1167SOL     OW15133   0.751   2.071   5.261 -0.6383 -0.0008  0.4810
 1167SOL    HW115134   0.832   2.117   5.284 -1.2351 -0.2777  3.0997
 1167SOL    HW215135   0.696   2.149   5.264  2.0827  2.0885 -2.9200
 1168SOL     OW15136   0.986   3.609   5.680 -0.2048  0.5178  0.1766
 1168SOL    HW115137   0.941   3.693   5.667  0.7472  1.0829  0.5141
 1168SOL    HW215138   1.077   3.640   5.684  0.7991 -2.4118  0.3975
 1169SOL     OW15139   1.748   0.506   2.012  0.7612 -0.2351 -0.2402
 1169SOL    HW115140   1.677   0.456   2.051  0.6111  0.1738  0.0101
 1169SOL    HW215141   1.809   0.433   2.021  2.6943  1.5424  1.2849
 1170SOL     OW15142   2.220   0.334   7.733 -0.2186 -0.0062 -0.3993
 1170SOL    HW115143   2.264   0.403   7.682  1.4671 -1.0324 -0.3446
 1170SOL    HW215144   2.127   0.354   7.724  0.1827  1.6072 -1.0910
 1171SOL     OW15145   2.554   2.519   8.708  0.4327  0.5168 -0.0187
 1171SOL    HW115146   2.605   2.453   8.755 -0.9799 -0.8403 -0.3951
 1171SOL    HW215147   2.606   2.598   8.721  0.0542  1.3435 -3.4623
 1172SOL     OW15148   2.812   0.071   4.792  0.3285 -0.7189  0.2508
 1172SOL    HW115149   2.850   0.158   4.801 -1.3600  0.0274  0.1697
 1172SOL    HW215150   2.880   0.039   4.732  1.2260  2.6000 -0.4913
 1173SOL     OW15151   0.568   4.681   8.253 -0.2427  0.0225  0.1388
 1173SOL    HW115152   0.563   4.698   8.347  0.2746 -1.1893  0.3913
 1173SOL    HW215153   0.567   4.585   8.261  0.3613 -0.0841 -1.0599
 1174SOL     OW15154   3.604   1.062   4.067  0.3639  0.2016  0.1774
 1174SOL    HW115155   3.562   1.073   4.152  1.9856  0.0405  1.0021
 1174SOL    HW215156   3.681   1.017   4.101  1.0749  3.0618  2.3284
 1175SOL     OW15157   2.218   1.514  13.800 -0.0332  0.3331  0.0018
 1175SOL    HW115158   2.279   1.501  13.873 -2.0883 -2.4835  1.2489
 1175SOL    HW215159   2.170   1.583  13.846 -0.7818 -0.0612 -0.1939
 1176SOL     OW15160   3.746   0.010   8.340  0.1516  0.1764  0.4099
 1176SOL    HW115161   3.748   4.661   8.298  1.1354  0.3885  0.0167
 1176SOL    HW215162   3.660   0.044   8.314  1.0535  0.7774 -1.8366
 1177SOL     OW15163   2.449   0.680   5.317  0.2105  0.0106  0.0328
 1177SOL    HW115164   2.496   0.763   5.303  1.2434 -0.3479  1.3214
 1177SOL    HW215165   2.521   0.619   5.335 -0.8883 -1.0241  0.8678
 1178SOL     OW15166   3.277   1.047   5.030  0.0429 -0.0094  0.8336
 1178SOL    HW115167   3.325   0.980   5.079  0.1896 -1.7140 -1.6201
 1178SOL    HW215168   3.236   1.001   4.956 -0.1035 -1.0374  1.5527
 1179SOL     OW15169   1.413   3.621   5.261  0.8626  0.3054 -0.5421
 1179SOL    HW115170   1.431   3.682   5.333  0.9057  0.6130 -0.8152
 1179SOL    HW215171   1.440   3.540   5.303 -0.2750  1.3875  2.2873
 1180SOL     OW15172   2.274   3.328   1.833  0.3160  0.8339  0.1263
 1180SOL    HW115173   2.203   3.377   1.793  1.3192  1.1839 -1.2380
 1180SOL    HW215174   2.218   3.261   1.872 -0.3970  1.6039  0.3994
 1181SOL     OW15175   0.419   1.250   9.321 -0.1352  0.0512 -0.5720
 1181SOL    HW115176   0.337   1.238   9.274  0.4728 -0.4063 -1.5188
 1181SOL    HW215177   0.440   1.164   9.357 -0.3243  0.0106 -0.5591
 1182SOL     OW15178   0.362   3.444   8.634 -0.3098  0.0181 -0.2190
 1182SOL    HW115179   0.347   3.375   8.699 -0.3632  1.7280  1.5744
 1182SOL    HW215180   0.428   3.499   8.677  0.0295 -0.0098 -0.7115
 1183SOL     OW15181   0.078   1.245   0.712  0.3658 -0.3795  0.2867
 1183SOL    HW115182   0.056   1.262   0.804 -1.8109 -1.4690 -0.0290
 1183SOL    HW215183   0.091   1.151   0.723  1.3469 -0.0980  1.5724
 1184SOL     OW15184   2.876   3.395   5.369  0.3932 -0.3585 -0.0644
 1184SOL    HW115185   2.953   3.452   5.371  0.1829 -0.0965  0.3839
 1184SOL    HW215186   2.859   3.386   5.462  2.2320 -1.1348  0.1966
 1185SOL     OW15187   3.047   4.457   1.370 -0.2672  0.3358  0.2864
 1185SOL    HW115188   3.032   4.504   1.452  3.9777 -1.1532  1.9203
 1185SOL    HW215189   3.045   4.365   1.397  1.6100  0.4906  0.9467
 1186SOL     OW15190   1.300   3.488   2.247 -0.4620 -0.2828 -0.2694
 1186SOL    HW115191   1.283   3.398   2.274 -0.6570 -0.6669 -1.6542
 1186SOL    HW215192   1.236   3.502   2.177 -0.1647 -0.5539 -0.5988
 1187SOL     OW15193   3.793   3.314   7.712 -0.2000 -0.2666  0.2813
 1187SOL    HW115194   3.781   3.224   7.742 -3.1766 -0.0683 -0.2764
 1187SOL    HW215195   3.854   3.293   7.642  0.3734  0.7045  0.4965
 1188SOL     OW15196   2.339   3.282  14.609 -0.5553  0.3227  0.2211
 1188SOL    HW115197   2.297   3.208  14.565 -1.5504  1.6878 -1.1461
 1188SOL    HW215198   2.281   3.304  14.682  1.1356 -1.3473  2.0312
 1189SOL     OW15199   2.232   0.775   3.792  0.3728 -0.2118  0.4857
 1189SOL    HW115200   2.142   0.752   3.766  0.0819  1.0986  0.3389
 1189SOL    HW215201   2.282   0.750   3.715  0.2822 -1.5443  0.8561
 1190SOL     OW15202   2.204   0.637   7.731 -0.4065  0.0300 -0.4045
 1190SOL    HW115203   2.181   0.694   7.805  0.5065 -0.7382  0.4784
 1190SOL    HW215204   2.273   0.685   7.685 -1.1644  1.5056 -0.0185
 1191SOL     OW15205   2.043   2.496   8.049  0.0695 -0.4830 -0.2361
 1191SOL    HW115206   2.006   2.570   8.001 -0.4894 -1.0179 -0.6421
 1191SOL    HW215207   2.135   2.520   8.058  0.7117 -2.4449 -1.5487
 1192SOL     OW15208   4.649   1.663   9.646 -0.7633 -0.5445  0.6493
 1192SOL    HW115209   4.591   1.732   9.678 -0.8510  0.7423 -2.3361
 1192SOL    HW215210   4.638   1.672   9.552  0.1879  1.6668  0.7444
 1193SOL     OW15211   2.662   3.382   7.950  0.0164  0.0424  0.4471
 1193SOL    HW115212   2.664   3.477   7.963 -0.3324  0.1815 -0.5369
 1193SOL    HW215213   2.721   3.382   7.875 -0.2141 -1.1624  0.2728
 1194SOL     OW15214   0.073   4.070   8.241  0.4143  0.1668  0.3454
 1194SOL    HW115215   0.003   4.023   8.286  0.1231 -0.1793 -0.4835
 1194SOL    HW215216   0.051   4.042   8.153 -0.1452  1.2471  0.1400
 1195SOL     OW15217   0.367   0.073  12.443 -0.3175  0.1053  0.0826
 1195SOL    HW115218   0.378   4.724  12.405 -0.4598 -1.0947  2.7994
 1195SOL    HW215219   0.335   0.051  12.530 -0.2336  1.0104  0.3404
 1196SOL     OW15220   2.217   2.703  15.984  0.1275 -0.5198  0.2125
 1196SOL    HW115221   2.289   2.672  15.928  0.1128  0.6935 -0.4778
 1196SOL    HW215222   2.264   2.707  16.067  1.9278 -0.8492 -0.7638
 1197SOL     OW15223   2.038   4.072  11.105 -0.2449  0.2246  0.3776
 1197SOL    HW115224   2.019   4.103  11.016  1.3503  1.0100  0.3082
 1197SOL    HW215225   1.979   4.129  11.153 -3.3114 -0.6036 -2.4034
 1198SOL     OW15226   3.932   4.453   3.496 -0.1798  0.6390 -0.0568
 1198SOL    HW115227   3.997   4.524   3.499 -1.3544  1.7909 -1.9151
 1198SOL    HW215228   3.851   4.491   3.462 -0.4579  0.3134  0.2451
 1199SOL     OW15229   4.121   4.669   6.469 -0.2155 -0.6379 -0.1647
 1199SOL    HW115230   4.061   4.660   6.543  1.4396  0.6688  1.3575
 1199SOL    HW215231   4.052   4.683   6.404  0.2039 -2.0268 -0.9289
 1200SOL     OW15232   4.634   0.612   2.001  0.2882 -0.0170  0.7759
 1200SOL    HW115233   4.696   0.555   1.956 -0.9145  0.5271 -1.5590
 1200SOL    HW215234   4.551   0.563   1.997 -0.7732  2.1006 -2.8946
 1201SOL     OW15235   0.000   0.229  12.025 -0.9933  0.0380 -0.0385
 1201SOL    HW115236   4.668   0.291  12.006 -1.5989 -0.6060  0.0732
 1201SOL    HW215237   4.689   0.149  12.045 -3.4507  1.5603  0.0020
 1202SOL     OW15238   3.109   0.030   6.520  0.1981  0.0322 -0.1543
 1202SOL    HW115239   3.189   4.722   6.494 -0.1205  0.8308 -2.5325
 1202SOL    HW215240   3.045   4.700   6.543  1.3320 -1.2339 -0.6939
 1203SOL     OW15241   0.499   4.232  12.273  0.0281  0.4606 -0.1407
 1203SOL    HW115242   0.585   4.252  12.235  0.3197  0.4298  0.5137
 1203SOL    HW215243   0.480   4.140  12.251 -0.0116  0.5548 -0.5055
 1204SOL     OW15244   0.598   4.669   2.445  0.0829 -0.1667 -0.5160
 1204SOL    HW115245   0.627   4.681   2.535 -1.0100 -0.2841 -0.1462
 1204SOL    HW215246   0.601   0.020   2.409 -0.8800 -0.9518 -2.5448
 1205SOL     OW15247   4.723   4.011   8.969  0.1366  0.1605 -0.2471
 1205SOL    HW115248   0.027   3.995   8.885  2.2221  1.1813  0.5956
 1205SOL    HW215249   4.663   4.086   8.960 -2.0925 -1.1267  3.6272
 1206SOL     OW15250   2.717   3.089   7.656 -0.1043  0.4536 -0.4259
 1206SOL    HW115251   2.674   3.004   7.661 -0.5151  0.6202 -1.2102
 1206SOL    HW215252   2.714   3.116   7.748  2.5107 -0.3418 -0.0906
 1207SOL     OW15253   1.488   1.959   7.137 -0.8736 -0.6133 -0.1445
 1207SOL    HW115254   1.531   1.874   7.127  0.9028  0.3843 -0.9462
 1207SOL    HW215255   1.441   1.960   7.053 -2.4649 -0.2156  0.7437
 1208SOL     OW15256   1.036   0.201   8.386  0.0095  0.3477 -0.7980
 1208SOL    HW115257   0.994   0.121   8.418  1.0232  0.5907  1.1414
 1208SOL    HW215258   0.993   0.269   8.437 -2.7723 -1.2884 -0.9642
 1209SOL     OW15259   2.568   2.698   4.700 -0.6178 -0.5087  0.0167
 1209SOL    HW115260   2.599   2.752   4.627  1.2105  0.5161  1.5642
 1209SOL    HW215261   2.564   2.614   4.654  2.8852 -1.0345  0.7144
 1210SOL     OW15262   1.017   0.215   3.943 -0.3399 -0.0273 -0.1399
 1210SOL    HW115263   1.109   0.193   3.952 -0.1618  0.4395 -0.7978
 1210SOL    HW215264   0.997   0.169   4.024  2.0830 -2.2873 -0.8353
 1211SOL     OW15265   0.171   0.055   8.895  0.2484 -0.6028 -0.5999
 1211SOL    HW115266   0.105   0.096   8.951 -0.6107 -2.1948 -0.4523
 1211SOL    HW215267   0.115   0.043   8.818  0.7963 -0.5728 -0.9979
 1212SOL     OW15268   3.589   3.880   5.117  0.2582  0.3438  0.1590
 1212SOL    HW115269   3.618   3.960   5.161  1.9363 -1.1052  1.6880
 1212SOL    HW215270   3.568   3.821   5.190 -1.2367 -1.4660 -1.7689
 1213SOL     OW15271   3.549   3.790  10.292 -0.1609  0.0432 -0.0376
 1213SOL    HW115272   3.523   3.700  10.311  1.2292 -0.1060  1.1534
 1213SOL    HW215273   3.623   3.802  10.353 -2.1042  0.0629  2.3057
 1214SOL     OW15274   2.772   0.142   1.840 -0.0823 -0.0986 -0.0622
 1214SOL    HW115275   2.733   0.117   1.757  0.5409 -0.6827 -0.1723
 1214SOL    HW215276   2.773   0.059   1.887  0.0814  0.8437  1.6259
 1215SOL     OW15277   4.685   2.511   7.628 -0.7132  0.5586  0.3188
 1215SOL    HW115278   4.589   2.502   7.622 -0.6577  0.4389 -0.3733
 1215SOL    HW215279   4.685   2.602   7.657 -0.3143  0.2040  1.4487
 1216SOL     OW15280   3.598   4.073   9.014 -0.0119  0.7424  0.0170
 1216SOL    HW115281   3.519   4.117   8.984  1.2197  2.8210 -0.1214
 1216SOL    HW215282   3.650   4.058   8.936 -0.0743 -0.1961  0.1506
 1217SOL     OW15283   2.161   0.440   2.194 -0.1916  0.5233 -0.3261
 1217SOL    HW115284   2.122   0.492   2.124 -1.3498 -1.0977 -0.8782
 1217SOL    HW215285   2.140   0.349   2.175 -0.6679  0.2223  1.6817
 1218SOL     OW15286   0.054   3.913  14.598 -0.7631  0.6870  0.7322
 1218SOL    HW115287   0.126   3.865  14.559 -1.6534 -1.8868  2.2700
 1218SOL    HW215288   0.085   4.004  14.604 -1.0407  0.9356 -1.5914
 1219SOL     OW15289   0.674   1.698   9.338 -0.2814 -0.6161  0.0684
 1219SOL    HW115290   0.580   1.713   9.351 -0.2950 -0.1832 -0.5269
 1219SOL    HW215291   0.669   1.610   9.302  0.3065 -0.6475  0.0656
 1220SOL     OW15292   3.428   0.013  12.561  0.0093  0.1679  0.0067
 1220SOL    HW115293   3.431   4.738  12.656 -1.8125 -1.0468 -0.1081
 1220SOL    HW215294   3.521   0.025  12.545  0.3184  0.4943  2.1108
 1221SOL     OW15295   2.051   0.648  12.323 -0.3480 -0.6944 -0.2728
 1221SOL    HW115296   2.143   0.638  12.349 -0.4006  1.3891  0.6639
 1221SOL    HW215297   2.058   0.707  12.248 -0.6499 -0.0997  0.1712
 1222SOL     OW15298   0.266   2.929   8.105  0.1248 -0.8666 -0.3038
 1222SOL    HW115299   0.354   2.909   8.072 -0.2880 -0.5382 -1.6139
 1222SOL    HW215300   0.221   2.960   8.026  0.8245 -0.1808 -0.4400
 1223SOL     OW15301   4.093   3.340  12.741 -0.6749  0.6764  0.3366
 1223SOL    HW115302   4.186   3.331  12.719 -0.6374 -0.5547  0.9799
 1223SOL    HW215303   4.074   3.246  12.736  0.4777  0.4078  1.1851
 1224SOL     OW15304   1.735   0.005  17.512 -0.3708 -0.8746  0.3570
 1224SOL    HW115305   1.719   4.659  17.468 -1.5722 -1.3532  1.7182
 1224SOL    HW215306   1.733   0.073  17.444  0.7617  2.0288  3.2700
 1225SOL     OW15307   1.526   4.242   3.015  0.1078 -0.6428 -0.4540
 1225SOL    HW115308   1.572   4.259   2.933  0.3700 -0.5455 -0.2854
 1225SOL    HW215309   1.445   4.212   2.974 -0.7243  0.9895  0.0005
 1226SOL     OW15310   1.955   1.393  13.784  0.4145  0.0159  0.5677
 1226SOL    HW115311   1.991   1.377  13.697 -0.6937  0.6593 -0.0062
 1226SOL    HW215312   2.034   1.431  13.821  0.1430  1.2144 -0.0981
 1227SOL     OW15313   1.112   0.494   4.230 -0.1510 -0.1881 -0.3375
 1227SOL    HW115314   1.147   0.431   4.293  0.5287  1.6800  1.1952
 1227SOL    HW215315   1.187   0.525   4.180  1.5875 -3.1376  0.4558
 1228SOL     OW15316   0.146   2.127   2.661 -0.2488  0.2254 -0.4671
 1228SOL    HW115317   0.141   2.033   2.677 -1.6288  0.7722  2.2955
 1228SOL    HW215318   0.228   2.127   2.611 -1.8084  2.2606 -3.0295
 1229SOL     OW15319   0.985   1.774   0.778 -0.4435 -0.2137  0.1794
 1229SOL    HW115320   0.992   1.686   0.740  2.8475  0.1775 -0.1572
 1229SOL    HW215321   1.032   1.824   0.712  2.4317 -0.7342  1.8170
 1230SOL     OW15322   0.539   1.103   7.704 -0.0431 -0.0278  0.1744
 1230SOL    HW115323   0.538   1.183   7.650  0.1626 -1.1404 -1.4825
 1230SOL    HW215324   0.633   1.093   7.720  0.2029 -1.0568 -1.8930
 1231SOL     OW15325   1.888   4.568   1.157 -0.3021 -0.1909 -0.2040
 1231SOL    HW115326   1.950   4.547   1.227  1.8986  1.9217 -1.5042
 1231SOL    HW215327   1.953   4.584   1.089 -0.2763  0.2270 -0.0796
 1232SOL     OW15328   1.305   4.520   6.245 -0.1457 -0.0081  0.9038
 1232SOL    HW115329   1.267   4.541   6.330  2.6907  0.7460  1.9725
 1232SOL    HW215330   1.229   4.500   6.189 -0.2434 -1.7866  1.6688
 1233SOL     OW15331   4.296   1.676   6.283  0.0725 -0.5651 -0.0351
 1233SOL    HW115332   4.326   1.601   6.336 -1.6294 -0.4902  1.0377
 1233SOL    HW215333   4.215   1.639   6.250 -0.5293  1.3845 -0.6900
 1234SOL     OW15334   3.136   4.287   0.912  0.0120 -0.3563 -0.4363
 1234SOL    HW115335   3.129   4.316   1.003  2.6914 -0.9327 -0.0516
 1234SOL    HW215336   3.161   4.373   0.877 -0.5744  0.2863  0.6991
 1235SOL     OW15337   2.891   2.780   5.639 -0.1680 -0.3214 -0.2463
 1235SOL    HW115338   2.925   2.756   5.553  0.6213  1.0872 -0.3353
 1235SOL    HW215339   2.800   2.754   5.625 -0.5253 -0.7418  2.8617
 1236SOL     OW15340   1.193   0.725  17.510 -0.2146 -0.4559 -0.0020
 1236SOL    HW115341   1.282   0.692  17.498  0.0844 -0.2924  1.8978
 1236SOL    HW215342   1.197   0.805  17.457 -1.0358 -1.4764 -1.6185
 1237SOL     OW15343   1.093   4.094   1.264  0.5588 -0.2965 -0.3557
 1237SOL    HW115344   1.146   4.014   1.273 -1.4229 -1.6401 -0.5650
 1237SOL    HW215345   1.158   4.154   1.301  0.5542 -0.6153  0.1720
 1238SOL     OW15346   3.206   2.065   5.899  0.4760  0.3064  0.0054
 1238SOL    HW115347   3.219   1.981   5.856  1.3027  0.2252  0.4223
 1238SOL    HW215348   3.249   2.122   5.834 -1.0205  2.3245  0.7910
 1239SOL     OW15349   0.772   0.015   3.877  0.0911  0.1369 -0.2341
 1239SOL    HW115350   0.762   0.107   3.901  0.5024 -0.0695  0.7396
 1239SOL    HW215351   0.681   4.727   3.888 -0.1453  1.7902  1.7581
 1240SOL     OW15352   4.345   1.823   7.286  0.3789  0.3823 -0.0538
 1240SOL    HW115353   4.408   1.761   7.322  0.0598  0.8065  1.2470
 1240SOL    HW215354   4.398   1.903   7.284  0.1599  0.4363 -3.1985
 1241SOL     OW15355   1.962   0.506  15.006 -0.0234 -0.2901 -0.1746
 1241SOL    HW115356   1.974   0.466  14.920 -0.4837 -1.5954  0.3708
 1241SOL    HW215357   2.004   0.440  15.062  0.6146  1.0947  0.9695
 1242SOL     OW15358   2.443   3.445   8.375  0.4883  0.1022 -0.7259
 1242SOL    HW115359   2.483   3.527   8.347 -0.8705  1.3463  1.0021
 1242SOL    HW215360   2.359   3.453   8.330 -0.1315 -0.1518  0.3802
 1243SOL     OW15361   4.243   0.066  12.688  0.1446 -0.2764  0.1493
 1243SOL    HW115362   4.169   0.072  12.748  0.0748  2.9336 -0.2591
 1243SOL    HW215363   4.188   0.035  12.615 -0.8735 -0.3030  0.9241
 1244SOL     OW15364   0.997   2.128   4.440  0.4213  0.0076  0.4965
 1244SOL    HW115365   1.054   2.140   4.516 -0.8681 -0.2428  1.4944
 1244SOL    HW215366   0.914   2.148   4.482 -0.1003  1.1591 -1.1111
 1245SOL     OW15367   3.554   1.625  11.471 -0.0574  0.3850 -0.2626
 1245SOL    HW115368   3.554   1.532  11.493  1.3161  0.8309  1.6249
 1245SOL    HW215369   3.548   1.627  11.375  1.7897 -2.3115 -0.4357
 1246SOL     OW15370   1.036   0.232  16.523 -0.4726  0.0069  0.5003
 1246SOL    HW115371   1.056   0.248  16.431  1.4054 -0.0746  0.9013
 1246SOL    HW215372   1.070   0.312  16.563  2.3609 -1.3124  0.7038
 1247SOL     OW15373   0.830   1.732   8.276  0.1687  0.1449 -0.2744
 1247SOL    HW115374   0.803   1.815   8.236  0.0189 -0.0166 -0.5111
 1247SOL    HW215375   0.748   1.687   8.294  0.4789  0.0390  0.8328
 1248SOL     OW15376   1.150   2.830   7.654  0.3082 -0.2687  0.2261
 1248SOL    HW115377   1.167   2.807   7.745 -1.3821  0.7224  0.7790
 1248SOL    HW215378   1.211   2.904   7.640 -1.1295  1.0230  0.8412
 1249SOL     OW15379   4.158   0.800   2.928 -0.2727  0.1006  0.7457
 1249SOL    HW115380   4.228   0.764   2.875 -0.2894  0.6553  0.3477
 1249SOL    HW215381   4.130   0.878   2.879  1.3698  0.9258  1.1299
 1250SOL     OW15382   3.286   1.810  14.393  0.3815  0.0188  0.0898
 1250SOL    HW115383   3.228   1.886  14.400  0.4508  0.0421  0.4232
 1250SOL    HW215384   3.234   1.751  14.338  2.0815 -1.0517 -0.4110
 1251SOL     OW15385   2.633   2.116  16.104 -0.0211 -0.1993  0.0830
 1251SOL    HW115386   2.669   2.191  16.152  1.4420 -1.5329  1.0380
 1251SOL    HW215387   2.561   2.154  16.053  0.0272  2.0394  1.6828
 1252SOL     OW15388   3.940   3.807   1.955  0.4820 -0.2341 -0.3964
 1252SOL    HW115389   3.956   3.816   2.049 -0.2497  0.5989 -0.3495
 1252SOL    HW215390   4.009   3.850   1.906  0.7709 -0.9401 -0.6052
 1253SOL     OW15391   3.567   0.158  14.537  0.4130 -0.0473  0.2652
 1253SOL    HW115392   3.553   0.099  14.463 -0.9901 -0.0710  0.5492
 1253SOL    HW215393   3.613   0.106  14.602  0.1741  0.3967  0.7894
 1254SOL     OW15394   0.676   2.085  12.689 -0.3531  0.1516 -0.3255
 1254SOL    HW115395   0.674   1.999  12.646  0.1105 -1.0112  1.9370
 1254SOL    HW215396   0.647   2.065  12.778 -1.4906  0.7375 -0.5705
 1255SOL     OW15397   2.674   4.514   8.686 -0.1452 -0.3063 -0.2040
 1255SOL    HW115398   2.636   4.477   8.606  0.6285  0.3987 -0.9054
 1255SOL    HW215399   2.706   4.436   8.731  0.4491 -0.2568 -0.5278
 1256SOL     OW15400   3.152   0.239   7.060 -0.5237  0.5718  0.3488
 1256SOL    HW115401   3.081   0.303   7.058 -0.8916  0.1730  0.4652
 1256SOL    HW215402   3.217   0.291   7.014 -1.8365 -0.3960 -2.6400
 1257SOL     OW15403   2.070   2.202   4.969  0.0565  0.2988  0.1889
 1257SOL    HW115404   2.129   2.197   4.894  0.2285  0.5345  0.3066
 1257SOL    HW215405   2.061   2.113   5.001  1.4249  0.4385  0.9558
 1258SOL     OW15406   2.612   2.154  13.258  0.5569  0.1062 -0.1992
 1258SOL    HW115407   2.634   2.239  13.220  0.3542 -0.2179 -1.0405
 1258SOL    HW215408   2.648   2.088  13.199 -2.1945 -0.5166 -1.1709
 1259SOL     OW15409   4.048   3.061  14.142 -0.3154  0.1426  0.1162
 1259SOL    HW115410   4.060   3.026  14.054 -0.8377 -1.1171  0.5542
 1259SOL    HW215411   4.051   2.985  14.199  0.7516 -0.8108 -1.2273
 1260SOL     OW15412   1.658   1.969   2.710 -0.1322  0.1926  0.6099
 1260SOL    HW115413   1.738   1.983   2.659 -0.1119 -0.1295  0.5581
 1260SOL    HW215414   1.642   2.057   2.744  2.6541  0.3499  1.5338
 1261SOL     OW15415   3.265   3.625   1.928  0.1977  0.3935  0.4508
 1261SOL    HW115416   3.339   3.589   1.878  0.3701  0.0673  0.9453
 1261SOL    HW215417   3.258   3.707   1.878  1.3028  2.1424  3.1590
 1262SOL     OW15418   2.637   4.064   7.305  0.3111  0.0205 -0.3429
 1262SOL    HW115419   2.631   4.105   7.219  0.3100  0.4692 -0.1310
 1262SOL    HW215420   2.646   3.970   7.293 -1.4551 -0.1734 -0.2527
 1263SOL     OW15421   3.548   1.552  12.815 -0.1928  0.4955  0.7090
 1263SOL    HW115422   3.506   1.491  12.876 -0.7238 -0.3306 -0.4746
 1263SOL    HW215423   3.504   1.634  12.838 -0.1294  0.7342 -0.0202
 1264SOL     OW15424   1.896   0.185   2.856  0.6573 -0.4363 -0.1392
 1264SOL    HW115425   1.898   0.276   2.828  2.6509 -1.5130 -3.5861
 1264SOL    HW215426   1.811   0.164   2.893  0.0283  2.2007 -0.0913
 1265SOL     OW15427   4.044   3.798  16.663  0.1318 -0.7593 -0.0699
 1265SOL    HW115428   4.096   3.750  16.600  0.6968  0.3467 -0.4499
 1265SOL    HW215429   4.013   3.742  16.734 -1.3692  0.1621  0.0064
 1266SOL     OW15430   0.769   2.147  15.380  0.7364  0.1444  0.6922
 1266SOL    HW115431   0.801   2.057  15.376  2.6422  0.8302  0.7284
 1266SOL    HW215432   0.675   2.133  15.391  0.5419  0.5093 -0.5111
 1267SOL     OW15433   3.064   2.821   0.349  0.5939  0.5088  0.2554
 1267SOL    HW115434   3.079   2.821   0.255  0.2735 -0.3729  0.1977
 1267SOL    HW215435   3.148   2.858   0.375  0.7363  0.3259  0.0577
 1268SOL     OW15436   3.740   0.567   7.163  0.1446 -0.3880 -0.4399
 1268SOL    HW115437   3.664   0.604   7.118  1.7675  1.0380 -2.0229
 1268SOL    HW215438   3.809   0.615   7.116 -0.1447 -1.3687 -1.8584
 1269SOL     OW15439   0.010   1.687  16.228  0.0578  0.3302 -0.0470
 1269SOL    HW115440   0.097   1.699  16.188  0.6176 -2.0263  0.4772
 1269SOL    HW215441   4.693   1.683  16.150  1.0161 -0.0026 -0.7150
 1270SOL     OW15442   2.789   1.147  16.014  0.3693 -0.0065  0.1307
 1270SOL    HW115443   2.766   1.205  15.941  0.5538  1.8521  1.5669
 1270SOL    HW215444   2.883   1.143  16.026  0.7836  0.4833 -2.8602
 1271SOL     OW15445   2.985   1.632  10.084 -0.4621  0.8057  0.5576
 1271SOL    HW115446   2.917   1.692  10.114 -2.8916 -2.1485  0.9632
 1271SOL    HW215447   3.041   1.620  10.160 -0.3313  0.5445  0.4216
 1272SOL     OW15448   3.341   3.598   2.844  0.0778 -0.5358 -0.0980
 1272SOL    HW115449   3.294   3.520   2.812 -1.7355  0.6575 -0.3645
 1272SOL    HW215450   3.321   3.607   2.937  0.0651  0.2587 -0.1802
 1273SOL     OW15451   1.447   3.980   1.762 -0.2810 -0.2653 -0.1325
 1273SOL    HW115452   1.478   3.998   1.673 -0.2089  1.8169  0.3166
 1273SOL    HW215453   1.405   4.060   1.792  0.7058  0.4104 -0.5326
 1274SOL     OW15454   3.749   1.356   4.752 -0.3297  0.3066 -0.1669
 1274SOL    HW115455   3.775   1.431   4.698 -0.5636  1.1145  0.8426
 1274SOL    HW215456   3.681   1.312   4.700 -0.1537 -0.6536  0.4146
 1275SOL     OW15457   0.778   0.020   7.460  0.0777 -0.0685  0.1077
 1275SOL    HW115458   0.737   4.725   7.539 -1.9969  0.2820 -0.8381
 1275SOL    HW215459   0.831   0.090   7.500 -0.2325 -0.2452  0.8285
 1276SOL     OW15460   4.034   0.173   3.486 -0.7206 -0.0777  0.0110
 1276SOL    HW115461   3.988   0.121   3.420 -1.2012 -0.3460  0.5626
 1276SOL    HW215462   3.973   0.247   3.488 -0.3452  0.2045  0.7370
 1277SOL     OW15463   3.581   4.320   3.675 -0.2098 -0.3857 -0.1352
 1277SOL    HW115464   3.497   4.290   3.641  0.5119 -0.7654 -1.5871
 1277SOL    HW215465   3.622   4.248   3.722  1.2564 -1.3167 -2.8125
 1278SOL     OW15466   0.930   2.509   7.671  0.4520 -0.5070 -0.2457
 1278SOL    HW115467   0.971   2.433   7.632 -0.8105 -1.4737  0.3158
 1278SOL    HW215468   0.964   2.579   7.615  3.2913 -1.2498  0.5379
 1279SOL     OW15469   2.529   2.184   8.761  0.2455  0.4010  0.1494
 1279SOL    HW115470   2.576   2.128   8.824 -0.5244  0.9031  1.1714
 1279SOL    HW215471   2.497   2.246   8.826 -0.7518  0.6591 -0.5899
 1280SOL     OW15472   4.068   1.597   5.646  0.1310  0.4950  0.3535
 1280SOL    HW115473   4.005   1.669   5.651  0.3779  0.9513 -2.7965
 1280SOL    HW215474   4.147   1.637   5.610  1.2183 -1.0669  0.9808
 1281SOL     OW15475   4.137   0.765   1.415  0.2145  0.3201 -0.5189
 1281SOL    HW115476   4.080   0.818   1.360  1.4607  0.8703 -1.2738
 1281SOL    HW215477   4.181   0.710   1.350 -0.2323  1.1232 -1.4863
 1282SOL     OW15478   2.052   2.560   6.720 -0.0886  0.0371  0.2629
 1282SOL    HW115479   1.998   2.639   6.710  0.7356  0.6616  0.6876
 1282SOL    HW215480   2.014   2.502   6.655  1.7369  1.1932 -1.8144
 1283SOL     OW15481   0.475   0.179   5.766  0.0570  0.0477  0.3231
 1283SOL    HW115482   0.554   0.134   5.738  0.3684  0.4433  0.5734
 1283SOL    HW215483   0.508   0.268   5.755  0.5240 -0.1728 -0.0575
 1284SOL     OW15484   4.502   4.338   8.637  0.3989 -0.6568 -0.0009
 1284SOL    HW115485   4.597   4.351   8.627  0.0843  1.7568  0.0693
 1284SOL    HW215486   4.500   4.248   8.605  1.2100  0.0214 -1.9210
 1285SOL     OW15487   2.108   0.834   7.445  0.2213 -0.5266  0.2937
 1285SOL    HW115488   2.152   0.854   7.362  0.2534  3.3925  1.3067
 1285SOL    HW215489   2.184   0.856   7.499  0.8676  2.5250 -1.8867
 1286SOL     OW15490   3.734   3.189   5.289  0.1054 -0.4502 -0.1400
 1286SOL    HW115491   3.797   3.237   5.236 -0.7297 -0.0785 -0.7880
 1286SOL    HW215492   3.671   3.260   5.298  1.0199  0.5584 -1.9087
 1287SOL     OW15493   1.241   1.337   6.787  0.1028  0.5688  0.3260
 1287SOL    HW115494   1.164   1.394   6.790 -0.1086  0.3688 -1.0426
 1287SOL    HW215495   1.275   1.368   6.703  1.0276 -1.5843 -0.1080
 1288SOL     OW15496   2.284   3.473   2.795 -0.4540  0.2133 -0.2451
 1288SOL    HW115497   2.265   3.563   2.822  1.0721 -0.1693  2.1138
 1288SOL    HW215498   2.318   3.499   2.709 -1.2792  0.6372 -0.4448
 1289SOL     OW15499   4.255   0.396   4.654  0.3292  0.0195  0.0506
 1289SOL    HW115500   4.275   0.462   4.720  0.3683 -2.9846  3.0149
 1289SOL    HW215501   4.285   0.319   4.702 -1.5138 -1.3723 -1.0435
 1290SOL     OW15502   2.096   3.047   7.325 -0.8319  0.2756 -0.5595
 1290SOL    HW115503   2.004   3.063   7.305 -1.4086 -1.0298  0.9864
 1290SOL    HW215504   2.139   3.125   7.292 -0.5182 -0.6592 -2.3614
 1291SOL     OW15505   2.649   0.713   2.421  0.8218  0.0999 -0.1672
 1291SOL    HW115506   2.636   0.643   2.485 -1.6026 -0.4285 -1.2709
 1291SOL    HW215507   2.594   0.687   2.347 -1.1395  1.9156  0.6582
 1292SOL     OW15508   1.271   3.648   5.024  0.1252 -0.2153  0.2041
 1292SOL    HW115509   1.194   3.611   5.068 -0.1579  0.0763 -0.0502
 1292SOL    HW215510   1.320   3.674   5.102 -0.9183 -1.2006  1.1988
 1293SOL     OW15511   1.208   0.999  14.477 -0.1647  0.3248 -0.1283
 1293SOL    HW115512   1.272   0.931  14.458 -2.2207 -1.3387 -1.1552
 1293SOL    HW215513   1.269   1.071  14.496  0.4535 -0.0659 -0.6503
 1294SOL     OW15514   3.346   4.486   3.493 -0.0868  0.5584 -0.1314
 1294SOL    HW115515   3.313   4.565   3.535 -2.3604 -1.2175  1.4511
 1294SOL    HW215516   3.284   4.427   3.534 -2.5002  1.6868 -2.1162
 1295SOL     OW15517   3.516   3.866   8.629 -0.4910 -0.0550  0.0028
 1295SOL    HW115518   3.481   3.805   8.564 -0.5584 -0.5142  0.4770
 1295SOL    HW215519   3.436   3.882   8.679  0.6436  0.1850  1.7405
 1296SOL     OW15520   1.851   3.887   2.500 -0.0501  0.1619 -0.2940
 1296SOL    HW115521   1.910   3.956   2.528  0.6102  0.1553 -1.6763
 1296SOL    HW215522   1.845   3.896   2.405 -2.7487 -0.1543 -0.1716
 1297SOL     OW15523   1.252   2.002  11.933  0.6002 -0.6569 -0.3643
 1297SOL    HW115524   1.197   2.004  11.854  0.1227  2.3851  0.0592
 1297SOL    HW215525   1.298   1.920  11.917  0.1877 -0.7973 -0.8259
 1298SOL     OW15526   4.595   2.191   9.993  0.0261  0.0580  0.3214
 1298SOL    HW115527   4.598   2.109   9.944 -1.0936  1.1073 -1.4925
 1298SOL    HW215528   4.673   2.235   9.960  0.4591  0.3132  1.6827
 1299SOL     OW15529   0.313   1.705  11.927 -0.7225  0.4273 -0.3764
 1299SOL    HW115530   0.342   1.659  12.006 -1.5916 -0.4415 -0.5746
 1299SOL    HW215531   0.331   1.793  11.961  0.7244  0.2476 -0.6427
 1300SOL     OW15532   3.710   3.618   6.241  0.0694 -0.2923 -0.1264
 1300SOL    HW115533   3.684   3.527   6.227  1.8948 -0.7755 -0.3930
 1300SOL    HW215534   3.635   3.657   6.286 -0.2649  1.0820 -1.8801
 1301SOL     OW15535   2.311   0.330   2.814 -0.5348 -0.5004 -0.2935
 1301SOL    HW115536   2.329   0.423   2.797  0.8638 -0.4455  1.5283
 1301SOL    HW215537   2.400   0.295   2.816  0.1542  1.3117  0.7745
 1302SOL     OW15538   0.643   1.216   2.955 -0.6918 -0.3901 -0.2448
 1302SOL    HW115539   0.655   1.217   2.860 -1.4149 -2.0283 -0.3540
 1302SOL    HW215540   0.709   1.282   2.975 -0.8176 -0.5195  0.5696
 1303SOL     OW15541   4.073   1.682  16.996  0.5616  0.0102 -0.8503
 1303SOL    HW115542   4.061   1.622  17.069 -1.9461 -0.0236 -1.2933
 1303SOL    HW215543   4.044   1.764  17.036 -0.8381 -1.0271  0.2717
 1304SOL     OW15544   3.278   3.504   6.364 -0.2466 -0.1119 -0.6430
 1304SOL    HW115545   3.255   3.414   6.340  0.7331 -0.1744 -1.3484
 1304SOL    HW215546   3.367   3.496   6.399 -0.9245  0.0748  1.1531
 1305SOL     OW15547   3.377   0.875   1.575 -0.2588 -1.0951  0.3040
 1305SOL    HW115548   3.460   0.883   1.621 -0.6312 -2.7986  1.3060
 1305SOL    HW215549   3.375   0.967   1.549  0.7348 -1.7041 -1.9214
 1306SOL     OW15550   0.849   3.862   6.540 -0.4140  0.3786  0.0205
 1306SOL    HW115551   0.857   3.768   6.526  0.9230  0.1652  2.0769
 1306SOL    HW215552   0.914   3.868   6.611  0.4038  0.3184 -0.7162
 1307SOL     OW15553   1.557   1.521   2.839 -0.7000 -0.2822  0.1718
 1307SOL    HW115554   1.530   1.603   2.797 -1.2887 -1.2748 -1.3748
 1307SOL    HW215555   1.534   1.551   2.927 -0.3303  1.6376 -0.3670
 1308SOL     OW15556   2.589   0.976  12.999  0.3282  0.4674  0.0659
 1308SOL    HW115557   2.632   0.927  12.929 -1.6027 -1.2261  0.0354
 1308SOL    HW215558   2.595   0.905  13.063  2.0136 -0.3740 -1.0227
 1309SOL     OW15559   2.452   1.918   1.785  0.4065 -0.0627 -0.2274
 1309SOL    HW115560   2.469   1.913   1.879  1.3089  1.0643 -0.3353
 1309SOL    HW215561   2.506   1.847   1.749  0.4069 -1.4008  2.4197
 1310SOL     OW15562   2.142   4.241   3.639  0.6156 -0.2863 -0.1962
 1310SOL    HW115563   2.196   4.267   3.714  0.8431 -0.3329 -0.3420
 1310SOL    HW215564   2.194   4.240   3.558  2.4503  1.8286  0.9601
 1311SOL     OW15565   3.901   3.823   6.211  0.1638  0.3960 -0.1201
 1311SOL    HW115566   3.851   3.748   6.179  0.3828 -0.1350  0.7667
 1311SOL    HW215567   3.912   3.804   6.305  1.8795  0.1609 -0.3828
 1312SOL     OW15568   2.611   3.539   1.395  0.1268 -0.3750  0.0442
 1312SOL    HW115569   2.692   3.526   1.345  0.4220 -1.1490  0.7160
 1312SOL    HW215570   2.554   3.496   1.332  1.3880  1.1569 -2.1650
 1313SOL     OW15571   3.170   3.073   1.616  0.1309 -0.5021 -0.1534
 1313SOL    HW115572   3.081   3.044   1.638  0.3024 -0.9979 -0.1319
 1313SOL    HW215573   3.152   3.099   1.526 -1.7749  0.2879  0.4598
 1314SOL     OW15574   1.056   0.760  11.119  0.0009  0.5524 -0.5695
 1314SOL    HW115575   0.980   0.734  11.171  0.0355  0.5610 -0.5153
 1314SOL    HW215576   1.118   0.694  11.147 -1.5490 -0.0710  1.3961
 1315SOL     OW15577   3.995   4.464   4.897  0.2382  0.3014 -0.1485
 1315SOL    HW115578   4.077   4.422   4.874 -1.4155 -2.3965 -1.1171
 1315SOL    HW215579   4.000   4.465   4.993  3.5665 -2.2397 -0.2821
 1316SOL     OW15580   2.008   3.187   4.398 -0.1430 -0.8461 -0.1545
 1316SOL    HW115581   2.056   3.270   4.397 -1.6350  0.0156 -0.4076
 1316SOL    HW215582   1.924   3.220   4.431 -0.0677  0.8190 -1.6412
 1317SOL     OW15583   1.520   1.214  14.302  0.3122 -0.5610 -0.8290
 1317SOL    HW115584   1.427   1.235  14.306 -0.0787 -2.6656  1.5931
 1317SOL    HW215585   1.565   1.288  14.261  0.1241  1.5242  2.7547
 1318SOL     OW15586   1.450   2.430  13.847 -0.4854 -0.4576  0.7452
 1318SOL    HW115587   1.366   2.477  13.846  0.0515  0.4651 -2.1954
 1318SOL    HW215588   1.459   2.398  13.757 -1.4983  2.2128 -0.3157
 1319SOL     OW15589   2.125   3.900  12.044  0.7202  0.0480  0.6285
 1319SOL    HW115590   2.204   3.849  12.026 -0.4131 -1.2937 -0.5585
 1319SOL    HW215591   2.151   3.989  12.065  1.3903 -0.2269  0.9819
 1320SOL     OW15592   2.014   1.679   2.012 -0.5419 -0.2031  0.1952
 1320SOL    HW115593   1.951   1.751   2.008 -0.4320 -0.0716  0.8509
 1320SOL    HW215594   2.102   1.716   2.018  0.3756 -2.2926 -0.4529
 1321SOL     OW15595   3.266   4.678   3.865  0.4471 -0.1839  0.2318
 1321SOL    HW115596   3.319   0.018   3.850  2.4487 -1.8125 -1.2489
 1321SOL    HW215597   3.215   4.717   3.936 -1.6564  0.8022 -1.8387
 1322SOL     OW15598   2.940   3.068  16.765  0.4610  0.3162 -0.3497
 1322SOL    HW115599   2.873   3.100  16.704  1.4209  1.3720 -0.8608
 1322SOL    HW215600   3.011   3.057  16.701 -0.2301  1.1950 -1.2716
 1323SOL     OW15601   4.487   2.536   7.236 -0.1620  0.0186  0.0866
 1323SOL    HW115602   4.468   2.442   7.237 -0.9799  0.2011  1.0664
 1323SOL    HW215603   4.401   2.575   7.249 -0.4480  0.4389 -3.2126
 1324SOL     OW15604   1.278   0.983   2.507  0.0585 -0.0425  0.4368
 1324SOL    HW115605   1.343   0.920   2.478  0.8036 -0.6330  3.3953
 1324SOL    HW215606   1.309   1.001   2.596 -2.1926  5.0625  0.2099
 1325SOL     OW15607   0.144   3.224   5.141  0.5279  0.2227  0.3717
 1325SOL    HW115608   0.113   3.315   5.134 -0.2813 -0.1204 -0.5129
 1325SOL    HW215609   0.195   3.225   5.222  0.7699 -0.4224  0.2209
 1326SOL     OW15610   2.641   0.247   9.356  0.4834  0.6488 -0.3237
 1326SOL    HW115611   2.705   0.176   9.357  1.5753  1.6630  1.2276
 1326SOL    HW215612   2.693   0.310   9.307 -1.6485  3.0410  0.4769
 1327SOL     OW15613   2.246   1.498   3.037 -0.3355 -0.2393  0.2834
 1327SOL    HW115614   2.301   1.480   2.961  1.3228  1.6787  1.0234
 1327SOL    HW215615   2.175   1.558   3.014  0.5537  1.2644  1.4508
 1328SOL     OW15616   4.325   4.125   5.002  0.3440 -0.3576 -0.2936
 1328SOL    HW115617   4.273   4.082   5.070 -1.5269  1.1777 -0.7298
 1328SOL    HW215618   4.334   4.206   5.052  0.5813 -0.7350  0.2725
 1329SOL     OW15619   2.236   2.505  12.659 -0.0595 -0.0612  0.1471
 1329SOL    HW115620   2.196   2.577  12.610  1.9117  1.1766  0.3837
 1329SOL    HW215621   2.155   2.454  12.663  0.1407 -0.4273 -0.5182
 1330SOL     OW15622   3.524   2.311  10.335 -0.1281 -0.2271 -0.6165
 1330SOL    HW115623   3.485   2.250  10.398  1.9857 -1.6899 -0.7218
 1330SOL    HW215624   3.488   2.267  10.258  0.3621  0.0021 -0.9749
 1331SOL     OW15625   2.806   0.979  11.849 -0.3090  0.2548  0.5824
 1331SOL    HW115626   2.879   1.041  11.839 -0.9051  0.5586 -2.0028
 1331SOL    HW215627   2.744   1.027  11.903  0.7204  1.5544  0.6312
 1332SOL     OW15628   1.669   0.282   3.050  0.5162 -0.1240  0.1557
 1332SOL    HW115629   1.662   0.333   2.969 -1.8594  1.3138  1.2621
 1332SOL    HW215630   1.738   0.333   3.093  0.2748 -0.2142  0.6514
 1333SOL     OW15631   2.474   2.300   4.181 -0.7411  0.6587  0.4047
 1333SOL    HW115632   2.543   2.330   4.122  1.0719 -0.2235  2.0843
 1333SOL    HW215633   2.409   2.353   4.135  0.2961 -0.1816 -2.0481
 1334SOL     OW15634   0.187   2.562   6.987  0.0119 -0.3252 -0.3126
 1334SOL    HW115635   0.111   2.505   6.991  0.1563 -0.4392  0.6714
 1334SOL    HW215636   0.240   2.533   6.912  1.8942  0.1875  0.8268
 1335SOL     OW15637   1.575   2.669   8.881  0.2600 -0.1372  0.7684
 1335SOL    HW115638   1.635   2.598   8.906  0.5445  0.2690  1.2533
 1335SOL    HW215639   1.616   2.743   8.925 -0.6999 -0.3862  2.0839
 1336SOL     OW15640   1.698   3.547  10.169  0.3773  0.5751 -0.7268
 1336SOL    HW115641   1.658   3.525  10.253  2.2045  2.2087  0.5647
 1336SOL    HW215642   1.747   3.470  10.139  0.2707 -0.1705  0.9647
 1337SOL     OW15643   4.118   1.974   2.555  0.1416  0.1164 -0.4239
 1337SOL    HW115644   4.060   2.039   2.595  1.8846  1.9309 -0.8086
 1337SOL    HW215645   4.184   1.953   2.621 -1.8440  2.5004  2.3345
 1338SOL     OW15646   4.332   4.274   2.214 -0.1346  0.3376  0.4180
 1338SOL    HW115647   4.337   4.363   2.250 -3.2362  0.7396 -0.1068
 1338SOL    HW215648   4.236   4.268   2.212 -0.2290  1.4364  1.1802
 1339SOL     OW15649   1.500   0.412   8.767 -0.2240 -0.0877  0.7006
 1339SOL    HW115650   1.588   0.438   8.739  0.3381 -0.9264  1.7019
 1339SOL    HW215651   1.451   0.485   8.729  0.5281  1.2150  2.2498
 1340SOL     OW15652   2.233   3.324   4.132  0.9826  0.4768  0.6136
 1340SOL    HW115653   2.203   3.357   4.047  0.0642 -2.7578 -0.2992
 1340SOL    HW215654   2.207   3.389   4.197  0.0956  0.0466  0.6807
 1341SOL     OW15655   2.896   2.964   1.623 -0.6706  0.0077  0.1574
 1341SOL    HW115656   2.833   2.921   1.680 -0.2014 -0.8245  0.0433
 1341SOL    HW215657   2.865   2.934   1.537 -1.7887  0.9893  0.2221
 1342SOL     OW15658   0.119   2.693  17.338  0.3546 -0.0851  0.0642
 1342SOL    HW115659   0.070   2.636  17.278  1.4132 -0.3640 -0.5355
 1342SOL    HW215660   0.169   2.753  17.283 -0.2996  1.1897  0.8587
 1343SOL     OW15661   2.473   0.876   2.574 -0.6243 -0.3120  0.1245
 1343SOL    HW115662   2.535   0.850   2.506 -1.2151  1.1940 -0.9801
 1343SOL    HW215663   2.504   0.825   2.649  2.5086  1.7227  0.1834
 1344SOL     OW15664   3.974   1.011   3.251 -0.0923  0.5402 -1.0340
 1344SOL    HW115665   3.995   1.095   3.293 -1.2886  0.1535  0.3675
 1344SOL    HW215666   4.058   0.970   3.230 -0.9343 -0.0216 -3.3029
 1345SOL     OW15667   3.544   4.410   1.142 -0.6175 -0.0715 -0.1139
 1345SOL    HW115668   3.601   4.444   1.211  0.2441 -0.1815 -0.7739
 1345SOL    HW215669   3.514   4.493   1.104 -2.2182 -0.9952 -0.8230
 1346SOL     OW15670   3.523   1.798   1.184  0.5279 -0.0510 -0.0551
 1346SOL    HW115671   3.443   1.746   1.193 -1.4868  2.5964 -2.7195
 1346SOL    HW215672   3.499   1.841   1.103 -0.2708  0.4903  0.4717
 1347SOL     OW15673   3.025   3.697   3.112  0.3066  0.2269 -0.4233
 1347SOL    HW115674   3.052   3.612   3.077 -1.1722 -0.4735  0.1559
 1347SOL    HW215675   2.935   3.684   3.141  0.8302  1.0076  1.5577
 1348SOL     OW15676   2.995   0.470   1.735 -0.6999 -0.2266 -0.6093
 1348SOL    HW115677   3.044   0.504   1.810 -2.0371 -1.2310  0.7199
 1348SOL    HW215678   3.048   0.507   1.664  0.2743  1.2538  0.9108
 1349SOL     OW15679   2.878   1.988   3.868 -0.3189 -0.4174  0.5446
 1349SOL    HW115680   2.925   1.946   3.940 -0.0478 -2.7173 -1.0067
 1349SOL    HW215681   2.862   2.065   3.924  1.5123  1.4131 -1.4375
 1350SOL     OW15682   2.781   0.262  12.869 -0.0362  0.9224  0.0901
 1350SOL    HW115683   2.840   0.263  12.794  0.9906 -1.7358  0.8729
 1350SOL    HW215684   2.854   0.277  12.930 -1.7870  2.0362  1.8933
 1351SOL     OW15685   3.644   2.480   3.723 -0.0663 -0.4055 -0.5474
 1351SOL    HW115686   3.627   2.482   3.629 -0.3044 -1.7844 -0.5385
 1351SOL    HW215687   3.605   2.399   3.755  0.2718 -0.3614 -0.0262
 1352SOL     OW15688   0.582   2.906   2.277  0.2739 -0.0079 -0.8495
 1352SOL    HW115689   0.519   2.936   2.343 -0.7047  2.4986 -2.9504
 1352SOL    HW215690   0.593   2.977   2.214  1.4590  1.4743  1.0333
 1353SOL     OW15691   3.581   3.336   5.577 -0.6619  0.0413  0.3182
 1353SOL    HW115692   3.543   3.272   5.518 -1.2731 -1.4914  2.3704
 1353SOL    HW215693   3.574   3.299   5.665  1.0402  1.3079  1.0153
 1354SOL     OW15694   4.550   2.533   9.232  0.0081 -0.3792  0.5020
 1354SOL    HW115695   4.558   2.510   9.324 -1.0022  1.1214  0.9561
 1354SOL    HW215696   4.643   2.533   9.207 -0.2839 -2.7759 -0.6539
 1355SOL     OW15697   3.802   1.239  15.023 -0.0032 -0.0410 -0.4197
 1355SOL    HW115698   3.893   1.214  15.009  0.1644  0.0012  0.5283
 1355SOL    HW215699   3.817   1.330  15.051 -0.0274 -0.0620 -0.3382
 1356SOL     OW15700   3.616   1.530   9.353  0.1604 -0.1012  0.2486
 1356SOL    HW115701   3.617   1.508   9.260  0.3544 -0.7295  0.3921
 1356SOL    HW215702   3.708   1.556   9.361 -0.2234  1.4088 -0.2590
 1357SOL     OW15703   4.644   4.119  10.218 -0.9430 -0.4672  0.3629
 1357SOL    HW115704   4.718   4.060  10.205 -0.7103  0.0230 -0.5550
 1357SOL    HW215705   4.682   4.198  10.180  0.0492 -1.7681 -1.3176
 1358SOL     OW15706   4.328   2.359   9.974  0.5102  0.0143 -0.3598
 1358SOL    HW115707   4.411   2.401   9.951  0.7855 -0.7323 -0.7244
 1358SOL    HW215708   4.354   2.313  10.054  2.5972  1.3064 -0.2847
 1359SOL     OW15709   3.372   4.252  16.191  0.2571  0.0625 -0.5000
 1359SOL    HW115710   3.385   4.300  16.273 -1.2302  1.4218 -1.0709
 1359SOL    HW215711   3.298   4.296  16.150 -0.6687  1.5230  2.7669
 1360SOL     OW15712   1.419   3.494   1.409  0.3233 -0.6885 -0.3870
 1360SOL    HW115713   1.448   3.548   1.483 -0.2003  0.8104 -1.2679
 1360SOL    HW215714   1.491   3.514   1.349  0.5159 -1.6352 -0.4705
 1361SOL     OW15715   2.957   1.709   5.317 -0.5808  0.0345  1.0320
 1361SOL    HW115716   3.047   1.707   5.284 -1.1361 -2.6039 -0.3298
 1361SOL    HW215717   2.967   1.787   5.372 -0.2493  0.8605 -0.2044
 1362SOL     OW15718   2.323   1.616   5.006  0.2632 -0.3278  0.5726
 1362SOL    HW115719   2.365   1.550   4.950 -0.9447 -2.4687  2.1484
 1362SOL    HW215720   2.386   1.687   5.011 -1.0163  0.8414  0.0144
 1363SOL     OW15721   3.024   3.911  13.121 -0.4747 -0.1902 -0.1914
 1363SOL    HW115722   3.017   3.880  13.211  1.0733 -0.9505 -0.3293
 1363SOL    HW215723   3.072   3.993  13.134 -0.3847 -0.3098  0.2296
 1364SOL     OW15724   0.738   1.988   7.431 -0.2654  0.4620 -0.2319
 1364SOL    HW115725   0.664   1.994   7.492 -0.4269  1.8675 -0.5665
 1364SOL    HW215726   0.732   1.897   7.403 -2.3282  0.7810 -0.8077
 1365SOL     OW15727   3.780   0.762  12.888 -0.5096  0.1850 -0.2467
 1365SOL    HW115728   3.863   0.717  12.888  0.4348  1.9113 -0.7118
 1365SOL    HW215729   3.742   0.742  12.974  1.7986  2.4851  1.3329
 1366SOL     OW15730   2.019   0.733  12.041  0.0883  0.3749 -0.0575
 1366SOL    HW115731   2.034   0.639  12.049  0.5359  0.2736 -2.1131
 1366SOL    HW215732   1.955   0.725  11.971 -1.1627  2.1496  0.8691
 1367SOL     OW15733   2.247   4.146  15.157 -0.6041 -0.3143  0.1493
 1367SOL    HW115734   2.308   4.190  15.217 -0.9671  1.4252 -0.7886
 1367SOL    HW215735   2.300   4.109  15.087  1.2078  0.7734  0.9404
 1368SOL     OW15736   0.534   1.770   7.654  0.1270 -0.3658 -0.3965
 1368SOL    HW115737   0.531   1.776   7.750 -3.2295  0.3218 -0.5701
 1368SOL    HW215738   0.620   1.727   7.647  0.1335 -0.3949 -0.1469
 1369SOL     OW15739   3.835   0.740   5.987 -0.0818 -0.3543 -0.0099
 1369SOL    HW115740   3.865   0.657   6.021  0.4461 -1.2925 -2.7409
 1369SOL    HW215741   3.756   0.750   6.040  0.4981  1.4160  0.5158
 1370SOL     OW15742   0.523   0.731   6.808 -0.7423 -0.6094  0.3023
 1370SOL    HW115743   0.569   0.796   6.860  0.0277 -0.8658 -0.0637
 1370SOL    HW215744   0.455   0.782   6.765  0.9097  3.1848  2.2673
 1371SOL     OW15745   1.734   2.906  13.671  0.2611 -0.2913  0.3286
 1371SOL    HW115746   1.818   2.923  13.713  0.7270  0.6900 -1.0067
 1371SOL    HW215747   1.726   2.967  13.598 -1.1145  1.8714  2.2774
 1372SOL     OW15748   1.820   2.263   2.244 -0.2409 -0.1017 -0.2308
 1372SOL    HW115749   1.840   2.250   2.151  0.6551  0.8207 -0.1682
 1372SOL    HW215750   1.832   2.355   2.268  2.0213 -0.9583  1.8740
 1373SOL     OW15751   2.099   3.510  11.925  0.5723 -0.0379 -0.4607
 1373SOL    HW115752   2.165   3.535  11.860  1.8844  0.9795  1.2813
 1373SOL    HW215753   2.144   3.531  12.006 -0.4442 -1.8970  0.5788
 1374SOL     OW15754   1.669   2.839  16.621  0.1559  0.1289 -0.0136
 1374SOL    HW115755   1.715   2.788  16.688 -0.5640 -1.3507 -0.6683
 1374SOL    HW215756   1.616   2.774  16.576  0.0025 -0.1992  0.6416
 1375SOL     OW15757   3.243   3.972   5.822  0.1476  0.1828  0.3965
 1375SOL    HW115758   3.212   3.978   5.912 -0.3159 -3.8287  0.5180
 1375SOL    HW215759   3.196   3.896   5.787  1.7821 -1.9096  2.7259
 1376SOL     OW15760   0.709   0.385   2.971 -0.2493 -0.2320  0.3298
 1376SOL    HW115761   0.698   0.478   2.951  1.1177 -0.4051 -1.2385
 1376SOL    HW215762   0.792   0.400   3.015 -0.8286  2.1058  0.5956
 1377SOL     OW15763   0.157   1.923  15.398  0.5814  0.2582  0.2738
 1377SOL    HW115764   0.149   1.857  15.467 -0.4144  0.7920  0.6646
 1377SOL    HW215765   0.155   2.001  15.454 -0.8388  2.1439 -2.4272
 1378SOL     OW15766   3.188   0.556  14.099 -0.6594 -0.2836  0.2352
 1378SOL    HW115767   3.268   0.506  14.116 -1.6333 -1.3446  1.7592
 1378SOL    HW215768   3.122   0.519  14.158  1.0511 -0.8390  1.7712
 1379SOL     OW15769   1.153   1.780   6.048  0.3221  0.0461  0.3096
 1379SOL    HW115770   1.173   1.821   6.132  1.7081  0.7025 -0.3444
 1379SOL    HW215771   1.092   1.839   6.005  1.8942  0.9337 -0.7004
 1380SOL     OW15772   2.356   1.501   5.586 -0.3060  0.1041  0.4340
 1380SOL    HW115773   2.408   1.546   5.653 -0.5485  1.0784 -0.0360
 1380SOL    HW215774   2.362   1.559   5.510 -0.4093 -2.0730 -1.2407
 1381SOL     OW15775   0.163   2.773  15.783  0.0682 -0.0177 -0.5545
 1381SOL    HW115776   0.254   2.803  15.794  0.4837 -2.2608  2.1214
 1381SOL    HW215777   0.130   2.862  15.769 -0.8756 -0.1066  1.1534
 1382SOL     OW15778   0.773   0.667  15.937  0.4345 -0.2261  0.0270
 1382SOL    HW115779   0.833   0.675  16.010 -0.7491  1.7438  0.7823
 1382SOL    HW215780   0.687   0.660  15.978  0.4770  0.4855  0.2425
 1383SOL     OW15781   3.277   1.979   8.455 -0.2359  0.0326  0.2539
 1383SOL    HW115782   3.282   2.015   8.544 -0.8919 -0.2839  0.4181
 1383SOL    HW215783   3.241   2.053   8.406 -2.6982 -0.5673  1.1629
 1384SOL     OW15784   4.707   1.852   5.904  0.7435 -0.3053  0.4167
 1384SOL    HW115785   4.736   1.781   5.846  1.9446  0.4711  0.0624
 1384SOL    HW215786   4.725   1.810   5.988 -1.1770  1.7321  1.8419
 1385SOL     OW15787   3.429   1.136   1.567  0.2230  0.0286  0.7767
 1385SOL    HW115788   3.505   1.182   1.531  0.0248 -0.2194  0.0435
 1385SOL    HW215789   3.427   1.174   1.655 -1.7691 -1.2588  1.2851
 1386SOL     OW15790   1.569   3.245   1.788 -0.0686  0.3048  0.0053
 1386SOL    HW115791   1.521   3.166   1.813 -0.2058  1.0334  2.0968
 1386SOL    HW215792   1.496   3.304   1.768 -0.1427 -0.3840 -1.7022
 1387SOL     OW15793   4.555   1.598   9.107 -0.0314 -0.1528 -0.2505
 1387SOL    HW115794   4.467   1.576   9.077 -0.2986 -0.4816  0.7846
 1387SOL    HW215795   4.570   1.683   9.066  0.0983  1.3619  2.9035
 1388SOL     OW15796   1.306   3.905   4.915 -0.4051  0.5032 -0.3146
 1388SOL    HW115797   1.301   3.812   4.937  0.4601  0.6298  0.4260
 1388SOL    HW215798   1.229   3.939   4.960 -0.3334 -1.2640  1.1331
 1389SOL     OW15799   4.137   4.090   2.521 -0.2570  0.5815  0.2426
 1389SOL    HW115800   4.050   4.064   2.552 -0.5136 -0.3645 -1.2764
 1389SOL    HW215801   4.149   4.172   2.569 -2.1843  2.0244 -1.7253
 1390SOL     OW15802   1.291   2.979   8.175 -0.4092 -0.1940  0.0997
 1390SOL    HW115803   1.197   2.986   8.157 -0.6130 -1.0139  0.8296
 1390SOL    HW215804   1.293   2.961   8.269 -2.0598 -2.2764 -0.2482
 1391SOL     OW15805   4.718   0.573   4.190 -0.1849 -0.0217 -0.5508
 1391SOL    HW115806   0.050   0.507   4.190 -1.9797 -1.9077 -1.4180
 1391SOL    HW215807   4.639   0.519   4.194  1.3837 -2.2999  0.1706
 1392SOL     OW15808   1.418   1.491   3.468  0.3872 -0.8349 -0.4038
 1392SOL    HW115809   1.479   1.511   3.397  0.0241 -1.8861 -1.0013
 1392SOL    HW215810   1.466   1.444   3.536 -0.6355 -0.5481  0.5200
 1393SOL     OW15811   2.506   2.300   5.255 -0.3661  0.1057 -0.3496
 1393SOL    HW115812   2.587   2.346   5.278 -0.9707  1.8292 -1.6642
 1393SOL    HW215813   2.532   2.211   5.277 -2.9491 -0.9373 -1.5614
 1394SOL     OW15814   3.203   1.853   4.238 -0.0064  0.1108  0.2840
 1394SOL    HW115815   3.171   1.883   4.323 -0.2827  0.1480  0.1654
 1394SOL    HW215816   3.213   1.759   4.254 -1.3425 -0.6666 -3.4863
 1395SOL     OW15817   3.198   2.978   2.407 -0.1544  0.9937  0.2174
 1395SOL    HW115818   3.158   3.042   2.465 -0.4793 -1.0012  2.1797
 1395SOL    HW215819   3.248   3.039   2.353  0.8674 -0.9352 -0.9985
 1396SOL     OW15820   1.282   2.046  13.103  0.9276 -0.2284 -0.2784
 1396SOL    HW115821   1.242   2.116  13.156  0.0934 -1.9117  1.3354
 1396SOL    HW215822   1.230   1.969  13.128 -0.8916  1.1017  0.0427
 1397SOL     OW15823   2.585   3.810   8.538 -0.3466 -0.0438  0.1387
 1397SOL    HW115824   2.493   3.826   8.518 -0.3197 -0.1665 -0.0867
 1397SOL    HW215825   2.600   3.852   8.622  1.5812  1.9662 -1.1906
 1398SOL     OW15826   1.834   3.267  17.742 -0.1138  0.2852  0.2570
 1398SOL    HW115827   1.791   3.336   0.043  1.8412  0.3004  1.8855
 1398SOL    HW215828   1.917   3.312  17.732 -0.2640  0.7115  0.9041
 1399SOL     OW15829   2.058   3.077   6.834 -0.4837 -0.2087  0.2501
 1399SOL    HW115830   2.013   3.159   6.854 -1.9684 -1.6810  2.8114
 1399SOL    HW215831   2.020   3.054   6.749  3.4552 -0.9666 -1.3535
 1400SOL     OW15832   0.138   4.232   4.510  0.4185  0.3447  0.2367
 1400SOL    HW115833   0.146   4.223   4.415 -0.1721 -0.2248  0.2388
 1400SOL    HW215834   0.194   4.308   4.528  1.9745 -0.9066  0.7031
 1401SOL     OW15835   2.594   1.749  12.799  0.3355  0.1061  0.0442
 1401SOL    HW115836   2.639   1.665  12.791  0.7640  0.5527 -2.2872
 1401SOL    HW215837   2.674   1.800  12.793 -0.5998  1.6467  0.6835
 1402SOL     OW15838   2.222   0.148   5.110 -0.0157  0.0311  0.3495
 1402SOL    HW115839   2.267   0.160   5.026  1.3058  2.5161  1.4274
 1402SOL    HW215840   2.230   0.053   5.121  3.4659  0.2707 -0.0584
 1403SOL     OW15841   2.151   3.282  10.741  0.0906  0.1725  0.0704
 1403SOL    HW115842   2.234   3.328  10.747 -0.0012  0.8677 -3.8663
 1403SOL    HW215843   2.178   3.209  10.684 -0.7798  0.1511 -0.3145
 1404SOL     OW15844   0.526   2.054   7.601 -0.2753  0.1371  0.1870
 1404SOL    HW115845   0.562   2.051   7.690  0.4723  0.0387 -0.1215
 1404SOL    HW215846   0.437   2.022   7.610  0.0774 -1.3965 -1.9015
 1405SOL     OW15847   4.514   3.317   5.022  0.4313 -0.2889  0.7437
 1405SOL    HW115848   4.561   3.272   4.951 -1.2184  1.3208 -1.3706
 1405SOL    HW215849   4.578   3.380   5.054  0.8752  0.1726 -1.0357
 1406SOL     OW15850   3.474   0.152   8.753  0.0698  0.2519 -0.1986
 1406SOL    HW115851   3.543   0.168   8.690  0.6618 -0.7635  0.1907
 1406SOL    HW215852   3.521   0.155   8.837  0.7179  1.0031 -0.5870
 1407SOL     OW15853   2.979   2.019  12.875  0.4584 -0.2657  0.1203
 1407SOL    HW115854   2.926   2.044  12.950  0.1295  0.4547 -0.3472
 1407SOL    HW215855   3.019   2.101  12.845  1.0637 -1.4102 -2.2408
 1408SOL     OW15856   3.662   4.659   3.048  0.3731  0.6219 -0.6787
 1408SOL    HW115857   3.620   4.606   2.980 -0.4355  0.6674 -0.2160
 1408SOL    HW215858   3.701   4.589   3.100 -0.9141  1.2309  1.1091
 1409SOL     OW15859   4.395   3.733  17.678  0.2377 -0.5906  0.1185
 1409SOL    HW115860   4.355   3.811  17.641 -0.4603 -0.6200  0.8127
 1409SOL    HW215861   4.404   3.674  17.603 -1.6424 -0.4702 -0.1852
 1410SOL     OW15862   4.296   4.086   7.212 -0.3152  0.1143 -0.6236
 1410SOL    HW115863   4.242   4.052   7.140 -0.9504 -0.7197  0.2451
 1410SOL    HW215864   4.228   4.127   7.265 -0.6494 -0.7423 -0.3876
 1411SOL     OW15865   2.431   4.585   9.407  0.7112  0.0974  0.1098
 1411SOL    HW115866   2.509   4.598   9.354 -0.3954  0.0767 -1.5456
 1411SOL    HW215867   2.377   4.632   9.343 -1.3967 -2.7667 -0.2099
 1412SOL     OW15868   3.181   2.579   0.910  0.5272  0.0895  0.2177
 1412SOL    HW115869   3.145   2.664   0.888  0.3534  0.2684  1.1641
 1412SOL    HW215870   3.181   2.537   0.824 -0.4495 -1.6977  1.0842
 1413SOL     OW15871   1.073   2.078   2.390  0.7706 -0.3391 -0.6177
 1413SOL    HW115872   1.169   2.078   2.389  0.7518 -1.6520 -1.9804
 1413SOL    HW215873   1.050   2.038   2.306  1.7231  0.1293 -1.1126
 1414SOL     OW15874   2.714   2.332   5.836 -0.6230  0.0513  0.0662
 1414SOL    HW115875   2.804   2.364   5.838 -0.7691  0.4747 -0.4199
 1414SOL    HW215876   2.684   2.360   5.923 -1.3792  0.6386 -0.3929
 1415SOL     OW15877   1.008   0.438  10.455  0.4217 -0.2372  0.3423
 1415SOL    HW115878   0.987   0.531  10.451  1.0944 -0.0309  1.7077
 1415SOL    HW215879   1.096   0.435  10.419  0.1312 -3.0712 -0.1691
 1416SOL     OW15880   3.126   0.015   4.830  0.6990 -0.0103 -0.3589
 1416SOL    HW115881   3.134   0.058   4.915 -1.2029 -2.1957  0.9373
 1416SOL    HW215882   3.077   4.672   4.845  0.2768  0.2715 -0.2428
 1417SOL     OW15883   3.800   3.442   1.193 -0.2689  0.1122  0.2632
 1417SOL    HW115884   3.854   3.444   1.113  0.0776 -1.0539  0.4624
 1417SOL    HW215885   3.713   3.441   1.154 -0.5366 -0.9656  0.8746
 1418SOL     OW15886   0.316   0.277   3.170 -0.3322 -0.1458 -0.2538
 1418SOL    HW115887   0.351   0.311   3.253  0.1411  1.4551 -1.1107
 1418SOL    HW215888   0.394   0.229   3.141 -1.0692  0.4932 -3.2581
 1419SOL     OW15889   0.467   4.128   6.474 -0.1609 -0.3113  0.3001
 1419SOL    HW115890   0.516   4.127   6.557  1.2991  2.1784 -0.5263
 1419SOL    HW215891   0.512   4.063   6.420  0.0594  1.2895 -1.4482
 1420SOL     OW15892   3.944   3.920  14.964 -0.4682  0.3300  0.2843
 1420SOL    HW115893   3.868   3.972  14.939  0.2346  0.7019 -1.0636
 1420SOL    HW215894   3.928   3.921  15.059  0.5102 -0.4515  0.4527
 1421SOL     OW15895   2.991   0.696   6.255  0.0160  0.0751  0.1099
 1421SOL    HW115896   2.988   0.686   6.160  0.3410  0.6933  0.0350
 1421SOL    HW215897   3.074   0.655   6.277  0.5466  0.7147 -0.7043
 1422SOL     OW15898   1.890   2.053   1.885 -0.0073  0.3644 -0.3523
 1422SOL    HW115899   1.982   2.047   1.910 -0.3763  0.2655  1.0214
 1422SOL    HW215900   1.848   1.995   1.949 -0.4278 -0.9597 -1.8341
 1423SOL     OW15901   2.517   0.780   4.369 -0.1806  0.6419  0.2227
 1423SOL    HW115902   2.456   0.710   4.348 -0.7064  1.3211 -0.5075
 1423SOL    HW215903   2.481   0.852   4.317  1.4127  0.3548 -1.2752
 1424SOL     OW15904   3.735   2.813   1.558  0.4150  0.1963  0.7578
 1424SOL    HW115905   3.719   2.899   1.521  0.0631  0.1226  0.7426
 1424SOL    HW215906   3.676   2.748   1.519  0.2211 -0.5792  2.3349
 1425SOL     OW15907   2.656   4.412  15.301  0.1366  0.1807  0.4471
 1425SOL    HW115908   2.580   4.355  15.312 -0.7931  1.1447 -0.8994
 1425SOL    HW215909   2.694   4.372  15.222 -0.4346  0.6535 -0.0693
 1426SOL     OW15910   1.699   1.945   8.432  0.1228 -0.7119 -0.1335
 1426SOL    HW115911   1.758   1.900   8.491  0.7989 -0.4057 -0.5829
 1426SOL    HW215912   1.774   1.984   8.389 -1.6688  2.4360 -0.4163
 1427SOL     OW15913   2.409   4.677   1.871 -0.0714  0.0036 -0.2191
 1427SOL    HW115914   2.470   4.638   1.808 -1.3440 -3.1622  0.5104
 1427SOL    HW215915   2.453   4.643   1.948 -2.3947 -0.4516  0.8944
 1428SOL     OW15916   0.762   2.788   6.901 -0.9100  0.0187 -0.3521
 1428SOL    HW115917   0.835   2.832   6.859 -1.3540  0.5967 -0.5246
 1428SOL    HW215918   0.749   2.842   6.979 -2.1749  0.9139 -1.1864
 1429SOL     OW15919   1.260   3.890   1.301 -0.7189  0.3234  0.0965
 1429SOL    HW115920   1.257   3.799   1.272 -0.2359 -0.2680  1.9096
 1429SOL    HW215921   1.233   3.874   1.391 -2.6259  2.1450 -0.1311
 1430SOL     OW15922   4.094   1.750   5.909 -0.1180  0.0083  0.5954
 1430SOL    HW115923   4.035   1.697   5.855  1.9109  0.3833 -1.9471
 1430SOL    HW215924   4.173   1.750   5.855 -0.5611 -1.5909 -0.0382
 1431SOL     OW15925   3.879   1.479  12.412  0.1485  0.0536  0.1719
 1431SOL    HW115926   3.876   1.518  12.499  0.1956  2.6790 -1.0104
 1431SOL    HW215927   3.878   1.554  12.353  2.8610  2.1247  2.7484
 1432SOL     OW15928   0.886   4.143   2.372 -0.2577 -0.0527  0.3635
 1432SOL    HW115929   0.836   4.100   2.303  1.0357 -1.4441  0.3105
 1432SOL    HW215930   0.907   4.222   2.322  0.2089 -0.4057  0.0130
 1433SOL     OW15931   2.662   2.800  13.792  0.2240 -0.0866  0.2005
 1433SOL    HW115932   2.657   2.887  13.831  0.3311 -0.4188  0.9596
 1433SOL    HW215933   2.684   2.814  13.700 -2.5570 -1.8370 -0.7366
 1434SOL     OW15934   2.044   0.194   4.244 -0.4904 -0.0687 -0.0153
 1434SOL    HW115935   2.106   0.193   4.171  2.1206 -1.5275  2.2314
 1434SOL    HW215936   1.964   0.219   4.198 -0.0644 -0.5317 -1.0137
 1435SOL     OW15937   2.043   2.789   9.490 -0.5344 -0.6689 -0.9421
 1435SOL    HW115938   2.002   2.875   9.503 -0.7444 -0.5713 -2.2538
 1435SOL    HW215939   1.967   2.735   9.470 -1.7223  1.0438 -1.0588
 1436SOL     OW15940   3.546   0.947   8.842 -0.0028 -0.1576  0.4831
 1436SOL    HW115941   3.466   0.940   8.894  0.5448 -0.2430  1.3179
 1436SOL    HW215942   3.513   0.999   8.769 -1.3535 -1.4728  0.1804
 1437SOL     OW15943   2.773   0.464   7.863 -0.6135  0.1002 -0.0108
 1437SOL    HW115944   2.844   0.400   7.867 -1.4104 -0.6383  2.5717
 1437SOL    HW215945   2.699   0.418   7.904  1.0361 -2.4987  0.0661
 1438SOL     OW15946   3.078   4.179   3.378 -0.3399 -0.1537 -0.2703
 1438SOL    HW115947   3.130   4.255   3.405  0.1684 -0.3373 -0.7271
 1438SOL    HW215948   3.107   4.184   3.287  0.8964  0.6590  0.1705
 1439SOL     OW15949   2.719   0.701   4.558 -0.0172 -0.4602 -0.2524
 1439SOL    HW115950   2.733   0.699   4.652 -0.6818 -1.4002 -0.1689
 1439SOL    HW215951   2.639   0.753   4.554  0.8477  0.9260  0.4435
 1440SOL     OW15952   2.015   2.928  13.318  0.0034 -0.7267  0.5527
 1440SOL    HW115953   2.065   2.936  13.400  0.9317  0.4669 -0.1301
 1440SOL    HW215954   2.076   2.880  13.263 -0.6221 -1.2842  0.3446
 1441SOL     OW15955   2.182   2.676   4.504 -0.2697  0.4807  0.5616
 1441SOL    HW115956   2.187   2.763   4.466 -0.3408  0.4694  0.5257
 1441SOL    HW215957   2.196   2.616   4.431  0.0237  0.5442  0.5661
 1442SOL     OW15958   1.266   4.621  12.685 -0.4692 -0.1386 -0.2679
 1442SOL    HW115959   1.205   4.619  12.611 -1.6769 -0.1561  0.7285
 1442SOL    HW215960   1.343   4.570  12.658 -0.1383 -0.0477  0.4973
 1443SOL     OW15961   0.299   2.814  17.174 -0.0126 -0.5485 -0.2759
 1443SOL    HW115962   0.392   2.798  17.190  0.0854  0.9241  0.6503
 1443SOL    HW215963   0.284   2.748  17.107 -2.3537  1.2814 -1.5299
 1444SOL     OW15964   4.692   2.670  16.820 -0.4089  0.0704  0.2338
 1444SOL    HW115965   4.683   2.585  16.777 -0.5160 -0.5374  1.4480
 1444SOL    HW215966   4.608   2.713  16.805 -0.3765 -0.7292 -2.2144
 1445SOL     OW15967   2.670   4.452   0.960 -0.2308 -0.6779  0.6091
 1445SOL    HW115968   2.734   4.464   1.031  2.5306  0.7891 -2.1118
 1445SOL    HW215969   2.600   4.504   1.000 -0.0571 -0.1610  0.2383
 1446SOL     OW15970   0.885   3.543   1.730  0.1465 -0.0495  0.2550
 1446SOL    HW115971   0.870   3.496   1.812  0.4667 -1.0171 -0.2329
 1446SOL    HW215972   0.812   3.604   1.725  1.5715  1.6839  0.6748
 1447SOL     OW15973   1.127   3.181  10.755 -1.0680 -0.2863  0.3412
 1447SOL    HW115974   1.153   3.184  10.663 -1.6638  0.5272  0.2026
 1447SOL    HW215975   1.209   3.166  10.802 -0.5745  1.1480 -0.0710
 1448SOL     OW15976   1.131   2.222   4.662  0.1275 -0.0040 -0.2335
 1448SOL    HW115977   1.202   2.286   4.659 -0.6577  0.8916  0.1321
 1448SOL    HW215978   1.070   2.267   4.721  0.7719 -0.7403  0.9784
 1449SOL     OW15979   2.682   1.613   4.866  0.1693 -0.1598 -0.0786
 1449SOL    HW115980   2.684   1.563   4.784  2.0082  3.3465 -2.1589
 1449SOL    HW215981   2.776   1.606   4.884  0.1035 -1.1566 -0.0835
 1450SOL     OW15982   2.531   1.085   4.009 -0.7034 -0.3851 -0.2808
 1450SOL    HW115983   2.512   1.118   3.921 -0.7837  0.1546 -0.0669
 1450SOL    HW215984   2.522   0.991   4.000  0.0934 -0.5245  0.3609
 1451SOL     OW15985   3.746   4.030   7.714  0.0917  0.2164  0.9228
 1451SOL    HW115986   3.657   4.063   7.730  0.7729  1.3842  2.2844
 1451SOL    HW215987   3.756   3.989   7.801 -1.0953  0.6944  1.2886
 1452SOL     OW15988   3.354   1.508  16.139 -0.2861  0.5613 -0.6229
 1452SOL    HW115989   3.264   1.516  16.107  0.3872  1.9563 -2.1933
 1452SOL    HW215990   3.355   1.428  16.192 -0.7658  1.7327  1.1257
 1453SOL     OW15991   0.799   3.414   1.375 -0.4994  0.3380  0.1898
 1453SOL    HW115992   0.736   3.459   1.431  0.8363 -1.2874  2.9712
 1453SOL    HW215993   0.752   3.331   1.365 -1.0027  0.5158  1.0862
 1454SOL     OW15994   1.042   3.129   9.175  0.0471 -0.0420 -0.4970
 1454SOL    HW115995   0.987   3.186   9.228  1.2700 -0.8517  1.6760
 1454SOL    HW215996   1.104   3.195   9.143 -1.2619  1.0525 -0.7696
 1455SOL     OW15997   1.422   3.909   4.203  0.1137 -0.3181 -0.4452
 1455SOL    HW115998   1.476   3.916   4.282  1.5086  0.3762 -1.4717
 1455SOL    HW215999   1.359   3.841   4.227  1.4719 -1.5319 -0.3548
 1456SOL     OW16000   1.337   3.310   4.300  0.4933  0.0264 -0.1476
 1456SOL    HW116001   1.352   3.283   4.391  3.5809 -1.9909 -1.2281
 1456SOL    HW216002   1.419   3.281   4.260  1.0351  1.9500 -0.4009
 1457SOL     OW16003   1.093   0.495   1.705  0.4593  0.3532  0.0331
 1457SOL    HW116004   1.082   0.587   1.682 -3.0587 -0.3431 -1.2460
 1457SOL    HW216005   1.151   0.459   1.637  1.4108  0.7344  0.6511
 1458SOL     OW16006   3.882   0.034   8.080  0.2485  0.6947  0.0857
 1458SOL    HW116007   3.966   0.029   8.126  0.3584 -0.8358 -0.2756
 1458SOL    HW216008   3.905   4.727   7.999  1.3835 -0.0515  0.8213
 1459SOL     OW16009   1.621   0.443   1.759  0.0786  0.0254 -0.1160
 1459SOL    HW116010   1.540   0.444   1.808 -0.5332 -2.1237 -1.0596
 1459SOL    HW216011   1.687   0.443   1.829 -1.6617 -1.3163  1.5193
 1460SOL     OW16012   1.748   3.955   7.502  0.3957 -0.5681  0.2372
 1460SOL    HW116013   1.739   3.860   7.496 -0.5116 -0.5062  0.5825
 1460SOL    HW216014   1.714   3.976   7.590  0.4924 -0.0066  0.1436
 1461SOL     OW16015   3.135   1.503   2.954  0.2904  0.5476  0.3521
 1461SOL    HW116016   3.110   1.431   2.897  1.0762  0.0058  0.6970
 1461SOL    HW216017   3.129   1.574   2.890 -1.2109  0.6130  0.5733
 1462SOL     OW16018   3.032   3.039   3.185  0.1918  0.6364 -0.5519
 1462SOL    HW116019   3.093   3.095   3.137 -0.7221  0.5103 -1.8774
 1462SOL    HW216020   2.962   3.098   3.215  0.2837 -1.2155  3.3182
 1463SOL     OW16021   3.809   0.563  10.611 -0.0778  0.0382 -0.4042
 1463SOL    HW116022   3.818   0.573  10.706  0.6013 -0.3548 -0.4211
 1463SOL    HW216023   3.754   0.484  10.612  0.8723 -0.6358 -0.7857
 1464SOL     OW16024   4.718   2.059   9.448 -0.2675 -0.7580 -0.0324
 1464SOL    HW116025   4.631   2.021   9.436 -1.7080  2.7663 -0.9657
 1464SOL    HW216026   0.037   1.992   9.410 -1.1109 -0.3159 -2.0917
 1465SOL     OW16027   3.647   1.275   1.582 -0.0107 -0.0640  0.5141
 1465SOL    HW116028   3.633   1.368   1.600  2.0717  0.5529 -1.1036
 1465SOL    HW216029   3.736   1.268   1.617  0.2214 -1.6700 -0.4020
 1466SOL     OW16030   3.007   2.787   8.501  0.0386 -0.3975 -0.2989
 1466SOL    HW116031   2.932   2.811   8.556  0.3342 -0.4897  0.1407
 1466SOL    HW216032   2.976   2.806   8.412 -0.1795 -1.1570 -0.3849
 1467SOL     OW16033   2.842   2.575   3.396  0.4103  0.3380  0.2314
 1467SOL    HW116034   2.918   2.599   3.342 -0.6704  2.2036 -0.4680
 1467SOL    HW216035   2.764   2.609   3.351 -0.5738 -1.0469  0.8916
 1468SOL     OW16036   1.328   2.438   7.731 -0.2053  0.2086  0.2604
 1468SOL    HW116037   1.348   2.353   7.691  1.6921  0.9735 -0.4307
 1468SOL    HW216038   1.330   2.504   7.661 -0.1619  0.2073  0.2602
 1469SOL     OW16039   2.156   4.280   0.799  0.2417 -0.5759  0.0293
 1469SOL    HW116040   2.248   4.283   0.773 -0.4049  0.8612 -2.0664
 1469SOL    HW216041   2.161   4.198   0.848 -3.1567 -0.5832  0.3818
 1470SOL     OW16042   4.386   0.326   1.455  0.3591 -0.3416  1.0734
 1470SOL    HW116043   4.294   0.325   1.430  0.4871  1.3131  0.5243
 1470SOL    HW216044   4.435   0.299   1.377 -1.3821  1.8103 -0.7665
 1471SOL     OW16045   3.126   2.809   3.687 -0.0844  0.0366 -0.3941
 1471SOL    HW116046   3.109   2.869   3.615 -0.9910  2.2723  1.6782
 1471SOL    HW216047   3.221   2.805   3.681  0.0344 -0.2409  1.6853
 1472SOL     OW16048   3.292   2.934   5.674 -0.2299  0.1951  0.1040
 1472SOL    HW116049   3.224   2.959   5.736  0.1928 -2.7839  1.7856
 1472SOL    HW216050   3.367   2.927   5.732 -0.3900  1.4573  0.4586
 1473SOL     OW16051   2.246   3.485   0.898  0.2041  0.3127  0.3107
 1473SOL    HW116052   2.233   3.461   0.807  0.6225  3.5154 -0.6077
 1473SOL    HW216053   2.313   3.554   0.894  0.3860  0.1194  0.0315
 1474SOL     OW16054   1.759   4.148   1.712  0.2262 -0.9202 -0.1499
 1474SOL    HW116055   1.769   4.185   1.799 -1.4596 -0.5150 -0.1277
 1474SOL    HW216056   1.852   4.134   1.691  0.6816  0.3688  0.9986
 1475SOL     OW16057   1.453   0.909   1.587  0.4931 -0.3074 -0.0271
 1475SOL    HW116058   1.548   0.898   1.577  0.1876 -1.8408 -1.1399
 1475SOL    HW216059   1.428   0.906   1.495 -2.9566  1.3055  0.8874
 1476SOL     OW16060   3.469   2.449   7.475 -0.5894  0.1102  0.0685
 1476SOL    HW116061   3.535   2.503   7.431 -0.0810  0.1064  0.8321
 1476SOL    HW216062   3.535   2.404   7.528 -2.3438 -0.9855  1.3307
 1477SOL     OW16063   2.746   0.959   8.715 -0.0865  0.2867  0.7039
 1477SOL    HW116064   2.792   0.953   8.800  0.6579  0.8560  0.3423
 1477SOL    HW216065   2.759   1.051   8.690  0.9372  0.7417  2.7945
 1478SOL     OW16066   1.386   1.140   5.441  0.2450 -0.2888  0.5907
 1478SOL    HW116067   1.435   1.221   5.423 -0.0352  0.0388  1.3169
 1478SOL    HW216068   1.308   1.152   5.387 -0.1712 -1.6050  0.9019
 1479SOL     OW16069   2.214   2.515   5.477  0.2662  0.1473  0.5641
 1479SOL    HW116070   2.118   2.509   5.470  0.2643  2.3934 -1.6166
 1479SOL    HW216071   2.232   2.565   5.397  2.7827 -1.7910 -0.0529
 1480SOL     OW16072   4.721   0.435  17.602 -0.5499 -0.2957  0.0551
 1480SOL    HW116073   4.679   0.504  17.551  1.0078  0.2590 -0.4800
 1480SOL    HW216074   4.692   0.356  17.558 -2.2255 -0.1312  0.8680
 1481SOL     OW16075   4.466   0.906   1.890 -0.1485  0.0044 -0.2508
 1481SOL    HW116076   4.506   0.883   1.974  0.4562  2.1048  0.0477
 1481SOL    HW216077   4.400   0.837   1.886  1.3769 -1.6301  2.5407
 1482SOL     OW16078   2.722   1.229   6.747 -0.5860  0.2912 -0.0025
 1482SOL    HW116079   2.804   1.278   6.751 -0.6055  0.0745  2.9423
 1482SOL    HW216080   2.669   1.287   6.802  2.5548 -0.0871  3.4152
 1483SOL     OW16081   4.246   0.592   7.012  0.1549  0.3616 -0.2112
 1483SOL    HW116082   4.316   0.635   7.061  1.2562 -2.3566  0.5769
 1483SOL    HW216083   4.210   0.665   6.961 -1.3077 -0.9122 -1.0062
 1484SOL     OW16084   4.637   0.483   1.249 -0.2381 -0.5032 -0.2140
 1484SOL    HW116085   4.691   0.417   1.293 -1.3866  0.2303  2.2847
 1484SOL    HW216086   4.613   0.537   1.325  0.8555 -0.7870  0.3428
 1485SOL     OW16087   0.152   1.057   2.984  0.6393  0.3739  0.0961
 1485SOL    HW116088   0.179   1.132   3.037 -0.8942 -0.0065  1.3897
 1485SOL    HW216089   0.092   1.107   2.930  0.1492  1.7129  1.8810
 1486SOL     OW16090   2.418   4.046   5.431 -0.6276  0.0566  0.1155
 1486SOL    HW116091   2.329   4.048   5.397 -0.5701 -1.1533 -0.1075
 1486SOL    HW216092   2.402   4.028   5.523  2.1487  0.5111  0.7107
 1487SOL     OW16093   0.037   4.284   6.218  0.1376  0.4617 -0.0350
 1487SOL    HW116094   0.009   4.316   6.132 -2.2135 -1.4070  0.0238
 1487SOL    HW216095   0.119   4.252   6.181  0.3036 -0.3509  1.0371
 1488SOL     OW16096   4.291   1.366   3.606  0.0494 -0.4526  0.4394
 1488SOL    HW116097   4.386   1.359   3.607  0.1033  0.3871  1.3717
 1488SOL    HW216098   4.281   1.325   3.692 -0.0631  2.5877  1.8897
 1489SOL     OW16099   0.977   2.111   9.956 -0.1440 -0.3108  0.1775
 1489SOL    HW116100   1.058   2.074   9.921  0.4122  1.1668 -0.0544
 1489SOL    HW216101   0.929   2.112   9.873  0.0827  1.2755  0.0814
 1490SOL     OW16102   1.081   1.140  10.757 -1.1230 -0.3593 -0.0964
 1490SOL    HW116103   1.138   1.213  10.781  1.0212 -1.3705 -2.1452
 1490SOL    HW216104   1.129   1.073  10.806 -0.4682 -1.2732 -2.0160
 1491SOL     OW16105   3.948   4.037   0.068 -0.3358  0.3451  0.0047
 1491SOL    HW116106   3.989   4.057  17.734 -1.5622  2.3612 -0.1397
 1491SOL    HW216107   3.927   4.122   0.107 -1.1087  0.2973 -0.2976
 1492SOL     OW16108   1.682   1.911   3.655  0.4801 -0.5458 -0.2777
 1492SOL    HW116109   1.637   1.879   3.577  0.8188 -2.2957  0.2470
 1492SOL    HW216110   1.743   1.839   3.672  0.5340 -0.2579  0.7573
 1493SOL     OW16111   1.399   1.337   1.876  0.0544 -0.4084 -0.4047
 1493SOL    HW116112   1.372   1.305   1.790  1.3699 -3.1506  0.1963
 1493SOL    HW216113   1.486   1.376   1.862 -0.5603  1.3928  0.7639
 1494SOL     OW16114   1.030   3.709  16.389  0.1339  0.1406 -0.1871
 1494SOL    HW116115   1.020   3.631  16.335  0.8965 -0.0518 -0.0636
 1494SOL    HW216116   0.945   3.749  16.407 -0.1283 -0.2061 -0.6916
 1495SOL     OW16117   3.759   1.756   7.933 -0.4822  0.4853  0.3065
 1495SOL    HW116118   3.756   1.724   8.023  1.6717  0.2514  0.2847
 1495SOL    HW216119   3.784   1.674   7.891  1.8835  0.6690  1.3798
 1496SOL     OW16120   2.854   4.345   8.086 -0.3171  0.7417  0.1360
 1496SOL    HW116121   2.938   4.387   8.070 -2.1654  4.2740 -0.5399
 1496SOL    HW216122   2.843   4.296   8.005  1.8201 -1.7301  1.3458
 1497SOL     OW16123   2.970   1.129   6.149  0.3849 -0.5921  0.0648
 1497SOL    HW116124   2.888   1.079   6.150 -0.0982  0.2005  0.2863
 1497SOL    HW216125   2.937   1.207   6.104 -0.9981  0.0995  2.2697
 1498SOL     OW16126   0.855   0.588   9.670 -0.4164 -0.2319 -0.4277
 1498SOL    HW116127   0.940   0.549   9.650 -1.7358 -3.2708  0.0354
 1498SOL    HW216128   0.820   0.547   9.749  1.4812  1.8325  1.4949
 1499SOL     OW16129   3.017   4.002   7.224 -0.3659 -0.6411  0.2419
 1499SOL    HW116130   3.080   3.946   7.269  1.1014 -1.1565 -2.4575
 1499SOL    HW216131   2.965   3.939   7.175  0.9401 -0.1272 -1.8205
 1500SOL     OW16132   2.603   1.849   4.507  0.0862  0.2535  0.7356
 1500SOL    HW116133   2.624   1.887   4.592  0.5450 -0.4490  0.9404
 1500SOL    HW216134   2.677   1.870   4.450 -0.7237  1.6663  0.2080
 1501SOL     OW16135   0.695   0.863   2.144 -0.0038  0.2411 -0.3613
 1501SOL    HW116136   0.702   0.830   2.234 -2.0205 -1.4430 -0.8499
 1501SOL    HW216137   0.787   0.891   2.154  0.1519 -0.2920 -0.3206
 1502SOL     OW16138   2.922   2.994   6.531  0.1011 -0.6239  0.1070
 1502SOL    HW116139   2.964   2.920   6.487 -1.2496 -2.0354  1.1841
 1502SOL    HW216140   3.002   3.046   6.536  0.2403 -0.8680  0.3968
 1503SOL     OW16141   0.074   4.243   7.022 -0.3813 -0.1934  0.1812
 1503SOL    HW116142   0.009   4.194   7.071  0.5769 -1.3551  0.3003
 1503SOL    HW216143   0.137   4.171   7.013 -1.7589 -1.5164  1.1690
 1504SOL     OW16144   1.913   0.998  16.975 -0.6627 -0.2001  0.0998
 1504SOL    HW116145   1.819   1.008  16.968 -0.3691  0.8376 -2.3668
 1504SOL    HW216146   1.947   1.063  16.914  0.0155 -0.1538  0.5234
 1505SOL     OW16147   3.700   1.935   2.938 -0.1049 -0.8058 -0.2446
 1505SOL    HW116148   3.773   1.958   2.880  0.8399  1.6687  1.9451
 1505SOL    HW216149   3.645   1.890   2.873  1.0559 -1.8216 -0.5310
 1506SOL     OW16150   0.705   3.895  12.416  0.1646  0.2083  0.3095
 1506SOL    HW116151   0.720   3.942  12.334 -1.9641  0.7146  0.2221
 1506SOL    HW216152   0.610   3.884  12.417  0.1318  0.4976  0.2143
 1507SOL     OW16153   3.227   2.837   4.551 -0.2758  0.6357  0.0415
 1507SOL    HW116154   3.222   2.876   4.464  1.2759  1.2997  0.2563
 1507SOL    HW216155   3.180   2.906   4.597 -0.9135 -0.9362  1.7566
 1508SOL     OW16156   2.769   2.432   5.417  0.3959  0.1477  0.0864
 1508SOL    HW116157   2.778   2.501   5.352 -1.4524  1.2537  1.0122
 1508SOL    HW216158   2.849   2.449   5.468  0.5051  0.7628 -0.2945
 1509SOL     OW16159   3.224   0.381   4.974  0.0852  0.2714  0.0594
 1509SOL    HW116160   3.196   0.398   4.883  1.9991  0.0549 -0.5601
 1509SOL    HW216161   3.269   0.463   4.992  1.5501 -0.1612 -1.5445
 1510SOL     OW16162   3.465   0.003   0.613  0.3852 -0.0574  0.1246
 1510SOL    HW116163   3.497   0.030   0.527  2.8405 -0.3894  0.9566
 1510SOL    HW216164   3.371   0.003   0.593  0.3601  1.4940  0.2409
 1511SOL     OW16165   3.307   0.338   8.230 -0.0115  0.0228  0.1006
 1511SOL    HW116166   3.293   0.429   8.258  1.2457  0.4311 -0.5559
 1511SOL    HW216167   3.400   0.343   8.208  0.3117 -0.4556  1.3455
 1512SOL     OW16168   2.483   4.010   8.979 -0.2561 -0.2133  0.1553
 1512SOL    HW116169   2.573   4.026   9.008 -1.0930  1.0835  2.0859
 1512SOL    HW216170   2.500   3.956   8.902 -2.3240  1.2640 -1.3416
 1513SOL     OW16171   3.962   2.455   2.836 -0.0650 -0.6257  0.1896
 1513SOL    HW116172   3.984   2.447   2.743 -1.3099  0.1135 -0.1734
 1513SOL    HW216173   3.900   2.384   2.851  1.0843 -1.8440 -0.8694
 1514SOL     OW16174   2.188   1.489   7.950 -0.0024 -0.0442  0.4056
 1514SOL    HW116175   2.114   1.489   7.890 -1.2115  3.6269  1.8846
 1514SOL    HW216176   2.257   1.532   7.899 -0.3316  0.1991  0.1655
 1515SOL     OW16177   1.807   0.159  14.541 -0.3806 -0.1769  0.5669
 1515SOL    HW116178   1.892   0.195  14.513 -1.5712  0.7406 -1.9378
 1515SOL    HW216179   1.825   0.135  14.632 -1.4939 -2.7262  0.1034
 1516SOL     OW16180   0.459   1.234   3.160  0.9160  0.2482  0.3403
 1516SOL    HW116181   0.525   1.205   3.098 -0.0097 -2.4561  0.6458
 1516SOL    HW216182   0.500   1.205   3.241 -2.0413 -0.3991  1.6135
 1517SOL     OW16183   4.238   2.004   2.310 -0.1915  0.0903 -1.1751
 1517SOL    HW116184   4.241   1.927   2.254  1.3667 -1.0765  0.5503
 1517SOL    HW216185   4.185   1.970   2.383 -0.8824  1.0729 -1.2102
 1518SOL     OW16186   1.055   2.568   3.483 -0.6598 -0.1948  0.6454
 1518SOL    HW116187   1.023   2.644   3.532  0.2268 -1.0032  2.4841
 1518SOL    HW216188   0.995   2.502   3.518 -0.1648 -0.1846  1.5050
 1519SOL     OW16189   2.161   4.079   9.465 -0.4051 -0.1816  0.2050
 1519SOL    HW116190   2.181   4.169   9.488 -0.2850 -0.3975  0.9546
 1519SOL    HW216191   2.233   4.060   9.404  0.2190  2.8332  0.0098
 1520SOL     OW16192   0.744   3.668  12.559 -0.0629  0.0774 -0.1390
 1520SOL    HW116193   0.660   3.658  12.603 -0.5922  2.0403 -0.7312
 1520SOL    HW216194   0.728   3.745  12.505 -3.3768 -0.7003 -0.2416
 1521SOL     OW16195   2.526   2.952   6.300 -0.3008  0.7094 -0.1309
 1521SOL    HW116196   2.562   3.000   6.374 -1.0447  0.4599  0.3838
 1521SOL    HW216197   2.433   2.961   6.322 -0.1386 -1.5714  1.4360
 1522SOL     OW16198   2.879   4.266   9.255 -0.0620  0.3738  0.4215
 1522SOL    HW116199   2.855   4.332   9.319  0.0862  1.8283 -1.0310
 1522SOL    HW216200   2.968   4.241   9.279  0.4076  1.6209 -0.0509
 1523SOL     OW16201   2.872   4.727   4.103 -0.0299  0.2598 -0.4654
 1523SOL    HW116202   2.844   4.665   4.169  0.1831  0.7237  0.0619
 1523SOL    HW216203   2.964   0.004   4.127 -0.3765  1.9835 -0.1970
 1524SOL     OW16204   3.568   0.451   3.527  0.4584  0.1454 -0.6583
 1524SOL    HW116205   3.565   0.367   3.573  2.0127 -0.8275 -2.3008
 1524SOL    HW216206   3.508   0.509   3.573  0.5090 -0.2978 -0.0292
 1525SOL     OW16207   1.357   3.825   3.600  0.5891  0.3347  0.2567
 1525SOL    HW116208   1.416   3.766   3.647 -1.6480 -2.5143 -0.5238
 1525SOL    HW216209   1.424   3.868   3.548 -0.7686 -0.3950 -2.0883
 1526SOL     OW16210   4.177   2.068   6.856 -0.1459  0.2964  0.2445
 1526SOL    HW116211   4.185   2.074   6.951  1.1607  1.8386  0.0449
 1526SOL    HW216212   4.102   2.124   6.836  0.0640  0.3812 -0.3002
 1527SOL     OW16213   3.507   1.462   2.515 -0.4260  0.1569 -0.0613
 1527SOL    HW116214   3.599   1.478   2.535 -0.0678 -0.8803 -0.8521
 1527SOL    HW216215   3.513   1.392   2.450  0.3340 -0.1930  0.3856
 1528SOL     OW16216   2.107   0.739  14.441 -0.2887  0.2495  0.3547
 1528SOL    HW116217   2.108   0.791  14.521  1.9978 -2.4742  2.0919
 1528SOL    HW216218   2.033   0.777  14.392  0.9040  1.1529 -0.7420
 1529SOL     OW16219   4.675   1.604   7.264  0.4319 -0.3422  0.0218
 1529SOL    HW116220   4.713   1.692   7.266  0.4879 -0.3300 -1.8845
 1529SOL    HW216221   0.011   1.561   7.221 -0.4261 -0.0085 -1.8181
 1530SOL     OW16222   2.784   1.578   6.605 -0.8239 -1.0029  0.4120
 1530SOL    HW116223   2.836   1.657   6.586 -0.3409 -1.2797  0.5779
 1530SOL    HW216224   2.846   1.545   6.670 -0.4194 -0.5765  0.2444
 1531SOL     OW16225   2.212   4.539   4.609 -0.6483  0.1198 -0.0207
 1531SOL    HW116226   2.168   4.455   4.598 -0.1690 -0.5660  3.2996
 1531SOL    HW216227   2.179   4.593   4.538 -2.2321  0.8504  1.2655
 1532SOL     OW16228   2.350   3.233   4.382  0.2700 -0.7298 -0.3002
 1532SOL    HW116229   2.379   3.323   4.368  0.5631 -0.3228  3.0313
 1532SOL    HW216230   2.274   3.224   4.324  0.5132  0.9287 -0.8794
 1533SOL     OW16231   3.339   2.810   3.335 -0.2689  0.5631 -0.4545
 1533SOL    HW116232   3.257   2.776   3.297 -0.1125 -1.5046  1.0909
 1533SOL    HW216233   3.396   2.824   3.259  1.9789  0.4591  1.2203
 1534SOL     OW16234   2.079   1.144  14.469  0.1320 -0.0441 -0.5714
 1534SOL    HW116235   2.068   1.113  14.379  0.2261  0.4437 -0.7484
 1534SOL    HW216236   2.097   1.071  14.529 -0.8497  0.9866  0.9811
 1535SOL     OW16237   2.842   0.384   4.958 -0.2872 -0.2028 -0.4278
 1535SOL    HW116238   2.766   0.442   4.962  1.1274  1.7907 -2.0065
 1535SOL    HW216239   2.875   0.372   5.047  0.2439 -0.5891 -0.6801
 1536SOL     OW16240   1.299   3.312   8.120  0.2026  0.3495 -0.4255
 1536SOL    HW116241   1.282   3.296   8.213  2.0639 -0.2402 -0.1904
 1536SOL    HW216242   1.236   3.254   8.077  0.0217  0.9437 -0.9684
 1537SOL     OW16243   1.254   0.733   6.088  0.1969  0.2317 -0.1926
 1537SOL    HW116244   1.233   0.802   6.024 -0.1390  1.6143  1.4007
 1537SOL    HW216245   1.349   0.742   6.096 -0.1096  1.2990  2.2782
 1538SOL     OW16246   1.071   1.431   7.748 -0.3426  0.2999 -0.1608
 1538SOL    HW116247   1.003   1.366   7.764  2.2613 -1.9953  1.6507
 1538SOL    HW216248   1.156   1.391   7.767 -0.9020 -0.2608  1.1466
 1539SOL     OW16249   4.329   2.418   4.128 -0.2541  0.0667 -0.7906
 1539SOL    HW116250   4.289   2.461   4.052 -0.2200 -2.2539 -2.1086
 1539SOL    HW216251   4.365   2.338   4.090  0.8086  0.9456 -1.6039
 1540SOL     OW16252   1.835   0.685  12.636 -0.0736  0.0431 -0.1796
 1540SOL    HW116253   1.874   0.738  12.567 -0.5259 -1.4923 -1.6064
 1540SOL    HW216254   1.741   0.684  12.618 -0.0600  0.7643 -0.3138
 1541SOL     OW16255   4.255   2.528   5.557 -0.0775 -0.5593  0.3444
 1541SOL    HW116256   4.277   2.621   5.546  2.1256 -1.1125  0.1053
 1541SOL    HW216257   4.337   2.478   5.561  0.8672  0.6595 -4.3212
 1542SOL     OW16258   4.003   3.613  12.358  0.5184 -0.5849  0.9513
 1542SOL    HW116259   3.963   3.700  12.363 -1.3807 -1.4241  0.6404
 1542SOL    HW216260   3.933   3.549  12.342  0.1163  0.6221 -2.0576
 1543SOL     OW16261   2.556   3.933   4.507 -0.1556  0.5319  0.3061
 1543SOL    HW116262   2.467   3.968   4.499 -0.6985 -0.7233  0.8762
 1543SOL    HW216263   2.535   3.842   4.527  3.2348  0.0200  1.6181
 1544SOL     OW16264   1.430   3.974  14.843 -0.7314  0.1700 -0.0691
 1544SOL    HW116265   1.493   4.042  14.818 -0.7216  0.3458  0.4471
 1544SOL    HW216266   1.420   3.973  14.938  0.0077 -1.3061  0.0005
 1545SOL     OW16267   0.455   1.929   1.932 -0.1953  0.3008 -0.2443
 1545SOL    HW116268   0.368   1.905   1.963 -1.7375  1.5944 -3.6341
 1545SOL    HW216269   0.447   2.022   1.911  0.4705 -0.0391 -1.9426
 1546SOL     OW16270   3.474   1.367  10.841 -0.4940  0.2587 -0.1417
 1546SOL    HW116271   3.555   1.387  10.887  0.0511 -3.4276  0.5193
 1546SOL    HW216272   3.432   1.451  10.857 -2.1956 -0.2398 -1.8975
 1547SOL     OW16273   0.261   1.726   6.815 -0.0669  0.7785 -0.3809
 1547SOL    HW116274   0.198   1.713   6.744 -0.0695 -0.5613 -0.1371
 1547SOL    HW216275   0.331   1.671   6.780  0.7910  1.0115  0.9645
 1548SOL     OW16276   2.737   2.716   8.925 -0.0185  0.1932 -0.5274
 1548SOL    HW116277   2.734   2.799   8.973 -2.0432 -0.3187  0.2248
 1548SOL    HW216278   2.662   2.670   8.964  2.0204 -1.0315  2.0120
 1549SOL     OW16279   2.218   2.384  17.000  0.0730  0.0337  0.1160
 1549SOL    HW116280   2.310   2.357  17.009 -0.2717 -1.1644  0.0543
 1549SOL    HW216281   2.205   2.400  17.094 -0.1458  0.2026  0.0570
 1550SOL     OW16282   2.453   0.294   9.858 -0.7313  0.5885 -0.1578
 1550SOL    HW116283   2.375   0.333   9.898 -1.8366 -1.2354 -0.5451
 1550SOL    HW216284   2.512   0.368   9.847 -1.5121  1.2925  0.3588
 1551SOL     OW16285   0.710   3.354   4.707 -0.8766 -0.2098  0.1178
 1551SOL    HW116286   0.733   3.285   4.768  0.3600  0.2547  0.1645
 1551SOL    HW216287   0.794   3.377   4.667 -1.3869  1.0801 -0.2366
 1552SOL     OW16288   0.623   1.163   0.732 -0.0814 -0.2810  0.2098
 1552SOL    HW116289   0.570   1.172   0.653  0.7141  2.8051  0.0097
 1552SOL    HW216290   0.589   1.235   0.785  0.5939  0.5964 -0.5455
 1553SOL     OW16291   2.005   1.569   2.347 -0.5882  0.2653 -0.1399
 1553SOL    HW116292   1.974   1.601   2.262 -1.8951 -2.8109 -0.8138
 1553SOL    HW216293   1.972   1.479   2.354  1.2439 -0.1494  3.1034
 1554SOL     OW16294   3.316   2.184   7.478 -0.4308 -0.1438 -0.4838
 1554SOL    HW116295   3.328   2.150   7.390 -0.5307 -0.3362 -0.4257
 1554SOL    HW216296   3.390   2.244   7.485 -0.5352 -0.3982  2.7787
 1555SOL     OW16297   3.294   1.683   3.873  0.2679  0.1682 -0.6098
 1555SOL    HW116298   3.257   1.756   3.824  2.1489 -0.9677 -3.6928
 1555SOL    HW216299   3.208   1.653   3.903  0.4368  0.2346 -0.0457
 1556SOL     OW16300   4.634   3.854   8.680 -0.2717  0.3042  0.0532
 1556SOL    HW116301   4.715   3.859   8.630 -2.3913 -3.0127 -3.7558
 1556SOL    HW216302   4.566   3.897   8.627  0.6028 -1.1959 -2.2992
 1557SOL     OW16303   0.577   2.973   3.863  0.0648  0.2327 -0.4820
 1557SOL    HW116304   0.544   3.023   3.789  0.2566 -2.9949 -2.7394
 1557SOL    HW216305   0.652   3.023   3.895  1.1710 -2.4989  1.1863
 1558SOL     OW16306   0.381   1.411   3.811  0.0891  0.0776 -0.4589
 1558SOL    HW116307   0.338   1.376   3.889  1.9058 -0.0088  0.5032
 1558SOL    HW216308   0.442   1.470   3.856 -1.5064  0.9058  0.6180
 1559SOL     OW16309   3.288   0.002   3.578 -0.4045 -0.3304 -0.4398
 1559SOL    HW116310   3.266   4.703   3.664 -0.1309 -1.1244 -0.7092
 1559SOL    HW216311   3.383   0.004   3.583 -0.3912 -4.4439  1.3075
 1560SOL     OW16312   3.886   1.959   3.423 -0.4716 -0.0205 -0.0062
 1560SOL    HW116313   3.823   1.989   3.489 -0.1956 -0.0816  0.2873
 1560SOL    HW216314   3.840   1.993   3.347 -0.1620 -1.5649 -0.8810
 1561SOL     OW16315   2.151   0.582   7.216 -0.5772 -0.4460 -0.2303
 1561SOL    HW116316   2.096   0.584   7.294 -1.3983  2.2166 -0.8973
 1561SOL    HW216317   2.236   0.557   7.254  0.3334  1.0982 -1.2450
 1562SOL     OW16318   4.324   1.240  11.610 -0.1399  0.2030 -0.3502
 1562SOL    HW116319   4.307   1.166  11.668 -1.1493  0.5584 -0.1838
 1562SOL    HW216320   4.414   1.271  11.622 -0.7549  0.7626  2.8639
 1563SOL     OW16321   3.930   2.419   4.608  0.1747 -0.1329 -0.4239
 1563SOL    HW116322   3.960   2.338   4.648  1.8524  0.8402  0.3114
 1563SOL    HW216323   3.901   2.388   4.523  0.9032 -2.8852  0.3401
 1564SOL     OW16324   3.460   2.439   1.953 -0.6047 -0.5757  0.1290
 1564SOL    HW116325   3.503   2.363   1.991 -0.0404 -0.4622 -0.2766
 1564SOL    HW216326   3.484   2.517   2.003 -2.7456  0.5205 -0.5638
 1565SOL     OW16327   0.206   0.932   7.467 -0.1278  0.6100 -0.3833
 1565SOL    HW116328   0.205   0.971   7.555  2.1610 -1.4702  0.5785
 1565SOL    HW216329   0.141   0.862   7.474 -1.4310  1.8392 -0.2948
 1566SOL     OW16330   4.372   3.739   0.950  0.0927 -0.0932  0.5978
 1566SOL    HW116331   4.288   3.774   0.922 -0.1764 -0.4054  1.0220
 1566SOL    HW216332   4.389   3.658   0.901 -0.6695 -0.1993  0.5176
 1567SOL     OW16333   3.696   4.720   4.195  0.6001 -0.1557 -0.3155
 1567SOL    HW116334   3.724   0.064   4.235 -0.4824 -0.2273  0.5833
 1567SOL    HW216335   3.710   4.664   4.272  0.1460  1.4143  0.9079
 1568SOL     OW16336   1.955   3.305   8.844  0.0569 -0.3714 -0.0864
 1568SOL    HW116337   1.924   3.312   8.934  0.0972 -0.5869 -0.0559
 1568SOL    HW216338   1.927   3.215   8.828 -1.6631  0.2039 -0.3824
 1569SOL     OW16339   3.571   4.325   9.800  0.7468 -0.5069  0.0645
 1569SOL    HW116340   3.583   4.289   9.712 -1.0220 -0.6789 -0.1102
 1569SOL    HW216341   3.564   4.243   9.849  3.0180 -2.2808 -2.5653
 1570SOL     OW16342   1.627   2.884   4.155  0.4476  0.0861 -0.4339
 1570SOL    HW116343   1.608   2.814   4.219 -3.4017 -0.1419 -1.7935
 1570SOL    HW216344   1.576   2.864   4.077  1.4135 -1.2211 -0.7099
 1571SOL     OW16345   1.386   1.836   4.181  0.2594  0.3196 -0.5702
 1571SOL    HW116346   1.452   1.767   4.171  0.4423  0.7717 -2.5034
 1571SOL    HW216347   1.343   1.806   4.261  0.0829 -1.0841 -1.1853
 1572SOL     OW16348   4.696   3.862   7.313 -0.8838  0.1977  0.1900
 1572SOL    HW116349   4.648   3.822   7.241 -1.1936 -1.0932  1.1202
 1572SOL    HW216350   4.700   3.792   7.377  0.0243  0.6130  0.6021
 1573SOL     OW16351   0.361   4.411   9.366  0.0644  0.0512 -0.3909
 1573SOL    HW116352   0.383   4.504   9.363  3.0637 -0.6868 -1.3877
 1573SOL    HW216353   0.281   4.414   9.418 -0.0208  3.3578 -0.6724
 1574SOL     OW16354   4.099   1.962   5.550 -0.5619 -0.5808  0.0206
 1574SOL    HW116355   4.168   1.938   5.489 -2.0344 -1.3697 -1.3403
 1574SOL    HW216356   4.152   2.015   5.609 -1.2208  4.3434 -3.8081
 1575SOL     OW16357   1.885   4.638  13.624  0.5358 -0.4445 -0.1258
 1575SOL    HW116358   1.795   4.658  13.597  0.3351 -0.4477  0.5437
 1575SOL    HW216359   1.897   4.717  13.677  0.7513  0.4293 -1.4709
 1576SOL     OW16360   0.068   2.337   2.445 -0.2148  0.4298 -0.3035
 1576SOL    HW116361   0.069   2.252   2.488  4.1530  0.3164 -0.6188
 1576SOL    HW216362   0.026   2.395   2.508 -1.0808  0.3436 -0.7999
 1577SOL     OW16363   1.966   0.289   5.705  0.2350 -0.0851 -0.3585
 1577SOL    HW116364   1.926   0.277   5.791  0.0964 -0.3260 -0.4588
 1577SOL    HW216365   1.913   0.363   5.676  3.0322  2.0840 -0.0344
 1578SOL     OW16366   0.547   4.577   3.986 -0.0107  0.5454  0.0644
 1578SOL    HW116367   0.595   4.519   3.927 -0.5509  0.2942 -0.1246
 1578SOL    HW216368   0.569   4.537   4.071 -0.6528 -0.4661 -0.2492
 1579SOL     OW16369   0.544   3.815   4.472  0.4387  0.4081 -0.2701
 1579SOL    HW116370   0.625   3.828   4.520  1.1275  0.3877 -1.4210
 1579SOL    HW216371   0.490   3.771   4.538 -2.3075  0.4666 -2.4284
 1580SOL     OW16372   3.880   4.317   3.714  0.1879 -0.0954  0.2585
 1580SOL    HW116373   3.910   4.381   3.649 -2.8099 -1.1372 -2.1640
 1580SOL    HW216374   3.800   4.296   3.666 -1.0523  2.3434  1.2990
 1581SOL     OW16375   3.743   0.278   0.568  0.5247  0.3597 -0.2392
 1581SOL    HW116376   3.725   0.371   0.552 -0.9390 -0.1427 -1.5806
 1581SOL    HW216377   3.834   0.259   0.591  0.6811  1.7106  0.2107
 1582SOL     OW16378   4.056   1.015   7.929 -0.0839 -0.2333 -0.1457
 1582SOL    HW116379   4.064   1.100   7.971  2.7067 -0.0613 -1.0388
 1582SOL    HW216380   4.086   1.038   7.841 -1.0963  2.0590  0.1206
 1583SOL     OW16381   0.861   0.433   4.133 -0.1906  0.1073 -0.4768
 1583SOL    HW116382   0.943   0.452   4.178 -1.9643  1.3062  2.2725
 1583SOL    HW216383   0.885   0.485   4.057 -2.4949 -0.1932 -1.4049
 1584SOL     OW16384   4.277   2.995  17.238  0.4287  0.3431  0.3062
 1584SOL    HW116385   4.281   2.979  17.143  0.2086 -0.4285  0.4263
 1584SOL    HW216386   4.213   2.934  17.274  1.0560 -1.1628 -1.1075
 1585SOL     OW16387   2.596   0.164   7.714 -0.3677 -0.0933  0.5570
 1585SOL    HW116388   2.615   0.216   7.793  0.7068  1.3855 -0.6784
 1585SOL    HW216389   2.537   0.104   7.759 -1.2812  1.3756  1.3460
 1586SOL     OW16390   1.740   2.564   8.301  0.1296  0.2329 -0.2198
 1586SOL    HW116391   1.732   2.658   8.314 -1.2010  0.0852  0.0559
 1586SOL    HW216392   1.753   2.535   8.392 -0.5709 -0.0633 -0.2065
 1587SOL     OW16393   3.473   3.941   6.169 -0.5322 -0.0228  0.1201
 1587SOL    HW116394   3.550   3.989   6.201 -0.3688  0.5399 -1.1253
 1587SOL    HW216395   3.432   3.915   6.251  0.5775 -2.0670  0.0404
 1588SOL     OW16396   2.806   4.383   7.192 -0.4192 -0.6992 -0.9086
 1588SOL    HW116397   2.830   4.460   7.139 -1.8974  0.7496  0.5278
 1588SOL    HW216398   2.753   4.335   7.128 -1.3050 -2.1392  0.9252
 1589SOL     OW16399   0.325   3.288   8.993  0.0352  0.2279  0.0528
 1589SOL    HW116400   0.403   3.339   9.015  0.7341  0.1461 -2.1899
 1589SOL    HW216401   0.271   3.364   8.970 -0.9147 -0.2492  0.7526
 1590SOL     OW16402   0.657   0.433   3.796  0.3175 -0.1250  0.5971
 1590SOL    HW116403   0.673   0.376   3.720 -0.1305  1.1214 -0.4408
 1590SOL    HW216404   0.635   0.514   3.749  1.4444  0.8728  1.8012
 1591SOL     OW16405   1.406   1.585   0.594  0.0493  1.1913 -0.0985
 1591SOL    HW116406   1.342   1.514   0.584 -2.0463  3.1531 -0.6780
 1591SOL    HW216407   1.465   1.571   0.520 -0.3420  0.9540 -0.3659
 1592SOL     OW16408   2.339   2.814   7.598  0.5561  0.3314  0.1180
 1592SOL    HW116409   2.285   2.805   7.519 -2.0187  1.4065  1.7368
 1592SOL    HW216410   2.277   2.779   7.662 -0.5902  0.9904 -0.6349
 1593SOL     OW16411   0.843   3.140  10.822  0.1444  0.0587  0.0171
 1593SOL    HW116412   0.938   3.155  10.823  0.0942  0.3803 -0.1807
 1593SOL    HW216413   0.821   3.105  10.736 -0.7218 -0.7361  0.5622
 1594SOL     OW16414   3.224   1.483   5.143  0.0865  0.2194 -0.0293
 1594SOL    HW116415   3.194   1.414   5.203  1.1146  1.5356  2.0187
 1594SOL    HW216416   3.217   1.439   5.058 -1.6399  1.0260 -0.2963
 1595SOL     OW16417   4.558   2.276  11.222 -0.5039  0.2129 -0.2080
 1595SOL    HW116418   4.609   2.355  11.243 -3.0006  1.4112  1.4328
 1595SOL    HW216419   4.626   2.239  11.166  0.4056 -1.5786  2.0722
 1596SOL     OW16420   3.784   4.387   2.544 -0.2395  0.3468 -0.2975
 1596SOL    HW116421   3.751   4.299   2.524 -0.3053  0.4936 -0.8323
 1596SOL    HW216422   3.869   4.375   2.587 -0.3461  2.2007  0.4114
 1597SOL     OW16423   4.206   1.508   4.135 -0.3117  0.4899  0.2156
 1597SOL    HW116424   4.211   1.599   4.108  1.1498  0.2063 -0.4948
 1597SOL    HW216425   4.229   1.521   4.227 -0.0581  1.6770 -0.0210
 1598SOL     OW16426   0.957   4.566   9.265 -0.2360  0.2300  0.4031
 1598SOL    HW116427   1.047   4.554   9.235 -0.4266  0.4139 -0.2420
 1598SOL    HW216428   0.983   4.568   9.357  0.7837 -1.0982  0.1442
 1599SOL     OW16429   1.002   0.551   2.339 -0.3821  0.0504 -0.0169
 1599SOL    HW116430   1.064   0.604   2.290  1.4064 -2.5082 -0.5515
 1599SOL    HW216431   0.964   0.624   2.387  0.6673 -1.4131  3.0485
 1600SOL     OW16432   0.746   3.027  12.160  0.3506  0.4335 -0.8243
 1600SOL    HW116433   0.668   2.972  12.153  0.5289  0.1056 -0.2621
 1600SOL    HW216434   0.790   3.016  12.075  0.4420  1.4475 -0.9021
 1601SOL     OW16435   2.080   1.757  13.868 -0.1540 -0.0384  0.6906
 1601SOL    HW116436   2.117   1.796  13.947  0.2995 -1.5144  1.2057
 1601SOL    HW216437   2.088   1.832  13.810 -0.8796 -0.4521  0.0513
 1602SOL     OW16438   1.488   4.338  11.936 -0.5778  0.2430 -0.2217
 1602SOL    HW116439   1.491   4.277  12.010 -0.2746 -2.8445 -2.7586
 1602SOL    HW216440   1.393   4.350  11.930 -0.4978 -0.4834 -3.0228
 1603SOL     OW16441   2.121   1.520   0.707  0.1607  0.9616  0.5628
 1603SOL    HW116442   2.202   1.473   0.726 -1.0391 -1.4068 -0.2432
 1603SOL    HW216443   2.112   1.574   0.785 -2.0973  1.9204 -0.3616
 1604SOL     OW16444   0.969   2.376   2.089 -0.4471  0.0582  0.0385
 1604SOL    HW116445   0.924   2.294   2.068 -1.1060 -0.0375  1.8913
 1604SOL    HW216446   1.053   2.350   2.050  0.5105  0.3807  1.8876
 1605SOL     OW16447   1.233   2.608   3.282 -0.6037  0.0875  0.8960
 1605SOL    HW116448   1.302   2.657   3.326 -1.7744  2.0493  0.5662
 1605SOL    HW216449   1.176   2.591   3.357 -0.6793  2.2128  1.3300
 1606SOL     OW16450   1.201   0.918   2.039 -0.1586  0.0677 -0.1349
 1606SOL    HW116451   1.261   0.990   2.059 -1.5002  1.0138  0.5063
 1606SOL    HW216452   1.148   0.952   1.967 -0.4636  0.6848  0.3787
 1607SOL     OW16453   0.227   3.785  14.128 -0.2974 -0.2356  0.3699
 1607SOL    HW116454   0.255   3.795  14.218  2.5967  0.6821 -0.6462
 1607SOL    HW216455   0.312   3.798  14.086 -1.1035  0.7696 -0.9754
 1608SOL     OW16456   1.497   2.016   7.709  0.1930 -0.5992  0.4973
 1608SOL    HW116457   1.578   1.977   7.742 -0.9560 -3.1586  0.2964
 1608SOL    HW216458   1.426   1.961   7.742  1.5933 -0.7238  3.3317
 1609SOL     OW16459   0.331   3.505   5.096  0.2385 -0.6471 -0.1850
 1609SOL    HW116460   0.312   3.528   5.187  2.6866  2.0709 -0.3532
 1609SOL    HW216461   0.367   3.417   5.112  1.6626  0.2007  1.3023
 1610SOL     OW16462   4.423   0.446   3.545 -0.0842  1.2164  0.1833
 1610SOL    HW116463   4.388   0.378   3.603 -0.3155 -0.0700 -1.4677
 1610SOL    HW216464   4.466   0.399   3.474 -1.2741 -0.5318  0.6401
 1611SOL     OW16465   0.340   2.431   2.692  0.1844  0.1089 -0.5604
 1611SOL    HW116466   0.309   2.515   2.727 -0.7598  0.4242 -2.1194
 1611SOL    HW216467   0.425   2.460   2.659  1.3505  0.1618  2.4497
 1612SOL     OW16468   4.672   1.080   2.415 -0.9295 -0.5729 -0.4417
 1612SOL    HW116469   4.662   1.112   2.325 -1.2727 -0.0128 -0.2008
 1612SOL    HW216470   0.028   1.061   2.416 -0.9676 -0.6941  0.3714
 1613SOL     OW16471   3.949   1.109   5.053 -0.1132 -0.0291  0.5066
 1613SOL    HW116472   3.895   1.092   5.130 -2.1652  1.6656 -0.5474
 1613SOL    HW216473   4.030   1.061   5.071  0.2665  0.1440 -0.7877
 1614SOL     OW16474   4.678   2.142   7.420  0.5550  0.3173  0.4670
 1614SOL    HW116475   0.032   2.152   7.397  0.0741  0.1631 -1.5334
 1614SOL    HW216476   4.640   2.199   7.353  1.9443  0.6719 -0.0103
 1615SOL     OW16477   3.948   2.086  17.326 -0.2349  0.1604 -0.2957
 1615SOL    HW116478   3.872   2.121  17.373 -0.2364 -1.4814  0.9424
 1615SOL    HW216479   3.947   2.151  17.256 -1.1270  0.0822 -0.3620
 1616SOL     OW16480   2.315   3.579   9.632 -0.1740  0.0615  0.1831
 1616SOL    HW116481   2.308   3.537   9.718  0.2198 -2.3665 -0.9574
 1616SOL    HW216482   2.229   3.572   9.589 -0.9794  0.5194  1.7219
 1617SOL     OW16483   0.056   0.146   7.282 -0.1393 -0.0517 -0.2730
 1617SOL    HW116484   0.097   0.068   7.243 -2.2955 -1.1152 -0.4217
 1617SOL    HW216485   0.037   0.119   7.372 -0.6056  0.0694 -0.3355
 1618SOL     OW16486   1.885   3.284   6.956  0.1540 -0.3690  0.2117
 1618SOL    HW116487   1.901   3.379   6.953 -2.1797  0.0188  0.5321
 1618SOL    HW216488   1.790   3.289   6.947 -0.1124 -2.4055  1.8511
 1619SOL     OW16489   2.136   1.429   8.487 -0.3337  0.7631 -0.6833
 1619SOL    HW116490   2.062   1.376   8.516  2.3981 -3.8929 -2.1607
 1619SOL    HW216491   2.083   1.504   8.461  0.0387  0.9462 -0.9159
 1620SOL     OW16492   3.527   2.328   2.305  0.2819 -0.3591  0.6121
 1620SOL    HW116493   3.547   2.418   2.281  0.7078 -0.2795  1.2820
 1620SOL    HW216494   3.574   2.283   2.234 -0.8143  1.0621 -1.0234
 1621SOL     OW16495   1.528   3.427   2.403 -0.3527 -0.2230 -0.5597
 1621SOL    HW116496   1.593   3.497   2.409  1.2516 -1.6165 -1.3109
 1621SOL    HW216497   1.473   3.472   2.340 -1.9843 -0.6606  0.5564
 1622SOL     OW16498   2.471   0.243   2.023  0.1062  0.0004  0.6337
 1622SOL    HW116499   2.555   0.271   2.061  0.2592  1.2339 -0.6057
 1622SOL    HW216500   2.474   0.273   1.932  0.7473  0.2610  0.7438
 1623SOL     OW16501   1.264   4.206   1.748  0.2141 -0.3819  0.0182
 1623SOL    HW116502   1.279   4.295   1.717  0.0307 -0.9961 -1.8342
 1623SOL    HW216503   1.169   4.216   1.749  0.0601 -1.4648 -3.8055
 1624SOL     OW16504   0.821   1.073   7.003 -0.3504  0.3832  0.3680
 1624SOL    HW116505   0.893   1.010   7.006 -0.9094 -0.2771 -0.2564
 1624SOL    HW216506   0.825   1.086   6.908 -1.7817  2.2125  0.5511
 1625SOL     OW16507   0.386   1.288  15.422  0.0302  0.6322 -0.2542
 1625SOL    HW116508   0.455   1.354  15.418  1.2994 -0.6437  0.5529
 1625SOL    HW216509   0.399   1.243  15.339 -1.2044 -0.9886  0.4238
 1626SOL     OW16510   3.313   3.121   5.977  0.4881  0.1383  0.0301
 1626SOL    HW116511   3.224   3.148   5.956  0.1749 -1.6931 -0.9867
 1626SOL    HW216512   3.301   3.026   5.984  0.2810  0.0836 -1.0561
 1627SOL     OW16513   0.033   2.665   5.790  0.3574  0.4066 -0.0117
 1627SOL    HW116514   4.711   2.734   5.763  0.1661 -0.0771 -0.8607
 1627SOL    HW216515   4.722   2.588   5.761 -2.3601  2.7878 -1.6984
 1628SOL     OW16516   1.757   4.057   6.929  0.0163 -0.4023  0.2401
 1628SOL    HW116517   1.700   4.061   6.852  0.5929  1.1554 -0.1128
 1628SOL    HW216518   1.719   4.133   6.975 -0.0996 -0.8849  0.9342
 1629SOL     OW16519   3.559   2.084   1.874 -0.5945  0.5039 -0.0990
 1629SOL    HW116520   3.510   2.004   1.889  1.6847 -1.0614 -1.0817
 1629SOL    HW216521   3.568   2.090   1.779 -0.6305  1.5146 -0.0381
 1630SOL     OW16522   4.632   0.941  13.427 -0.0764 -0.0444  0.4861
 1630SOL    HW116523   4.717   0.983  13.437  0.4089 -1.2787  1.6001
 1630SOL    HW216524   4.658   0.884  13.354 -3.4075  0.0340 -0.7565
 1631SOL     OW16525   1.840   0.164   7.953 -0.2464 -0.0346 -0.5404
 1631SOL    HW116526   1.794   0.247   7.967 -1.1241 -0.5334 -0.4576
 1631SOL    HW216527   1.926   0.192   7.920 -0.7204  2.1628  0.0882
 1632SOL     OW16528   2.882   0.874   2.007  0.0742 -0.8972 -0.7521
 1632SOL    HW116529   2.962   0.871   2.059 -1.0151  0.5201  0.9881
 1632SOL    HW216530   2.841   0.787   2.011 -3.0456  0.8919  5.1441
 1633SOL     OW16531   2.507   0.116   6.318 -0.3385 -0.6185  0.2038
 1633SOL    HW116532   2.510   0.208   6.292 -1.5048 -0.9415 -1.1016
 1633SOL    HW216533   2.598   0.086   6.328  0.0959  0.6461  0.0026
 1634SOL     OW16534   3.879   3.329   1.904  0.0202  0.3149 -0.3529
 1634SOL    HW116535   3.962   3.299   1.866  0.5197  0.1812  0.8371
 1634SOL    HW216536   3.867   3.257   1.967 -2.1169  2.1181  1.3009
 1635SOL     OW16537   1.554   3.125  14.630 -0.4969 -0.5653 -0.0240
 1635SOL    HW116538   1.482   3.090  14.682 -1.0925  0.3668 -0.2369
 1635SOL    HW216539   1.520   3.127  14.541 -1.1235 -0.4178  0.2181
 1636SOL     OW16540   1.379   2.508   5.956  0.2113  0.0648 -0.6097
 1636SOL    HW116541   1.380   2.522   6.051  0.1630 -0.9276 -0.4673
 1636SOL    HW216542   1.376   2.599   5.926 -2.2876  0.0751 -0.3591
 1637SOL     OW16543   0.824   4.342  13.102 -0.1154 -0.4925 -0.3493
 1637SOL    HW116544   0.864   4.390  13.029  0.3783  0.2970  0.4378
 1637SOL    HW216545   0.869   4.258  13.101  2.0271  0.6402  2.7772
 1638SOL     OW16546   4.569   0.167   8.661  0.3387 -0.1354 -0.1251
 1638SOL    HW116547   4.495   0.220   8.631  0.3376  0.2341  0.5405
 1638SOL    HW216548   4.566   0.105   8.589 -1.3332 -0.1627 -0.0372
 1639SOL     OW16549   2.094   3.550   9.101 -0.2861 -0.0964 -0.0920
 1639SOL    HW116550   2.157   3.604   9.148 -1.3195  1.8969 -1.0114
 1639SOL    HW216551   2.131   3.462   9.098 -0.0485 -0.0010  0.0584
 1640SOL     OW16552   0.499   1.486   9.411  0.4539 -0.4405  0.3989
 1640SOL    HW116553   0.474   1.484   9.504 -0.2174 -2.7603  0.1734
 1640SOL    HW216554   0.452   1.408   9.380  0.6796 -0.0831 -0.8258
 1641SOL     OW16555   4.656   2.976   3.778  0.1521  0.9037 -0.6669
 1641SOL    HW116556   4.661   2.881   3.780  1.4634  0.9727 -0.6440
 1641SOL    HW216557   0.005   3.006   3.805  0.7513  0.3585 -1.9847
 1642SOL     OW16558   2.985   3.545   1.966 -0.5306 -0.5132 -0.0917
 1642SOL    HW116559   2.946   3.628   1.994  2.0095  0.1528  1.4239
 1642SOL    HW216560   3.073   3.565   1.934 -0.5908 -0.9226 -0.5275
 1643SOL     OW16561   3.836   0.357   4.928 -0.4203 -0.0793  0.3193
 1643SOL    HW116562   3.911   0.389   4.978 -0.9929  1.5951  0.1106
 1643SOL    HW216563   3.843   0.410   4.849 -0.5685 -1.5627 -0.6988
 1644SOL     OW16564   1.651   1.510   3.320 -0.0741  0.2585 -0.0597
 1644SOL    HW116565   1.733   1.527   3.367 -0.8366  0.2531  1.2786
 1644SOL    HW216566   1.680   1.447   3.255  1.4408  0.6126  0.2756
 1645SOL     OW16567   0.382   0.853  15.912 -0.9405 -0.6569 -0.5069
 1645SOL    HW116568   0.453   0.903  15.871 -1.0626  0.0543  0.1351
 1645SOL    HW216569   0.428   0.787  15.964 -1.1100 -1.6979 -1.6835
 1646SOL     OW16570   4.549   2.278   4.773 -0.3914  0.0060  0.6633
 1646SOL    HW116571   4.579   2.338   4.841 -0.1913 -0.6508  1.1600
 1646SOL    HW216572   4.545   2.337   4.698  0.7108 -2.5518 -1.3966
 1647SOL     OW16573   2.015   2.207   2.487  0.1660 -0.0384 -0.0236
 1647SOL    HW116574   1.944   2.228   2.427  0.5542  0.1146 -0.4290
 1647SOL    HW216575   2.009   2.277   2.553  1.6030 -0.2815  0.3587
 1648SOL     OW16576   1.507   3.773   7.582 -0.8524 -0.6249  0.1751
 1648SOL    HW116577   1.448   3.847   7.591 -1.1632 -0.7790 -0.6232
 1648SOL    HW216578   1.557   3.775   7.664 -2.8863 -0.6817  1.4147
 1649SOL     OW16579   4.481   0.833  16.948  0.1132 -0.1223  0.1217
 1649SOL    HW116580   4.405   0.852  16.894 -1.1196  0.9325  2.2270
 1649SOL    HW216581   4.475   0.745  16.986 -0.1593  0.3675  1.1937
 1650SOL     OW16582   0.218   1.163  15.881 -0.5580  0.0297 -0.7224
 1650SOL    HW116583   0.304   1.182  15.844 -0.8062 -0.1351 -1.3964
 1650SOL    HW216584   0.179   1.250  15.876 -0.7998 -0.0489 -0.1897
 1651SOL     OW16585   2.893   1.782   9.832  0.0168 -0.4317  0.0506
 1651SOL    HW116586   2.800   1.762   9.844 -0.1707  1.1508  1.2518
 1651SOL    HW216587   2.934   1.706   9.791 -0.2125  0.1269 -1.2297
 1652SOL     OW16588   4.057   1.871  13.836 -0.1371  0.4010 -0.7051
 1652SOL    HW116589   4.036   1.803  13.901  1.4183 -0.0890 -0.7351
 1652SOL    HW216590   4.150   1.892  13.841 -0.2282  0.6470 -0.0259
 1653SOL     OW16591   0.014   3.851   7.664 -0.5147  0.2818 -0.6816
 1653SOL    HW116592   4.710   3.788   7.605  0.8031  0.1463 -1.4828
 1653SOL    HW216593   4.680   3.913   7.675 -0.1604  0.4909  0.4506
 1654SOL     OW16594   2.790   1.827   5.129 -0.2610  0.1677  0.7487
 1654SOL    HW116595   2.857   1.862   5.069  0.8360  0.7415  2.3207
 1654SOL    HW216596   2.841   1.764   5.180 -1.2065 -1.0004  0.2328
 1655SOL     OW16597   1.680   3.035   4.870  0.4920 -0.8803  0.1906
 1655SOL    HW116598   1.644   3.072   4.790 -1.4211 -2.0560  0.5027
 1655SOL    HW216599   1.772   3.059   4.865  0.6949 -1.5252  0.8003
 1656SOL     OW16600   0.424   3.361  14.153 -0.1087  0.5870 -0.2739
 1656SOL    HW116601   0.484   3.288  14.139 -1.6292 -1.1073  2.0714
 1656SOL    HW216602   0.412   3.378  14.060 -1.6626  0.9078 -0.0237
 1657SOL     OW16603   4.702   2.034   4.738 -0.3921 -0.1386  0.3293
 1657SOL    HW116604   4.652   2.115   4.730 -0.6131  0.2023  4.9329
 1657SOL    HW216605   4.709   2.001   4.649 -0.3246 -0.0151  0.2892
 1658SOL     OW16606   3.841   2.399   8.359  0.4683 -0.7316  0.5169
 1658SOL    HW116607   3.932   2.373   8.374  0.3982 -1.3848 -0.2147
 1658SOL    HW216608   3.788   2.319   8.359 -0.8440  0.1310  0.3950
 1659SOL     OW16609   0.915   0.492   8.452 -0.1049  0.3591  0.0082
 1659SOL    HW116610   0.858   0.557   8.493 -1.3321 -0.7694  0.0765
 1659SOL    HW216611   0.859   0.414   8.447  0.8848 -0.2394 -1.5524
 1660SOL     OW16612   1.363   2.003   3.875  0.2732 -0.2226 -0.4129
 1660SOL    HW116613   1.288   1.944   3.880  0.8198 -0.8491  0.4308
 1660SOL    HW216614   1.439   1.947   3.888  0.6041 -0.2413 -2.4973
 1661SOL     OW16615   0.567   0.891   0.022 -0.6376 -0.2081 -0.5531
 1661SOL    HW116616   0.524   0.809  17.747  1.5004 -1.8815  1.2629
 1661SOL    HW216617   0.650   0.863   0.061  0.4928  2.5816 -0.9716
 1662SOL     OW16618   2.199   0.139   6.119  0.2684  0.0194  0.2183
 1662SOL    HW116619   2.115   0.095   6.131  0.1047  0.2326 -0.1712
 1662SOL    HW216620   2.263   0.068   6.113  1.3938  0.9707  0.9909
 1663SOL     OW16621   2.727   1.209   2.384 -0.7751  0.4633  0.0318
 1663SOL    HW116622   2.749   1.116   2.394 -1.5912  0.0401 -2.2184
 1663SOL    HW216623   2.744   1.252   2.468  1.4109  1.4220 -0.9019
 1664SOL     OW16624   3.642   0.248   3.709  0.3004  0.2895 -0.2006
 1664SOL    HW116625   3.671   0.157   3.709 -0.4644  0.0387 -1.3099
 1664SOL    HW216626   3.662   0.279   3.797 -1.1081  1.7519 -0.3897
 1665SOL     OW16627   3.823   4.158   3.366  0.3903 -0.2256  0.1219
 1665SOL    HW116628   3.910   4.120   3.377  0.3259 -0.3168  0.3083
 1665SOL    HW216629   3.836   4.247   3.399 -1.1397 -0.0507  0.2303
 1666SOL     OW16630   4.710   0.412   7.367  0.3065 -0.0250  0.3054
 1666SOL    HW116631   4.686   0.320   7.374 -0.4997  0.1761  0.2779
 1666SOL    HW216632   4.667   0.454   7.441 -0.5197  0.6743 -0.5577
 1667SOL     OW16633   1.460   2.142   3.463 -0.3854  0.0699  0.5312
 1667SOL    HW116634   1.518   2.067   3.452 -2.1556 -0.9931 -1.4254
 1667SOL    HW216635   1.509   2.217   3.430  1.0835 -1.4208 -0.6740
 1668SOL     OW16636   0.555   1.125  15.553  0.6150  0.2321  1.2210
 1668SOL    HW116637   0.505   1.188  15.501  0.8555 -1.2741 -0.7915
 1668SOL    HW216638   0.636   1.130  15.504  0.1036 -3.0144  0.1039
 1669SOL     OW16639   1.066   2.357  11.169  0.2752  0.2278 -0.5252
 1669SOL    HW116640   1.142   2.412  11.149 -1.1905  2.4597  0.0025
 1669SOL    HW216641   1.085   2.317  11.254 -0.9282  1.3037  0.2565
 1670SOL     OW16642   4.023   0.495   5.123  0.2668 -0.2998  0.1268
 1670SOL    HW116643   3.978   0.435   5.182  1.7474 -0.6841  0.8679
 1670SOL    HW216644   4.101   0.517   5.174  2.1103 -2.7979 -1.6176
 1671SOL     OW16645   1.578   2.108  10.302 -0.5101 -0.1417 -0.5675
 1671SOL    HW116646   1.654   2.161  10.278  1.6460 -2.5513  0.9678
 1671SOL    HW216647   1.524   2.171  10.350 -0.3317 -1.6438  1.5980
 1672SOL     OW16648   2.649   4.291   4.915  0.0038 -0.1446 -0.1239
 1672SOL    HW116649   2.683   4.344   4.842 -0.1059  1.4388  0.9631
 1672SOL    HW216650   2.565   4.270   4.875  0.4100  1.0319 -1.5897
 1673SOL     OW16651   3.132   3.289  15.364  0.3729  0.0540  0.3533
 1673SOL    HW116652   3.123   3.289  15.459 -2.1313  0.4262  0.1214
 1673SOL    HW216653   3.178   3.372  15.354 -0.7742  0.4617 -1.4937
 1674SOL     OW16654   2.407   3.965   0.815  0.0055  0.1433 -0.6657
 1674SOL    HW116655   2.435   4.020   0.889  0.7649 -1.0372 -0.0663
 1674SOL    HW216656   2.312   3.972   0.814 -0.1407 -1.1522  1.5826
 1675SOL     OW16657   1.340   1.326   3.996  0.2467 -0.6842  0.3199
 1675SOL    HW116658   1.287   1.392   4.040 -1.2155 -1.2303 -0.6253
 1675SOL    HW216659   1.399   1.383   3.946 -0.5182  0.0668  0.2798
 1676SOL     OW16660   4.032   0.976   2.506 -0.6108  0.0186 -0.6306
 1676SOL    HW116661   3.978   0.897   2.501 -0.9978  0.3415 -1.5135
 1676SOL    HW216662   4.040   0.981   2.602 -0.7800 -1.7368 -0.5266
 1677SOL     OW16663   3.120   2.990   0.606  0.0629  0.0453 -0.7864
 1677SOL    HW116664   3.141   3.077   0.641  2.5809 -0.3405 -1.3327
 1677SOL    HW216665   3.181   2.979   0.533  0.3568 -0.6614 -0.4388
 1678SOL     OW16666   4.545   0.616  17.135 -0.3217 -0.1440 -0.1504
 1678SOL    HW116667   4.501   0.625  17.219  0.4694  1.2048  0.1279
 1678SOL    HW216668   4.539   0.522  17.121 -0.3307  0.2530 -2.8112
 1679SOL     OW16669   2.735   2.079  12.335  0.1288  0.1615 -0.0453
 1679SOL    HW116670   2.662   2.023  12.362 -0.9894  1.5425 -0.2447
 1679SOL    HW216671   2.773   2.021  12.269  1.8816  1.7145 -0.4015
 1680SOL     OW16672   4.321   3.506   9.354 -0.2506 -0.5864  0.3559
 1680SOL    HW116673   4.273   3.517   9.436 -2.7997  2.1824 -1.4693
 1680SOL    HW216674   4.398   3.562   9.359  0.4595 -1.8715  3.8036
 1681SOL     OW16675   3.767   2.604  12.533 -0.0729 -0.0004  0.1804
 1681SOL    HW116676   3.715   2.571  12.606  0.4609 -1.6539 -0.1879
 1681SOL    HW216677   3.853   2.564  12.543 -1.1159 -2.4895 -0.7875
 1682SOL     OW16678   1.248   0.206   3.676  0.3218 -0.5875 -0.4891
 1682SOL    HW116679   1.271   0.139   3.740  0.8073  0.1210  0.0748
 1682SOL    HW216680   1.153   0.198   3.671  0.1013  1.3012  0.8860
 1683SOL     OW16681   1.172   3.186  10.502 -0.3565  0.1823  0.4890
 1683SOL    HW116682   1.085   3.213  10.472 -1.1784 -0.5445  2.2370
 1683SOL    HW216683   1.188   3.113  10.442 -2.0901 -0.0050  0.2484
 1684SOL     OW16684   1.480   2.136   8.280 -0.5535  0.1047 -0.3176
 1684SOL    HW116685   1.495   2.182   8.363  1.2634  0.7665 -1.0115
 1684SOL    HW216686   1.486   2.215   8.227  1.5908 -0.9239 -1.6132
 1685SOL     OW16687   4.425   1.079   5.939 -0.0542  0.1680 -0.3002
 1685SOL    HW116688   4.347   1.058   5.991 -0.1798  1.6919  0.1399
 1685SOL    HW216689   4.396   1.161   5.898  4.0433  1.2578 -1.0293
 1686SOL     OW16690   0.518   3.547  10.281 -0.3569 -0.8543 -0.4809
 1686SOL    HW116691   0.432   3.589  10.274  0.2878  0.2914 -1.3635
 1686SOL    HW216692   0.562   3.629  10.262 -2.3358  0.0620 -1.1404
 1687SOL     OW16693   1.507   3.487   0.271 -0.4803 -0.9531 -0.6470
 1687SOL    HW116694   1.412   3.484   0.280 -0.2436 -2.9269  1.1991
 1687SOL    HW216695   1.539   3.431   0.342  0.3759 -0.7317 -0.8595
 1688SOL     OW16696   1.363   3.624   1.723  0.3954  0.0167  0.5680
 1688SOL    HW116697   1.439   3.656   1.673 -0.7680 -0.4934 -1.5078
 1688SOL    HW216698   1.383   3.659   1.810 -1.8019  0.7014  0.7913
 1689SOL     OW16699   1.214   1.128   3.852 -0.0668  0.6586 -0.2844
 1689SOL    HW116700   1.260   1.186   3.912 -0.0608 -1.6526  1.9473
 1689SOL    HW216701   1.274   1.136   3.778  0.6419 -1.0261  0.1095
 1690SOL     OW16702   1.463   0.833   2.322  0.5526 -0.3068  0.4314
 1690SOL    HW116703   1.484   0.913   2.274  1.3154  0.1227  1.4916
 1690SOL    HW216704   1.500   0.771   2.260  2.3223 -0.4186  1.6086
 1691SOL     OW16705   1.081   1.154   7.885 -0.4161  0.1276  0.3911
 1691SOL    HW116706   1.160   1.183   7.841 -1.4060 -0.7626 -1.9828
 1691SOL    HW216707   1.123   1.114   7.961 -0.7398 -0.5408  0.2210
 1692SOL     OW16708   1.170   2.239   8.171 -0.0596 -0.3552 -0.0179
 1692SOL    HW116709   1.182   2.333   8.166 -1.0586 -0.1116  2.1152
 1692SOL    HW216710   1.118   2.230   8.091 -2.2348  0.6666  1.2910
 1693SOL     OW16711   3.040   3.553   7.406  0.2001 -0.0582 -0.3614
 1693SOL    HW116712   3.004   3.505   7.481 -3.1049  0.2309 -1.8157
 1693SOL    HW216713   3.128   3.580   7.436  0.9328  0.4761 -3.0480
 1694SOL     OW16714   2.443   1.023   6.559 -0.2885  0.8703 -0.4442
 1694SOL    HW116715   2.468   1.106   6.519  0.5387 -1.3677 -4.6271
 1694SOL    HW216716   2.348   1.017   6.556 -0.2894  0.7456 -0.1953
 1695SOL     OW16717   4.617   4.715   5.172 -0.3689  0.1229 -0.3130
 1695SOL    HW116718   4.557   4.660   5.222 -0.2737  2.4749  2.4099
 1695SOL    HW216719   4.667   0.016   5.244 -1.8913  1.1923  0.1856
 1696SOL     OW16720   1.765   3.207   3.522  0.1802 -0.2752  0.6747
 1696SOL    HW116721   1.858   3.185   3.522  0.1068 -0.5634  2.1038
 1696SOL    HW216722   1.745   3.209   3.616  0.8716  2.6345  0.7799
 1697SOL     OW16723   3.028   3.475   2.284 -0.0528 -0.6384  0.3576
 1697SOL    HW116724   2.953   3.532   2.263 -1.0453 -2.2416 -0.4424
 1697SOL    HW216725   3.080   3.464   2.204  0.2197  0.3993  0.3875
 1698SOL     OW16726   3.759   2.942   5.953  0.2325 -0.0287 -0.3427
 1698SOL    HW116727   3.741   2.942   6.047 -0.8095 -2.0462 -0.5432
 1698SOL    HW216728   3.835   3.001   5.957 -0.4195  0.9042 -1.6230
 1699SOL     OW16729   0.659   2.699  11.650 -0.0238 -0.1412 -0.0944
 1699SOL    HW116730   0.714   2.670  11.723  1.0280 -0.5079 -1.0265
 1699SOL    HW216731   0.708   2.777  11.624 -1.6649  1.1315  0.6285
 1700SOL     OW16732   0.627   3.968   7.902  0.9973  0.2475  0.0837
 1700SOL    HW116733   0.566   3.907   7.859 -1.3217  2.2663  0.5235
 1700SOL    HW216734   0.584   3.992   7.985 -0.7160 -0.9891 -0.4305
 1701SOL     OW16735   4.418   4.486   7.660 -0.1732 -0.3501  0.0869
 1701SOL    HW116736   4.402   4.408   7.712 -0.0790 -0.5795 -0.2239
 1701SOL    HW216737   4.425   4.455   7.569 -0.3572 -0.6427  0.1742
 1702SOL     OW16738   2.026   0.208   9.886  0.5869  0.2639 -1.1457
 1702SOL    HW116739   2.058   0.158   9.962  0.5146  1.0759 -0.5886
 1702SOL    HW216740   2.092   0.190   9.819  2.6339 -0.0331  0.9498
 1703SOL     OW16741   2.520   0.145  12.861  0.1226 -0.2970  0.6200
 1703SOL    HW116742   2.597   0.201  12.863  0.2542 -0.4645  0.1586
 1703SOL    HW216743   2.490   0.163  12.772  0.4458 -1.5183  0.2583
 1704SOL     OW16744   3.193   1.138  12.744  0.1299  0.3050  0.6280
 1704SOL    HW116745   3.169   1.230  12.741 -0.6235  0.0990  0.2714
 1704SOL    HW216746   3.288   1.145  12.736  0.1459 -0.7402 -0.1463
 1705SOL     OW16747   2.024   0.972  17.214  0.8518  0.2210 -0.2131
 1705SOL    HW116748   2.111   0.941  17.190  1.1085 -2.1353  3.6800
 1705SOL    HW216749   1.989   0.970  17.125 -0.2780 -1.3791  0.2646
 1706SOL     OW16750   2.112   0.873   8.643  0.1086 -0.0431  0.2659
 1706SOL    HW116751   2.194   0.913   8.673 -0.8485  2.0544  0.0377
 1706SOL    HW216752   2.085   0.824   8.721 -1.5505  2.7963  1.4876
 1707SOL     OW16753   3.199   1.115  10.084 -0.4623  0.4303 -0.1770
 1707SOL    HW116754   3.185   1.057  10.010  0.3473  0.1009 -0.0722
 1707SOL    HW216755   3.176   1.200  10.046 -1.9760 -1.0843 -2.6556
 1708SOL     OW16756   2.991   1.068  16.510  0.4295 -0.7841 -0.2249
 1708SOL    HW116757   2.936   1.127  16.561 -0.0913 -1.0127 -0.5232
 1708SOL    HW216758   3.067   1.126  16.510 -0.2948  0.1442  2.0305
 1709SOL     OW16759   0.200   4.304   5.137 -0.1715  0.5137 -0.0302
 1709SOL    HW116760   0.126   4.357   5.110 -0.0548  1.0102  0.6158
 1709SOL    HW216761   0.264   4.325   5.069  0.9962  0.0088  0.9059
 1710SOL     OW16762   1.491   1.778   2.066 -0.0173 -0.2819 -0.3303
 1710SOL    HW116763   1.418   1.794   2.125 -2.1770 -1.6516 -2.6308
 1710SOL    HW216764   1.523   1.696   2.103  0.4024 -0.0500 -0.1726
 1711SOL     OW16765   3.915   2.829  15.824  0.2295 -0.1232 -0.1089
 1711SOL    HW116766   3.978   2.800  15.758 -1.6398 -3.2122 -0.5459
 1711SOL    HW216767   3.957   2.780  15.895 -2.1418 -0.5135  1.0562
 1712SOL     OW16768   3.515   3.527   1.135  0.4217 -0.2635  0.2715
 1712SOL    HW116769   3.549   3.551   1.221 -2.0453  2.5222  0.5016
 1712SOL    HW216770   3.468   3.444   1.142  0.1260 -0.2397 -1.3507
 1713SOL     OW16771   4.648   1.132   4.604  0.3196 -0.5469 -0.4958
 1713SOL    HW116772   4.622   1.220   4.576 -0.1735 -0.3658  0.5019
 1713SOL    HW216773   4.634   1.140   4.699 -1.6139  0.2338 -0.8511
 1714SOL     OW16774   2.119   2.260   1.408 -0.2496  0.2874  0.3962
 1714SOL    HW116775   2.088   2.316   1.337 -2.2434 -1.2648  0.0244
 1714SOL    HW216776   2.179   2.321   1.451  1.9205 -0.6659 -1.2841
 1715SOL     OW16777   0.365   3.226   7.792 -0.0829  0.2375 -0.0602
 1715SOL    HW116778   0.314   3.147   7.810 -1.6972  1.4064  0.4790
 1715SOL    HW216779   0.448   3.214   7.839 -1.8677 -1.9703  2.4879
 1716SOL     OW16780   1.979   4.625   7.886 -0.3074 -0.2604 -0.3950
 1716SOL    HW116781   1.884   4.638   7.876 -0.4484 -1.5241 -0.7161
 1716SOL    HW216782   1.999   4.718   7.873 -0.0888 -0.3829 -0.9361
 1717SOL     OW16783   2.458   1.615   2.732 -0.3860 -0.1691  0.5699
 1717SOL    HW116784   2.406   1.536   2.740  1.7614 -1.5422  1.1268
 1717SOL    HW216785   2.472   1.634   2.825  0.8993  0.0426  0.3394
 1718SOL     OW16786   1.117   0.211   8.135 -0.2849 -0.0728  0.4442
 1718SOL    HW116787   1.134   0.305   8.146 -1.4075  0.1321  0.4228
 1718SOL    HW216788   1.069   0.203   8.218 -1.5813  0.2575 -0.2752
 1719SOL     OW16789   2.871   1.783  12.815  0.1738  0.0325  0.4038
 1719SOL    HW116790   2.873   1.762  12.908 -2.9085 -1.2532  0.1627
 1719SOL    HW216791   2.908   1.871  12.813  2.4169 -0.9858 -3.6150
 1720SOL     OW16792   0.663   3.293   8.337  0.0809  0.0785 -0.6728
 1720SOL    HW116793   0.635   3.208   8.306 -2.0988  0.8103 -0.7383
 1720SOL    HW216794   0.579   3.339   8.329 -0.9189 -1.3734  1.3370
 1721SOL     OW16795   3.747   3.800   5.381  0.2520 -0.3050  0.1053
 1721SOL    HW116796   3.793   3.740   5.440  1.2937 -1.1378 -1.5436
 1721SOL    HW216797   3.685   3.837   5.444 -0.9726 -0.9833 -0.7260
 1722SOL     OW16798   0.277   1.751  15.636 -0.4714  0.1626 -0.0821
 1722SOL    HW116799   0.319   1.680  15.685 -0.0089  0.8460  0.5082
 1722SOL    HW216800   0.332   1.763  15.559  0.3489 -0.1544  0.4562
 1723SOL     OW16801   3.274   4.301   6.991 -0.1531  0.8793 -0.0629
 1723SOL    HW116802   3.246   4.382   6.949 -2.1195 -0.2954 -0.9890
 1723SOL    HW216803   3.335   4.266   6.926 -1.2220 -2.1669  0.5786
 1724SOL     OW16804   3.326   2.274   0.686 -0.0075 -0.3174  0.2384
 1724SOL    HW116805   3.409   2.301   0.647  0.5468 -1.0790  0.8874
 1724SOL    HW216806   3.270   2.351   0.678 -1.5486 -1.4628 -0.2833
 1725SOL     OW16807   0.883   2.525   2.794 -0.1276  0.1451 -0.0166
 1725SOL    HW116808   0.887   2.450   2.735 -1.0554 -0.1933  0.3574
 1725SOL    HW216809   0.972   2.532   2.828 -0.8301  1.9143  1.5057
 1726SOL     OW16810   2.746   4.720   9.656 -0.2297 -0.1339 -0.1480
 1726SOL    HW116811   2.789   0.067   9.672  0.1856 -0.1720 -1.0689
 1726SOL    HW216812   2.742   4.732   9.561 -1.3336  0.4667 -0.0359
 1727SOL     OW16813   1.755   3.757   8.656  0.3091  0.1183 -0.2237
 1727SOL    HW116814   1.836   3.797   8.690  0.9320 -1.8273  0.5931
 1727SOL    HW216815   1.710   3.835   8.625 -0.2618  1.0474  2.9136
 1728SOL     OW16816   0.860   4.439  14.059  0.8860 -0.0221  0.3279
 1728SOL    HW116817   0.854   4.359  14.112 -1.5765  2.0011  3.1540
 1728SOL    HW216818   0.766   4.460  14.067  0.5270 -1.5044 -0.0251
 1729SOL     OW16819   3.217   1.750   5.314 -0.6224 -0.2093  0.0787
 1729SOL    HW116820   3.268   1.830   5.326  1.7419 -1.8721  1.1642
 1729SOL    HW216821   3.281   1.685   5.344 -0.1613 -0.8704 -2.3646
 1730SOL     OW16822   4.465   1.913   2.132 -0.4339  0.4516 -0.0162
 1730SOL    HW116823   4.513   1.990   2.162  0.0609 -0.4790  1.5643
 1730SOL    HW216824   4.532   1.876   2.074 -0.8542 -1.9962  1.0774
 1731SOL     OW16825   2.745   4.184   7.526 -0.6605  0.1105 -0.0218
 1731SOL    HW116826   2.834   4.187   7.491 -0.7758  0.6898 -0.2679
 1731SOL    HW216827   2.700   4.161   7.445 -1.3464  0.4611  0.2618
 1732SOL     OW16828   3.091   3.549  12.585  0.2039 -0.2971  0.2271
 1732SOL    HW116829   3.151   3.485  12.623  0.7477 -0.1854 -0.4523
 1732SOL    HW216830   3.140   3.594  12.517 -1.2684  2.0937  0.7330
 1733SOL     OW16831   0.842   1.113   6.730 -0.3590 -0.4215 -0.0754
 1733SOL    HW116832   0.807   1.025   6.711 -0.0831 -0.7547  0.9575
 1733SOL    HW216833   0.820   1.155   6.647 -0.9743 -1.6738 -0.5548
 1734SOL     OW16834   0.307   3.478   7.669  0.2743  0.0374  0.5848
 1734SOL    HW116835   0.322   3.400   7.723  0.2439  0.0531  0.6155
 1734SOL    HW216836   0.372   3.478   7.599  1.4133  1.2945  1.6629
 1735SOL     OW16837   0.228   0.400  17.448  0.1882  0.3794 -0.1276
 1735SOL    HW116838   0.244   0.493  17.467 -0.9539  0.7100 -0.8045
 1735SOL    HW216839   0.141   0.386  17.485  0.4540  0.9504  0.7014
 1736SOL     OW16840   4.077   3.576   0.766 -0.1654  0.5716  0.0916
 1736SOL    HW116841   4.133   3.643   0.727 -1.2869  2.1616  1.2038
 1736SOL    HW216842   4.072   3.610   0.855 -0.4540  1.9486 -0.4513
 1737SOL     OW16843   4.502   1.359   2.374 -0.1592  0.6976  0.0477
 1737SOL    HW116844   4.571   1.333   2.312  0.7068  3.5994 -0.1954
 1737SOL    HW216845   4.490   1.451   2.352 -2.8307  0.3489  0.0564
 1738SOL     OW16846   3.067   2.458   5.011  0.0620 -0.4068  0.2717
 1738SOL    HW116847   3.145   2.479   5.063  1.4491 -3.0693 -0.7241
 1738SOL    HW216848   3.062   2.542   4.966 -0.0882 -0.1738  0.7210
 1739SOL     OW16849   3.013   2.476   5.567  0.3198 -0.2454 -0.4507
 1739SOL    HW116850   3.034   2.558   5.612 -0.3267  1.5164 -3.3779
 1739SOL    HW216851   3.088   2.447   5.516  1.3279 -1.1218  1.5261
 1740SOL     OW16852   2.286   1.469  12.056 -0.1352 -1.0739  0.6124
 1740SOL    HW116853   2.349   1.403  12.084  0.0529 -0.4946  1.5498
 1740SOL    HW216854   2.269   1.509  12.141  0.2974  0.4586 -0.0280
 1741SOL     OW16855   4.510   2.853   5.264  0.3573 -0.0212 -0.0004
 1741SOL    HW116856   4.532   2.773   5.216 -1.7753 -1.0656  0.7773
 1741SOL    HW216857   4.596   2.863   5.305  0.9342 -0.0985 -1.1901
 1742SOL     OW16858   1.719   1.187   6.177  1.1172 -0.5601 -0.4241
 1742SOL    HW116859   1.750   1.100   6.202 -3.1341 -1.9692 -0.0041
 1742SOL    HW216860   1.728   1.182   6.082  0.9077  0.2629 -0.4934
 1743SOL     OW16861   3.864   0.850   9.079 -0.2110 -0.0607  0.1867
 1743SOL    HW116862   3.939   0.799   9.109  0.5277  1.9161  1.7352
 1743SOL    HW216863   3.807   0.850   9.157  0.6117 -0.6562  0.7888
 1744SOL     OW16864   3.789   4.523   5.425  0.0567  0.6036  0.0397
 1744SOL    HW116865   3.814   4.431   5.418  0.1639  0.5627  1.0256
 1744SOL    HW216866   3.695   4.525   5.412 -0.0901 -1.2944  0.9447
 1745SOL     OW16867   2.880   2.256   9.961  0.4204 -0.0678  0.5897
 1745SOL    HW116868   2.801   2.254  10.014 -0.0438  1.4964 -0.0324
 1745SOL    HW216869   2.867   2.181   9.903 -0.5026  0.7256 -0.2375
 1746SOL     OW16870   4.619   0.479  13.244  0.7701 -0.3289 -0.8268
 1746SOL    HW116871   4.695   0.500  13.190  0.6145  1.3120 -0.4016
 1746SOL    HW216872   4.559   0.463  13.171  0.6053  0.2646 -0.8178
 1747SOL     OW16873   0.726   4.648  14.914  0.4487  0.1665  0.4018
 1747SOL    HW116874   0.695   4.620  15.001 -0.5750 -1.1283 -0.3902
 1747SOL    HW216875   0.820   4.645  14.934  0.9370 -2.8566 -2.4657
 1748SOL     OW16876   1.531   3.239   7.971  0.9101  0.1700 -0.4152
 1748SOL    HW116877   1.553   3.323   7.932  1.1714 -0.2616 -1.2092
 1748SOL    HW216878   1.446   3.263   8.006  0.3051 -1.5825 -0.6541
 1749SOL     OW16879   3.711   1.735   4.908 -0.4155  0.0390 -0.2942
 1749SOL    HW116880   3.707   1.800   4.838 -0.2719  0.2290 -0.1241
 1749SOL    HW216881   3.803   1.726   4.931 -0.8876 -0.6782  1.3346
 1750SOL     OW16882   1.245   3.276   0.971  0.1279  0.5898 -0.3962
 1750SOL    HW116883   1.194   3.271   1.052 -1.0074 -2.3189 -1.2501
 1750SOL    HW216884   1.277   3.186   0.970  3.2070  1.6734  2.0162
 1751SOL     OW16885   1.525   4.566   1.280  0.2681 -0.1692  0.3719
 1751SOL    HW116886   1.577   4.489   1.256 -1.4750 -0.7403 -1.6304
 1751SOL    HW216887   1.561   4.579   1.367  4.0239  0.7404 -1.3228
 1752SOL     OW16888   2.983   1.592  13.374 -0.4779  0.7932  0.1017
 1752SOL    HW116889   2.981   1.586  13.469  2.3955 -0.1088  0.1303
 1752SOL    HW216890   3.071   1.629  13.360 -0.1092 -0.1883 -0.2032
 1753SOL     OW16891   2.718   4.248  15.073 -0.2455 -0.2976  0.6287
 1753SOL    HW116892   2.775   4.172  15.083  0.4895 -0.0437 -1.7636
 1753SOL    HW216893   2.641   4.199  15.044 -0.7309  1.1683 -0.5694
 1754SOL     OW16894   3.443   4.312   5.162  0.5097 -0.4011 -0.4858
 1754SOL    HW116895   3.354   4.278   5.152 -0.7415  2.4826  0.8841
 1754SOL    HW216896   3.476   4.279   5.078 -2.5773 -0.3271 -1.7265
 1755SOL     OW16897   1.907   4.148   3.281 -0.4191 -0.1373 -0.1642
 1755SOL    HW116898   1.817   4.156   3.250 -0.0528 -0.4604 -1.3062
 1755SOL    HW216899   1.905   4.221   3.343 -0.9852  2.2595 -3.0306
 1756SOL     OW16900   1.139   3.414   9.355  0.1583  0.3002  0.0868
 1756SOL    HW116901   1.193   3.394   9.278  0.6657  1.2083  0.2044
 1756SOL    HW216902   1.154   3.508   9.369  1.8935  0.0787 -0.3142
 1757SOL     OW16903   4.596   0.661  15.373  0.1088 -0.0318  0.4223
 1757SOL    HW116904   4.575   0.645  15.281  1.6270  1.7459 -0.2289
 1757SOL    HW216905   4.624   0.752  15.373 -0.4680  0.1454 -0.0986
 1758SOL     OW16906   0.532   2.649   6.940 -0.4713  0.1388  0.1975
 1758SOL    HW116907   0.621   2.682   6.936 -0.5304  0.1313 -1.5094
 1758SOL    HW216908   0.492   2.706   6.874  1.1132  0.1019 -0.7875
 1759SOL     OW16909   0.467   3.959  14.357  0.0264 -0.8142  0.2025
 1759SOL    HW116910   0.547   3.918  14.324  1.1768  0.4149  1.4754
 1759SOL    HW216911   0.463   4.041  14.307 -0.6089  0.0441  1.6745
 1760SOL     OW16912   1.502   4.432   5.769  0.0061  0.1827  0.5383
 1760SOL    HW116913   1.417   4.387   5.760  0.2958 -0.5271  1.3787
 1760SOL    HW216914   1.562   4.358   5.779  0.6557  0.5889 -0.4117
 1761SOL     OW16915   3.249   0.358   8.835  0.4402  0.2455  0.0941
 1761SOL    HW116916   3.312   0.294   8.803 -1.3196 -1.5225  0.1584
 1761SOL    HW216917   3.250   0.420   8.763  0.3759 -0.7263 -0.7345
 1762SOL     OW16918   2.591   0.570  13.419  0.0212 -0.4499  0.2071
 1762SOL    HW116919   2.516   0.515  13.396 -0.4927  0.7600 -0.9394
 1762SOL    HW216920   2.556   0.579  13.508 -2.9387 -0.7429 -0.9420
 1763SOL     OW16921   3.217   2.957   9.441 -0.1879 -0.3957 -0.4973
 1763SOL    HW116922   3.291   2.937   9.384  2.3244  2.2928  1.8024
 1763SOL    HW216923   3.232   2.884   9.502  1.8107  1.0287  0.7042
 1764SOL     OW16924   3.770   2.641   5.564  0.1844 -0.1922  0.3290
 1764SOL    HW116925   3.820   2.565   5.534 -2.0675 -1.3462 -0.5059
 1764SOL    HW216926   3.831   2.709   5.593 -0.7308  1.3191 -1.2816
 1765SOL     OW16927   0.799   1.279   6.245  0.3490  0.1134  0.2199
 1765SOL    HW116928   0.891   1.274   6.220  0.1872 -1.5835 -0.0475
 1765SOL    HW216929   0.773   1.365   6.212  0.0984  0.3396  0.9999
 1766SOL     OW16930   0.598   1.042   8.365  0.1144  0.3582 -0.2598
 1766SOL    HW116931   0.590   1.137   8.369  1.2166  0.3764  1.4532
 1766SOL    HW216932   0.522   1.011   8.415 -1.4641  1.6768 -1.8362
 1767SOL     OW16933   2.633   2.913   8.252  0.0761 -0.5121 -0.3602
 1767SOL    HW116934   2.621   2.994   8.203 -0.0004 -1.4570 -1.9315
 1767SOL    HW216935   2.556   2.902   8.307 -0.4613  0.9216 -0.8353
 1768SOL     OW16936   0.075   3.780   2.554 -0.3630  0.4652 -0.0345
 1768SOL    HW116937   0.126   3.819   2.483  0.8208 -0.7954  0.1144
 1768SOL    HW216938   0.052   3.857   2.606  1.4874  1.8559 -1.2914
 1769SOL     OW16939   1.822   3.318   1.236  0.1404  0.0874  0.3935
 1769SOL    HW116940   1.842   3.228   1.211 -2.5935 -0.4698  0.1832
 1769SOL    HW216941   1.778   3.349   1.156  1.3469 -0.3560 -0.4533
 1770SOL     OW16942   3.980   3.046   1.317 -0.1173  0.6539 -0.4384
 1770SOL    HW116943   3.918   3.022   1.386 -0.2827  2.4663  0.0339
 1770SOL    HW216944   3.937   3.022   1.235 -0.3747 -0.5884  0.0611
 1771SOL     OW16945   2.950   1.382   6.728  0.2345  0.3266 -0.2193
 1771SOL    HW116946   3.012   1.427   6.785  0.2274  1.8663 -1.4472
 1771SOL    HW216947   3.001   1.365   6.649 -1.4537  0.9969 -1.4747
 1772SOL     OW16948   3.677   0.903   8.485 -0.1699  0.3206  0.0297
 1772SOL    HW116949   3.686   0.977   8.425 -1.3714 -0.5502 -1.2420
 1772SOL    HW216950   3.665   0.934   8.574 -1.4664  1.2044 -0.4522
 1773SOL     OW16951   0.059   2.085  12.738  0.2597  0.5269  0.4197
 1773SOL    HW116952   0.028   2.083  12.829 -1.8233 -0.7823 -0.3274
 1773SOL    HW216953   0.000   2.152  12.702  0.2160  0.7703  0.9439
 1774SOL     OW16954   3.708   2.467  10.213 -0.0396 -0.4766 -0.2417
 1774SOL    HW116955   3.793   2.422  10.218  0.9582  1.2945 -1.2876
 1774SOL    HW216956   3.652   2.399  10.251  2.2497 -2.1440  0.2049
 1775SOL     OW16957   2.833   2.267   1.653 -0.0458 -0.0418 -0.4041
 1775SOL    HW116958   2.925   2.269   1.682 -0.0359  2.1214 -0.5366
 1775SOL    HW216959   2.839   2.212   1.575  1.5156  2.2778 -1.9304
 1776SOL     OW16960   4.666   3.454   2.327 -0.7740 -0.0539  0.4248
 1776SOL    HW116961   4.712   3.371   2.316 -2.3523 -1.0162  1.2086
 1776SOL    HW216962   4.687   3.471   2.419  0.7984 -0.3899  0.1420
 1777SOL     OW16963   4.670   3.843   5.558  0.3898  0.0504  0.1690
 1777SOL    HW116964   4.628   3.865   5.475  0.8946  1.0673  0.1780
 1777SOL    HW216965   4.612   3.880   5.624  1.2747  1.9627 -0.1213
 1778SOL     OW16966   4.732   3.062  14.907 -0.2162 -0.4596 -0.3560
 1778SOL    HW116967   4.705   3.134  14.965  0.2636 -1.5449  1.2200
 1778SOL    HW216968   4.684   2.992  14.951  2.2980 -0.4821  2.3433
 1779SOL     OW16969   2.544   0.797   3.083  0.6979 -0.2471 -0.1272
 1779SOL    HW116970   2.536   0.711   3.042 -1.7321  1.0350 -2.3050
 1779SOL    HW216971   2.614   0.830   3.026  0.7191 -0.6386 -0.3248
 1780SOL     OW16972   0.763   3.432   2.613  0.4556 -0.6751 -0.1154
 1780SOL    HW116973   0.770   3.436   2.709 -0.2426 -0.5330 -0.0664
 1780SOL    HW216974   0.709   3.510   2.595  1.1050 -0.0173  0.7297
 1781SOL     OW16975   3.689   4.005  16.502 -0.1788 -0.1667 -0.5361
 1781SOL    HW116976   3.770   4.015  16.553 -0.1600 -1.5651 -0.2876
 1781SOL    HW216977   3.726   3.970  16.421  0.6686 -3.1870  1.1816
 1782SOL     OW16978   2.991   0.680   4.836 -0.3891  0.1398  0.0274
 1782SOL    HW116979   2.904   0.681   4.876 -0.8031 -2.3662 -0.7947
 1782SOL    HW216980   3.011   0.587   4.839  0.5173  0.3524  0.5045
 1783SOL     OW16981   3.739   3.589   1.626  0.1668  0.3813 -0.3124
 1783SOL    HW116982   3.829   3.570   1.599 -0.1655 -2.3693  0.5967
 1783SOL    HW216983   3.737   3.569   1.720 -0.3156  0.0125 -0.4038
 1784SOL     OW16984   2.028   3.644   1.863  0.1676  0.3014 -0.2426
 1784SOL    HW116985   2.017   3.561   1.816  2.5717 -0.1292 -0.0620
 1784SOL    HW216986   1.940   3.671   1.891  1.1376  1.6471  1.5317
 1785SOL     OW16987   3.674   0.094  15.624 -0.4559 -0.1959  0.3274
 1785SOL    HW116988   3.605   0.097  15.690  0.4065 -2.2170  1.2988
 1785SOL    HW216989   3.623   0.109  15.544 -1.6661 -2.4108  0.6943
 1786SOL     OW16990   0.825   0.710   1.599 -0.0837 -0.1137  0.4219
 1786SOL    HW116991   0.806   0.769   1.672 -0.7447 -1.2701  1.1840
 1786SOL    HW216992   0.770   0.733   1.524  1.1709  2.3559  0.2679
 1787SOL     OW16993   1.926   0.671  13.959 -0.0976 -0.1587  0.4531
 1787SOL    HW116994   1.866   0.735  13.996  2.2847  2.6122 -0.4629
 1787SOL    HW216995   1.880   0.655  13.876  1.1395  1.4071 -0.5265
 1788SOL     OW16996   2.585   4.557   0.562  0.2191 -0.0089 -0.3164
 1788SOL    HW116997   2.617   4.530   0.476  2.4308  0.5056  0.3657
 1788SOL    HW216998   2.499   4.591   0.535  0.0502  0.1123  0.3708
 1789SOL     OW16999   3.142   3.638   3.488  0.1721  0.3631 -0.4870
 1789SOL    HW117000   3.077   3.640   3.557  1.3444  2.8238  0.5518
 1789SOL    HW217001   3.141   3.549   3.454  0.1398 -0.7522  2.4716
 1790SOL     OW17002   0.973   2.364  10.758 -0.4662  0.5809  0.3877
 1790SOL    HW117003   1.067   2.353  10.745 -0.7259 -0.6801 -0.3472
 1790SOL    HW217004   0.954   2.323  10.674 -0.2256  0.8916  0.1805
 1791SOL     OW17005   2.029   2.592   0.992 -0.4789 -0.0487 -0.3920
 1791SOL    HW117006   2.089   2.651   1.037 -2.6886  1.0244  1.1121
 1791SOL    HW217007   2.031   2.632   0.905 -1.2738 -1.5798 -1.1229
 1792SOL     OW17008   1.160   3.315   7.647 -0.2020 -0.1288  0.0120
 1792SOL    HW117009   1.152   3.283   7.737  1.1519  0.0739  0.1906
 1792SOL    HW217010   1.130   3.405   7.660 -2.6561 -0.9013 -0.2021
 1793SOL     OW17011   0.161   0.313  14.065  0.6075 -0.2862 -0.0237
 1793SOL    HW117012   0.252   0.334  14.088 -0.6504  2.8196  2.1173
 1793SOL    HW217013   0.175   0.233  14.014 -1.5092 -1.8656  1.8497
 1794SOL     OW17014   4.163   0.181   7.003  0.3125 -0.7234 -0.1786
 1794SOL    HW117015   4.225   0.171   7.075 -0.3349 -1.7553  0.2329
 1794SOL    HW217016   4.090   0.199   7.061 -0.8088 -0.4236 -1.6857
 1795SOL     OW17017   3.167   4.695   7.076  0.1407 -0.4919 -0.8417
 1795SOL    HW117018   3.149   0.047   7.049 -0.0614 -0.2928 -0.0394
 1795SOL    HW217019   3.251   4.670   7.037  1.4275 -0.0104  1.6560
 1796SOL     OW17020   2.985   2.368   3.548 -0.0117 -0.0921 -0.0915
 1796SOL    HW117021   2.961   2.436   3.610 -0.2993  0.1900 -0.5120
 1796SOL    HW217022   3.030   2.307   3.606  1.0138  1.1220  0.3922
 1797SOL     OW17023   1.001   3.564   6.886  0.1224 -0.1610 -0.1432
 1797SOL    HW117024   0.906   3.554   6.878  0.2159 -1.1857 -0.0120
 1797SOL    HW217025   1.027   3.474   6.905 -0.2494  0.4141  3.0977
 1798SOL     OW17026   0.942   3.380   5.847 -0.6313  0.3618  0.3894
 1798SOL    HW117027   0.953   3.459   5.794 -0.7932 -0.2526 -0.5652
 1798SOL    HW217028   1.002   3.319   5.804 -0.8203  0.7334 -0.3982
 1799SOL     OW17029   3.338   4.530  15.703 -0.0241 -0.2068  0.0348
 1799SOL    HW117030   3.251   4.523  15.664 -0.5135  1.4602  0.8285
 1799SOL    HW217031   3.380   4.602  15.655  0.7324 -1.4368 -1.1810
 1800SOL     OW17032   1.381   3.750   3.004  0.2820 -0.0527  0.2357
 1800SOL    HW117033   1.376   3.772   3.097  1.8422  1.0275  0.0736
 1800SOL    HW217034   1.448   3.815   2.982 -0.2599  0.7207  0.8769
 1801SOL     OW17035   4.260   0.612   0.385 -0.4966 -0.7164  0.0860
 1801SOL    HW117036   4.211   0.667   0.446 -1.0175 -1.6422  0.5004
 1801SOL    HW217037   4.244   0.655   0.301 -0.1400 -0.0930  0.3326
 1802SOL     OW17038   3.964   0.927   1.277  0.0862 -0.0962 -0.7539
 1802SOL    HW117039   3.871   0.917   1.255  0.0088 -1.0120  0.0024
 1802SOL    HW217040   3.997   0.933   1.187 -0.9758  2.2218 -0.9876
 1803SOL     OW17041   0.746   4.054   6.943  0.0334  0.1414  0.0543
 1803SOL    HW117042   0.720   4.124   7.003 -1.5058  0.4208 -0.9414
 1803SOL    HW217043   0.702   4.067   6.859 -3.6496 -1.2460  1.7785
 1804SOL     OW17044   1.819   0.653  13.695  0.0581 -0.4456 -0.4709
 1804SOL    HW117045   1.835   0.661  13.601  1.1359 -0.4110 -0.2751
 1804SOL    HW217046   1.765   0.574  13.687  2.1497 -1.6578 -2.4955
 1805SOL     OW17047   4.699   2.671   1.788 -0.3200 -0.3639  0.1000
 1805SOL    HW117048   4.678   2.757   1.751  0.8342  0.2495  0.8779
 1805SOL    HW217049   4.708   2.689   1.881  2.0343 -2.9311  0.3609
 1806SOL     OW17050   1.017   4.203   6.474 -0.2430  0.0635 -0.5659
 1806SOL    HW117051   1.050   4.175   6.559 -1.9873  0.6071  0.3034
 1806SOL    HW217052   1.033   4.124   6.422  2.2192  0.4013 -0.2797
 1807SOL     OW17053   2.811   1.276  15.486  0.2835  0.5217 -0.3668
 1807SOL    HW117054   2.720   1.257  15.508  0.2954 -0.7756 -1.3917
 1807SOL    HW217055   2.850   1.302  15.569 -2.4116  2.9188  0.1503
 1808SOL     OW17056   0.679   4.401   3.855 -0.1224 -0.0699  0.1042
 1808SOL    HW117057   0.701   4.438   3.769  0.5977 -0.4246  0.1316
 1808SOL    HW217058   0.749   4.336   3.859 -0.7916 -0.7900 -0.0595
 1809SOL     OW17059   2.633   2.620   3.206 -0.2763 -0.1253 -0.2437
 1809SOL    HW117060   2.546   2.579   3.201 -0.4778  0.1815  0.7514
 1809SOL    HW217061   2.609   2.712   3.190  1.2774  0.0981 -1.3168
 1810SOL     OW17062   4.459   3.305   9.110  0.1345  0.4442  0.5778
 1810SOL    HW117063   4.370   3.303   9.076  0.0796  2.5260  0.5811
 1810SOL    HW217064   4.475   3.399   9.106 -0.4160  0.5588  1.2301
 1811SOL     OW17065   0.450   3.826   5.981  0.0030 -0.3466 -0.1901
 1811SOL    HW117066   0.360   3.793   5.980 -0.9863  2.2396  0.8607
 1811SOL    HW217067   0.465   3.824   6.075  0.4947  0.4289 -0.2496
 1812SOL     OW17068   4.262   2.138   7.694  0.5037 -0.2570  0.2397
 1812SOL    HW117069   4.285   2.048   7.671 -0.4718  0.2800 -2.8426
 1812SOL    HW217070   4.345   2.183   7.686  0.5785 -0.3704  0.3841
 1813SOL     OW17071   0.198   4.149  10.717  0.2192 -0.1273  0.0844
 1813SOL    HW117072   0.290   4.161  10.740  0.1147  0.1180  0.3711
 1813SOL    HW217073   0.162   4.214  10.777 -0.0302 -0.0386 -0.1604
 1814SOL     OW17074   4.103   3.987   4.431  0.0775 -0.5232  0.0095
 1814SOL    HW117075   4.036   3.971   4.498 -0.2302 -0.2282 -0.2280
 1814SOL    HW217076   4.152   3.905   4.424 -0.3786 -0.9466  1.7533
 1815SOL     OW17077   0.716   3.832   4.006 -0.8554 -0.7057 -0.1709
 1815SOL    HW117078   0.793   3.827   4.063 -1.1808  0.4561  0.3681
 1815SOL    HW217079   0.652   3.813   4.074  0.3316 -1.4105  0.7558
 1816SOL     OW17080   3.446   2.011   3.268  0.1935  0.4203 -0.4031
 1816SOL    HW117081   3.411   1.923   3.259 -0.8456  0.5057  2.6067
 1816SOL    HW217082   3.374   2.064   3.232 -0.3344 -0.0875 -0.0991
 1817SOL     OW17083   0.001   0.044  12.413 -0.6470  0.0430 -0.0651
 1817SOL    HW117084   4.651   0.026  12.380 -0.4958 -0.0878 -0.3975
 1817SOL    HW217085   0.002   0.006  12.501  3.3764 -1.0163 -0.5836
 1818SOL     OW17086   2.984   4.571   2.452  0.2672  0.5974  0.2324
 1818SOL    HW117087   3.043   4.563   2.377 -2.4000  0.0892 -1.8026
 1818SOL    HW217088   2.936   4.488   2.453 -1.2798  1.4659 -1.7982
 1819SOL     OW17089   4.731   3.912  13.991  0.1314 -0.7586 -0.0914
 1819SOL    HW117090   0.087   3.908  13.971 -0.4107 -0.7690 -2.5713
 1819SOL    HW217091   4.720   4.004  13.965 -0.3010 -1.2247 -1.5137
 1820SOL     OW17092   4.613   3.809  17.412  0.0212 -0.6523 -0.0180
 1820SOL    HW117093   4.702   3.784  17.387 -0.9100 -4.5989  0.4648
 1820SOL    HW217094   4.581   3.721  17.434  0.1145 -0.4512  0.9265
 1821SOL     OW17095   2.950   2.205   4.767 -0.5076  0.5069  0.6997
 1821SOL    HW117096   2.922   2.295   4.747 -2.4884 -0.3730 -0.5727
 1821SOL    HW217097   2.901   2.145   4.710  0.5214  1.5054 -1.2340
 1822SOL     OW17098   0.908   1.766   5.806 -0.1562  0.2488  0.1284
 1822SOL    HW117099   0.815   1.790   5.808 -0.2265  0.0077 -0.1453
 1822SOL    HW217100   0.948   1.830   5.864  0.9457 -1.4241  1.2166
 1823SOL     OW17101   2.090   0.682   9.699 -0.5858 -0.0710 -0.3177
 1823SOL    HW117102   2.035   0.613   9.735 -2.2456  1.6760  0.4919
 1823SOL    HW217103   2.070   0.760   9.752  0.1865 -0.2681  0.2707
 1824SOL     OW17104   2.375   1.899   2.098  0.0821 -0.4793 -0.0707
 1824SOL    HW117105   2.434   1.828   2.074  1.8689  0.5635  1.3025
 1824SOL    HW217106   2.382   1.916   2.192 -0.0319  3.1997 -0.7290
 1825SOL     OW17107   2.409   4.237   7.420 -0.3779  0.1569  0.7389
 1825SOL    HW117108   2.374   4.325   7.436  1.9068  1.3416 -0.9110
 1825SOL    HW217109   2.389   4.234   7.326  2.2491  0.2744  0.1986
 1826SOL     OW17110   0.274   1.803   8.097  0.1307 -0.1543  0.3698
 1826SOL    HW117111   0.315   1.814   8.183  2.2563 -2.9703 -0.3122
 1826SOL    HW217112   0.207   1.739   8.119 -0.7087  0.3641 -0.6519
 1827SOL     OW17113   4.287   2.811   5.542 -0.3219  0.0158  0.1313
 1827SOL    HW117114   4.228   2.886   5.549  0.5449  0.6420  0.6841
 1827SOL    HW217115   4.288   2.811   5.446  0.3721  0.8357  0.1408
 1828SOL     OW17116   3.083   0.291   8.412 -0.2693 -0.5963 -0.1950
 1828SOL    HW117117   3.111   0.347   8.484  1.1871 -2.4852  0.7153
 1828SOL    HW217118   3.161   0.247   8.377  0.9788  1.2745  0.2684
 1829SOL     OW17119   3.181   4.513   5.928  0.2753  0.2423 -0.0713
 1829SOL    HW117120   3.133   4.584   5.884  1.2243  0.2422 -1.1080
 1829SOL    HW217121   3.171   4.542   6.018  3.5709 -0.5942  0.5583
 1830SOL     OW17122   2.892   4.510   9.744 -0.0817  0.4943 -0.4583
 1830SOL    HW117123   2.968   4.548   9.787  0.2139  0.3610 -0.8524
 1830SOL    HW217124   2.836   4.586   9.728  0.0938  0.6864 -0.1336
 1831SOL     OW17125   3.912   2.848  13.392 -0.0851 -0.2262  0.2504
 1831SOL    HW117126   3.981   2.786  13.416 -1.0793 -1.8999 -1.1319
 1831SOL    HW217127   3.861   2.861  13.472  0.5439 -1.5164  0.8674
 1832SOL     OW17128   1.471   0.412   4.467  0.3211  0.0766  0.5016
 1832SOL    HW117129   1.380   0.424   4.439  0.2751  0.0432  0.6379
 1832SOL    HW217130   1.476   0.437   4.559  0.1947  3.0122 -0.2612
 1833SOL     OW17131   4.542   4.719   5.992 -0.7340 -0.1854  0.0944
 1833SOL    HW117132   4.555   4.693   6.083 -0.9379  1.2498  0.5339
 1833SOL    HW217133   4.561   4.638   5.946  0.0562  0.2685 -0.3798
 1834SOL     OW17134   1.780   4.122   7.976 -0.4222 -0.3206  0.6288
 1834SOL    HW117135   1.811   4.213   7.968  1.9448 -1.3834 -2.5852
 1834SOL    HW217136   1.850   4.077   7.928 -0.8597  0.0465 -0.3526
 1835SOL     OW17137   4.689   0.656  17.454 -0.4078 -0.5316  0.6475
 1835SOL    HW117138   0.001   0.719  17.506  2.1829 -0.6033 -1.7728
 1835SOL    HW217139   0.007   0.643  17.377 -1.5619  0.9184 -0.4526
 1836SOL     OW17140   1.880   2.306   4.731  0.3312  0.3478  0.4752
 1836SOL    HW117141   1.937   2.313   4.654 -1.1257  1.4062 -0.5148
 1836SOL    HW217142   1.846   2.217   4.727 -3.2898  1.7907 -1.2088
 1837SOL     OW17143   2.899   1.594   9.222 -0.0526 -0.2460  0.3065
 1837SOL    HW117144   2.819   1.546   9.201  0.6044 -1.2179  0.0637
 1837SOL    HW217145   2.872   1.636   9.304  0.8384  0.9424 -0.0161
 1838SOL     OW17146   4.039   4.660   5.194  0.2521 -0.0075 -0.6631
 1838SOL    HW117147   4.051   4.718   5.269  1.2144 -1.2722  0.1783
 1838SOL    HW217148   4.114   4.687   5.141 -0.6786  0.4284 -1.7579
 1839SOL     OW17149   0.203   0.258   8.418  0.6076 -0.1312  0.2481
 1839SOL    HW117150   0.239   0.229   8.502 -0.5218  1.5370  1.3163
 1839SOL    HW217151   0.155   0.182   8.383 -1.8132  1.2360  0.5835
 1840SOL     OW17152   4.387   1.072   2.281  0.2578  0.1167 -0.2000
 1840SOL    HW117153   4.387   1.160   2.318  0.1283 -0.2061  0.5891
 1840SOL    HW217154   4.444   1.079   2.205  1.6121  0.4329  0.8368
 1841SOL     OW17155   4.017   3.467   3.070 -0.4016 -0.2323 -0.3974
 1841SOL    HW117156   3.946   3.440   3.011 -1.8884  3.8022 -0.4943
 1841SOL    HW217157   4.016   3.560   3.047 -1.4273 -0.1009  0.1896
 1842SOL     OW17158   0.825   3.533   2.012 -0.3124 -0.2283  0.5602
 1842SOL    HW117159   0.745   3.570   2.049  0.1463  1.8251 -0.5381
 1842SOL    HW217160   0.834   3.449   2.057 -3.0260 -0.5764  0.4639
 1843SOL     OW17161   2.431   1.051   4.266 -0.1616  0.2538  0.2481
 1843SOL    HW117162   2.456   1.055   4.174 -1.5177 -2.2680 -0.2363
 1843SOL    HW217163   2.336   1.060   4.260 -0.0293  1.3097 -0.3041
 1844SOL     OW17164   2.857   3.144   3.420  0.3952  0.1718 -0.6735
 1844SOL    HW117165   2.882   3.176   3.507 -2.1765 -0.5592  0.3373
 1844SOL    HW217166   2.834   3.226   3.377 -0.9563 -1.3174 -2.7633
 1845SOL     OW17167   1.431   1.671   8.862  0.3915 -0.4471  0.0776
 1845SOL    HW117168   1.395   1.711   8.784 -1.6953 -0.3751  1.0784
 1845SOL    HW217169   1.444   1.752   8.912 -1.2809  0.8355 -1.6092
 1846SOL     OW17170   0.077   0.449   4.602 -0.1295  0.3794  0.3890
 1846SOL    HW117171   0.139   0.395   4.552  0.9052  2.7088 -0.8065
 1846SOL    HW217172   0.060   0.529   4.553 -2.8205 -0.7416 -0.5109
 1847SOL     OW17173   1.968   3.444   1.434  0.3030  0.1670  0.7006
 1847SOL    HW117174   1.961   3.404   1.347 -0.2512  3.8207 -0.9109
 1847SOL    HW217175   1.895   3.405   1.483 -0.5465 -1.7379 -2.0318
 1848SOL     OW17176   1.789   0.823   6.670  0.1270  0.2029  0.0588
 1848SOL    HW117177   1.696   0.820   6.645 -0.2471  1.0517  1.3342
 1848SOL    HW217178   1.822   0.752   6.615 -0.1556 -1.6900  2.3333
 1849SOL     OW17179   4.114   1.282   8.446  0.1915  0.5534  0.1741
 1849SOL    HW117180   4.050   1.351   8.459  1.9686  1.8529  1.9314
 1849SOL    HW217181   4.077   1.215   8.504 -0.0057  0.4891 -0.0235
 1850SOL     OW17182   3.474   3.357  11.462 -0.6014 -0.3486  0.6421
 1850SOL    HW117183   3.534   3.298  11.507 -0.3200 -0.2065  0.4581
 1850SOL    HW217184   3.516   3.440  11.486  3.4422 -2.2758  0.1902
 1851SOL     OW17185   4.481   2.308   1.903 -0.0514 -0.3244 -0.8493
 1851SOL    HW117186   4.395   2.324   1.863  0.4049 -0.1877 -1.7561
 1851SOL    HW217187   4.534   2.283   1.828  1.6244  2.3860 -0.5574
 1852SOL     OW17188   3.681   0.576   2.942 -0.9746  0.0555  0.1892
 1852SOL    HW117189   3.678   0.538   3.030 -0.6439 -0.5333 -0.0524
 1852SOL    HW217190   3.637   0.505   2.895 -0.2897  0.7921 -1.5206
 1853SOL     OW17191   3.558   4.409   7.431  0.5012  0.1918 -0.1938
 1853SOL    HW117192   3.537   4.468   7.359  0.2471  0.9384  0.4899
 1853SOL    HW217193   3.542   4.327   7.385  0.6477 -0.3716  0.7660
 1854SOL     OW17194   0.392   1.532   3.216 -0.0575  0.1837 -0.0031
 1854SOL    HW117195   0.398   1.452   3.164  0.7149 -1.1549  2.1088
 1854SOL    HW217196   0.412   1.601   3.153 -1.9334  0.3263 -0.4421
 1855SOL     OW17197   3.786   3.358   2.262  0.3245 -0.0515 -0.3472
 1855SOL    HW117198   3.797   3.293   2.193 -0.0901  0.0946 -0.5550
 1855SOL    HW217199   3.870   3.345   2.305  1.3617  1.1096 -2.0614
 1856SOL     OW17200   0.894   2.147   1.995 -0.1232  0.0312 -0.1805
 1856SOL    HW117201   0.836   2.177   1.925 -1.4141 -1.4306  0.2549
 1856SOL    HW217202   0.834   2.134   2.068  0.0557  2.0436  0.3215
 1857SOL     OW17203   2.724   4.340  10.240  0.0931  0.3335  0.4191
 1857SOL    HW117204   2.721   4.376  10.328  0.1287  0.9645  0.1604
 1857SOL    HW217205   2.813   4.305  10.234  0.1199 -0.2027  4.2256
 1858SOL     OW17206   3.999   0.451   7.726 -0.5740 -0.4050 -0.5038
 1858SOL    HW117207   4.001   0.493   7.641 -2.5927 -1.6061 -1.1396
 1858SOL    HW217208   4.013   0.531   7.777  1.4570 -1.9349  1.3508
 1859SOL     OW17209   0.809   3.825  11.125  0.7018  0.8954 -0.0495
 1859SOL    HW117210   0.882   3.855  11.180  1.1057 -1.2684  0.5871
 1859SOL    HW217211   0.842   3.739  11.100  0.4220  0.1144  2.2913
 1860SOL     OW17212   1.243   0.786   8.829 -0.0873  0.6725  0.2946
 1860SOL    HW117213   1.188   0.767   8.753  1.3427  0.5963 -0.7238
 1860SOL    HW217214   1.323   0.825   8.794  1.0139 -0.1015  1.9560
 1861SOL     OW17215   4.181   1.125  15.776 -0.1095 -0.1048 -0.0952
 1861SOL    HW117216   4.259   1.143  15.723 -1.0495  0.1161 -1.4099
 1861SOL    HW217217   4.108   1.159  15.724 -0.1846 -1.3119 -0.7854
 1862SOL     OW17218   1.451   1.067   8.018  0.3698  0.0466  0.4106
 1862SOL    HW117219   1.473   0.989   8.069 -0.6481 -1.0872 -0.8765
 1862SOL    HW217220   1.454   1.034   7.928 -0.8809  0.5278  0.1839
 1863SOL     OW17221   1.467   3.487   7.305  0.6990 -0.1931  0.2767
 1863SOL    HW117222   1.465   3.582   7.300 -0.9722 -0.1228  2.1839
 1863SOL    HW217223   1.376   3.463   7.326  0.5850 -0.1399 -0.1554
 1864SOL     OW17224   2.466   4.141   8.026  0.7817  0.0269  0.4568
 1864SOL    HW117225   2.528   4.213   8.038  1.7086 -0.6460 -0.3017
 1864SOL    HW217226   2.415   4.174   7.951  2.3620  1.3683 -0.0463
 1865SOL     OW17227   1.647   3.974   1.323  0.5513  0.5927  0.9461
 1865SOL    HW117228   1.692   4.057   1.308  1.3852  0.1246  0.8193
 1865SOL    HW217229   1.611   3.956   1.236 -0.9034  1.1789  1.4248
 1866SOL     OW17230   1.926   1.876   6.130 -0.3098  0.3534 -0.1040
 1866SOL    HW117231   1.842   1.919   6.113 -2.2336 -1.7679  4.0853
 1866SOL    HW217232   1.976   1.949   6.167  1.5920  0.6797 -3.3799
 1867SOL     OW17233   2.395   2.337   8.976 -0.3855 -0.7543  0.7288
 1867SOL    HW117234   2.339   2.414   8.978  0.4813 -0.1448  1.8617
 1867SOL    HW217235   2.431   2.336   9.065  1.0817 -0.5428  0.1433
 1868SOL     OW17236   0.309   1.945   8.625  0.3490 -0.1291  0.4516
 1868SOL    HW117237   0.397   1.914   8.604 -0.6404 -1.7145 -1.3243
 1868SOL    HW217238   0.308   2.024   8.572  1.5395 -0.2014  0.3311
 1869SOL     OW17239   0.438   0.468   2.648 -0.3623 -0.2651  0.8407
 1869SOL    HW117240   0.359   0.522   2.644 -0.7861 -0.9776 -0.6282
 1869SOL    HW217241   0.436   0.454   2.743  0.7628 -1.9368  0.6254
 1870SOL     OW17242   4.658   1.394   0.321 -0.0970  0.0831  0.6327
 1870SOL    HW117243   4.712   1.341   0.379 -0.2353 -2.4851 -1.5687
 1870SOL    HW217244   4.582   1.403   0.378 -0.8902  1.5464 -0.6693
 1871SOL     OW17245   1.009   1.715   4.895 -0.5645 -0.6085  0.5174
 1871SOL    HW117246   0.936   1.743   4.949 -0.5650 -2.3289  1.4357
 1871SOL    HW217247   0.978   1.768   4.822 -0.9892  0.0855  1.2022
 1872SOL     OW17248   1.320   3.351  10.311 -0.0599 -0.7622  0.2266
 1872SOL    HW117249   1.243   3.404  10.292 -0.3970 -0.2032  3.1410
 1872SOL    HW217250   1.277   3.277  10.355 -1.6611 -0.9736 -1.6795
 1873SOL     OW17251   0.510   0.270   8.077  0.5653 -0.0983  0.0086
 1873SOL    HW117252   0.576   0.237   8.017  0.8454  1.0995 -0.3487
 1873SOL    HW217253   0.504   0.361   8.048 -2.7183  0.1376  1.3505
 1874SOL     OW17254   4.360   2.927   0.837 -0.2717 -0.2167 -0.1015
 1874SOL    HW117255   4.426   2.865   0.867 -1.7988 -2.2478 -0.9187
 1874SOL    HW217256   4.407   2.975   0.769 -0.3895 -0.9864 -0.7351
 1875SOL     OW17257   0.751   2.221   5.561  0.2253 -0.8235  0.2107
 1875SOL    HW117258   0.695   2.279   5.510  2.5938  0.5377 -0.8492
 1875SOL    HW217259   0.821   2.204   5.497 -0.8767 -1.2839 -0.8815
 1876SOL     OW17260   3.625   0.594   9.549 -0.1006  0.4513 -0.0779
 1876SOL    HW117261   3.568   0.648   9.494  0.4698 -0.4837 -1.5962
 1876SOL    HW217262   3.674   0.560   9.475 -1.1422  1.3570 -1.1975
 1877SOL     OW17263   0.407   3.010   8.496  0.0058  0.0473 -0.0824
 1877SOL    HW117264   0.450   2.933   8.534  1.6407 -0.5182 -3.0721
 1877SOL    HW217265   0.384   3.060   8.574  1.1319  2.8334 -1.5342
 1878SOL     OW17266   4.690   4.067   6.364 -1.0978  0.0891  0.8851
 1878SOL    HW117267   4.731   4.132   6.306  0.0497 -1.0503  0.4120
 1878SOL    HW217268   4.605   4.050   6.323  0.1981  0.1990 -1.8530
 1879SOL     OW17269   4.293   1.215   5.075 -0.4308  0.0082 -0.1029
 1879SOL    HW117270   4.281   1.177   5.162  1.1275 -0.3395 -0.0385
 1879SOL    HW217271   4.385   1.241   5.077 -1.1605  2.3200  2.8150
 1880SOL     OW17272   0.550   0.145   0.573 -0.3867 -0.1300  0.1851
 1880SOL    HW117273   0.631   0.164   0.526 -0.4172 -2.7543 -0.9051
 1880SOL    HW217274   0.504   0.229   0.568  0.5339  0.2707 -1.2446
 1881SOL     OW17275   0.740   4.275  13.736  0.6686 -0.2704  0.2106
 1881SOL    HW117276   0.828   4.310  13.747  1.0939 -1.1043 -0.5620
 1881SOL    HW217277   0.694   4.341  13.685 -0.4046 -1.4425 -0.3469
 1882SOL     OW17278   4.529   4.316   4.392 -0.3558  0.1202  0.8058
 1882SOL    HW117279   4.588   4.327   4.466 -3.4561  2.9475  2.8777
 1882SOL    HW217280   4.475   4.250   4.434  0.9599 -0.9976  0.7269
 1883SOL     OW17281   2.159   0.840   7.886  0.1801 -0.6592 -0.1745
 1883SOL    HW117282   2.137   0.882   7.969  0.0921 -0.0989 -0.4791
 1883SOL    HW217283   2.122   0.900   7.821  0.7185  0.2940  0.3886
 1884SOL     OW17284   0.347   3.031   2.945 -0.5475 -0.2620  0.7357
 1884SOL    HW117285   0.324   3.027   3.037 -1.0314 -0.7493  0.5949
 1884SOL    HW217286   0.419   2.968   2.933 -0.9582 -1.4745  4.7762
 1885SOL     OW17287   3.662   1.446  13.636  0.2894 -0.8363  0.0350
 1885SOL    HW117288   3.744   1.398  13.642  0.9211  0.3768  1.1054
 1885SOL    HW217289   3.601   1.380  13.603  0.4641 -1.7923  1.6027
 1886SOL     OW17290   0.606   1.698  12.378 -0.4825 -0.5871 -0.1377
 1886SOL    HW117291   0.561   1.684  12.294 -0.7529 -2.1135  0.2654
 1886SOL    HW217292   0.538   1.738  12.432  0.4499 -2.3519  2.3443
 1887SOL     OW17293   2.811   2.918   1.318 -1.2540  0.4872  0.2778
 1887SOL    HW117294   2.764   2.972   1.255 -0.8108 -1.2350 -1.5251
 1887SOL    HW217295   2.773   2.830   1.308 -1.7095  0.6191  0.8782
 1888SOL     OW17296   0.332   1.212   2.110 -0.1909 -0.0421  0.8355
 1888SOL    HW117297   0.301   1.284   2.055  2.9718 -0.9984 -2.1859
 1888SOL    HW217298   0.273   1.137   2.098 -0.7567  0.9259 -2.3547
 1889SOL     OW17299   0.716   3.274  17.478 -0.4181 -0.1154 -0.3739
 1889SOL    HW117300   0.756   3.199  17.522  2.7129 -0.5901 -4.0753
 1889SOL    HW217301   0.630   3.240  17.454 -1.3418  2.8119 -1.2033
 1890SOL     OW17302   0.854   4.262   3.467  0.6368 -0.3270 -0.0515
 1890SOL    HW117303   0.858   4.294   3.377 -0.8228 -2.3327 -0.8240
 1890SOL    HW217304   0.920   4.192   3.465 -0.1516 -1.0640 -0.3002
 1891SOL     OW17305   2.985   3.921  14.590 -0.3509  0.2495 -0.0276
 1891SOL    HW117306   3.079   3.926  14.575 -0.0166  0.2983  2.1238
 1891SOL    HW217307   2.969   4.006  14.631 -2.0499  0.6269 -1.4417
 1892SOL     OW17308   3.726   0.465   9.056  0.3476  0.3316  0.0444
 1892SOL    HW117309   3.632   0.455   9.042  0.0056  2.5503  0.8077
 1892SOL    HW217310   3.726   0.447   9.150 -0.3592 -1.9095 -0.3973
 1893SOL     OW17311   0.454   1.227   7.024 -0.6428  0.1988  0.6586
 1893SOL    HW117312   0.377   1.192   7.069  0.5233 -0.5450  2.0839
 1893SOL    HW217313   0.486   1.138   7.010  0.8177  0.5702  1.6673
 1894SOL     OW17314   0.128   0.901   3.548 -0.3083  0.6857 -0.2753
 1894SOL    HW117315   0.118   0.882   3.455 -2.1598  0.7374 -0.0904
 1894SOL    HW217316   0.075   0.980   3.556 -1.1684  0.4060 -3.4315
 1895SOL     OW17317   1.579   3.126  12.362  0.2909 -0.5815  0.3230
 1895SOL    HW117318   1.558   3.159  12.449  0.3833 -0.6710  0.3794
 1895SOL    HW217319   1.675   3.124  12.361  0.2837 -0.6062 -0.4633
 1896SOL     OW17320   1.002   4.531   9.529  0.2560 -0.4211  0.1627
 1896SOL    HW117321   1.014   4.620   9.564 -2.3098  0.1688 -0.4604
 1896SOL    HW217322   1.000   4.482   9.611  1.0042 -0.2419  0.2871
 1897SOL     OW17323   1.751   2.481   8.956  0.4724  0.1459  0.5190
 1897SOL    HW117324   1.753   2.419   8.883  0.0757 -0.2555  0.8484
 1897SOL    HW217325   1.770   2.430   9.034  0.5166 -0.7847 -0.0922
 1898SOL     OW17326   2.974   3.152  17.032 -0.2084 -0.0973 -0.2468
 1898SOL    HW117327   2.986   3.125  16.941  0.6466 -1.9325  0.4001
 1898SOL    HW217328   3.056   3.200  17.045  0.9896 -1.7022 -1.9653
 1899SOL     OW17329   1.221   3.783   1.540  0.2676  0.4832  0.2285
 1899SOL    HW117330   1.160   3.710   1.534  3.4959 -2.2015  0.2020
 1899SOL    HW217331   1.282   3.745   1.603  2.1949  2.4343 -0.4412
 1900SOL     OW17332   2.965   3.880  13.397  0.0963 -0.6018 -0.5111
 1900SOL    HW117333   2.964   3.966  13.437  2.4964  0.0006 -1.7733
 1900SOL    HW217334   2.947   3.823  13.472  1.2172 -0.7942 -0.3983
 1901SOL     OW17335   2.594   1.470   6.982  0.0895  0.0939 -0.2529
 1901SOL    HW117336   2.575   1.549   6.931 -1.8920  0.1307  0.5475
 1901SOL    HW217337   2.675   1.497   7.024  0.9182  0.9606 -2.4337
 1902SOL     OW17338   0.262   1.997   7.634  0.4626  0.1890 -0.0170
 1902SOL    HW117339   0.189   2.053   7.610  1.0600  1.2374  0.6336
 1902SOL    HW217340   0.219   1.926   7.681 -0.7515  1.6349  1.0292
 1903SOL     OW17341   4.067   0.585   8.178 -0.6367  0.1334  0.8389
 1903SOL    HW117342   4.005   0.651   8.208 -0.8450 -0.3767  1.5243
 1903SOL    HW217343   4.148   0.608   8.223 -1.7189  3.3304  1.1693
 1904SOL     OW17344   4.487   0.124   6.402  0.8464 -0.0725 -0.9419
 1904SOL    HW117345   4.458   0.051   6.457  1.5069 -0.8634 -1.6485
 1904SOL    HW217346   4.581   0.109   6.392  1.0927  0.3726  0.6147
 1905SOL     OW17347   3.951   1.713  14.059  0.4016  0.3686 -0.2855
 1905SOL    HW117348   4.011   1.752  14.122 -0.5797  0.2749  0.6993
 1905SOL    HW217349   3.889   1.676  14.122  0.9064  2.4110  1.3845
 1906SOL     OW17350   0.144   2.873   6.890  0.0022  0.1224  0.0579
 1906SOL    HW117351   0.113   2.963   6.896 -0.0656  0.0116  1.3716
 1906SOL    HW217352   0.117   2.828   6.969 -0.5826 -0.8599 -0.6979
 1907SOL     OW17353   4.084   4.065  17.341 -0.2726 -0.5272 -0.4740
 1907SOL    HW117354   4.052   3.983  17.303  0.0847 -1.6440  1.6093
 1907SOL    HW217355   4.171   4.068  17.300 -1.1424 -0.5647 -2.3175
 1908SOL     OW17356   2.970   2.691   1.430  0.2523 -0.1066  0.3351
 1908SOL    HW117357   3.036   2.687   1.361 -0.0636 -0.1243  0.0362
 1908SOL    HW217358   3.027   2.695   1.507 -1.0197  1.8300  1.1737
 1909SOL     OW17359   4.289   3.722   4.117  0.2706 -0.5306  0.1875
 1909SOL    HW117360   4.261   3.813   4.129  0.1277 -0.3028 -1.9335
 1909SOL    HW217361   4.299   3.715   4.022 -1.3297  1.0472 -0.0913
 1910SOL     OW17362   4.247   0.391  16.372  0.3907 -0.2113  0.1877
 1910SOL    HW117363   4.263   0.464  16.431  0.0902 -0.0478  0.0665
 1910SOL    HW217364   4.242   0.315  16.430 -1.1931  0.8958  1.4946
 1911SOL     OW17365   0.112   3.012   8.726 -0.2379  0.5514  0.3642
 1911SOL    HW117366   0.069   3.073   8.666  0.0762 -0.7218 -1.1792
 1911SOL    HW217367   0.063   3.024   8.807 -1.8616 -1.9865 -0.2219
 1912SOL     OW17368   4.373   0.242  13.249  0.2076  0.2092  0.0411
 1912SOL    HW117369   4.301   0.260  13.189 -1.5086  0.7567  2.2872
 1912SOL    HW217370   4.447   0.275  13.197 -0.2767 -1.2328 -1.5784
 1913SOL     OW17371   2.026   3.953   3.487 -0.6642 -0.4457 -0.1774
 1913SOL    HW117372   2.098   3.959   3.424  1.6213 -1.1172  2.3981
 1913SOL    HW217373   1.990   4.039   3.467  0.4041  0.2881  1.0316
 1914SOL     OW17374   0.075   3.088  16.850  0.1480  0.0176  0.0889
 1914SOL    HW117375   0.095   3.057  16.938  1.7387  0.3502 -0.1562
 1914SOL    HW217376   0.083   3.007  16.800  0.3953  0.4662 -0.5914
 1915SOL     OW17377   0.982   2.981   8.148  0.3825 -0.1060 -0.1267
 1915SOL    HW117378   0.915   2.946   8.090  1.1706 -1.8232  0.0043
 1915SOL    HW217379   0.944   2.985   8.236  1.9604 -1.4761  0.5982
 1916SOL     OW17380   1.765   4.295   1.967  0.3831 -0.0103 -0.7685
 1916SOL    HW117381   1.826   4.342   2.025 -1.2836  1.7636 -0.4593
 1916SOL    HW217382   1.723   4.227   2.020  0.2728  1.2469  0.7649
 1917SOL     OW17383   4.121   2.900   6.422  0.2084 -0.2938 -0.4623
 1917SOL    HW117384   4.082   2.828   6.472 -1.7086  0.5861 -0.6978
 1917SOL    HW217385   4.213   2.879   6.437  0.7736  3.4147  1.4181
 1918SOL     OW17386   1.505   4.435   7.718 -0.5047 -0.3052 -0.1865
 1918SOL    HW117387   1.519   4.447   7.624 -0.9908 -0.0136 -0.2191
 1918SOL    HW217388   1.596   4.408   7.734 -0.1257  1.5236  0.6953
 1919SOL     OW17389   4.732   3.741   2.968 -0.1512 -0.0129 -0.4138
 1919SOL    HW117390   4.638   3.752   2.956 -0.2853  0.4614  1.0753
 1919SOL    HW217391   0.008   3.650   2.994 -1.9783 -0.1597  0.0468
 1920SOL     OW17392   2.807   4.717  11.809  0.2990 -0.5737 -0.5913
 1920SOL    HW117393   2.903   4.718  11.807  0.3157 -0.9847  0.0909
 1920SOL    HW217394   2.789   0.039  11.737 -0.7866  1.8900  1.7373
 1921SOL     OW17395   2.522   3.200   7.503  0.3076 -0.1670  0.0771
 1921SOL    HW117396   2.605   3.164   7.534  0.1711  0.2074  0.8613
 1921SOL    HW217397   2.512   3.287   7.541  4.1141  0.5150 -0.4284
 1922SOL     OW17398   2.943   3.770   1.685 -0.2720  0.1070  0.2477
 1922SOL    HW117399   2.925   3.678   1.662  0.1196  0.2565 -0.6679
 1922SOL    HW217400   3.021   3.776   1.629  0.7860  3.2614  2.0790
 1923SOL     OW17401   1.025   3.202  13.327  0.1773  0.0729 -0.1566
 1923SOL    HW117402   1.113   3.238  13.341  0.2330 -0.7134  1.5331
 1923SOL    HW217403   0.973   3.282  13.333 -0.8592 -0.5688 -0.6573
 1924SOL     OW17404   2.603   0.491  12.765  0.4007 -0.0746 -0.6115
 1924SOL    HW117405   2.540   0.423  12.744  0.9622 -1.0804  0.9355
 1924SOL    HW217406   2.673   0.427  12.779  0.7903  1.0343  2.6782
 1925SOL     OW17407   4.060   1.163  14.943 -0.2418 -0.3973  0.1845
 1925SOL    HW117408   4.127   1.191  14.880  0.7519 -2.8553  0.1347
 1925SOL    HW217409   4.026   1.088  14.894 -1.1061 -0.6649  1.1919
 1926SOL     OW17410   4.537   4.612   6.568 -0.1879  0.4524  0.1526
 1926SOL    HW117411   4.622   4.597   6.609 -0.5474 -0.7152  0.4675
 1926SOL    HW217412   4.481   4.625   6.645  0.2172  0.3355  0.4688
 1927SOL     OW17413   0.303   2.740   4.977 -0.0644  0.2353  0.2213
 1927SOL    HW117414   0.310   2.786   5.061  0.3697 -0.6774  0.6773
 1927SOL    HW217415   0.224   2.687   4.992  0.6972 -0.4398  1.8238
 1928SOL     OW17416   3.074   0.483   4.130 -0.4100 -0.3561  0.1335
 1928SOL    HW117417   3.032   0.416   4.184 -1.0031  0.9539  1.2761
 1928SOL    HW217418   3.014   0.557   4.129  1.0165  0.7671 -3.1233
 1929SOL     OW17419   0.399   1.060   8.766  0.1031  0.0956  0.1432
 1929SOL    HW117420   0.394   1.019   8.852  2.0234 -1.9751 -0.7215
 1929SOL    HW217421   0.369   1.149   8.783 -1.2585 -0.4533  0.5954
 1930SOL     OW17422   3.594   3.067   7.173 -0.0996 -0.4501 -0.2383
 1930SOL    HW117423   3.567   3.115   7.252  0.6581  1.2508 -1.0034
 1930SOL    HW217424   3.664   3.121   7.135 -1.1718 -0.4807 -2.2580
 1931SOL     OW17425   4.152   1.465   5.003  0.3442  0.1958  0.2467
 1931SOL    HW117426   4.064   1.429   4.990  0.3562  0.1299  0.3499
 1931SOL    HW217427   4.193   1.382   5.025  1.4927  1.0244  1.2033
 1932SOL     OW17428   2.243   1.408   3.302 -0.0846 -0.0806 -0.1651
 1932SOL    HW117429   2.176   1.450   3.356  1.3308  0.3308  1.2617
 1932SOL    HW217430   2.232   1.452   3.218 -0.0374 -1.1688 -0.7326
 1933SOL     OW17431   4.182   0.713  15.701 -0.1005 -0.3864  0.5028
 1933SOL    HW117432   4.233   0.659  15.641 -0.6753 -0.6551  0.2534
 1933SOL    HW217433   4.163   0.790  15.647 -1.1268 -0.1586  1.1942
 1934SOL     OW17434   4.089   0.151  13.996 -0.1580  0.5474  0.1846
 1934SOL    HW117435   4.138   0.126  13.917  1.2289 -1.8553  1.7748
 1934SOL    HW217436   4.155   0.144  14.066 -3.4770  1.0207  3.3911
 1935SOL     OW17437   4.419   0.802   5.664  0.2360  0.5806 -0.1784
 1935SOL    HW117438   4.451   0.719   5.628  0.2813  0.0049  1.1976
 1935SOL    HW217439   4.443   0.871   5.602  1.8091  0.5886  0.4519
 1936SOL     OW17440   1.051   0.741   0.420  0.9070  0.5740  0.5407
 1936SOL    HW117441   1.141   0.772   0.416  0.7158  1.0743  0.2078
 1936SOL    HW217442   1.003   0.824   0.423 -0.8550 -0.5117  3.2255
 1937SOL     OW17443   3.955   3.474   4.398  0.2831 -0.0351  0.0536
 1937SOL    HW117444   3.978   3.533   4.326  0.3471 -0.5418 -0.3372
 1937SOL    HW217445   3.944   3.545   4.461  2.9831 -2.1848  2.9528
 1938SOL     OW17446   0.534   1.304   8.409 -0.2308  0.0423 -0.1063
 1938SOL    HW117447   0.447   1.337   8.432  0.5464  1.4171  0.7980
 1938SOL    HW217448   0.598   1.374   8.398  0.0532 -0.0667  0.8531
 1939SOL     OW17449   1.107   1.153   3.216 -0.4783  0.0629 -0.4757
 1939SOL    HW117450   1.063   1.209   3.152  0.4793  0.5924 -0.6636
 1939SOL    HW217451   1.031   1.123   3.266 -0.4945  0.9746  0.0485
 1940SOL     OW17452   3.369   1.662   2.256 -0.0566 -0.4173  0.1836
 1940SOL    HW117453   3.377   1.568   2.243 -0.7212 -0.6486  1.3861
 1940SOL    HW217454   3.370   1.666   2.352  0.3207 -0.8795  0.1975
 1941SOL     OW17455   3.404   2.517   0.467  0.4538 -0.0669  0.1896
 1941SOL    HW117456   3.421   2.606   0.437 -0.4701  1.2330  3.4563
 1941SOL    HW217457   3.486   2.496   0.512  0.5404 -3.8605 -1.7617
 1942SOL     OW17458   3.750   0.946  17.183 -0.0345  0.0765  0.5917
 1942SOL    HW117459   3.813   0.946  17.255  0.0082 -0.6242  0.5610
 1942SOL    HW217460   3.758   0.861  17.140 -0.0333  0.3653  0.0230
 1943SOL     OW17461   0.510   2.741   5.316 -0.0972 -0.8663  0.1701
 1943SOL    HW117462   0.486   2.668   5.373  1.6661 -2.8149 -1.5790
 1943SOL    HW217463   0.471   2.814   5.363  1.2488  1.0079 -1.6236
 1944SOL     OW17464   0.035   3.232   8.516 -0.3021  0.2805 -0.2775
 1944SOL    HW117465   0.094   3.209   8.444  1.6400 -1.7007  1.9516
 1944SOL    HW217466   4.710   3.285   8.466 -1.3441 -0.4948  0.2242
 1945SOL     OW17467   3.711   4.090   1.290 -0.1397  0.2679  0.1774
 1945SOL    HW117468   3.635   4.119   1.339  0.5109  0.1337  1.2622
 1945SOL    HW217469   3.755   4.040   1.358  2.2344  0.6404 -1.0538
 1946SOL     OW17470   2.088   3.903   1.251  0.4753 -0.4106  0.1368
 1946SOL    HW117471   2.171   3.862   1.225  1.4335  0.9918  1.0009
 1946SOL    HW217472   2.035   3.831   1.216 -0.3156  1.0533 -1.6953
 1947SOL     OW17473   0.337   4.349   6.087 -0.4704  0.1460 -0.4069
 1947SOL    HW117474   0.292   4.266   6.068  1.0704 -1.0300  1.0209
 1947SOL    HW217475   0.349   4.332   6.181  1.3065 -0.0981 -0.6705
 1948SOL     OW17476   3.946   3.316   1.394 -0.2732  0.5747  0.0687
 1948SOL    HW117477   3.932   3.233   1.348 -0.0072  0.2045  0.6414
 1948SOL    HW217478   3.900   3.378   1.339  0.4208 -0.7615 -2.0029
 1949SOL     OW17479   2.811   3.695   4.905 -0.6367 -0.4035 -0.5938
 1949SOL    HW117480   2.850   3.619   4.861 -1.5374 -0.3948 -1.4254
 1949SOL    HW217481   2.739   3.653   4.953 -1.2790 -1.0277 -2.0924
 1950SOL     OW17482   1.565   3.473   9.076 -0.4196  0.1977  0.4811
 1950SOL    HW117483   1.545   3.528   9.000  1.5572 -1.2067 -1.0755
 1950SOL    HW217484   1.517   3.524   9.140 -0.8252  1.5304 -0.8828
 1951SOL     OW17485   0.544   3.407   9.259 -0.2753  0.4695  0.3391
 1951SOL    HW117486   0.557   3.502   9.265 -1.6108  0.7322 -0.9531
 1951SOL    HW217487   0.489   3.404   9.181  1.7597 -1.1961 -1.0312
 1952SOL     OW17488   0.576   0.426   1.901  0.3496  0.6105  0.5643
 1952SOL    HW117489   0.589   0.370   1.977  0.5250 -1.4820 -1.0170
 1952SOL    HW217490   0.559   0.509   1.946  2.4482  0.9958  0.6466
 1953SOL     OW17491   0.180   2.938   4.123 -0.4429 -0.9683 -0.1300
 1953SOL    HW117492   0.113   2.956   4.057  0.5037  1.6152 -0.4088
 1953SOL    HW217493   0.137   2.967   4.204 -0.4547 -2.1383  0.2726
 1954SOL     OW17494   0.569   3.453   7.154 -0.1547 -0.1428 -0.4330
 1954SOL    HW117495   0.518   3.377   7.182 -0.0365 -0.0439  0.0567
 1954SOL    HW217496   0.590   3.482   7.243  0.4496  2.6874 -1.5168
 1955SOL     OW17497   2.049   0.020   5.632 -0.7327  0.1541  0.2790
 1955SOL    HW117498   2.007   0.106   5.629 -1.7050 -0.3965 -1.6091
 1955SOL    HW217499   1.983   4.711   5.683 -0.3889 -0.9927 -0.3475
 1956SOL     OW17500   4.381   0.346   8.596  0.2145  0.2550 -0.0871
 1956SOL    HW117501   4.297   0.331   8.639  0.0505  1.9715  0.1829
 1956SOL    HW217502   4.389   0.440   8.611 -0.3271 -0.0442  2.0100
 1957SOL     OW17503   0.960   4.226  14.222  0.1088  0.4151 -0.0628
 1957SOL    HW117504   0.966   4.132  14.200 -1.3143 -0.1925  2.1942
 1957SOL    HW217505   0.985   4.233  14.313  0.7375  0.5959 -0.2556
 1958SOL     OW17506   0.217   0.061   3.615  0.3587 -0.0648  0.6296
 1958SOL    HW117507   0.201   0.121   3.688  1.1386  2.1847 -1.0397
 1958SOL    HW217508   0.301   0.092   3.582 -0.0930  0.5331  0.0664
 1959SOL     OW17509   3.723   3.352   8.707  0.3276  0.4051  0.9790
 1959SOL    HW117510   3.771   3.318   8.783  0.4899 -2.0749 -0.2399
 1959SOL    HW217511   3.645   3.298   8.692  0.3478  0.5989  0.2117
 1960SOL     OW17512   3.496   3.525  10.327 -0.1907  0.1270 -0.5720
 1960SOL    HW117513   3.420   3.485  10.286 -1.0379  0.2172  0.8754
 1960SOL    HW217514   3.539   3.446  10.360  0.4505  0.7782  0.1540
 1961SOL     OW17515   2.183   2.356   3.141  0.5712  0.1542 -0.1255
 1961SOL    HW117516   2.099   2.365   3.185  2.2805 -0.5691  3.3278
 1961SOL    HW217517   2.166   2.292   3.072 -1.3470 -0.2821  0.7469
 1962SOL     OW17518   1.852   0.693   6.921  0.6021  0.4956  0.1067
 1962SOL    HW117519   1.823   0.726   6.836 -3.5961 -0.3909  1.2123
 1962SOL    HW217520   1.798   0.622   6.954  0.5201  0.0187 -1.0585
 1963SOL     OW17521   0.076   1.197  13.451  0.2541 -0.1081 -0.3689
 1963SOL    HW117522   0.166   1.195  13.483  0.5021  0.0299 -1.0524
 1963SOL    HW217523   0.097   1.225  13.362  0.0954  0.4770 -0.2172
 1964SOL     OW17524   1.785   0.489  10.086  0.7973  0.1948 -0.1715
 1964SOL    HW117525   1.845   0.507  10.013 -1.5985  0.5632 -2.0578
 1964SOL    HW217526   1.763   0.575  10.120  0.7758  0.7107 -1.5063
 1965SOL     OW17527   1.601   3.092  15.939  0.1717  0.0362  0.0121
 1965SOL    HW117528   1.625   3.150  15.867  0.6053 -0.9648 -0.6370
 1965SOL    HW217529   1.676   3.033  15.936  1.0820  1.2540 -0.8827
 1966SOL     OW17530   4.053   0.564   7.208  0.0185 -0.1878  0.1164
 1966SOL    HW117531   3.995   0.617   7.153  2.3697 -0.1046 -2.2944
 1966SOL    HW217532   4.128   0.561   7.148  0.4664 -1.0872  0.7196
 1967SOL     OW17533   1.373   2.087  14.225 -0.0044 -0.3082  0.8140
 1967SOL    HW117534   1.382   2.167  14.173 -3.9590 -2.1053 -2.6353
 1967SOL    HW217535   1.277   2.088  14.233 -0.0930  0.9182 -0.5283
 1968SOL     OW17536   4.117   2.007  15.135  0.0831  0.1298 -0.2752
 1968SOL    HW117537   4.170   1.978  15.209 -1.8025  0.0434  1.0337
 1968SOL    HW217538   4.151   1.948  15.067 -2.2143 -0.3471 -0.9882
 1969SOL     OW17539   4.548   1.754  12.897 -0.0736  0.2554  0.0556
 1969SOL    HW117540   4.593   1.699  12.962 -0.9129 -0.6314 -0.1127
 1969SOL    HW217541   4.481   1.787  12.957  1.7393  0.7040  1.8105
 1970SOL     OW17542   3.114   0.920   6.661  0.0717  0.0481 -0.2439
 1970SOL    HW117543   3.049   0.982   6.694  0.2448 -0.2089  0.5798
 1970SOL    HW217544   3.051   0.859   6.623 -1.2977  0.3253  1.5726
 1971SOL     OW17545   1.473   0.808  12.949 -0.2489  0.3439  0.0453
 1971SOL    HW117546   1.566   0.826  12.933 -0.2379  1.3717  1.2999
 1971SOL    HW217547   1.470   0.713  12.956  1.5189  0.2193 -0.9830
 1972SOL     OW17548   4.590   1.312  11.642  0.0189 -0.1960  0.0323
 1972SOL    HW117549   4.632   1.398  11.632  2.0484 -1.3748 -1.4311
 1972SOL    HW217550   4.625   1.285  11.727  0.7519 -0.5348 -0.3792
 1973SOL     OW17551   4.627   2.250   1.665 -0.0885 -0.0206  0.6861
 1973SOL    HW117552   4.541   2.243   1.622 -1.4284 -0.6552  3.4655
 1973SOL    HW217553   4.659   2.160   1.667 -0.8844 -0.3490 -0.9630
 1974SOL     OW17554   2.582   3.343   4.037  0.0877 -0.0027  1.4755
 1974SOL    HW117555   2.676   3.351   4.053  0.5498  0.6117 -1.5765
 1974SOL    HW217556   2.550   3.411   4.096 -0.6815  1.0820 -0.2068
 1975SOL     OW17557   1.160   2.356   5.605  0.4276  0.0207  0.3084
 1975SOL    HW117558   1.205   2.334   5.687  3.0115 -1.3342 -1.4880
 1975SOL    HW217559   1.234   2.336   5.547  1.1232  1.1661  0.7871
 1976SOL     OW17560   3.584   2.731  12.403 -0.4388  0.3049  0.2773
 1976SOL    HW117561   3.568   2.670  12.332  2.0708 -1.9571  1.6534
 1976SOL    HW217562   3.658   2.688  12.446 -1.2596 -1.0228  0.3523
 1977SOL     OW17563   1.217   0.337   1.510 -0.1806 -0.0996 -0.6713
 1977SOL    HW117564   1.292   0.277   1.502  1.4967  1.5914  2.2298
 1977SOL    HW217565   1.259   0.415   1.474 -0.7367 -0.1888 -1.5033
 1978SOL     OW17566   3.452   2.314   8.388 -0.3628 -0.4267  0.3555
 1978SOL    HW117567   3.365   2.276   8.396 -0.6218  0.4249  1.7175
 1978SOL    HW217568   3.460   2.379   8.458  0.3898 -1.0238  0.8304
 1979SOL     OW17569   0.737   3.939   5.141  0.8460 -0.2037  0.0476
 1979SOL    HW117570   0.739   3.916   5.233  1.8888  0.9662  0.3201
 1979SOL    HW217571   0.659   3.994   5.133  0.2584 -1.4301 -2.6587
 1980SOL     OW17572   2.494   4.330   4.274  0.3914 -0.5778  0.5120
 1980SOL    HW117573   2.492   4.413   4.226  1.0630 -0.2839  0.9948
 1980SOL    HW217574   2.398   4.321   4.272  0.5329 -1.9101  0.2315
 1981SOL     OW17575   4.664   0.387   3.246  0.0001 -0.0833  0.4030
 1981SOL    HW117576   4.726   0.404   3.317  0.0422 -3.7203  1.2302
 1981SOL    HW217577   4.623   0.308   3.282 -1.1040  0.1182 -0.4322
 1982SOL     OW17578   1.098   2.641   9.257 -0.0440  0.0967 -0.4950
 1982SOL    HW117579   1.099   2.580   9.183 -1.7780  0.9544 -1.2155
 1982SOL    HW217580   1.089   2.578   9.329 -0.5458  1.4763  0.6490
 1983SOL     OW17581   4.335   1.016   8.572 -0.2396  0.3048  0.0527
 1983SOL    HW117582   4.364   0.926   8.563 -0.7287  0.3583 -2.0862
 1983SOL    HW217583   4.289   1.018   8.656 -2.1001 -3.0844 -0.9032
 1984SOL     OW17584   3.402   3.195   9.301  0.6311 -0.4585  0.2949
 1984SOL    HW117585   3.447   3.259   9.246  0.2399  1.5837  2.3609
 1984SOL    HW217586   3.475   3.153   9.346 -0.2850 -1.4159  0.9055
 1985SOL     OW17587   4.166   2.082   2.970  0.2952 -0.2197 -0.6128
 1985SOL    HW117588   4.089   2.111   3.020  1.8564  1.7045  0.6945
 1985SOL    HW217589   4.193   2.000   3.012 -1.4604  0.8360  2.6117
 1986SOL     OW17590   0.058   3.538   5.466  0.5147  0.0171 -0.1883
 1986SOL    HW117591   4.735   3.508   5.533  1.3291 -0.3392  0.3995
 1986SOL    HW217592   0.044   3.633   5.465  2.2699  0.2864 -0.1296
 1987SOL     OW17593   4.454   2.940   8.754  0.4450 -0.0288 -0.0371
 1987SOL    HW117594   4.498   2.993   8.688  0.7728  2.9938  2.6494
 1987SOL    HW217595   4.372   2.926   8.706 -0.1993  0.9307  0.7759
 1988SOL     OW17596   4.341   4.553  12.614  0.1718  0.2403  0.1880
 1988SOL    HW117597   4.303   4.595  12.691  0.1203  0.7327 -0.1131
 1988SOL    HW217598   4.373   4.473  12.656 -0.1275  0.4014  0.7196
 1989SOL     OW17599   0.855   0.227   5.786  0.0020  0.2865  0.0481
 1989SOL    HW117600   0.853   0.248   5.693 -1.0929 -0.1871 -0.0462
 1989SOL    HW217601   0.861   0.314   5.826  1.0021 -0.4736  1.5465
 1990SOL     OW17602   1.624   3.346   7.045  0.2161 -0.1746 -0.0498
 1990SOL    HW117603   1.596   3.411   6.980  1.9111 -1.9111 -2.5284
 1990SOL    HW217604   1.597   3.398   7.121 -0.3081  2.3172 -1.9199
 1991SOL     OW17605   0.598   0.936  13.290  0.0368  0.7727  0.0758
 1991SOL    HW117606   0.681   0.939  13.243 -0.9013  0.9969 -1.5642
 1991SOL    HW217607   0.623   0.874  13.359 -0.3604 -1.3498 -1.6674
 1992SOL     OW17608   1.581   0.940  14.222  0.2281 -0.1892  0.0066
 1992SOL    HW117609   1.636   0.947  14.144  0.1604 -0.1564 -0.0393
 1992SOL    HW217610   1.568   1.030  14.252 -0.1674  0.1982 -1.2912
 1993SOL     OW17611   3.497   3.630   0.209 -0.1913  0.1344  0.2065
 1993SOL    HW117612   3.584   3.632   0.248  0.1092  1.3091 -0.5191
 1993SOL    HW217613   3.489   3.711   0.158 -0.4110  0.4860  0.7905
 1994SOL     OW17614   1.484   3.372   5.367  0.2572  0.6432 -0.1567
 1994SOL    HW117615   1.478   3.363   5.272  0.6918  0.7559 -0.1920
 1994SOL    HW217616   1.577   3.359   5.384  0.2166 -1.2542 -1.3830
 1995SOL     OW17617   2.959   1.814   6.574  0.6499  0.7496 -0.6552
 1995SOL    HW117618   3.015   1.805   6.651  0.2968 -1.6284 -0.6774
 1995SOL    HW217619   3.021   1.834   6.504  1.0290  2.1991  0.1060
 1996SOL     OW17620   0.944   1.032   3.456  0.1577  0.1672 -0.3918
 1996SOL    HW117621   0.852   1.016   3.477 -0.3237  1.2156 -1.7207
 1996SOL    HW217622   0.979   0.954   3.500  1.5260  0.4409 -0.9766
 1997SOL     OW17623   3.840   0.170  11.313 -0.0098  0.0384  0.2954
 1997SOL    HW117624   3.778   0.219  11.258 -1.9040 -2.0297  0.5816
 1997SOL    HW217625   3.869   0.102  11.252  0.8126 -2.5378  3.5606
 1998SOL     OW17626   1.004   2.283   7.913  0.1753  0.3873  0.4127
 1998SOL    HW117627   1.070   2.214   7.911 -0.1702  0.0134  1.8392
 1998SOL    HW217628   0.940   2.241   7.855  0.4053  1.5185 -0.6617
 1999SOL     OW17629   2.531   2.185   1.177  0.0148  0.0884 -0.0785
 1999SOL    HW117630   2.457   2.143   1.134 -0.7953  1.8471 -0.3954
 1999SOL    HW217631   2.523   2.162   1.269 -2.9195 -3.2435 -1.1430
 2000SOL     OW17632   1.978   3.296  15.383  0.3749  0.4727  0.5150
 2000SOL    HW117633   1.988   3.272  15.475  0.4010  0.1999  0.4416
 2000SOL    HW217634   2.067   3.325  15.368  0.1671  1.0191  0.3645
 2001SOL     OW17635   3.140   2.164   9.682  0.2495  0.0891 -0.3697
 2001SOL    HW117636   3.129   2.154   9.587  1.5892 -0.1347 -0.5026
 2001SOL    HW217637   3.077   2.095   9.704  0.1469  0.2058 -0.2994
 2002SOL     OW17638   0.789   2.888  11.490 -0.1419  0.1538 -0.7497
 2002SOL    HW117639   0.744   2.889  11.406  0.7551  1.7813 -1.2094
 2002SOL    HW217640   0.878   2.891  11.456 -0.2112 -0.8534 -1.0049
 2003SOL     OW17641   1.856   0.731   4.040  0.2321  0.3962  0.2331
 2003SOL    HW117642   1.911   0.653   4.054  0.2001  0.4103  0.4433
 2003SOL    HW217643   1.818   0.748   4.127  0.9511  0.6585  0.4953
 2004SOL     OW17644   4.441   1.750  16.688  0.6644 -0.0132 -0.5897
 2004SOL    HW117645   4.502   1.742  16.615  1.5092  1.5898 -0.0422
 2004SOL    HW217646   4.358   1.731  16.645  0.6604 -0.0412 -0.5704
 2005SOL     OW17647   0.731   3.872   5.400  0.3004 -0.2534 -0.0435
 2005SOL    HW117648   0.675   3.802   5.433 -0.4648 -0.0559 -0.9183
 2005SOL    HW217649   0.812   3.868   5.452 -1.4842 -0.7338  2.7261
 2006SOL     OW17650   1.523   1.606   3.098 -0.1600  0.2133  0.5616
 2006SOL    HW117651   1.493   1.690   3.134 -2.3937 -0.0506 -0.6923
 2006SOL    HW217652   1.573   1.572   3.172 -0.6317 -0.3637  0.6150
 2007SOL     OW17653   3.314   3.508  16.896  0.1241 -0.3681  0.5232
 2007SOL    HW117654   3.345   3.585  16.944 -0.8202 -0.1674  0.8076
 2007SOL    HW217655   3.255   3.551  16.833  0.7191  0.6949  0.6809
 2008SOL     OW17656   0.382   2.663   9.927 -0.4384  0.1676 -0.1407
 2008SOL    HW117657   0.313   2.687   9.865  0.1212  0.5406 -0.6191
 2008SOL    HW217658   0.430   2.603   9.870  2.1372 -0.0642  2.2554
 2009SOL     OW17659   4.481   1.561   7.447 -0.4419 -0.5647  0.2222
 2009SOL    HW117660   4.560   1.606   7.417  0.7368 -2.2322  0.8066
 2009SOL    HW217661   4.501   1.472   7.417 -0.1462 -0.6407  0.6525
 2010SOL     OW17662   3.137   4.676  14.625 -0.1339  0.2727  0.0269
 2010SOL    HW117663   3.148   4.592  14.669  0.4651  0.1756 -0.3039
 2010SOL    HW217664   3.043   4.686  14.608  0.0449  1.9012 -0.0729
 2011SOL     OW17665   0.414   1.376   5.427  0.3073 -0.4213 -0.0931
 2011SOL    HW117666   0.479   1.413   5.486  0.0324  0.4900 -0.3668
 2011SOL    HW217667   0.473   1.316   5.381 -1.1119  0.0202 -2.5210
 2012SOL     OW17668   0.116   0.011  12.879  0.5359  1.0199 -0.1238
 2012SOL    HW117669   0.080   4.703  12.803  0.4934 -0.3744  0.7283
 2012SOL    HW217670   0.107   4.680  12.945 -0.2199  2.0000  0.7804
 2013SOL     OW17671   1.587   2.592  16.332  1.1716 -0.3166 -0.9130
 2013SOL    HW117672   1.591   2.577  16.427  1.6221  2.5312 -0.4836
 2013SOL    HW217673   1.510   2.649  16.327  1.4416  0.2012  0.7526
 2014SOL     OW17674   4.359   3.314   6.055 -0.1378  0.0589 -0.0944
 2014SOL    HW117675   4.364   3.404   6.023  1.4664 -0.2750 -0.7862
 2014SOL    HW217676   4.318   3.274   5.978  2.1592  0.1534 -1.3755
 2015SOL     OW17677   2.161   3.527   7.444 -0.6384  0.3134  0.5494
 2015SOL    HW117678   2.150   3.436   7.473 -1.3516  0.0336 -0.5773
 2015SOL    HW217679   2.085   3.539   7.386 -1.5217 -1.0354  1.4306
 2016SOL     OW17680   2.626   1.399  16.779 -0.4213  0.1994  0.3336
 2016SOL    HW117681   2.540   1.372  16.747  0.0343 -0.0565 -0.6797
 2016SOL    HW217682   2.604   1.492  16.784 -1.1840  0.0552 -0.4341
 2017SOL     OW17683   2.087   3.437   4.332 -0.4102  0.7100 -0.1516
 2017SOL    HW117684   2.162   3.489   4.360 -0.4534  0.5664  0.2262
 2017SOL    HW217685   2.015   3.488   4.368  0.4635  0.4590  1.9811
 2018SOL     OW17686   0.955   2.334   6.409  0.0115  0.3197  0.5332
 2018SOL    HW117687   0.966   2.332   6.504 -1.8119 -0.2724  0.7399
 2018SOL    HW217688   0.859   2.332   6.410  0.0056  0.8417  1.8628
 2019SOL     OW17689   4.715   2.710  16.031  0.0543 -0.4311  0.0227
 2019SOL    HW117690   0.030   2.742  15.958  4.0882  1.5141  3.7937
 2019SOL    HW217691   4.641   2.771  16.026  0.1712 -0.2143  0.8679
 2020SOL     OW17692   0.728   1.419   8.222  0.0844  0.0683  1.1525
 2020SOL    HW117693   0.708   1.328   8.199  3.6312 -0.3115 -0.4249
 2020SOL    HW217694   0.822   1.409   8.206  0.0222  1.7138 -0.2859
 2021SOL     OW17695   1.930   2.999   2.892  0.4281 -0.3354 -0.3991
 2021SOL    HW117696   1.901   3.073   2.838  0.7375  0.7513  0.9392
 2021SOL    HW217697   2.022   3.011   2.869 -0.4876  4.5110 -1.4385
 2022SOL     OW17698   0.847   4.032   6.164  0.5598  1.0801 -0.3526
 2022SOL    HW117699   0.931   4.056   6.204  0.2933 -1.3090  1.6637
 2022SOL    HW217700   0.808   4.116   6.141  0.2949  0.6571 -1.4508
 2023SOL     OW17701   2.656   4.369   1.932 -0.0807  0.5606  0.1619
 2023SOL    HW117702   2.681   4.278   1.915  0.7478  0.9253 -0.5594
 2023SOL    HW217703   2.611   4.346   2.013 -0.7631 -0.4170 -0.4977
 2024SOL     OW17704   3.160   3.397  12.886  0.0781  0.0829 -0.1917
 2024SOL    HW117705   3.205   3.370  12.806 -0.0973 -0.2086 -0.1919
 2024SOL    HW217706   3.180   3.320  12.941  0.6558 -0.1730 -0.7580
 2025SOL     OW17707   0.016   2.041   1.037  1.0432 -0.4905  0.1204
 2025SOL    HW117708   0.086   1.980   1.013  1.5359  0.5219 -1.0062
 2025SOL    HW217709   4.690   2.011   0.972  0.1794 -0.4048  0.9232
 2026SOL     OW17710   0.308   4.317   6.401 -0.1893  0.1185  0.2804
 2026SOL    HW117711   0.247   4.329   6.474 -0.2500 -0.8821  0.3966
 2026SOL    HW217712   0.367   4.252   6.438 -0.3376 -1.0492 -1.5505
 2027SOL     OW17713   2.002   3.986   9.194 -0.5723 -0.2385 -0.4120
 2027SOL    HW117714   2.072   3.966   9.132  2.0151 -0.0219  2.4498
 2027SOL    HW217715   2.011   3.913   9.255 -1.2581 -0.4252 -0.5348
 2028SOL     OW17716   3.790   1.239   5.863  0.6041  0.3754 -0.1805
 2028SOL    HW117717   3.779   1.165   5.803 -0.0297 -0.2956  0.7746
 2028SOL    HW217718   3.741   1.304   5.812  2.9035  1.8268 -0.5434
 2029SOL     OW17719   2.323   1.623   2.239 -0.4449 -0.6109 -0.0225
 2029SOL    HW117720   2.264   1.552   2.263  0.7924 -1.0259  1.7368
 2029SOL    HW217721   2.288   1.689   2.299  0.6656 -1.2894  1.3461
 2030SOL     OW17722   3.444   1.299   7.871  0.4296 -0.1839 -0.2600
 2030SOL    HW117723   3.364   1.257   7.838 -0.8615  0.8840  1.5070
 2030SOL    HW217724   3.498   1.221   7.880 -1.3515 -1.2114  1.6918
 2031SOL     OW17725   0.179   0.809   6.892  0.3745  0.3907  0.5976
 2031SOL    HW117726   0.247   0.818   6.959  2.5385  1.2795 -1.7243
 2031SOL    HW217727   0.221   0.827   6.807 -0.3168  0.8036  0.3482
 2032SOL     OW17728   2.214   4.380   2.715 -0.2377 -0.0880  0.9163
 2032SOL    HW117729   2.277   4.453   2.721 -1.0981  0.8232 -1.0811
 2032SOL    HW217730   2.137   4.425   2.679  0.3832 -0.1992 -0.5623
 2033SOL     OW17731   3.605   2.657  16.285 -0.4317 -0.1337  0.4428
 2033SOL    HW117732   3.677   2.702  16.241 -0.4007  0.6346  1.2735
 2033SOL    HW217733   3.631   2.677  16.375 -1.0804  1.7795  0.2062
 2034SOL     OW17734   1.314   4.344   4.986 -0.3458  0.5786  0.0895
 2034SOL    HW117735   1.228   4.339   5.027  0.6284 -0.0762  2.0429
 2034SOL    HW217736   1.363   4.339   5.068 -2.0321  1.7329  1.1737
 2035SOL     OW17737   4.724   4.340   3.402  0.3571  0.4206 -0.1245
 2035SOL    HW117738   0.011   4.410   3.462  0.2608  0.4464 -0.1155
 2035SOL    HW217739   4.732   4.274   3.471 -4.0089  0.1924  0.1486
 2036SOL     OW17740   4.567   4.326  16.904 -0.4441  0.2865  0.3428
 2036SOL    HW117741   4.500   4.330  16.972 -0.9647  1.4290 -0.2344
 2036SOL    HW217742   4.506   4.294  16.839 -0.2508  0.3442  0.1327
 2037SOL     OW17743   0.716   2.437  11.243 -0.4684  0.3041  0.6555
 2037SOL    HW117744   0.742   2.446  11.151  0.1574  2.1646  1.0098
 2037SOL    HW217745   0.717   2.342  11.257  2.2680 -0.3433 -3.8414
 2038SOL     OW17746   0.957   3.475   9.563 -0.0424  0.0396  0.4705
 2038SOL    HW117747   0.994   3.451   9.478 -0.3024 -0.0289  0.3767
 2038SOL    HW217748   0.889   3.528   9.522  1.0290  0.7917 -0.3482
 2039SOL     OW17749   3.370   3.460   0.009  0.1911  0.0459 -0.6993
 2039SOL    HW117750   3.364   3.383   0.064 -0.9745  0.7591  0.1577
 2039SOL    HW217751   3.413   3.519   0.071  0.9507 -0.0358 -1.1480
 2040SOL     OW17752   4.466   2.412   5.386  0.2836  0.1397 -0.3164
 2040SOL    HW117753   4.553   2.425   5.424 -0.1384 -0.7648  0.9768
 2040SOL    HW217754   4.457   2.316   5.391  2.5479 -0.0878 -0.7785
 2041SOL     OW17755   1.053   4.107   9.262 -0.4337 -0.0601 -0.4491
 2041SOL    HW117756   1.103   4.114   9.344 -0.9376 -2.2882  0.0424
 2041SOL    HW217757   0.964   4.095   9.294  0.7166 -0.2803  2.6525
 2042SOL     OW17758   3.710   1.267   8.174  0.3468  0.1920 -0.0211
 2042SOL    HW117759   3.721   1.274   8.269 -0.5940 -0.3289  0.1372
 2042SOL    HW217760   3.692   1.353   8.138  0.3360  0.9606  1.7969
 2043SOL     OW17761   1.270   4.723  16.605  0.1077  0.2700 -0.2367
 2043SOL    HW117762   1.279   0.080  16.589  2.9836  0.2033  0.9984
 2043SOL    HW217763   1.306   4.677  16.529 -0.6384 -3.1343  1.4846
 2044SOL     OW17764   2.331   0.607   3.347  0.4376 -0.4380 -0.0027
 2044SOL    HW117765   2.343   0.577   3.257 -1.0444  0.4598 -0.4929
 2044SOL    HW217766   2.355   0.699   3.345  0.1855 -0.3969 -0.9774
 2045SOL     OW17767   3.650   4.347   2.156 -0.1337  0.2307  0.0239
 2045SOL    HW117768   3.642   4.418   2.220  0.8727  0.1735  0.2148
 2045SOL    HW217769   3.596   4.372   2.082  1.7323 -0.4083 -1.5476
 2046SOL     OW17770   1.869   2.959   1.792  0.1835 -0.0336  0.0257
 2046SOL    HW117771   1.834   2.992   1.709  1.1837  0.6873 -0.1124
 2046SOL    HW217772   1.847   2.867   1.780 -1.5117  0.5579 -1.3862
 2047SOL     OW17773   2.905   2.748   7.120  0.5720  0.3492 -0.3184
 2047SOL    HW117774   2.822   2.710   7.092 -0.5228  1.7601  1.0211
 2047SOL    HW217775   2.891   2.730   7.213 -1.0426  2.3220 -0.1983
 2048SOL     OW17776   0.104   4.447   7.658 -0.4932 -0.8193 -0.4590
 2048SOL    HW117777   0.125   4.503   7.732 -2.4565  2.6777 -2.5319
 2048SOL    HW217778   0.047   4.382   7.699 -0.9288 -0.1063  0.0654
 2049SOL     OW17779   3.841   2.138  15.071  0.3422  0.4421  0.0004
 2049SOL    HW117780   3.887   2.091  15.001  0.2526  1.5350 -0.8046
 2049SOL    HW217781   3.912   2.160  15.132 -1.0580 -0.1502  1.8320
 2050SOL     OW17782   0.449   1.148   2.614  0.3337  0.5360 -0.5008
 2050SOL    HW117783   0.469   1.158   2.521  0.5783  0.7021 -0.4296
 2050SOL    HW217784   0.522   1.196   2.653 -0.6724  2.8384 -1.4300
 2051SOL     OW17785   3.359   4.462   7.627 -0.5684 -0.3486  0.3003
 2051SOL    HW117786   3.274   4.451   7.586 -1.3220  2.2765  1.1755
 2051SOL    HW217787   3.423   4.469   7.556 -0.5257 -0.1620  0.3562
 2052SOL     OW17788   2.061   1.846  14.887 -0.6892 -0.2153 -0.1667
 2052SOL    HW117789   2.053   1.777  14.822 -0.0843 -0.4595  0.0157
 2052SOL    HW217790   2.133   1.903  14.859  0.2730 -0.9068  0.8712
 2053SOL     OW17791   2.269   2.471   8.634 -0.1032  0.9429  0.0252
 2053SOL    HW117792   2.234   2.531   8.699 -1.7469  1.4927 -1.3730
 2053SOL    HW217793   2.358   2.471   8.670 -0.8622 -0.3623  1.9158
 2054SOL     OW17794   2.329   1.402  16.394  0.0702 -0.7997  1.0364
 2054SOL    HW117795   2.261   1.344  16.359 -1.8011  0.9056  1.8757
 2054SOL    HW217796   2.403   1.384  16.336  0.0296  1.0276  0.4093
 2055SOL     OW17797   4.459   0.795   4.226  0.6240  0.0241  0.5354
 2055SOL    HW117798   4.377   0.769   4.268  0.0645 -2.1341 -1.8841
 2055SOL    HW217799   4.451   0.743   4.146  3.0367  0.1079  0.2557
 2056SOL     OW17800   4.034   3.193   4.349  0.0069  0.7818 -0.8290
 2056SOL    HW117801   4.009   3.284   4.366  0.0479  0.6133  0.1672
 2056SOL    HW217802   4.049   3.170   4.441  2.1270  0.9980 -1.1250
 2057SOL     OW17803   4.690   1.598  11.689 -0.1926 -0.0622 -0.1137
 2057SOL    HW117804   0.025   1.578  11.748 -0.9446 -0.6697  0.5961
 2057SOL    HW217805   4.679   1.693  11.698 -0.6854 -0.0968 -0.3296
 2058SOL     OW17806   2.325   1.317   8.142  0.0527 -0.2939  0.6698
 2058SOL    HW117807   2.296   1.269   8.220  1.2936 -0.7194  0.8625
 2058SOL    HW217808   2.253   1.372   8.113  0.3911 -0.7305 -0.9991
 2059SOL     OW17809   2.164   3.908   6.084  0.5984  1.0283  0.9219
 2059SOL    HW117810   2.102   3.904   6.157 -1.0499 -0.4251 -0.5502
 2059SOL    HW217811   2.104   3.912   6.010 -1.7634 -0.4222  2.7503
 2060SOL     OW17812   1.290   3.865  14.148 -0.1331 -0.8080  0.1268
 2060SOL    HW117813   1.360   3.802  14.133  0.4761 -0.1194  0.0594
 2060SOL    HW217814   1.339   3.928  14.202 -1.8761 -0.4110  1.2577
 2061SOL     OW17815   0.836   4.478   9.010  0.2489  0.2376 -0.5078
 2061SOL    HW117816   0.919   4.459   8.967  1.8916  1.3792  2.2087
 2061SOL    HW217817   0.865   4.490   9.100  1.3582  0.9650 -0.9541
 2062SOL     OW17818   3.067   1.469   5.830  0.0887 -0.3442  0.3207
 2062SOL    HW117819   3.148   1.435   5.794 -0.7459 -0.5322 -1.3827
 2062SOL    HW217820   3.037   1.512   5.749 -1.3186  1.0448  1.5801
 2063SOL     OW17821   2.550   4.560   4.601  0.0610  0.0990 -0.3204
 2063SOL    HW117822   2.486   4.624   4.572  2.2512  2.2423 -0.4780
 2063SOL    HW217823   2.614   4.561   4.529  2.0038 -1.0874  1.3887
 2064SOL     OW17824   3.889   2.332   1.948  0.0024 -1.1564  0.3657
 2064SOL    HW117825   3.944   2.254   1.947 -0.5627 -1.5690  2.0227
 2064SOL    HW217826   3.873   2.324   1.854 -0.8074 -0.1028  0.4161
 2065SOL     OW17827   3.868   1.390   3.190  0.4896 -0.7034  0.0171
 2065SOL    HW117828   3.893   1.459   3.129  0.1942 -1.4844 -0.9895
 2065SOL    HW217829   3.943   1.330   3.194 -0.0132 -1.1967  2.1891
 2066SOL     OW17830   4.552   3.418   3.974  0.6067 -0.1830 -0.6128
 2066SOL    HW117831   4.511   3.334   3.952  0.9732 -0.7493  0.8997
 2066SOL    HW217832   4.616   3.413   3.903  1.4380 -2.6062  0.3180
 2067SOL     OW17833   4.045   4.601   4.153  0.4814  0.3078  0.0580
 2067SOL    HW117834   3.996   4.571   4.229  1.2778 -0.4871  0.2589
 2067SOL    HW217835   4.011   4.545   4.083  0.6543 -1.8416  1.6922
 2068SOL     OW17836   2.060   4.602   0.541 -0.5771  0.0994 -0.1459
 2068SOL    HW117837   2.028   4.559   0.620  0.0469  0.7849  0.4839
 2068SOL    HW217838   2.077   4.527   0.485  0.9915 -0.3191  0.8923
 2069SOL     OW17839   4.583   0.089   3.837  0.0932 -0.4047 -0.2035
 2069SOL    HW117840   4.607   0.092   3.929 -1.5365 -0.4677  0.2211
 2069SOL    HW217841   4.652   0.142   3.797  1.5701 -2.3763 -0.2120
 2070SOL     OW17842   4.473   0.411   4.203 -0.2441 -0.0371  0.0263
 2070SOL    HW117843   4.467   0.346   4.273  0.4133  0.0014  0.1155
 2070SOL    HW217844   4.462   0.358   4.124 -1.2395  1.9460 -1.1624
 2071SOL     OW17845   0.612   1.768   5.976  0.1946 -0.4637  0.0704
 2071SOL    HW117846   0.660   1.725   6.048  0.5181 -1.5798 -0.8128
 2071SOL    HW217847   0.582   1.848   6.019 -0.8565 -1.3653  1.0098
 2072SOL     OW17848   3.342   0.988  10.302 -0.5623 -0.5748 -0.4479
 2072SOL    HW117849   3.414   1.045  10.330  1.2142 -1.2753 -3.6351
 2072SOL    HW217850   3.316   1.026  10.219  1.0139  1.8291  0.1700
 2073SOL     OW17851   0.050   0.923   5.384 -1.1080  0.3210 -0.1172
 2073SOL    HW117852   0.111   0.945   5.313 -1.1038  0.6972  0.0035
 2073SOL    HW217853   0.108   0.902   5.457 -0.0231  0.9430 -0.8176
 2074SOL     OW17854   0.233   0.475   6.082  0.3200 -0.5031  0.2288
 2074SOL    HW117855   0.154   0.522   6.057  0.3789 -0.1283  0.7440
 2074SOL    HW217856   0.202   0.385   6.092 -0.1052 -0.2099  1.4710
 2075SOL     OW17857   4.483   0.875   8.841  0.3503 -0.1766 -0.0548
 2075SOL    HW117858   4.547   0.806   8.859  0.9807  0.5854  0.6608
 2075SOL    HW217859   4.420   0.865   8.912 -0.4548  2.2488 -0.4097
 2076SOL     OW17860   4.714   3.516   2.601  0.3343 -0.4441  0.3007
 2076SOL    HW117861   0.015   3.460   2.668  0.7971 -0.8396 -0.2964
 2076SOL    HW217862   0.031   3.594   2.594  0.5723 -0.6900 -0.5641
 2077SOL     OW17863   2.137   3.363   8.323  0.0465 -0.1271  0.6871
 2077SOL    HW117864   2.055   3.316   8.316 -0.5221  0.8533  0.7085
 2077SOL    HW217865   2.112   3.446   8.281 -1.3687 -1.5193 -1.1877
 2078SOL     OW17866   3.780   3.096   1.520  0.2213  0.2480  0.3535
 2078SOL    HW117867   3.807   3.188   1.526  1.7653 -0.1673 -0.4545
 2078SOL    HW217868   3.684   3.098   1.528  0.1889  1.3193 -0.2289
 2079SOL     OW17869   1.948   1.477   4.849  0.0788  0.6151  0.0343
 2079SOL    HW117870   2.016   1.544   4.841  1.9304 -0.8488  3.3475
 2079SOL    HW217871   1.876   1.530   4.815 -0.9411 -0.2656  0.7944
 2080SOL     OW17872   3.272   4.144   2.086  0.2233  0.3270 -0.1154
 2080SOL    HW117873   3.294   4.144   2.179  2.0450 -0.6052 -0.5525
 2080SOL    HW217874   3.177   4.151   2.088  0.0494 -2.4196  0.9735
 2081SOL     OW17875   4.364   4.150  12.547 -0.1587 -0.0584  0.3603
 2081SOL    HW117876   4.434   4.129  12.484 -0.8306  0.1552 -0.4668
 2081SOL    HW217877   4.342   4.061  12.575 -0.5276 -0.3724 -0.9138
 2082SOL     OW17878   2.236   0.711   6.280  0.1473 -0.3938 -0.0672
 2082SOL    HW117879   2.231   0.702   6.185 -0.0840  2.1125 -0.3105
 2082SOL    HW217880   2.226   0.806   6.289 -2.3574 -0.3225 -3.5078
 2083SOL     OW17881   2.278   2.409   5.095  0.7111 -0.4157 -1.1899
 2083SOL    HW117882   2.321   2.368   5.171  0.7782  1.3090 -0.2938
 2083SOL    HW217883   2.304   2.347   5.027 -4.3779 -0.6349 -2.9167
 2084SOL     OW17884   3.004   1.417  10.320  0.2435  0.2340  0.1786
 2084SOL    HW117885   3.081   1.362  10.331  2.1081  3.4670  3.2223
 2084SOL    HW217886   2.994   1.469  10.400  0.6714 -0.0805  0.4326
 2085SOL     OW17887   4.333   3.744  14.769  0.4033 -0.2564 -0.6117
 2085SOL    HW117888   4.424   3.756  14.742  0.5090 -0.2034 -0.2298
 2085SOL    HW217889   4.313   3.817  14.828  1.2065 -0.6691  0.1829
 2086SOL     OW17890   3.772   4.091  10.159  0.1667 -0.2039 -0.1783
 2086SOL    HW117891   3.737   4.005  10.183  1.4689 -0.2559  1.4912
 2086SOL    HW217892   3.865   4.075  10.168  1.0017  4.1635 -0.6546
 2087SOL     OW17893   3.301   2.971   0.406 -0.2383  0.4620  0.0228
 2087SOL    HW117894   3.380   2.973   0.460 -0.6647 -0.8084  0.6965
 2087SOL    HW217895   3.322   3.035   0.338  1.8136  2.4273  2.4812
 2088SOL     OW17896   2.885   1.545  14.198 -0.3406 -0.5071  0.1392
 2088SOL    HW117897   2.965   1.517  14.154 -2.2922 -1.8728 -2.5441
 2088SOL    HW217898   2.840   1.465  14.223 -0.1656 -0.2627  1.2421
 2089SOL     OW17899   4.592   3.861   1.034  0.3311 -0.0735  0.0573
 2089SOL    HW117900   4.583   3.810   1.115 -2.1559  0.4430  0.1089
 2089SOL    HW217901   4.514   3.831   0.986  0.4445  1.2511 -0.9480
 2090SOL     OW17902   1.026   3.451   2.578 -0.3624  0.1491  0.3546
 2090SOL    HW117903   1.056   3.511   2.510 -1.6079  1.1127  0.6624
 2090SOL    HW217904   0.931   3.461   2.577 -0.1599  2.0619  0.3235
 2091SOL     OW17905   3.307   3.276   7.881 -0.0439 -0.1698  0.5583
 2091SOL    HW117906   3.289   3.337   7.953 -2.9550  2.2619 -2.2719
 2091SOL    HW217907   3.402   3.268   7.893  0.0190  1.2870  1.0748
 2092SOL     OW17908   3.561   3.553   4.328  0.1895  0.0466  0.4233
 2092SOL    HW117909   3.558   3.468   4.371 -1.1417  0.0499  0.3147
 2092SOL    HW217910   3.572   3.612   4.402  0.2754 -1.3750  1.5341
 2093SOL     OW17911   4.492   3.484   8.107 -0.5580 -0.6635  0.5643
 2093SOL    HW117912   4.581   3.509   8.081 -1.9398  0.1539 -3.2563
 2093SOL    HW217913   4.473   3.411   8.047  2.0095  0.7575 -1.9752
 2094SOL     OW17914   0.964   3.853   2.304  0.5567 -0.0494  0.6959
 2094SOL    HW117915   0.935   3.845   2.214  1.4423  1.0012  0.3084
 2094SOL    HW217916   0.982   3.947   2.310  2.0577 -0.2513 -0.4194
 2095SOL     OW17917   2.653   4.373   1.375  0.4987  0.4355  0.1858
 2095SOL    HW117918   2.607   4.429   1.312  0.4911 -0.9402 -1.0280
 2095SOL    HW217919   2.667   4.299   1.316  0.5029 -1.4886  2.5884
 2096SOL     OW17920   2.495   2.888   7.971  0.3032 -0.4286 -0.5003
 2096SOL    HW117921   2.463   2.804   7.939 -1.3124  0.7925 -2.1509
 2096SOL    HW217922   2.410   2.925   7.995  0.1611 -1.9222  1.3099
 2097SOL     OW17923   1.524   1.744   2.702  0.3050  0.2452 -0.0599
 2097SOL    HW117924   1.548   1.713   2.615  2.8951 -0.8379  1.0211
 2097SOL    HW217925   1.577   1.824   2.703 -1.7782  1.6050  0.2921
 2098SOL     OW17926   0.390   4.493  11.968  0.2532  0.1289  0.1127
 2098SOL    HW117927   0.393   4.568  11.909 -2.5771  1.7336  2.0259
 2098SOL    HW217928   0.417   4.428  11.903  0.6194 -1.2351  1.6321
 2099SOL     OW17929   0.263   1.951   5.861 -0.3535 -0.0827  0.1478
 2099SOL    HW117930   0.342   1.934   5.809  1.4247  1.0533  2.4234
 2099SOL    HW217931   0.305   1.990   5.939  2.7282 -1.0332 -1.0133
 2100SOL     OW17932   1.020   4.000   8.524 -0.3468  0.2910 -0.4422
 2100SOL    HW117933   0.949   4.036   8.470  0.7745  1.5329 -1.0927
 2100SOL    HW217934   1.083   3.981   8.455  1.0006 -3.0425  1.7246
 2101SOL     OW17935   3.053   1.184   3.358 -0.1865 -0.5023 -0.1894
 2101SOL    HW117936   3.107   1.121   3.407  0.7185 -0.6182 -1.3195
 2101SOL    HW217937   3.108   1.246   3.310 -0.5231  2.4519  3.3191
 2102SOL     OW17938   0.459   1.013   9.430  0.2111 -0.2591 -0.0731
 2102SOL    HW117939   0.451   1.065   9.511 -1.5395  0.2888 -0.6052
 2102SOL    HW217940   0.543   0.974   9.452 -0.0462 -1.7168 -1.7160
 2103SOL     OW17941   2.799   2.220   0.174  0.6710 -0.5033 -0.3753
 2103SOL    HW117942   2.878   2.222   0.119  0.4091  1.1741 -0.6905
 2103SOL    HW217943   2.776   2.127   0.179 -0.5850 -0.1065  1.0906
 2104SOL     OW17944   3.506   3.730   6.411 -0.8577  0.8046 -0.0537
 2104SOL    HW117945   3.467   3.680   6.483 -0.0882 -1.1383 -1.0148
 2104SOL    HW217946   3.432   3.782   6.379  0.5232  2.5815 -0.3693
 2105SOL     OW17947   2.783   2.150  11.524  0.6898 -0.7032 -0.0740
 2105SOL    HW117948   2.872   2.185  11.513  0.4148 -0.0385 -0.1770
 2105SOL    HW217949   2.799   2.060  11.495 -1.7170 -1.7634  1.8873
 2106SOL     OW17950   1.180   0.290   7.440  0.0520 -0.0110  0.5489
 2106SOL    HW117951   1.254   0.238   7.471 -0.4636 -1.8003 -1.2199
 2106SOL    HW217952   1.214   0.295   7.351 -0.4509 -1.6802  0.2671
 2107SOL     OW17953   3.860   0.782   3.197 -0.0513  0.2263 -0.3784
 2107SOL    HW117954   3.888   0.871   3.218  0.9869 -0.2142  0.1200
 2107SOL    HW217955   3.918   0.730   3.252  0.3590  0.2078 -0.8245
 2108SOL     OW17956   1.175   3.508   4.148  0.0698  0.2856 -0.1991
 2108SOL    HW117957   1.229   3.455   4.207  0.5690  2.2822  1.1625
 2108SOL    HW217958   1.085   3.484   4.170  0.5675 -0.2779  1.1989
 2109SOL     OW17959   1.175   1.881   2.668 -0.1457 -0.2612 -0.7433
 2109SOL    HW117960   1.181   1.788   2.646  0.6671 -0.5516  0.7372
 2109SOL    HW217961   1.156   1.927   2.586 -1.5184 -0.3136 -0.4522
 2110SOL     OW17962   2.846   2.051   7.612  0.2279  0.2195 -0.4016
 2110SOL    HW117963   2.854   2.147   7.612  1.9503  0.0796 -1.1904
 2110SOL    HW217964   2.909   2.021   7.678  3.7095  2.2604 -2.7836
 2111SOL     OW17965   2.654   1.730   4.007  0.0106 -0.0251 -0.0857
 2111SOL    HW117966   2.672   1.643   3.971  0.9182 -0.5325  1.5983
 2111SOL    HW217967   2.736   1.778   3.995 -0.1411  0.0095 -0.9552
 2112SOL     OW17968   4.174   1.195   1.438 -0.4718 -0.0056 -0.2894
 2112SOL    HW117969   4.209   1.113   1.475 -0.3580  0.0845 -0.1994
 2112SOL    HW217970   4.242   1.255   1.469 -0.3098 -0.5223  0.3579
 2113SOL     OW17971   4.600   2.702   7.412 -0.0910  0.0330  0.2286
 2113SOL    HW117972   4.519   2.704   7.463 -0.1724 -0.5457  0.1258
 2113SOL    HW217973   4.582   2.633   7.347 -2.6501 -0.3103  1.2847
 2114SOL     OW17974   4.235   4.367   5.824 -0.1779 -0.4720 -0.3778
 2114SOL    HW117975   4.198   4.324   5.901  1.1209  1.3673  1.2633
 2114SOL    HW217976   4.314   4.314   5.821 -0.2784 -0.3244 -5.3847
 2115SOL     OW17977   4.473   0.586  13.466  0.0664 -0.4116  0.3088
 2115SOL    HW117978   4.546   0.535  13.432  0.0805  0.8889 -1.6530
 2115SOL    HW217979   4.427   0.602  13.383 -0.2660  1.0913  0.7737
 2116SOL     OW17980   1.086   3.235   5.550  0.4412 -0.3973 -0.2713
 2116SOL    HW117981   1.074   3.196   5.636 -0.7310  1.8311  0.5869
 2116SOL    HW217982   1.181   3.229   5.548  0.5089  1.6416 -4.5098
 2117SOL     OW17983   2.183   2.803   2.882 -0.0153  0.0446 -0.8700
 2117SOL    HW117984   2.209   2.893   2.903 -0.4322  0.2768 -1.3627
 2117SOL    HW217985   2.179   2.765   2.970 -0.6760  0.5605 -0.6721
 2118SOL     OW17986   0.406   2.708   3.929 -0.5359  0.2469 -0.1923
 2118SOL    HW117987   0.401   2.682   4.021  2.3928 -0.0307 -0.1248
 2118SOL    HW217988   0.455   2.790   3.935 -0.2815  0.1586 -1.0530
 2119SOL     OW17989   4.039   3.662   7.956 -0.7592  0.6095 -0.0482
 2119SOL    HW117990   3.956   3.621   7.982  0.0051 -0.2389  1.0159
 2119SOL    HW217991   4.046   3.633   7.865 -1.0632  2.3626 -0.6340
 2120SOL     OW17992   2.443   1.045   7.368 -0.1074 -0.1240 -0.3821
 2120SOL    HW117993   2.376   0.980   7.348 -2.6295  3.1585 -2.6305
 2120SOL    HW217994   2.510   1.001   7.317 -0.3671 -0.7168 -0.2123
 2121SOL     OW17995   0.408   0.643   3.943  0.0071 -0.2030  0.4861
 2121SOL    HW117996   0.389   0.657   3.850  2.8124  1.1424  0.1062
 2121SOL    HW217997   0.467   0.718   3.953 -1.6475  1.0978  0.5678
 2122SOL     OW17998   3.274   1.178   6.925  0.2090  0.0674 -0.5145
 2122SOL    HW117999   3.316   1.093   6.936  0.3233  0.2896  0.8159
 2122SOL    HW218000   3.259   1.174   6.831 -2.6925  0.0463 -0.0520
 2123SOL     OW18001   1.840   1.515   5.539 -0.2696  0.1917  0.0617
 2123SOL    HW118002   1.789   1.586   5.578 -0.2761  0.1719  0.0887
 2123SOL    HW218003   1.804   1.439   5.586  0.5257 -0.8305 -0.9707
 2124SOL     OW18004   0.981   0.882  10.646 -0.5596  0.4604  0.0772
 2124SOL    HW118005   0.988   0.966  10.692  1.6700  0.6625 -0.6235
 2124SOL    HW218006   1.022   0.825  10.712 -0.9749 -0.2655 -0.2939
 2125SOL     OW18007   3.559   2.239  17.116 -0.0156 -0.2536  0.1933
 2125SOL    HW118008   3.596   2.235  17.028 -0.9909 -0.9306 -0.1847
 2125SOL    HW218009   3.476   2.286  17.113 -0.1121 -0.2976  2.5060
 2126SOL     OW18010   0.499   3.620   8.163 -0.2275 -0.3203 -0.8229
 2126SOL    HW118011   0.405   3.608   8.153 -0.3654  0.8501 -0.8777
 2126SOL    HW218012   0.512   3.582   8.250  0.0444  1.3197 -0.1490
 2127SOL     OW18013   4.338   4.503   4.063 -0.5449  0.1840  0.1503
 2127SOL    HW118014   4.421   4.549   4.064 -0.3464 -0.2637  4.0093
 2127SOL    HW218015   4.281   4.560   4.115  1.9201  2.4281  0.3740
 2128SOL     OW18016   2.536   4.730   3.323  0.0774 -0.3140  0.4227
 2128SOL    HW118017   2.618   0.031   3.294 -1.3388  0.2258 -2.9694
 2128SOL    HW218018   2.540   4.646   3.278  0.5690  0.4482 -0.9603
 2129SOL     OW18019   3.256   1.764   3.131  0.0650 -0.5424  0.3871
 2129SOL    HW118020   3.320   1.699   3.158 -0.4280 -0.8537  0.8120
 2129SOL    HW218021   3.180   1.710   3.152  0.0274 -0.6901 -0.1314
 2130SOL     OW18022   1.792   1.238   2.663  0.2655 -0.1364  0.6040
 2130SOL    HW118023   1.763   1.259   2.752 -1.0650  1.3833 -0.1989
 2130SOL    HW218024   1.786   1.329   2.633  0.1136 -0.3320  0.0526
 2131SOL     OW18025   4.076   1.411   3.430  0.7207  0.3616  0.3431
 2131SOL    HW118026   4.071   1.341   3.366  1.5879  0.7299 -0.1224
 2131SOL    HW218027   4.133   1.379   3.501  0.3716 -0.0163  0.4487
 2132SOL     OW18028   4.063   2.346   9.870 -0.4453 -0.4334  0.1446
 2132SOL    HW118029   4.056   2.256   9.902 -0.6100 -0.5429 -0.2045
 2132SOL    HW218030   4.123   2.384   9.935  0.0155  0.2964 -0.7036
 2133SOL     OW18031   3.003   0.989   5.047 -0.0267  0.1786 -0.3645
 2133SOL    HW118032   2.959   1.010   5.130  0.2480  0.2463 -0.2375
 2133SOL    HW218033   3.094   1.000   5.075 -0.0598 -0.1803 -0.1231
 2134SOL     OW18034   1.292   0.810  12.029 -0.5755 -0.5958 -0.2483
 2134SOL    HW118035   1.221   0.863  11.994 -0.0094  1.4869  1.7528
 2134SOL    HW218036   1.309   0.858  12.110  2.9417  0.3871 -1.5181
 2135SOL     OW18037   3.926   0.013   6.782 -0.3921  0.7003 -0.3966
 2135SOL    HW118038   3.889   0.062   6.708 -0.6258  2.6422  1.0155
 2135SOL    HW218039   3.990   0.072   6.821  1.4129 -0.6621 -1.2658
 2136SOL     OW18040   0.320   3.636   2.629 -0.5329  0.6173  0.0026
 2136SOL    HW118041   0.241   3.685   2.606 -0.9873 -0.4220 -0.7099
 2136SOL    HW218042   0.366   3.692   2.691  0.3261  0.7906 -0.7931
 2137SOL     OW18043   3.875   2.101   5.812  0.6119 -0.2228 -0.6199
 2137SOL    HW118044   3.971   2.103   5.817  0.4827 -1.4127  2.0734
 2137SOL    HW218045   3.858   2.187   5.773  1.9367  1.3692  2.3265
 2138SOL     OW18046   4.518   4.660   3.425  0.2820  0.3525 -0.3074
 2138SOL    HW118047   4.611   4.640   3.410  0.2409 -1.3663  1.7370
 2138SOL    HW218048   4.481   4.634   3.340  0.7362 -1.9594  0.1927
 2139SOL     OW18049   0.320   2.534   7.276  0.1375  0.1310 -0.3476
 2139SOL    HW118050   0.266   2.471   7.324  1.5960 -0.8901 -0.0225
 2139SOL    HW218051   0.389   2.477   7.241 -0.6815 -2.9399  3.0276
 2140SOL     OW18052   2.978   0.920  17.605  0.1084  0.1418 -0.0609
 2140SOL    HW118053   3.016   0.964  17.681  0.1725 -1.2359  0.6894
 2140SOL    HW218054   3.054   0.906  17.549 -1.3932 -2.9277 -1.3193
 2141SOL     OW18055   1.225   0.450   3.515 -0.1166 -0.0134  0.0687
 2141SOL    HW118056   1.192   0.385   3.577  0.3859  2.0878  2.5184
 2141SOL    HW218057   1.240   0.398   3.436  2.1692 -1.0509  1.1757
 2142SOL     OW18058   3.053   3.815   4.795  0.7637  0.0328  0.2741
 2142SOL    HW118059   2.964   3.780   4.803  1.0825 -0.9258 -0.3659
 2142SOL    HW218060   3.043   3.888   4.733 -1.7838 -0.7101 -0.1785
 2143SOL     OW18061   1.801   3.294  10.424  0.1796 -0.2351  0.1009
 2143SOL    HW118062   1.804   3.271  10.517 -1.4541 -2.4749 -0.4045
 2143SOL    HW218063   1.881   3.347  10.424  0.0529 -0.0352 -2.0690
 2144SOL     OW18064   4.724   3.720   8.919  0.6084  0.0263  0.0355
 2144SOL    HW118065   4.684   3.784   8.861  0.7475  0.3144  0.2547
 2144SOL    HW218066   0.009   3.781   8.989  5.3018 -0.3903 -1.1546
 2145SOL     OW18067   1.130   4.652   4.391 -0.1405 -0.2525  0.5504
 2145SOL    HW118068   1.068   4.580   4.407  0.1907 -0.6249  0.1597
 2145SOL    HW218069   1.189   4.605   4.333 -0.2026 -0.4943  0.6791
 2146SOL     OW18070   0.840   0.609   0.016 -0.5802  0.4630 -0.2061
 2146SOL    HW118071   0.875   0.562   0.092 -0.7407 -0.0751 -0.4690
 2146SOL    HW218072   0.793   0.681   0.057 -2.0316  0.1310 -1.3067
 2147SOL     OW18073   0.868   2.138  12.029 -0.8628  0.3079  0.0061
 2147SOL    HW118074   0.921   2.072  12.075 -4.1575 -1.7775  0.8249
 2147SOL    HW218075   0.863   2.112  11.937 -1.8181 -0.1352  0.1889
 2148SOL     OW18076   2.789   1.528   3.876  0.1546 -0.1712 -0.4388
 2148SOL    HW118077   2.782   1.535   3.781 -1.2435 -0.1159 -0.3230
 2148SOL    HW218078   2.751   1.444   3.903  1.2993 -1.0936 -1.6944
 2149SOL     OW18079   1.107   2.730  11.474 -0.8940 -0.1604  0.0125
 2149SOL    HW118080   1.184   2.749  11.419 -1.4333  0.5811 -0.4843
 2149SOL    HW218081   1.134   2.740  11.565  0.8904  0.6660 -0.5984
 2150SOL     OW18082   4.341   3.902  17.114 -0.0673  0.2355 -0.2656
 2150SOL    HW118083   4.390   3.915  17.033  0.5236  0.2963  0.0977
 2150SOL    HW218084   4.318   3.809  17.109  0.8382  0.0605 -1.0949
 2151SOL     OW18085   3.596   1.489   1.965  0.3230  0.0063 -0.0920
 2151SOL    HW118086   3.655   1.453   2.032  0.0288 -0.7341 -0.2293
 2151SOL    HW218087   3.512   1.460   2.001  0.1258 -0.5257 -0.9786
 2152SOL     OW18088   2.545   2.397   1.665  0.5355 -0.0041  0.0980
 2152SOL    HW118089   2.638   2.385   1.646  0.2636 -0.6266 -0.8165
 2152SOL    HW218090   2.518   2.310   1.693 -1.4410  1.9480  4.2389
 2153SOL     OW18091   1.266   3.011   3.853  0.2875 -0.0045  0.1951
 2153SOL    HW118092   1.209   3.003   3.776  0.1577  1.5947  0.1269
 2153SOL    HW218093   1.254   3.103   3.877 -1.4944 -0.6839  1.8659
 2154SOL     OW18094   2.721   0.821  16.457  0.7557  0.0748 -0.9043
 2154SOL    HW118095   2.688   0.894  16.511  2.0496 -0.6378  0.8312
 2154SOL    HW218096   2.787   0.859  16.399 -0.5664 -0.3916 -2.7366
 2155SOL     OW18097   2.516   0.878   5.601  0.4216  0.6962  0.3529
 2155SOL    HW118098   2.476   0.828   5.673 -0.1326  1.0916  0.3226
 2155SOL    HW218099   2.597   0.828   5.591 -1.6546 -1.8162 -3.8170
 2156SOL     OW18100   2.673   3.270   4.709  0.1576 -0.3492 -0.2522
 2156SOL    HW118101   2.654   3.363   4.718 -1.2909 -1.0026  3.3351
 2156SOL    HW218102   2.703   3.264   4.618 -1.9810 -0.3884 -0.9497
 2157SOL     OW18103   1.309   1.311   8.090 -0.2168  0.3692 -0.1077
 2157SOL    HW118104   1.355   1.228   8.078 -0.0472  0.4921 -0.3113
 2157SOL    HW218105   1.353   1.359   8.019 -0.0043 -0.2477 -0.3927
 2158SOL     OW18106   4.456   0.169   8.190  0.4317 -0.7058  0.2830
 2158SOL    HW118107   4.548   0.195   8.184  0.0152  0.4978 -0.9591
 2158SOL    HW218108   4.460   0.119   8.271 -0.3472 -1.8169 -0.3706
 2159SOL     OW18109   0.809   2.732   4.417 -0.6322  0.0980 -0.0307
 2159SOL    HW118110   0.865   2.655   4.410 -0.6247  0.0831  0.1839
 2159SOL    HW218111   0.866   2.771   4.483  0.8492  0.2536 -1.3912
 2160SOL     OW18112   2.967   1.814   5.759 -0.2600 -0.3281  0.6091
 2160SOL    HW118113   2.964   1.883   5.826  0.1481  0.1027  0.1852
 2160SOL    HW218114   3.059   1.791   5.768 -0.1712 -0.5248 -0.8551
 2161SOL     OW18115   1.232   1.576  13.582  0.6193 -0.0295 -0.2037
 2161SOL    HW118116   1.208   1.564  13.491  0.9133  0.6374 -0.3711
 2161SOL    HW218117   1.261   1.667  13.590  0.0113  0.0454  1.2785
 2162SOL     OW18118   0.875   4.453   6.812 -0.1030  0.5424 -0.2497
 2162SOL    HW118119   0.829   4.421   6.734 -1.3121 -1.8172  1.4277
 2162SOL    HW218120   0.810   4.517   6.842 -1.4998 -0.7721 -0.4387
 2163SOL     OW18121   1.069   1.447   4.950 -0.0623  0.7312  0.6768
 2163SOL    HW118122   1.073   1.540   4.927  0.2379  0.6902  0.5549
 2163SOL    HW218123   1.138   1.446   5.017 -0.2129  2.0089  0.8528
 2164SOL     OW18124   0.374   0.678  16.844  0.1026 -0.2029  0.3045
 2164SOL    HW118125   0.386   0.584  16.857 -0.6411  0.1507  3.5406
 2164SOL    HW218126   0.459   0.722  16.854 -1.5643  2.9313  0.8369
 2165SOL     OW18127   1.805   3.028   6.589 -0.4310 -0.0430 -0.0175
 2165SOL    HW118128   1.812   3.114   6.548 -0.4423 -0.2754 -0.5123
 2165SOL    HW218129   1.725   3.029   6.642 -0.1794  0.7811  0.3344
 2166SOL     OW18130   1.181   0.477   8.154 -0.0723 -0.0449  0.1953
 2166SOL    HW118131   1.111   0.542   8.166  0.0953 -0.0739  1.2374
 2166SOL    HW218132   1.237   0.517   8.087  0.3734 -0.2010  0.4858
 2167SOL     OW18133   4.565   1.964   1.615 -0.0466 -0.2232  0.2404
 2167SOL    HW118134   4.573   1.948   1.521 -2.7650  0.7214 -0.1518
 2167SOL    HW218135   4.469   1.962   1.621  0.1079 -4.2334  1.6400
 2168SOL     OW18136   2.714   3.396   1.025 -0.7845  0.0927  0.2160
 2168SOL    HW118137   2.770   3.432   1.094 -0.6954  0.4710 -0.0536
 2168SOL    HW218138   2.763   3.386   0.944  0.1817  1.2155  0.6588
 2169SOL     OW18139   2.170   2.795   1.946 -0.6359 -0.1796  0.5871
 2169SOL    HW118140   2.186   2.848   1.868  0.7655  0.5853  1.4004
 2169SOL    HW218141   2.262   2.791   1.970 -0.0020  0.2037 -1.7985
 2170SOL     OW18142   0.572   3.613  13.976 -0.0161 -0.5295  0.6591
 2170SOL    HW118143   0.629   3.588  14.049 -0.4187 -1.0947  0.7801
 2170SOL    HW218144   0.526   3.690  14.010 -1.5030 -0.6904 -0.9623
 2171SOL     OW18145   0.086   1.980   6.317  0.4099  0.6034  0.0612
 2171SOL    HW118146   0.062   1.996   6.226  1.3525 -1.1891 -0.5018
 2171SOL    HW218147   0.135   1.900   6.298 -1.5609 -0.3708 -0.9185
 2172SOL     OW18148   0.752   4.329   1.431 -0.0701 -0.2159 -0.1203
 2172SOL    HW118149   0.672   4.378   1.409 -1.5258 -2.9152 -0.9265
 2172SOL    HW218150   0.785   4.406   1.477 -0.6498  0.8328 -1.4612
 2173SOL     OW18151   3.032   2.357   6.236  0.3970  0.5149 -0.0744
 2173SOL    HW118152   2.954   2.337   6.287  1.5066  1.8164  2.1077
 2173SOL    HW218153   2.984   2.390   6.159 -0.2492 -0.0075  0.1050
 2174SOL     OW18154   0.649   0.981   4.425 -0.1992 -0.0533  0.6482
 2174SOL    HW118155   0.666   1.065   4.384 -1.2833 -0.4346 -0.6044
 2174SOL    HW218156   0.664   0.996   4.518 -1.0711 -0.0830  0.7996
 2175SOL     OW18157   3.843   3.997   7.248 -0.1201  0.2586 -0.5919
 2175SOL    HW118158   3.851   3.956   7.162  2.2770  1.1713 -0.8038
 2175SOL    HW218159   3.826   4.088   7.221 -2.0340 -0.1559 -0.7685
 2176SOL     OW18160   1.487   1.003   9.657 -0.2605  0.2228 -0.5694
 2176SOL    HW118161   1.499   0.924   9.604 -2.2992 -1.3978  1.3666
 2176SOL    HW218162   1.556   0.984   9.721  0.8581  0.4864 -1.7027
 2177SOL     OW18163   3.175   2.555   9.407  0.3558  0.2342 -0.0030
 2177SOL    HW118164   3.135   2.514   9.330 -0.6624  4.7526 -1.8843
 2177SOL    HW218165   3.104   2.618   9.419 -0.7132 -0.7720 -0.9684
 2178SOL     OW18166   1.786   3.500   3.485 -0.1503 -0.4215  0.0693
 2178SOL    HW118167   1.788   3.413   3.445  0.7141 -0.4063  0.0793
 2178SOL    HW218168   1.725   3.533   3.420 -0.6846  1.6201  1.6225
 2179SOL     OW18169   0.687   3.774   3.752 -0.0436 -0.5851  0.1517
 2179SOL    HW118170   0.712   3.775   3.845  0.7937 -0.9863 -0.0768
 2179SOL    HW218171   0.762   3.828   3.726 -0.4299 -1.1610 -2.1588
 2180SOL     OW18172   0.998   1.523   0.667  0.1794  0.6977 -0.6605
 2180SOL    HW118173   1.064   1.458   0.645 -0.4677 -0.7512  1.6677
 2180SOL    HW218174   0.937   1.532   0.594 -0.2620  2.1255 -0.1328
 2181SOL     OW18175   3.081   3.362  11.304  0.1359  0.3508  0.1975
 2181SOL    HW118176   3.161   3.327  11.266  0.1772  0.9737 -0.2780
 2181SOL    HW218177   3.105   3.451  11.331  1.8967  0.4286 -1.7006
 2182SOL     OW18178   1.947   2.648   4.689 -0.2493 -0.8223 -0.2709
 2182SOL    HW118179   2.002   2.647   4.767  2.1554 -0.6718 -1.9471
 2182SOL    HW218180   2.011   2.681   4.625 -1.3236  0.2264 -0.7990
 2183SOL     OW18181   2.050   4.646  12.890  0.0676  0.3447 -0.7164
 2183SOL    HW118182   1.997   4.585  12.942  1.1288  0.0084 -0.0309
 2183SOL    HW218183   2.020   4.733  12.917 -0.8987  0.0554 -0.8584
 2184SOL     OW18184   4.064   1.824   8.666  0.3229  0.5698 -0.6576
 2184SOL    HW118185   4.145   1.868   8.692  0.7495 -0.9606  0.6027
 2184SOL    HW218186   4.021   1.903   8.634 -2.2218 -0.2545  0.7104
 2185SOL     OW18187   1.960   2.957   7.558 -0.2985  0.0932  0.1981
 2185SOL    HW118188   2.029   3.003   7.509 -1.0077 -1.3518 -2.1715
 2185SOL    HW218189   1.928   2.896   7.491  0.6371  1.5591 -1.5976
 2186SOL     OW18190   4.363   3.571   5.963  0.2829 -0.1813 -0.2100
 2186SOL    HW118191   4.294   3.614   5.911 -1.4527 -1.5841  0.9630
 2186SOL    HW218192   4.433   3.636   5.956  0.3098 -0.1733  0.1338
 2187SOL     OW18193   1.829   2.050   6.649 -0.0200  0.3704  0.5376
 2187SOL    HW118194   1.795   2.100   6.723 -1.4014 -0.8784  0.7627
 2187SOL    HW218195   1.747   2.018   6.610  0.4670 -2.0298  1.4681
 2188SOL     OW18196   0.392   4.113   9.339  0.0557 -0.4770 -0.5379
 2188SOL    HW118197   0.375   4.205   9.357  3.6471  0.1258 -0.2089
 2188SOL    HW218198   0.487   4.118   9.342  0.0369  0.0442 -0.9157
 2189SOL     OW18199   0.018   2.146   4.281  0.1997 -0.0951  0.0300
 2189SOL    HW118200   0.037   2.113   4.193  0.0330 -1.4006  0.4775
 2189SOL    HW218201   0.089   2.208   4.298 -0.8147  1.2404 -0.6290
 2190SOL     OW18202   0.974   0.633   8.240  0.1942 -1.1962 -0.0280
 2190SOL    HW118203   0.959   0.564   8.305 -0.8905  1.5623  2.6409
 2190SOL    HW218204   0.909   0.596   8.179  0.3925  0.8254 -1.4737
 2191SOL     OW18205   1.562   0.340   2.096 -0.3288  0.0164  0.3340
 2191SOL    HW118206   1.490   0.362   2.156 -0.4649  0.3222  0.0584
 2191SOL    HW218207   1.514   0.323   2.014  0.7516 -0.0801 -0.2793
 2192SOL     OW18208   1.729   0.055   5.610 -0.5030 -0.3640  0.0521
 2192SOL    HW118209   1.733   0.150   5.626 -0.4470 -0.0994 -1.5980
 2192SOL    HW218210   1.697   0.025   5.696  1.5672  3.7534  2.2571
 2193SOL     OW18211   3.319   4.087   2.385 -0.1631 -0.2500  0.2791
 2193SOL    HW118212   3.299   3.994   2.381  0.0630 -0.2861 -0.0096
 2193SOL    HW218213   3.336   4.087   2.479 -0.0288  0.5341  0.2618
 2194SOL     OW18214   2.871   0.571   3.686 -0.0921 -0.1268 -0.4865
 2194SOL    HW118215   2.791   0.609   3.651 -0.5289 -0.6646 -0.0804
 2194SOL    HW218216   2.864   0.610   3.773 -0.5300 -0.6381 -0.2905
 2195SOL     OW18217   3.210   1.940   2.293  0.3084 -0.5251  0.8045
 2195SOL    HW118218   3.151   2.004   2.252  1.4083 -0.2914 -0.4092
 2195SOL    HW218219   3.279   1.942   2.226 -0.6927 -0.4602 -0.2394
 2196SOL     OW18220   2.271   3.757   1.922  0.0111  0.4207 -0.0114
 2196SOL    HW118221   2.312   3.681   1.881 -2.3354 -1.9475  1.9910
 2196SOL    HW218222   2.179   3.731   1.914  0.3799 -0.4855 -1.1892
 2197SOL     OW18223   0.895   4.533  12.854 -0.1533  0.0353  0.7221
 2197SOL    HW118224   0.835   4.489  12.794  1.2332  1.1565 -1.4565
 2197SOL    HW218225   0.896   4.620  12.815 -0.9706  1.0045  2.8445
 2198SOL     OW18226   2.865   1.110   1.512  0.0547 -0.1390  0.3187
 2198SOL    HW118227   2.782   1.068   1.534  0.9255 -0.7328  2.4656
 2198SOL    HW218228   2.930   1.041   1.525  1.9143  1.7970  1.2099
 2199SOL     OW18229   0.680   4.270  12.028  0.5200 -0.0061 -0.3845
 2199SOL    HW118230   0.595   4.307  12.004  0.6679  1.1431  0.8198
 2199SOL    HW218231   0.718   4.282  11.941 -0.2749 -1.9241 -0.9776
 2200SOL     OW18232   1.694   2.547  12.724  0.0970  0.0567  0.6325
 2200SOL    HW118233   1.621   2.600  12.691 -1.7245 -1.1100  2.8446
 2200SOL    HW218234   1.667   2.456  12.714  0.8424  0.0788 -1.7254
 2201SOL     OW18235   2.420   4.100  12.193 -0.1460 -0.0720  0.0101
 2201SOL    HW118236   2.393   4.162  12.261 -1.5004 -1.1253  0.4363
 2201SOL    HW218237   2.499   4.142  12.160  0.4066 -0.8697  0.3055
 2202SOL     OW18238   3.248   0.763   5.437 -0.5606 -0.1797  0.1159
 2202SOL    HW118239   3.274   0.778   5.528 -0.0033  0.9169 -0.2301
 2202SOL    HW218240   3.326   0.713   5.411 -0.6788  0.4580 -1.4075
 2203SOL     OW18241   2.133   1.678   0.922 -0.4870  0.3451 -0.2599
 2203SOL    HW118242   2.094   1.753   0.876  1.4618  0.6402 -1.4716
 2203SOL    HW218243   2.215   1.713   0.957  0.7261 -1.1006 -1.6349
 2204SOL     OW18244   2.588   1.452  12.853  0.3930 -0.1349  0.4717
 2204SOL    HW118245   2.537   1.387  12.902  0.8961 -0.1708  0.9441
 2204SOL    HW218246   2.673   1.441  12.895 -0.2977  2.3451  2.5568
 2205SOL     OW18247   0.890   3.880   2.030 -0.1087  0.2119  0.0313
 2205SOL    HW118248   0.879   3.931   1.949 -2.2946  0.6151  0.5710
 2205SOL    HW218249   0.946   3.812   1.992 -2.7748 -1.1379 -1.5327
 2206SOL     OW18250   2.947   3.797   2.750 -0.5810 -0.2142 -0.0825
 2206SOL    HW118251   3.029   3.779   2.704 -1.0085  0.0424 -0.9679
 2206SOL    HW218252   2.919   3.706   2.759  2.2577 -1.2253 -1.5991
 2207SOL     OW18253   1.268   0.936  14.845  0.1303 -0.2436  0.2543
 2207SOL    HW118254   1.174   0.937  14.861  0.1116 -0.0496  0.1322
 2207SOL    HW218255   1.282   1.031  14.849 -2.0754  0.0538  0.6184
 2208SOL     OW18256   2.618   3.151   5.965 -0.0870  0.0080  1.2777
 2208SOL    HW118257   2.654   3.084   6.023 -1.2047 -0.1358  1.8225
 2208SOL    HW218258   2.627   3.090   5.892 -3.5686  0.3344  0.5587
 2209SOL     OW18259   1.110   1.098   5.730 -0.3091  0.5044  0.4013
 2209SOL    HW118260   1.029   1.133   5.770  0.3729  2.4945  0.0537
 2209SOL    HW218261   1.080   1.082   5.641 -0.3251  0.2523  0.4530
 2210SOL     OW18262   3.195   2.329   2.194  0.2210  0.1635 -0.3269
 2210SOL    HW118263   3.157   2.410   2.161  0.5033  0.8935  1.1292
 2210SOL    HW218264   3.272   2.372   2.230 -0.4457  0.2929  0.9261
 2211SOL     OW18265   1.432   1.914   8.480 -0.3193 -0.1760  0.0016
 2211SOL    HW118266   1.377   1.986   8.449  0.7171  0.3317 -0.7051
 2211SOL    HW218267   1.520   1.946   8.457  0.2742 -0.0274  2.4561
 2212SOL     OW18268   0.886   0.875   9.635  0.4508 -0.0142 -0.1844
 2212SOL    HW118269   0.898   0.788   9.673  0.4694  1.2761  2.7893
 2212SOL    HW218270   0.926   0.926   9.706  2.3129  0.0485 -1.2635
 2213SOL     OW18271   3.722   1.935   4.699 -0.1361  0.1847 -0.2590
 2213SOL    HW118272   3.810   1.936   4.661  0.4143 -0.8181  0.9919
 2213SOL    HW218273   3.696   2.027   4.710  1.6757  0.8014 -1.0828
 2214SOL     OW18274   2.337   3.224   4.693  0.0770 -0.0119 -0.1051
 2214SOL    HW118275   2.405   3.158   4.680  0.8534  0.9954 -1.2180
 2214SOL    HW218276   2.329   3.263   4.606 -0.6275 -2.8921 -1.3513
 2215SOL     OW18277   1.626   1.574   7.328  0.2545 -0.1456 -0.3018
 2215SOL    HW118278   1.713   1.534   7.323 -0.6071 -1.8974 -1.4588
 2215SOL    HW218279   1.623   1.637   7.255  1.0765  0.8134  0.4967
 2216SOL     OW18280   2.420   0.835   3.986 -0.1910  0.3217 -0.0484
 2216SOL    HW118281   2.362   0.819   3.912 -0.8434  0.6649  0.3864
 2216SOL    HW218282   2.420   0.746   4.021  0.4106  0.2081 -0.3420
 2217SOL     OW18283   4.520   3.506   3.631  0.1465 -0.2321  0.8104
 2217SOL    HW118284   4.436   3.460   3.624 -0.9933  1.4747  3.2611
 2217SOL    HW218285   4.506   3.587   3.581  0.2138 -0.2808  0.7134
 2218SOL     OW18286   3.175   0.480   4.713  0.1943 -0.2908  0.3511
 2218SOL    HW118287   3.157   0.538   4.639 -0.7306  1.7736  2.1939
 2218SOL    HW218288   3.268   0.499   4.724  0.5493 -1.0406 -1.2789
 2219SOL     OW18289   4.663   2.734   7.997  0.0147  0.6708  0.3674
 2219SOL    HW118290   0.015   2.703   8.004  0.4286  1.9947  0.9157
 2219SOL    HW218291   4.675   2.808   7.937  0.2165 -1.0496 -1.6845
 2220SOL     OW18292   3.996   0.628   9.170 -0.4062  0.0881  0.1301
 2220SOL    HW118293   3.929   0.586   9.116 -0.3091  1.8232 -1.3190
 2220SOL    HW218294   4.066   0.563   9.161  0.7049  1.4744 -1.3270
 2221SOL     OW18295   2.394   1.414   8.566 -0.1101 -0.7724  0.3900
 2221SOL    HW118296   2.438   1.463   8.497 -1.4753 -1.1510 -0.7422
 2221SOL    HW218297   2.304   1.426   8.535 -0.7890 -1.2805  2.1341
 2222SOL     OW18298   2.545   3.445   7.601 -0.9826  0.1440  0.0420
 2222SOL    HW118299   2.497   3.520   7.565  1.4413  2.9546  2.6978
 2222SOL    HW218300   2.593   3.498   7.665 -1.7819 -0.9775  1.5710
 2223SOL     OW18301   4.276   2.655   3.021 -0.1745  0.5047  0.1136
 2223SOL    HW118302   4.198   2.604   3.040 -0.4870  1.1273  0.4906
 2223SOL    HW218303   4.343   2.587   3.030 -0.6033  0.1216  0.3613
 2224SOL     OW18304   1.926   0.038  16.359  0.4206  0.0060 -0.9089
 2224SOL    HW118305   2.019   0.021  16.376 -0.2096  0.1382  2.6106
 2224SOL    HW218306   1.917   0.127  16.392 -0.9834  0.2661 -1.9897
 2225SOL     OW18307   4.191   2.992   3.869  0.0148 -0.0107 -0.5227
 2225SOL    HW118308   4.214   3.035   3.787  1.2974  0.8797  0.3224
 2225SOL    HW218309   4.106   2.952   3.850 -1.6687  2.4245  1.9572
 2226SOL     OW18310   0.567   0.932  15.745  0.0371 -0.1986  0.0392
 2226SOL    HW118311   0.574   0.848  15.700  1.1804  0.2369 -0.6099
 2226SOL    HW218312   0.560   0.981  15.663  0.9009 -0.4885 -0.2145
 2227SOL     OW18313   1.888   4.675   5.889  0.3704  0.0150 -0.4709
 2227SOL    HW118314   1.898   4.718   5.974  0.7531 -1.2325  0.1147
 2227SOL    HW218315   1.794   4.656   5.891  0.6087 -1.0756  0.1869
 2228SOL     OW18316   1.845   2.681   4.438  0.0980  0.0913 -0.0134
 2228SOL    HW118317   1.860   2.766   4.397  0.6575  0.3410  0.7165
 2228SOL    HW218318   1.888   2.675   4.522 -1.3438 -0.3434  0.7018
 2229SOL     OW18319   3.966   3.340   0.321  0.0608 -0.4431  0.9474
 2229SOL    HW118320   4.017   3.410   0.281  0.1137 -0.4900  0.9323
 2229SOL    HW218321   4.021   3.329   0.399 -1.0335 -1.8989  1.5103
 2230SOL     OW18322   4.626   2.806  13.038  0.4305 -0.1487  0.0808
 2230SOL    HW118323   4.539   2.838  13.061 -0.7338 -1.2802 -2.7903
 2230SOL    HW218324   4.671   2.815  13.122  1.8725 -0.9799 -0.5941
 2231SOL     OW18325   1.948   4.737   9.088  0.4992 -0.1045  0.3787
 2231SOL    HW118326   1.884   0.038   9.029 -0.3680 -2.3255 -0.1671
 2231SOL    HW218327   1.942   0.052   9.167 -1.2669 -2.2415  1.6441
 2232SOL     OW18328   0.774   3.290   2.133 -0.5104  0.0456 -0.1135
 2232SOL    HW118329   0.800   3.267   2.222  1.2664 -1.9828 -1.1418
 2232SOL    HW218330   0.707   3.224   2.116 -0.0637  0.1845 -2.4602
 2233SOL     OW18331   3.524   3.407  14.912 -0.4617  0.3119  0.0166
 2233SOL    HW118332   3.595   3.415  14.848  0.2917  2.1734  1.0742
 2233SOL    HW218333   3.479   3.337  14.865 -4.3002  2.2620  0.7985
 2234SOL     OW18334   0.325   1.700   9.362 -0.3716  0.4133  0.3808
 2234SOL    HW118335   0.335   1.714   9.268 -0.4041  0.5129  0.3921
 2234SOL    HW218336   0.343   1.606   9.367 -1.7490  0.3386  4.0633
 2235SOL     OW18337   4.001   2.809   9.011 -0.4853  0.2201  0.3935
 2235SOL    HW118338   3.916   2.824   8.968  0.9445  1.5357 -1.9507
 2235SOL    HW218339   4.031   2.899   9.020  0.3941 -0.1080  0.7531
 2236SOL     OW18340   0.864   4.225   9.448 -0.0906  0.2201  0.2556
 2236SOL    HW118341   0.860   4.312   9.409  0.0192  0.0363 -0.1751
 2236SOL    HW218342   0.953   4.193   9.468 -0.0819 -1.5465 -2.5596
 2237SOL     OW18343   1.721   4.321   9.425  0.1379  0.1811  0.3691
 2237SOL    HW118344   1.779   4.287   9.493 -0.7689  0.3263  1.1942
 2237SOL    HW218345   1.775   4.302   9.348  1.3962 -1.3371  1.6206
 2238SOL     OW18346   3.573   0.088   2.694 -0.0304 -0.4050 -0.2056
 2238SOL    HW118347   3.650   0.041   2.662  0.5654 -1.1427  2.3078
 2238SOL    HW218348   3.548   0.136   2.615 -0.3333 -0.1656  0.0386
 2239SOL     OW18349   1.135   4.356   3.653  0.1853  0.2655 -0.1933
 2239SOL    HW118350   1.070   4.424   3.668  0.6296  0.4400  0.9579
 2239SOL    HW218351   1.142   4.323   3.742 -2.1131 -1.3882 -0.6331
 2240SOL     OW18352   0.823   2.070  11.749  0.1296  0.6827  0.0623
 2240SOL    HW118353   0.760   1.999  11.740 -0.2593  1.3073 -2.1192
 2240SOL    HW218354   0.816   2.116  11.665  1.9833 -0.6306 -0.8264
 2241SOL     OW18355   3.785   3.680  14.853 -0.2446 -0.2638 -0.5620
 2241SOL    HW118356   3.879   3.685  14.871  0.7082 -1.4049 -5.2342
 2241SOL    HW218357   3.769   3.761  14.805  0.2022 -0.6547 -1.3698
 2242SOL     OW18358   1.191   4.608   3.343 -0.1983  0.5667 -0.4761
 2242SOL    HW118359   1.183   4.703   3.342 -2.3190  0.4032  1.1642
 2242SOL    HW218360   1.244   4.607   3.263  0.8727 -1.0906  0.2685
 2243SOL     OW18361   0.534   1.078   6.632  0.1638  0.4024  0.2762
 2243SOL    HW118362   0.601   1.016   6.658 -0.1022  0.0849  0.2020
 2243SOL    HW218363   0.485   1.032   6.564  1.3916 -1.9189  0.9920
 2244SOL     OW18364   3.629   2.149   4.170  0.2822 -0.0385 -0.1287
 2244SOL    HW118365   3.709   2.121   4.127  1.1852  0.9918  0.8876
 2244SOL    HW218366   3.626   2.096   4.250  1.2999  0.3662  0.1785
 2245SOL     OW18367   4.377   1.913   5.379  0.1430 -0.2882 -0.0673
 2245SOL    HW118368   4.298   1.895   5.329  1.1057  0.3281 -1.8083
 2245SOL    HW218369   4.440   1.889   5.311  0.0247  0.2267 -0.3589
 2246SOL     OW18370   2.307   4.452   0.189 -0.4569 -0.0628 -0.1696
 2246SOL    HW118371   2.261   4.435   0.271  0.0001 -1.4571 -0.2059
 2246SOL    HW218372   2.385   4.398   0.198 -1.1587 -0.9319  0.7344
 2247SOL     OW18373   2.813   3.820  14.833 -0.1343 -0.1289 -0.5256
 2247SOL    HW118374   2.881   3.795  14.771  1.1142 -1.7026  1.4400
 2247SOL    HW218375   2.744   3.755  14.819  1.5219 -1.8893 -0.5282
 2248SOL     OW18376   0.364   0.019   4.079  0.8172  0.2422 -0.1194
 2248SOL    HW118377   0.415   4.704   4.018  1.2728  0.9286 -0.3350
 2248SOL    HW218378   0.427   0.051   4.143  1.0041 -0.8929  0.2592
 2249SOL     OW18379   2.737   1.304   1.644 -0.5287 -0.3588  0.0910
 2249SOL    HW118380   2.719   1.375   1.583 -0.2042  0.8607  1.3957
 2249SOL    HW218381   2.787   1.247   1.586  0.2761  1.9757 -1.4998
 2250SOL     OW18382   4.199   0.293  13.056 -0.4480 -0.1081  0.4327
 2250SOL    HW118383   4.110   0.325  13.062 -0.1349  0.8969 -0.3275
 2250SOL    HW218384   4.188   0.203  13.025 -0.4932  0.4705 -1.2439
 2251SOL     OW18385   2.610   2.003   7.402 -0.4896  0.2915  0.5408
 2251SOL    HW118386   2.691   2.035   7.441  0.0492  1.4842 -1.5840
 2251SOL    HW218387   2.618   1.915   7.439  2.2567  0.7741  1.0476
 2252SOL     OW18388   0.694   2.542  17.533 -0.1785 -0.7278  0.6196
 2252SOL    HW118389   0.717   2.634  17.518  1.7847 -1.1652  0.9096
 2252SOL    HW218390   0.599   2.547  17.530 -0.0653  0.5022 -0.8151
 2253SOL     OW18391   1.001   2.963  13.441  0.4252 -0.4837  0.1429
 2253SOL    HW118392   1.045   2.990  13.521  0.1395 -3.2053  1.2156
 2253SOL    HW218393   0.997   3.040  13.384 -1.2554 -1.2582 -0.8081
 2254SOL     OW18394   1.570   1.320   9.143 -0.2564 -0.0423 -0.0151
 2254SOL    HW118395   1.639   1.386   9.149 -1.5184  1.1903  0.9417
 2254SOL    HW218396   1.559   1.319   9.048  4.4313 -3.6715 -0.5335
 2255SOL     OW18397   3.987   1.645   3.337  0.0945  0.6375  0.2994
 2255SOL    HW118398   3.986   1.555   3.368 -1.3910  0.6727  0.3574
 2255SOL    HW218399   3.903   1.674   3.373 -1.2250  0.9035 -3.0426
 2256SOL     OW18400   3.219   2.237   9.420  0.0718 -0.1656 -0.6974
 2256SOL    HW118401   3.300   2.234   9.471  1.0351 -2.8732 -2.3865
 2256SOL    HW218402   3.253   2.276   9.339 -0.6426  0.3229 -0.7664
 2257SOL     OW18403   3.625   2.239   2.082  0.3993  0.5208 -0.0661
 2257SOL    HW118404   3.717   2.239   2.057  0.5681  1.0422  0.5523
 2257SOL    HW218405   3.597   2.183   2.010  1.4120  1.7443 -1.4052
 2258SOL     OW18406   4.029   1.834   3.144  0.3451  0.3437 -0.0706
 2258SOL    HW118407   3.963   1.901   3.163  0.8094  0.7700  0.0246
 2258SOL    HW218408   4.002   1.767   3.207  0.8812 -0.0246 -0.2404
 2259SOL     OW18409   3.570   0.984   0.822 -0.0636  0.0691  0.0219
 2259SOL    HW118410   3.626   1.062   0.827 -0.9610  0.7633 -0.7014
 2259SOL    HW218411   3.486   1.018   0.791 -0.1463  0.2979  0.4998
 2260SOL     OW18412   2.368   3.751  12.219  0.7406  0.0824  0.4088
 2260SOL    HW118413   2.381   3.734  12.126  2.1499 -2.5288  1.0830
 2260SOL    HW218414   2.396   3.843  12.223  1.4085 -0.1419  0.7961
 2261SOL     OW18415   3.608   3.789   4.021  0.5050 -0.0553 -0.0245
 2261SOL    HW118416   3.559   3.837   4.088  0.2175 -0.3405 -0.0294
 2261SOL    HW218417   3.648   3.714   4.065  1.8566 -0.3082 -1.6978
 2262SOL     OW18418   3.127   4.241  13.439  0.0751  0.1516  0.1669
 2262SOL    HW118419   3.199   4.247  13.376 -0.3469 -1.1882 -0.4212
 2262SOL    HW218420   3.129   4.329  13.477  1.0286  0.2400 -0.0657
 2263SOL     OW18421   1.002   4.336   1.734  0.0027  0.5482  0.7404
 2263SOL    HW118422   1.011   4.430   1.746 -3.3425  0.7348  1.8125
 2263SOL    HW218423   0.912   4.324   1.765 -0.1411 -0.7947 -0.1888
 2264SOL     OW18424   3.809   1.129   2.146 -0.5863  0.5812 -0.5234
 2264SOL    HW118425   3.721   1.092   2.148 -0.1819 -0.2975  1.7837
 2264SOL    HW218426   3.851   1.095   2.067  0.5903  0.6777  0.0626
 2265SOL     OW18427   0.981   0.409   5.480 -0.5782 -0.0490  0.2469
 2265SOL    HW118428   0.987   0.471   5.552 -1.1643 -2.4911  2.4094
 2265SOL    HW218429   1.035   0.450   5.412 -1.2421  0.1311 -0.1708
 2266SOL     OW18430   1.357   4.229   0.111 -0.4041 -0.0018  0.0003
 2266SOL    HW118431   1.421   4.159   0.121 -1.2467 -0.3454  3.2208
 2266SOL    HW218432   1.279   4.179   0.090  0.2790 -0.8118 -0.6215
 2267SOL     OW18433   1.402   0.294   4.808  0.1543 -0.1282  0.3122
 2267SOL    HW118434   1.392   0.374   4.758  2.7282  0.5033  0.7936
 2267SOL    HW218435   1.365   0.320   4.893 -0.3115  2.6247 -0.7598
 2268SOL     OW18436   2.397   0.422   5.585 -0.3729  0.1991 -0.6738
 2268SOL    HW118437   2.334   0.373   5.638 -1.5415  1.4439 -0.9240
 2268SOL    HW218438   2.425   0.478   5.656 -2.5086  0.0060  0.3205
 2269SOL     OW18439   2.875   2.570   2.384 -0.1270 -0.2552 -0.1509
 2269SOL    HW118440   2.793   2.548   2.339  1.5108 -1.5550 -2.5165
 2269SOL    HW218441   2.935   2.568   2.310 -1.1382 -0.1045 -0.9906
 2270SOL     OW18442   4.502   1.276  14.741 -0.2307 -0.1461  0.1811
 2270SOL    HW118443   4.474   1.187  14.720 -1.0223  0.2051 -0.2701
 2270SOL    HW218444   4.442   1.325  14.684 -0.2958  0.5372  0.8475
 2271SOL     OW18445   4.329   2.957   7.334 -0.5992  0.1982  0.4982
 2271SOL    HW118446   4.424   2.952   7.343 -0.3886  1.3979 -1.1720
 2271SOL    HW218447   4.302   3.006   7.412 -3.1716 -0.7661  0.2321
 2272SOL     OW18448   1.950   1.274   8.600  0.7356 -0.1397  0.2619
 2272SOL    HW118449   1.854   1.267   8.605  0.5323  0.9560 -2.1959
 2272SOL    HW218450   1.965   1.189   8.558  0.4305 -0.8544  1.5845
 2273SOL     OW18451   1.927   4.713   8.431 -0.5742  0.3513 -0.2779
 2273SOL    HW118452   2.018   0.000   8.413 -0.5182  1.1452  1.1593
 2273SOL    HW218453   1.940   4.621   8.407 -0.5243  0.3586 -0.2802
 2274SOL     OW18454   3.197   3.683  12.359 -0.0821  0.2939  0.1604
 2274SOL    HW118455   3.105   3.673  12.336 -0.1396  1.4359 -0.1348
 2274SOL    HW218456   3.212   3.775  12.334  0.8248 -0.4133 -1.9208
 2275SOL     OW18457   0.321   1.278  15.145 -0.3538 -0.3914 -0.8650
 2275SOL    HW118458   0.232   1.245  15.154 -0.3248  0.5525  3.0703
 2275SOL    HW218459   0.334   1.273  15.051  0.4014 -1.2734 -0.7188
 2276SOL     OW18460   2.362   0.234  15.281  0.1377  0.1899  0.1125
 2276SOL    HW118461   2.346   0.214  15.189  1.7039 -3.5171  0.6565
 2276SOL    HW218462   2.320   0.319  15.295  0.2602  0.3117 -0.2627
 2277SOL     OW18463   1.094   0.119   9.100  0.5958 -0.4177 -0.3501
 2277SOL    HW118464   1.020   0.156   9.052  1.1657  1.2616  0.0692
 2277SOL    HW218465   1.046   0.040   9.124 -0.4631  0.2245 -0.3547
 2278SOL     OW18466   0.699   0.252   4.005 -0.1549 -0.1117  0.8608
 2278SOL    HW118467   0.768   0.286   4.062 -0.4863 -2.3825  2.6157
 2278SOL    HW218468   0.702   0.325   3.942 -1.8643  0.1184  1.0317
 2279SOL     OW18469   2.859   1.218   3.186 -0.3650 -0.2192  0.2299
 2279SOL    HW118470   2.935   1.208   3.243 -1.0673  0.3399  1.2747
 2279SOL    HW218471   2.879   1.305   3.151  1.2381  0.0330  1.7628
 2280SOL     OW18472   4.466   3.659   6.508 -0.1060 -0.1533  0.0025
 2280SOL    HW118473   4.397   3.700   6.559 -0.1323  1.2927 -1.1959
 2280SOL    HW218474   4.538   3.720   6.524 -1.1588  0.7219  1.3122
 2281SOL     OW18475   0.154   2.860   9.335  0.0542  0.0307 -0.1687
 2281SOL    HW118476   0.062   2.884   9.339  0.8180  2.8190  0.4637
 2281SOL    HW218477   0.200   2.944   9.330  1.0318 -0.6535 -2.9005
 2282SOL     OW18478   1.431   2.856  14.713 -0.4194  0.3603 -0.0248
 2282SOL    HW118479   1.417   2.901  14.797 -0.5147 -1.9835  1.2177
 2282SOL    HW218480   1.523   2.831  14.727  0.4811  2.2992 -2.5365
 2283SOL     OW18481   4.148   4.258   9.102  0.3936 -0.0545  0.5271
 2283SOL    HW118482   4.140   4.178   9.154  1.0133 -0.6896 -0.3474
 2283SOL    HW218483   4.065   4.251   9.054  0.1133  2.5918  0.6313
 2284SOL     OW18484   0.625   2.685   6.388  0.1382 -0.0211 -0.0431
 2284SOL    HW118485   0.580   2.614   6.434 -2.1882  2.0851  0.9567
 2284SOL    HW218486   0.547   2.736   6.366  1.1970  1.9466  0.7619
 2285SOL     OW18487   2.179   1.140   3.648  0.2829 -0.1013  0.1836
 2285SOL    HW118488   2.182   1.236   3.644 -0.5708 -0.0451  1.2273
 2285SOL    HW218489   2.273   1.131   3.631  0.5794  1.2297  1.0820
 2286SOL     OW18490   3.068   0.097   1.793  0.5825 -0.3588  0.4445
 2286SOL    HW118491   3.034   0.009   1.775 -0.2612 -0.1271  0.9094
 2286SOL    HW218492   2.993   0.156   1.802 -0.6157 -1.3628 -2.9567
 2287SOL     OW18493   1.666   3.447   4.958  0.2484 -0.4863  0.3811
 2287SOL    HW118494   1.660   3.542   4.948  1.1614 -0.5052 -0.3394
 2287SOL    HW218495   1.753   3.427   4.993  1.2387  0.2422 -1.6296
 2288SOL     OW18496   3.882   0.230   7.843 -0.2042 -0.0480 -0.4024
 2288SOL    HW118497   3.935   0.300   7.805 -4.3429  1.5327 -3.3630
 2288SOL    HW218498   3.906   0.251   7.933 -0.7843  0.1050 -0.2821
 2289SOL     OW18499   4.385   0.014  11.915  0.3537  0.1470 -0.1791
 2289SOL    HW118500   4.413   0.056  11.996  0.9135 -1.3127  0.3950
 2289SOL    HW218501   4.396   4.659  11.935  1.7479  0.3151 -0.1745
 2290SOL     OW18502   2.337   2.570   2.343  0.1980  0.3278 -0.1008
 2290SOL    HW118503   2.289   2.520   2.277  0.0201  1.2319 -0.6586
 2290SOL    HW218504   2.274   2.642   2.343  0.5710  0.6545  2.0900
 2291SOL     OW18505   2.558   0.221   2.802  0.0788 -0.4708 -0.0922
 2291SOL    HW118506   2.641   0.270   2.802  0.1089 -0.5211  2.3121
 2291SOL    HW218507   2.580   0.145   2.748 -0.3279 -0.4384 -0.2977
 2292SOL     OW18508   4.241   0.356   7.853 -0.6115 -0.3687  0.0745
 2292SOL    HW118509   4.277   0.443   7.865  1.0322 -1.1358  0.7458
 2292SOL    HW218510   4.172   0.384   7.793 -1.5860 -3.0469 -0.0708
 2293SOL     OW18511   4.538   0.337  11.743 -0.3619  1.0258  0.2000
 2293SOL    HW118512   4.619   0.385  11.765  1.3503 -2.1811  0.8771
 2293SOL    HW218513   4.474   0.408  11.744  0.0320  1.3886 -0.2272
 2294SOL     OW18514   4.014   0.048   0.732  0.2321 -0.0025 -0.0587
 2294SOL    HW118515   4.029   4.703   0.778 -1.3415 -1.2480 -1.7807
 2294SOL    HW218516   4.025   0.019   0.641 -0.6058  2.1802 -0.8543
 2295SOL     OW18517   3.818   2.650   0.195 -0.4074  0.0269  0.3366
 2295SOL    HW118518   3.751   2.692   0.249 -1.6457 -1.3558 -0.1224
 2295SOL    HW218519   3.858   2.582   0.249 -2.2374 -1.0659  0.2890
 2296SOL     OW18520   0.796   4.676  15.345 -0.5212 -0.1072  0.4580
 2296SOL    HW118521   0.834   0.019  15.309 -0.9991 -0.8116 -1.5943
 2296SOL    HW218522   0.756   4.642  15.265  1.2292 -1.0318 -0.0154
 2297SOL     OW18523   4.648   2.269  13.563 -0.4085  0.4624  0.0192
 2297SOL    HW118524   4.653   2.326  13.640 -2.5845  0.3195  0.2898
 2297SOL    HW218525   4.558   2.281  13.531  0.6254  2.6876 -2.0420
 2298SOL     OW18526   1.535   3.826   0.686  0.4124 -0.2477 -0.7560
 2298SOL    HW118527   1.537   3.921   0.697 -1.2826 -0.1701 -1.1164
 2298SOL    HW218528   1.502   3.804   0.773  1.7507  1.3531  0.1618
 2299SOL     OW18529   1.012   2.070   2.752 -0.0352  0.1058 -0.2105
 2299SOL    HW118530   0.929   2.038   2.717 -0.6120  1.7934 -0.4225
 2299SOL    HW218531   1.066   1.997   2.724 -1.1074 -0.3472 -1.0877
 2300SOL     OW18532   2.648   0.373   2.196  0.4273 -0.8451  0.1105
 2300SOL    HW118533   2.586   0.446   2.196  0.2262 -1.0206 -0.4890
 2300SOL    HW218534   2.725   0.428   2.202 -0.6562  0.6443  0.3476
 2301SOL     OW18535   4.482   2.566   2.148  0.6607  0.1576  0.0415
 2301SOL    HW118536   4.454   2.598   2.233  0.8558  0.7983 -0.1324
 2301SOL    HW218537   4.498   2.472   2.158 -1.1455 -0.3759 -2.0748
 2302SOL     OW18538   1.492   2.943   5.331 -0.1184 -0.0055 -0.0505
 2302SOL    HW118539   1.480   2.985   5.246 -1.6435 -0.8514 -0.2492
 2302SOL    HW218540   1.406   2.921   5.367  1.5499 -1.2259  3.1782
 2303SOL     OW18541   4.237   2.182   5.305  0.2845 -0.0320  0.4205
 2303SOL    HW118542   4.157   2.148   5.266  0.6323 -1.0687  0.5949
 2303SOL    HW218543   4.250   2.267   5.263  0.5559  0.8981  2.3925
 2304SOL     OW18544   2.224   4.067  13.946  0.1594 -0.3130  0.3142
 2304SOL    HW118545   2.228   4.148  13.895 -4.0278 -0.4440 -0.2632
 2304SOL    HW218546   2.300   4.076  14.004 -0.5381 -2.3644  1.5437
 2305SOL     OW18547   3.618   4.549   7.184  0.3137  0.6118 -0.9251
 2305SOL    HW118548   3.553   4.513   7.122 -0.8191  0.2493  0.4688
 2305SOL    HW218549   3.684   4.588   7.126  0.0726 -1.9050 -2.9072
 2306SOL     OW18550   0.006   2.768   0.192  0.3529 -0.0083  0.1140
 2306SOL    HW118551   0.014   2.829   0.119 -1.6706  0.3043  0.1491
 2306SOL    HW218552   0.093   2.775   0.233  0.6754 -0.8653 -0.4140
 2307SOL     OW18553   1.737   4.661   0.674 -0.4200  0.2731 -0.4816
 2307SOL    HW118554   1.771   4.583   0.718 -0.1974 -1.6917 -4.1350
 2307SOL    HW218555   1.801   4.684   0.606 -1.0904 -0.6826 -1.4344
 2308SOL     OW18556   3.866   0.073   3.276 -0.0275  0.3222  0.3427
 2308SOL    HW118557   3.782   0.048   3.316 -0.0457  0.3451  0.3190
 2308SOL    HW218558   3.896   4.724   3.250 -1.4053 -0.4159  1.2525
 2309SOL     OW18559   4.127   4.590  15.556 -0.6296  0.0262  0.3153
 2309SOL    HW118560   4.199   4.620  15.611 -0.8340 -1.1112  1.1920
 2309SOL    HW218561   4.054   4.646  15.583 -0.9684 -0.4942  0.4797
 2310SOL     OW18562   2.001   1.385   8.107 -0.2385 -0.3565  0.3759
 2310SOL    HW118563   1.953   1.461   8.139 -0.0843  0.2481 -0.8181
 2310SOL    HW218564   2.071   1.436   8.067 -0.2926  0.4145  1.2693
 2311SOL     OW18565   4.634   2.386   5.039  0.0779  0.6738 -0.0434
 2311SOL    HW118566   4.588   2.458   5.082 -1.8901 -0.5220 -0.1671
 2311SOL    HW218567   4.722   2.398   5.076 -0.1698 -0.7771  1.0321
 2312SOL     OW18568   0.288   3.029   9.025  0.3039 -0.0292 -0.0867
 2312SOL    HW118569   0.360   2.977   9.059  2.6544  1.0279 -3.4582
 2312SOL    HW218570   0.329   3.111   8.998 -1.2785  0.5047 -0.8516
 2313SOL     OW18571   4.087   2.675   4.291  0.3063  0.3697 -0.0237
 2313SOL    HW118572   4.110   2.761   4.328 -1.3712  1.8949 -2.5778
 2313SOL    HW218573   4.151   2.619   4.335 -0.4739 -0.6512 -0.1955
 2314SOL     OW18574   0.381   2.469  11.019 -0.0596  0.3097  0.3223
 2314SOL    HW118575   0.359   2.391  11.069 -0.6372  1.1338  1.3643
 2314SOL    HW218576   0.450   2.436  10.962  0.4418  1.1219  0.4545
 2315SOL     OW18577   2.044   3.743  12.646 -0.0765  0.1491 -0.3866
 2315SOL    HW118578   2.112   3.698  12.696 -1.6115 -0.5105  1.1334
 2315SOL    HW218579   2.086   3.787  12.572 -0.2838 -3.6665 -2.7904
 2316SOL     OW18580   1.223   3.611   6.512  0.2293 -0.2111 -0.5738
 2316SOL    HW118581   1.151   3.653   6.558  0.6180 -1.3908  1.1468
 2316SOL    HW218582   1.173   3.546   6.464 -1.3714  0.6959 -0.1350
 2317SOL     OW18583   3.308   0.301   3.201  0.1504 -0.0082  0.1005
 2317SOL    HW118584   3.298   0.311   3.296  0.0731  1.5184 -0.0729
 2317SOL    HW218585   3.359   0.220   3.199  0.7287  0.4105 -1.4596
 2318SOL     OW18586   1.820   2.017   0.645  0.4674  0.4749 -0.4016
 2318SOL    HW118587   1.745   2.068   0.675  0.1012  0.9784 -2.1908
 2318SOL    HW218588   1.875   2.087   0.609  0.7754  0.5445  0.1975
 2319SOL     OW18589   2.569   1.886   6.219  0.4335  0.1071 -0.6619
 2319SOL    HW118590   2.630   1.882   6.292 -1.0470 -0.7815  0.5321
 2319SOL    HW218591   2.488   1.876   6.270  2.6578  0.4815  2.9682
 2320SOL     OW18592   4.306   4.467   6.444  0.0410 -0.0691  0.6489
 2320SOL    HW118593   4.392   4.505   6.464  2.2397 -3.0637 -3.1479
 2320SOL    HW218594   4.252   4.546   6.443 -0.3507 -0.3458 -1.9631
 2321SOL     OW18595   4.403   4.356  17.128 -0.0519 -0.0235 -0.6792
 2321SOL    HW118596   4.435   4.313  17.208 -0.4439 -1.4329 -1.2906
 2321SOL    HW218597   4.317   4.317  17.118 -0.2087  0.1465 -0.0371
 2322SOL     OW18598   0.303   0.423   8.893 -0.9068  0.5955  0.1216
 2322SOL    HW118599   0.322   0.335   8.860  0.5500  0.8317  0.3274
 2322SOL    HW218600   0.381   0.443   8.944 -1.6197  0.1580  1.3938
 2323SOL     OW18601   3.519   1.968   9.186  0.3357 -0.6357  0.5219
 2323SOL    HW118602   3.554   2.056   9.198 -0.9493  0.0247 -0.4884
 2323SOL    HW218603   3.459   1.961   9.261 -1.6294  0.6623 -0.9086
 2324SOL     OW18604   1.672   1.208  15.839 -0.4616 -0.2247 -0.3902
 2324SOL    HW118605   1.741   1.166  15.890 -0.2239  0.9206  0.2259
 2324SOL    HW218606   1.613   1.134  15.824 -1.3288  0.0883  1.5053
 2325SOL     OW18607   1.876   4.175   2.847  0.6983 -0.0617  0.4451
 2325SOL    HW118608   1.872   4.261   2.890 -0.3575  0.2928 -0.3738
 2325SOL    HW218609   1.783   4.156   2.835  0.6440  0.5263 -0.0328
 2326SOL     OW18610   3.502   4.664   8.204  0.4449 -0.2904 -0.2337
 2326SOL    HW118611   3.566   4.593   8.211  0.8606  0.2649  1.6195
 2326SOL    HW218612   3.554   4.716   8.142  0.1645  2.0684  1.5049
 2327SOL     OW18613   0.060   2.111  15.105 -0.1274  0.4776 -0.4263
 2327SOL    HW118614   0.116   2.054  15.159 -0.3031 -0.1208 -0.8766
 2327SOL    HW218615   4.717   2.063  15.089 -0.9989  2.0016 -0.6185
 2328SOL     OW18616   4.606   3.538  14.872  0.6525  0.5683  0.4657
 2328SOL    HW118617   4.648   3.470  14.819 -1.1291 -0.2502  0.1016
 2328SOL    HW218618   4.599   3.615  14.814 -1.9707 -0.0194  0.0015
 2329SOL     OW18619   1.501   1.579   4.585  0.2833 -0.2899 -0.2968
 2329SOL    HW118620   1.498   1.652   4.524 -1.4457  1.0271  1.3747
 2329SOL    HW218621   1.494   1.620   4.671  0.3372 -3.5788  1.2767
 2330SOL     OW18622   3.757   3.326   4.254  0.1189 -0.2658 -0.4773
 2330SOL    HW118623   3.687   3.300   4.313 -0.4071  2.1477 -0.0188
 2330SOL    HW218624   3.800   3.392   4.309  0.1904 -1.9622  1.4822
 2331SOL     OW18625   4.673   3.935   8.037 -0.6299  0.4693 -0.6052
 2331SOL    HW118626   4.623   3.891   8.106 -2.4683 -1.4270 -3.1693
 2331SOL    HW218627   4.676   3.861   7.975  0.6740 -0.1657  0.2062
 2332SOL     OW18628   3.571   1.445   6.966 -0.2012  0.0996  0.3451
 2332SOL    HW118629   3.609   1.398   6.892 -0.8812 -1.9137  1.2716
 2332SOL    HW218630   3.643   1.505   6.989  0.2866  0.2820 -1.6686
 2333SOL     OW18631   2.323   3.914  13.670 -0.0657 -0.1161 -0.0720
 2333SOL    HW118632   2.287   3.948  13.752  1.1915  1.3521 -0.1174
 2333SOL    HW218633   2.283   3.972  13.605 -1.9736 -2.0423 -0.6237
 2334SOL     OW18634   3.146   1.079   1.969 -0.6684  0.8348  0.0902
 2334SOL    HW118635   3.074   1.126   1.927 -1.5151 -0.1912  0.3910
 2334SOL    HW218636   3.174   1.015   1.904 -1.7798  1.8596 -1.4012
 2335SOL     OW18637   1.101   3.179   8.026  0.3095 -0.0224  0.0493
 2335SOL    HW118638   1.068   3.097   8.063  0.2318  0.1729  0.4148
 2335SOL    HW218639   1.046   3.172   7.947 -0.7490  1.2222  0.6815
 2336SOL     OW18640   0.784   4.451   3.627 -0.5428 -0.1577 -0.4222
 2336SOL    HW118641   0.839   4.521   3.590 -0.1096 -0.4983 -0.4213
 2336SOL    HW218642   0.807   4.369   3.584  1.2268 -0.5019  1.1954
 2337SOL     OW18643   1.909   3.699   1.192  0.7816 -0.0487  0.2027
 2337SOL    HW118644   1.883   3.699   1.100 -0.9132 -1.6338  0.6536
 2337SOL    HW218645   1.825   3.675   1.232  0.0518 -0.0160 -1.3076
 2338SOL     OW18646   1.317   2.627   8.843  0.1019  0.6369 -0.4422
 2338SOL    HW118647   1.409   2.645   8.863 -0.1033  0.5388  0.5851
 2338SOL    HW218648   1.325   2.532   8.835  2.2029  0.8168 -0.6515
 2339SOL     OW18649   2.939   4.212  10.573  0.7208  0.2881  0.4655
 2339SOL    HW118650   3.019   4.231  10.623  0.0307  2.2731  0.8042
 2339SOL    HW218651   2.970   4.229  10.484 -0.2183  2.7506  0.6185
 2340SOL     OW18652   3.914   1.188   2.431  0.4140 -0.2673 -0.3654
 2340SOL    HW118653   3.974   1.122   2.465 -0.6482 -0.9821  0.1271
 2340SOL    HW218654   3.934   1.181   2.338 -0.8401  0.3743 -0.6786
 2341SOL     OW18655   4.156   0.901   5.684 -0.3834 -0.4147  0.1750
 2341SOL    HW118656   4.125   0.911   5.594  1.3481 -1.9203 -0.5803
 2341SOL    HW218657   4.250   0.892   5.669 -0.0708 -1.5205  2.7600
 2342SOL     OW18658   0.576   1.334   4.130 -0.0568  0.2442 -0.2994
 2342SOL    HW118659   0.527   1.412   4.154  0.4011  0.8939 -1.5197
 2342SOL    HW218660   0.554   1.281   4.207  1.1854  0.7260  0.3979
 2343SOL     OW18661   1.835   1.491   3.545  0.2261 -0.2866 -0.2180
 2343SOL    HW118662   1.814   1.525   3.632  2.1416 -1.1061  0.5708
 2343SOL    HW218663   1.844   1.397   3.563 -0.7275 -0.6898 -1.8421
 2344SOL     OW18664   3.193   2.303   4.823 -0.0295 -0.4357  0.5396
 2344SOL    HW118665   3.148   2.332   4.903  0.2161 -0.2155  0.5958
 2344SOL    HW218666   3.121   2.248   4.790 -0.1677  0.0512  0.0335
 2345SOL     OW18667   0.103   0.552   7.171 -0.7038  0.6101  0.0841
 2345SOL    HW118668   0.130   0.481   7.113 -1.0411 -0.6028  1.4018
 2345SOL    HW218669   0.054   0.504   7.238  1.3432  0.0431  1.1851
 2346SOL     OW18670   2.463   2.537   1.311 -0.5314  0.4040  0.5259
 2346SOL    HW118671   2.538   2.596   1.305 -0.7417  0.2818 -2.9427
 2346SOL    HW218672   2.496   2.467   1.255 -2.5738 -0.2809  0.2082
 2347SOL     OW18673   4.552   1.772  15.521  0.3323 -0.1790 -0.0712
 2347SOL    HW118674   4.619   1.727  15.572  0.0234 -0.5776 -0.0137
 2347SOL    HW218675   4.572   1.716  15.446  0.6331  2.7500 -2.1740
 2348SOL     OW18676   3.663   0.643   4.596 -0.1477  0.1740 -0.6109
 2348SOL    HW118677   3.743   0.625   4.645 -0.1262  2.8717  0.3624
 2348SOL    HW218678   3.696   0.690   4.519 -0.3353 -0.8467 -1.3125
 2349SOL     OW18679   2.951   4.636  12.062  0.1255  0.3976 -0.9236
 2349SOL    HW118680   2.964   4.693  11.986 -0.5413 -0.0713 -1.3843
 2349SOL    HW218681   2.856   4.627  12.065  0.2063  0.0568  0.5212
 2350SOL     OW18682   1.633   2.293   2.596  0.1250  0.4213 -0.0545
 2350SOL    HW118683   1.703   2.353   2.620 -0.1977  0.4082  0.8938
 2350SOL    HW218684   1.557   2.332   2.638  0.7373  0.5325  0.9332
 2351SOL     OW18685   1.790   4.361   4.020  0.1407 -0.5612  0.3304
 2351SOL    HW118686   1.738   4.343   3.942  0.9498 -0.0388 -0.3248
 2351SOL    HW218687   1.771   4.454   4.032  1.3910 -0.1490 -0.9106
 2352SOL     OW18688   1.318   4.095   3.225 -0.3797 -0.5634  0.4989
 2352SOL    HW118689   1.261   4.143   3.286 -2.0904  0.1421 -1.6549
 2352SOL    HW218690   1.382   4.164   3.208 -0.1069 -0.7208  0.8885
 2353SOL     OW18691   1.127   2.429   8.560  0.1698 -0.6515 -0.0370
 2353SOL    HW118692   1.149   2.494   8.492 -0.5083  0.3762  0.7222
 2353SOL    HW218693   1.077   2.479   8.624 -0.3058 -2.8862  1.3184
 2354SOL     OW18694   4.594   1.901  15.149  0.1203 -0.5470  0.2149
 2354SOL    HW118695   4.634   1.830  15.099  0.9500 -0.5352  0.8472
 2354SOL    HW218696   4.606   1.860  15.235  1.4414 -0.2967  0.1539
 2355SOL     OW18697   1.056   0.806  17.719  0.1368  0.0873  0.1266
 2355SOL    HW118698   0.998   0.730  17.726  1.2429 -0.9278 -1.6447
 2355SOL    HW218699   1.117   0.769  17.655 -0.6279  0.0848 -0.6090
 2356SOL     OW18700   4.611   3.752  14.708  0.1234 -0.2482  0.2479
 2356SOL    HW118701   4.665   3.824  14.675 -0.8336  1.3257  2.0933
 2356SOL    HW218702   4.570   3.715  14.630 -2.4390  0.7646  1.1200
 2357SOL     OW18703   1.301   4.022   5.288  0.4779  0.2548 -0.4019
 2357SOL    HW118704   1.318   4.102   5.238 -0.5084  0.7220  0.0098
 2357SOL    HW218705   1.383   4.017   5.336 -0.7507  0.2317  1.6702
 2358SOL     OW18706   1.266   2.274  11.884 -0.0546  0.6467 -0.3905
 2358SOL    HW118707   1.256   2.184  11.915  0.1731  1.2434  1.4200
 2358SOL    HW218708   1.326   2.249  11.814  0.3901 -0.9394  0.5628
 2359SOL     OW18709   1.905   2.987   8.162 -0.4370 -0.0091 -0.2838
 2359SOL    HW118710   1.952   3.058   8.117  0.2010 -1.6779 -2.2280
 2359SOL    HW218711   1.912   3.013   8.254 -0.0396 -1.1977  0.0221
 2360SOL     OW18712   4.015   2.648  10.713 -0.2618 -0.1042  0.2756
 2360SOL    HW118713   4.081   2.579  10.709 -0.2457 -0.0412 -0.5333
 2360SOL    HW218714   3.985   2.652  10.623 -0.7368  0.4875  0.4637
 2361SOL     OW18715   2.116   4.188   7.113 -0.1166 -0.4563 -0.7063
 2361SOL    HW118716   2.150   4.112   7.066 -1.7065 -1.8021  0.3301
 2361SOL    HW218717   2.078   4.147   7.191 -1.9433  0.5259 -1.0955
 2362SOL     OW18718   3.945   3.092   6.933 -0.5341 -0.1111  0.2138
 2362SOL    HW118719   3.883   3.146   6.982 -0.2350  0.2503  0.1966
 2362SOL    HW218720   3.951   3.141   6.851 -2.0175 -0.6699 -0.2288
 2363SOL     OW18721   2.916   3.727   4.523  0.3851  0.0023 -0.3048
 2363SOL    HW118722   2.851   3.753   4.457 -0.8225 -1.3662  0.3493
 2363SOL    HW218723   2.988   3.780   4.491  0.1140 -0.0333 -0.9731
 2364SOL     OW18724   2.823   3.662   2.287 -0.0348 -0.4274 -0.6300
 2364SOL    HW118725   2.783   3.665   2.200 -0.1883  1.4681 -0.4879
 2364SOL    HW218726   2.846   3.754   2.301 -3.7683 -0.0665  3.1356
 2365SOL     OW18727   2.809   0.447   2.985  0.2972 -0.4051  0.4403
 2365SOL    HW118728   2.869   0.448   2.911 -0.4606  0.2287 -0.1676
 2365SOL    HW218729   2.860   0.493   3.052 -1.7727  0.7396  1.2614
 2366SOL     OW18730   1.608   3.094  16.701  0.1026  0.2040 -0.2058
 2366SOL    HW118731   1.618   3.139  16.617 -0.9327 -2.5594 -1.8021
 2366SOL    HW218732   1.657   3.018  16.672 -1.5510 -0.8772 -0.1771
 2367SOL     OW18733   2.162   2.430   9.491  0.1032 -0.6939  0.0294
 2367SOL    HW118734   2.254   2.403   9.493  0.1875 -0.3803  0.3843
 2367SOL    HW218735   2.166   2.489   9.567  0.5634 -1.8795  0.9244
 2368SOL     OW18736   1.818   2.509   3.507  0.5687 -0.6778 -0.0864
 2368SOL    HW118737   1.875   2.586   3.509 -0.0191 -0.2396 -0.4857
 2368SOL    HW218738   1.838   2.481   3.597 -0.4782  0.2327  0.4339
 2369SOL     OW18739   0.701   1.368   7.654  0.4552 -0.1703  0.6106
 2369SOL    HW118740   0.733   1.404   7.572 -2.3596  0.4960 -0.1968
 2369SOL    HW218741   0.758   1.294   7.676  0.7886  0.1029  0.6636
 2370SOL     OW18742   2.965   3.352   8.715 -0.1411 -0.1291 -0.2486
 2370SOL    HW118743   2.938   3.425   8.660 -0.2026 -1.1250 -1.5388
 2370SOL    HW218744   2.922   3.387   8.793  1.9464  1.6332  0.1016
 2371SOL     OW18745   2.409   0.962   7.901 -0.2714 -0.3666 -0.3273
 2371SOL    HW118746   2.316   0.938   7.908  0.0488 -1.2890  0.8707
 2371SOL    HW218747   2.446   0.898   7.840 -0.1812 -0.8796  0.2593
 2372SOL     OW18748   1.638   2.457   5.012  0.6553 -0.0318  0.4359
 2372SOL    HW118749   1.727   2.427   5.029 -0.0895 -1.7325  1.3864
 2372SOL    HW218750   1.654   2.513   4.936 -0.0127 -0.0515  0.2794
 2373SOL     OW18751   2.067   3.590   4.862 -0.8824  0.1021  0.1926
 2373SOL    HW118752   2.097   3.624   4.946 -3.4330  1.2089  0.6513
 2373SOL    HW218753   2.095   3.499   4.870  2.4783  1.2340  1.1017
 2374SOL     OW18754   2.139   0.490  11.951  0.0706 -0.7922 -0.2596
 2374SOL    HW118755   2.196   0.448  12.016 -0.4895 -0.8964  0.1661
 2374SOL    HW218756   2.200   0.526  11.886  2.2141 -1.0193  1.6117
 2375SOL     OW18757   3.629   0.502   1.770  0.3876 -0.3920  0.1336
 2375SOL    HW118758   3.555   0.489   1.830  1.7907 -0.7859  1.7769
 2375SOL    HW218759   3.581   0.538   1.696  0.5201  0.7031  0.5875
 2376SOL     OW18760   2.628   2.982   5.751  0.0124  0.0430 -0.6945
 2376SOL    HW118761   2.645   2.893   5.722  0.0967  0.4209 -1.8312
 2376SOL    HW218762   2.595   3.028   5.674  0.4099  1.5020 -0.0009
 2377SOL     OW18763   0.562   1.566   5.569  0.3263 -0.0467  0.3406
 2377SOL    HW118764   0.650   1.604   5.571 -0.1100  0.9435  0.2067
 2377SOL    HW218765   0.528   1.611   5.647 -1.8989  2.5031 -2.1335
 2378SOL     OW18766   3.749   2.767  17.531  0.7602  0.2952 -0.0600
 2378SOL    HW118767   3.823   2.826  17.518  1.4506 -0.5277  0.0791
 2378SOL    HW218768   3.793   2.691  17.571 -0.8789 -0.0258  1.1317
 2379SOL     OW18769   0.728   0.228   4.743  1.0623 -0.2622 -0.5945
 2379SOL    HW118770   0.674   0.150   4.734 -1.7720  1.6267  0.0050
 2379SOL    HW218771   0.746   0.247   4.651  3.0410  0.1955 -0.1129
 2380SOL     OW18772   0.115   4.463  12.271 -0.3296 -0.1492  0.0800
 2380SOL    HW118773   0.107   4.430  12.182 -0.6401  1.1716 -0.3826
 2380SOL    HW218774   0.129   4.556  12.253  0.4064 -0.4534 -0.8890
 2381SOL     OW18775   2.053   4.270   4.515  0.6007  0.0632  0.2604
 2381SOL    HW118776   2.012   4.212   4.579 -0.6125 -0.0437 -0.6076
 2381SOL    HW218777   2.093   4.196   4.468  1.1537  1.7068 -1.8743
 2382SOL     OW18778   2.643   0.963   6.380  0.1676  0.3052  0.0464
 2382SOL    HW118779   2.698   1.030   6.419 -1.4412  1.2489  0.6769
 2382SOL    HW218780   2.570   0.958   6.442  0.9383  0.5164  0.9649
 2383SOL     OW18781   4.701   3.800   6.541  0.5456  0.4885  1.0020
 2383SOL    HW118782   0.004   3.883   6.562  1.5234  0.4807 -0.8452
 2383SOL    HW218783   0.042   3.748   6.527 -1.0782 -1.4175 -1.3132
 2384SOL     OW18784   1.255   3.683   4.344  0.1822  0.3368 -0.1162
 2384SOL    HW118785   1.219   3.618   4.283 -1.1365  1.4529 -0.5243
 2384SOL    HW218786   1.185   3.692   4.408  0.3880  0.4855  0.0874
 2385SOL     OW18787   4.215   3.734   4.404  0.1868  0.0134 -0.4116
 2385SOL    HW118788   4.198   3.654   4.353  2.4702 -0.6131 -0.1604
 2385SOL    HW218789   4.302   3.717   4.439 -0.2924 -0.4725  0.5371
 2386SOL     OW18790   3.152   3.411   1.409 -0.0465 -0.0872 -0.4337
 2386SOL    HW118791   3.122   3.497   1.380  0.8891 -0.2478 -1.8821
 2386SOL    HW218792   3.089   3.346   1.378  0.1844  0.5577 -2.2853
 2387SOL     OW18793   4.124   3.704   3.025 -0.3396 -0.0592 -0.0571
 2387SOL    HW118794   4.060   3.762   3.067 -0.0879 -0.2284  0.5684
 2387SOL    HW218795   4.205   3.713   3.076 -0.5997  1.4049  0.1146
 2388SOL     OW18796   1.806   1.072   1.498 -0.2996 -0.3046 -0.2591
 2388SOL    HW118797   1.777   0.985   1.525 -0.2523 -0.8158 -1.8278
 2388SOL    HW218798   1.767   1.087   1.412 -1.5462 -1.8286  0.0477
 2389SOL     OW18799   3.899   0.380   6.581 -0.2612 -0.0573  0.5603
 2389SOL    HW118800   3.875   0.472   6.571 -0.1393  0.1164  1.8025
 2389SOL    HW218801   3.987   0.382   6.620 -0.1108 -0.6176  0.2459
 2390SOL     OW18802   0.589   3.993  13.377  0.3071 -0.1396  0.2517
 2390SOL    HW118803   0.619   4.017  13.465 -1.3203 -1.8269  1.2818
 2390SOL    HW218804   0.667   3.966  13.330  0.4664  0.2976  0.2628
 2391SOL     OW18805   2.235   3.313   2.215  0.2152 -0.4495  0.7507
 2391SOL    HW118806   2.284   3.394   2.207 -0.3520  0.1705  3.6189
 2391SOL    HW218807   2.228   3.299   2.310  1.7579 -1.7725  0.6803
 2392SOL     OW18808   0.182   0.296  12.231 -0.2109 -0.1445 -0.0803
 2392SOL    HW118809   0.123   0.286  12.156 -0.5990 -2.3288  0.5214
 2392SOL    HW218810   0.216   0.206  12.237 -1.0541 -0.4430  0.1969
 2393SOL     OW18811   0.605   2.679   6.044 -0.2025  0.1077  0.1422
 2393SOL    HW118812   0.610   2.610   6.110  0.8653  2.7222  2.7780
 2393SOL    HW218813   0.540   2.627   5.995  0.6054  0.1032 -0.9231
 2394SOL     OW18814   2.575   0.912   1.811  0.6845  0.0788  0.6691
 2394SOL    HW118815   2.517   0.881   1.742 -0.2926  3.0461  0.1419
 2394SOL    HW218816   2.656   0.886   1.767 -0.7552 -3.4197  0.0933
 2395SOL     OW18817   4.456   4.609  12.147  0.1139 -0.3449  0.1216
 2395SOL    HW118818   4.457   4.636  12.239 -2.0351 -2.6194  0.8274
 2395SOL    HW218819   4.428   4.517  12.153 -1.3102  0.1561  1.1800
 2396SOL     OW18820   3.112   3.867   8.495 -0.0263  0.3690 -0.4475
 2396SOL    HW118821   3.124   3.951   8.539  3.3818 -1.1802  1.6329
 2396SOL    HW218822   3.111   3.800   8.564  1.6663  0.3967 -0.3872
 2397SOL     OW18823   0.081   2.561   3.226 -0.4401  0.7489  0.2687
 2397SOL    HW118824   0.022   2.489   3.249 -1.0591  0.1648 -3.1454
 2397SOL    HW218825   0.166   2.531   3.257 -0.4497  2.7382  2.2422
 2398SOL     OW18826   4.234   4.251   3.643  0.2281  0.0269  0.0834
 2398SOL    HW118827   4.188   4.210   3.715  1.0650  0.5598  0.9207
 2398SOL    HW218828   4.298   4.306   3.688  0.1314  0.6422 -0.5238
 2399SOL     OW18829   4.358   4.176   6.203  0.1470  0.3446  0.2388
 2399SOL    HW118830   4.298   4.201   6.132  0.9205 -1.5094 -1.0797
 2399SOL    HW218831   4.418   4.124   6.149 -1.0395 -1.9661  1.1468
 2400SOL     OW18832   4.613   2.989   7.303 -0.2902 -0.1393 -0.6622
 2400SOL    HW118833   4.688   3.045   7.318  0.7399 -2.1720  1.7907
 2400SOL    HW218834   4.649   2.908   7.340  0.3126  1.3294  1.9714
 2401SOL     OW18835   0.760   3.109   4.239 -0.4367 -0.2206 -0.2542
 2401SOL    HW118836   0.666   3.092   4.236 -0.4208 -0.1919 -1.0543
 2401SOL    HW218837   0.804   3.025   4.251  0.6475  0.3389 -0.2943
 2402SOL     OW18838   2.055   4.285   2.387  0.0908  0.5735 -0.0860
 2402SOL    HW118839   1.964   4.292   2.360  0.2440  0.9319 -0.5115
 2402SOL    HW218840   2.050   4.250   2.476 -0.9390  0.6080 -0.1369
 2403SOL     OW18841   0.207   0.083   2.908 -0.7373 -0.1932 -0.1423
 2403SOL    HW118842   0.269   0.031   2.857  1.3276 -0.1483  2.2914
 2403SOL    HW218843   0.263   0.092   2.985 -1.9646 -2.4455  1.0149
 2404SOL     OW18844   3.058   2.703   4.894 -0.4137  0.4605  0.5896
 2404SOL    HW118845   3.139   2.753   4.898 -0.3563  0.3062  1.5012
 2404SOL    HW218846   3.014   2.722   4.977  0.5326  0.6722  1.0510
 2405SOL     OW18847   3.468   3.080   4.457  0.1123  0.4309 -0.2934
 2405SOL    HW118848   3.406   3.112   4.391 -0.4308 -0.0364 -0.0143
 2405SOL    HW218849   3.521   3.031   4.395 -2.0558 -0.1245 -1.6804
 2406SOL     OW18850   2.248   3.470  12.604  0.4852  0.4320  0.2045
 2406SOL    HW118851   2.340   3.447  12.590  0.5501  1.1034 -0.4615
 2406SOL    HW218852   2.237   3.533  12.533  2.2969 -1.1796 -1.5326
 2407SOL     OW18853   2.956   3.047   7.906  0.3722  0.0518  0.1136
 2407SOL    HW118854   2.889   3.108   7.937 -0.8627 -0.9523 -0.5502
 2407SOL    HW218855   2.899   2.977   7.874 -1.3888  0.5977  2.0473
 2408SOL     OW18856   4.352   0.722   8.602  0.3455  0.5492 -0.2741
 2408SOL    HW118857   4.307   0.640   8.623 -0.2179  1.3755  1.6918
 2408SOL    HW218858   4.440   0.705   8.635 -0.2542 -3.2049 -0.6000
 2409SOL     OW18859   3.789   1.331  15.490 -0.0070 -0.4271 -0.4673
 2409SOL    HW118860   3.762   1.343  15.581 -1.4033  1.2446 -1.1100
 2409SOL    HW218861   3.769   1.413  15.445  0.4603 -0.2117 -0.2860
 2410SOL     OW18862   3.524   0.244   0.713  0.5333 -0.5267  0.3223
 2410SOL    HW118863   3.512   0.158   0.672 -0.4588  0.4183 -1.3358
 2410SOL    HW218864   3.605   0.271   0.670  0.3131  0.5030  0.5701
 2411SOL     OW18865   4.703   1.802   3.777 -0.0841 -0.1276 -0.2457
 2411SOL    HW118866   0.003   1.756   3.703 -0.5730 -0.2794 -0.3962
 2411SOL    HW218867   4.732   1.890   3.753  1.5568 -0.3798  0.7441
 2412SOL     OW18868   1.895   4.399   1.481 -0.2410 -0.2812  0.2995
 2412SOL    HW118869   1.843   4.480   1.471 -1.1207 -1.0437 -1.2980
 2412SOL    HW218870   1.934   4.401   1.568 -0.6184  2.0230  0.4362
 2413SOL     OW18871   0.692   0.578   7.795  0.3762  0.0527  0.1483
 2413SOL    HW118872   0.617   0.559   7.739 -0.9930 -0.8268  2.2821
 2413SOL    HW218873   0.649   0.595   7.879 -3.5888  1.8881 -2.2297
 2414SOL     OW18874   2.569   3.204   8.889  0.2330  0.0656 -0.4061
 2414SOL    HW118875   2.595   3.295   8.905 -2.1753  0.6185  0.3925
 2414SOL    HW218876   2.522   3.212   8.805  0.5964 -2.3682 -0.8339
 2415SOL     OW18877   3.834   2.389  17.282  0.3499  0.2536 -0.4649
 2415SOL    HW118878   3.776   2.378  17.357  0.7386  1.4175  0.0007
 2415SOL    HW218879   3.796   2.337  17.211  0.1009  0.3018 -0.3675
 2416SOL     OW18880   0.118   4.678  16.288 -0.1966 -0.4812  0.0442
 2416SOL    HW118881   0.055   0.007  16.261  0.3820  0.6404  1.4611
 2416SOL    HW218882   0.166   4.667  16.206  0.1095  0.6633  0.0708
 2417SOL     OW18883   4.056   0.007  16.316  0.8212  0.2684 -0.4069
 2417SOL    HW118884   4.146   4.725  16.291  0.8842 -0.8119  0.6706
 2417SOL    HW218885   4.037   0.068  16.245 -0.8372 -1.3735 -1.3814
 2418SOL     OW18886   0.146   1.308   7.818  0.4502 -0.4794 -0.1307
 2418SOL    HW118887   0.090   1.299   7.895  2.2178 -0.8893  1.1132
 2418SOL    HW218888   0.099   1.247   7.762  0.4365 -1.0562  0.5094
 2419SOL     OW18889   3.905   3.765  11.108 -0.0664 -0.6173 -0.0637
 2419SOL    HW118890   3.822   3.807  11.131 -0.5999 -0.8061 -1.6579
 2419SOL    HW218891   3.881   3.672  11.109 -0.9954 -0.3692  0.3829
 2420SOL     OW18892   2.989   1.187  11.839 -0.2019  0.5914 -0.2671
 2420SOL    HW118893   2.982   1.282  11.849  0.8662  0.6356  0.1026
 2420SOL    HW218894   3.071   1.180  11.888  0.0855  0.6178 -0.7493
 2421SOL     OW18895   0.238   3.433  11.271  0.2751  0.3463 -0.5477
 2421SOL    HW118896   0.261   3.382  11.193  0.4328  0.6756 -0.7142
 2421SOL    HW218897   0.163   3.380  11.297 -1.3083  2.7036 -0.3118
 2422SOL     OW18898   0.543   4.349   2.219  0.2813 -0.6249  0.2710
 2422SOL    HW118899   0.517   4.257   2.220 -1.0607 -0.2352 -0.0722
 2422SOL    HW218900   0.499   4.392   2.293  2.8235 -1.7030  2.4427
 2423SOL     OW18901   1.698   3.741   2.782 -0.1328 -0.6931 -0.1080
 2423SOL    HW118902   1.781   3.788   2.787  0.1394 -1.2725  0.8022
 2423SOL    HW218903   1.708   3.674   2.714 -3.0656 -0.5436 -0.7150
 2424SOL     OW18904   2.019   1.901   6.874 -0.3227  0.1846  0.5528
 2424SOL    HW118905   2.042   1.832   6.811 -0.1038  0.5015  0.2809
 2424SOL    HW218906   2.107   1.910   6.911  0.1119 -1.2216 -0.1491
 2425SOL     OW18907   3.579   4.612  11.055  0.0219  0.1521  0.1774
 2425SOL    HW118908   3.569   4.554  11.130  1.6480 -1.4522 -0.8310
 2425SOL    HW218909   3.654   4.569  11.013 -1.0511 -0.7854 -0.7855
 2426SOL     OW18910   1.317   0.469  10.613 -0.0171  0.2266 -0.1067
 2426SOL    HW118911   1.274   0.427  10.688 -0.2620  2.3653  0.9514
 2426SOL    HW218912   1.409   0.473  10.639 -0.0890  1.5409 -0.0565
 2427SOL     OW18913   3.520   3.078   5.430  0.7782 -0.5533 -0.0798
 2427SOL    HW118914   3.595   3.094   5.487 -0.5110  1.5946  1.0205
 2427SOL    HW218915   3.533   2.984   5.427 -3.3451 -1.1000 -1.5587
 2428SOL     OW18916   2.023   4.092   4.739  0.3103  0.9076  0.3094
 2428SOL    HW118917   2.078   4.104   4.815 -0.5059 -0.4081  1.1018
 2428SOL    HW218918   1.998   4.000   4.737 -1.1276  1.2615  2.1459
 2429SOL     OW18919   2.080   4.158   1.972 -0.4939  0.2051  0.3203
 2429SOL    HW118920   2.108   4.120   1.889  0.9831 -0.4459  1.1113
 2429SOL    HW218921   2.021   4.088   2.000  1.4993 -1.1887  1.0668
 2430SOL     OW18922   3.317   2.989  15.377 -0.2745 -0.1536  0.3308
 2430SOL    HW118923   3.260   3.033  15.441 -0.1087 -0.9220  1.0186
 2430SOL    HW218924   3.280   3.021  15.295  0.5119 -3.4351 -1.3011
 2431SOL     OW18925   0.680   3.188   6.371  0.3439 -0.2711  0.2831
 2431SOL    HW118926   0.746   3.153   6.312 -0.1498 -2.5417  1.0781
 2431SOL    HW218927   0.602   3.185   6.315  1.2528  0.3529 -1.0064
 2432SOL     OW18928   3.603   4.007   3.448  0.6711 -0.5468 -0.1248
 2432SOL    HW118929   3.677   4.068   3.439  0.4518 -0.5128 -1.6965
 2432SOL    HW218930   3.533   4.070   3.433  0.2815 -0.1187  3.5486
 2433SOL     OW18931   4.123   0.684  16.394 -0.1755  0.0531 -0.2310
 2433SOL    HW118932   4.137   0.665  16.301  0.7066  3.5216 -0.8266
 2433SOL    HW218933   4.050   0.743  16.376  0.8447  1.9944  1.9684
 2434SOL     OW18934   3.745   2.917   1.168  0.5033 -0.1829 -0.2539
 2434SOL    HW118935   3.674   2.924   1.104 -1.4321  0.3718  1.9224
 2434SOL    HW218936   3.764   2.824   1.156 -0.0547 -0.3508  0.1342
 2435SOL     OW18937   0.610   1.455   4.492  0.4534 -0.0400 -0.2106
 2435SOL    HW118938   0.705   1.451   4.479  0.3857  0.2418 -0.8033
 2435SOL    HW218939   0.604   1.398   4.568 -1.6927  2.9427  1.8142
 2436SOL     OW18940   4.603   1.427   8.419  0.0089  0.1534 -0.6978
 2436SOL    HW118941   4.571   1.518   8.425 -2.5984 -0.9415  1.8751
 2436SOL    HW218942   4.527   1.389   8.375  0.7809 -0.2198 -1.7158
 2437SOL     OW18943   1.195   1.689   9.529  0.2631 -0.6569 -0.8573
 2437SOL    HW118944   1.264   1.677   9.594 -0.3835 -2.2212 -0.4656
 2437SOL    HW218945   1.166   1.603   9.499 -0.6482 -0.8836  0.6600
 2438SOL     OW18946   3.130   2.405   4.324 -0.4587 -0.5258 -0.6135
 2438SOL    HW118947   3.085   2.369   4.400  1.1438  2.1168  1.6032
 2438SOL    HW218948   3.197   2.465   4.358 -0.5121 -0.7968 -0.0202
 2439SOL     OW18949   3.209   2.353   0.289 -0.0174  0.4936  0.3012
 2439SOL    HW118950   3.249   2.273   0.323  2.3377  1.0145 -1.2588
 2439SOL    HW218951   3.277   2.404   0.333 -1.1326  2.9646 -0.7785
 2440SOL     OW18952   0.612   1.876   3.083 -0.0118 -0.3123  0.0456
 2440SOL    HW118953   0.560   1.918   3.151 -0.9621 -2.4735  0.6510
 2440SOL    HW218954   0.612   1.952   3.025  1.3344  0.5759  1.1891
 2441SOL     OW18955   1.730   3.084  10.234  0.1728  0.4026 -0.2787
 2441SOL    HW118956   1.647   3.050  10.267  1.3173 -0.7706  1.3850
 2441SOL    HW218957   1.738   3.161  10.290 -0.8125 -0.9948  1.8055
 2442SOL     OW18958   3.168   2.595   3.950  0.3124 -0.0635 -0.7458
 2442SOL    HW118959   3.123   2.512   3.937 -1.6288  0.8259  0.3041
 2442SOL    HW218960   3.231   2.582   3.879 -1.0185  5.8955 -3.0597
 2443SOL     OW18961   3.394   0.635   4.624  0.1624 -0.4795 -0.4255
 2443SOL    HW118962   3.488   0.635   4.644 -0.4391 -1.7435  2.5671
 2443SOL    HW218963   3.387   0.685   4.544 -1.4803 -0.1087 -0.0496
 2444SOL     OW18964   1.828   1.562   4.184  0.5704  0.0273 -0.3405
 2444SOL    HW118965   1.839   1.536   4.276 -2.1116  0.4965  0.1183
 2444SOL    HW218966   1.888   1.504   4.138  0.0194 -0.6747 -0.1770
 2445SOL     OW18967   1.236   2.915   4.128  0.6272  0.0686 -0.4698
 2445SOL    HW118968   1.167   2.980   4.140 -0.0704 -0.7778  0.0786
 2445SOL    HW218969   1.272   2.934   4.041  0.3677 -0.0716 -0.6050
 2446SOL     OW18970   1.496   0.025   5.395 -0.1772 -0.3208 -0.4625
 2446SOL    HW118971   1.425   0.081   5.426  0.2491 -0.1771  0.2751
 2446SOL    HW218972   1.531   4.722   5.474  0.1682  0.3632 -0.2587
 2447SOL     OW18973   4.267   2.131   3.270  0.1973 -0.0202 -0.1470
 2447SOL    HW118974   4.179   2.114   3.303  0.4960  1.2118  1.3323
 2447SOL    HW218975   4.293   2.198   3.333 -2.1868  1.2279 -0.4957
 2448SOL     OW18976   4.503   0.303   7.581  0.1207 -0.0453  0.6213
 2448SOL    HW118977   4.544   0.222   7.551 -0.8767 -0.6057  0.7575
 2448SOL    HW218978   4.434   0.269   7.639  0.5164  0.4327  1.3814
 2449SOL     OW18979   3.013   4.014   4.619 -0.5792  0.2852 -0.2577
 2449SOL    HW118980   2.932   4.055   4.650 -0.1611 -0.3871  1.7255
 2449SOL    HW218981   3.075   4.086   4.610  0.7132 -1.0282 -1.9690
 2450SOL     OW18982   4.669   3.652   7.479  0.1045 -0.0292  0.2654
 2450SOL    HW118983   4.730   3.581   7.498 -0.1598  0.3014  2.3249
 2450SOL    HW218984   4.595   3.591   7.484  0.6834 -0.7961 -0.4269
 2451SOL     OW18985   4.678   0.856  13.160 -0.9577 -0.2891  0.4079
 2451SOL    HW118986   4.723   0.845  13.076  1.3083  0.4636  1.5277
 2451SOL    HW218987   4.603   0.909  13.132 -1.6768 -1.4705  0.0954
 2452SOL     OW18988   4.256   2.807   5.273  1.0838  0.3000  0.8551
 2452SOL    HW118989   4.222   2.852   5.196  0.8958 -0.0106  0.7574
 2452SOL    HW218990   4.348   2.836   5.272  1.3237 -0.4741  0.5933
 2453SOL     OW18991   2.246   2.022   1.642 -0.2979  0.3559 -0.0957
 2453SOL    HW118992   2.310   1.967   1.687  0.1735  0.0140 -1.2045
 2453SOL    HW218993   2.233   1.968   1.565 -1.1335 -1.0162  1.0099
 2454SOL     OW18994   0.843   1.790   2.478  0.6779 -0.0274 -0.7474
 2454SOL    HW118995   0.780   1.763   2.411 -1.4430 -0.7240  1.5124
 2454SOL    HW218996   0.907   1.719   2.488  1.6561  0.5567 -3.0245
 2455SOL     OW18997   1.095   0.224   2.182  0.2348  0.1735  0.5040
 2455SOL    HW118998   1.039   0.272   2.121 -0.8363 -0.9348  0.6158
 2455SOL    HW218999   1.042   0.189   2.253 -1.5523 -1.9338 -1.8459
 2456SOL     OW19000   1.734   3.011   2.627 -0.1159  0.0814 -0.1792
 2456SOL    HW119001   1.691   2.974   2.704  1.2355  0.8831  0.9570
 2456SOL    HW219002   1.688   2.971   2.553 -1.1583  1.3977 -0.2362
 2457SOL     OW19003   1.838   4.616  15.614 -0.0217  1.0656  0.4358
 2457SOL    HW119004   1.930   4.608  15.639  0.1360  2.9710  0.4594
 2457SOL    HW219005   1.818   4.657  15.698 -1.7889 -0.2202  0.6465
 2458SOL     OW19006   3.585   3.356   3.513  0.0385 -0.1407 -0.1115
 2458SOL    HW119007   3.490   3.361   3.503 -0.1032 -0.9214  0.9361
 2458SOL    HW219008   3.615   3.312   3.433  0.7094  1.0351 -0.5135
 2459SOL     OW19009   2.887   4.050  15.205 -0.4728  0.2009 -0.0287
 2459SOL    HW119010   2.838   4.003  15.272 -1.3101  0.4733 -0.4486
 2459SOL    HW219011   2.975   4.013  15.200 -1.0158 -1.1060  0.1541
 2460SOL     OW19012   2.775   4.375  12.276  0.5471  0.6643  0.6849
 2460SOL    HW119013   2.825   4.455  12.296  2.1565 -0.5637  1.6650
 2460SOL    HW219014   2.691   4.394  12.317  0.1013 -0.9544  0.4987
 2461SOL     OW19015   4.337   3.084   8.203  0.5532 -1.4698 -0.6220
 2461SOL    HW119016   4.329   3.022   8.275  0.5310 -1.6520 -0.7845
 2461SOL    HW219017   4.421   3.064   8.161  0.5451 -0.3715 -1.1682
 2462SOL     OW19018   1.751   1.246   3.894 -0.2334  0.1528 -0.0587
 2462SOL    HW119019   1.713   1.252   3.807 -5.2778  0.3401  2.1395
 2462SOL    HW219020   1.747   1.151   3.899 -0.0773  0.1394 -0.2362
 2463SOL     OW19021   3.122   2.993   6.209 -0.2318  0.5460 -0.3981
 2463SOL    HW119022   3.133   2.922   6.272 -2.7917  0.3778 -0.1445
 2463SOL    HW219023   3.155   2.951   6.130  0.6704  0.9061 -0.2169
 2464SOL     OW19024   0.435   3.989  12.192  0.7659 -0.1798 -0.6324
 2464SOL    HW119025   0.341   3.992  12.172  0.7325  2.7481 -0.0718
 2464SOL    HW219026   0.436   3.935  12.271 -0.2761 -1.3133 -1.3862
 2465SOL     OW19027   3.826   2.705   4.251  0.3747  0.6245 -0.0268
 2465SOL    HW119028   3.850   2.793   4.223 -0.5047  1.1477  0.8817
 2465SOL    HW219029   3.907   2.677   4.295 -0.9899 -3.3743 -0.0525
 2466SOL     OW19030   3.920   4.081   2.707  0.0903 -0.0040  0.0368
 2466SOL    HW119031   3.961   4.167   2.714  0.6777 -0.0892 -2.3713
 2466SOL    HW219032   3.921   4.061   2.801 -0.8363 -0.4084 -0.0394
 2467SOL     OW19033   1.658   4.017   8.850  0.8957  0.4730 -0.4713
 2467SOL    HW119034   1.582   4.028   8.908  0.3995 -1.4598 -0.7795
 2467SOL    HW219035   1.619   3.999   8.765 -2.5548  0.4423  1.1196
 2468SOL     OW19036   2.298   1.948   7.360 -0.5539  0.2587 -0.4225
 2468SOL    HW119037   2.319   1.953   7.266  2.4101  1.2626  0.2771
 2468SOL    HW219038   2.387   1.958   7.396  0.4739  0.0396 -2.8786
 2469SOL     OW19039   1.064   3.801   7.017 -0.0920  0.0420 -0.2462
 2469SOL    HW119040   1.072   3.717   6.971  1.1556  0.4112 -0.7058
 2469SOL    HW219041   0.968   3.811   7.019 -0.2816 -1.9751  0.6735
 2470SOL     OW19042   1.954   0.054   6.154  0.6816 -0.5238 -0.5918
 2470SOL    HW119043   1.885   4.731   6.180  1.0624 -0.7277 -0.0605
 2470SOL    HW219044   1.909   0.138   6.162 -0.7466 -1.4452  1.0815
 2471SOL     OW19045   0.485   2.333  16.996  0.1095  0.3980  0.5113
 2471SOL    HW119046   0.457   2.250  16.957 -0.0792  1.6720 -2.0333
 2471SOL    HW219047   0.535   2.362  16.920  1.9027 -2.3450  0.6448
 2472SOL     OW19048   2.732   1.423   1.897 -0.3224  0.1196  0.0942
 2472SOL    HW119049   2.753   1.361   1.967 -0.8217 -1.6952 -1.3685
 2472SOL    HW219050   2.699   1.364   1.829  0.8271 -0.8161  0.3532
 2473SOL     OW19051   3.143   3.279   4.470  0.0311  0.1427 -0.4900
 2473SOL    HW119052   3.214   3.291   4.533  1.2455 -1.2234 -1.5930
 2473SOL    HW219053   3.103   3.366   4.480 -1.7517 -0.4501 -2.6014
 2474SOL     OW19054   2.144   4.448   7.313 -0.5810  0.5441  0.3244
 2474SOL    HW119055   2.229   4.483   7.339 -0.6127  1.1981 -0.4747
 2474SOL    HW219056   2.152   4.452   7.218  1.7011  1.2501  0.5635
 2475SOL     OW19057   4.333   1.285  16.861 -0.2632  0.2376 -0.1599
 2475SOL    HW119058   4.423   1.273  16.891  0.8301  0.3228 -3.4944
 2475SOL    HW219059   4.324   1.340  16.784 -0.4990  1.5957  0.8383
 2476SOL     OW19060   3.361   3.724  11.648  0.1113 -0.3495 -0.3476
 2476SOL    HW119061   3.301   3.798  11.649 -0.8485 -1.1215 -0.6671
 2476SOL    HW219062   3.393   3.726  11.738  0.0854  1.9149 -0.3873
 2477SOL     OW19063   4.322   0.516  14.137  0.6579 -0.6282 -0.5745
 2477SOL    HW119064   4.234   0.521  14.173  1.1328  0.6432  0.3958
 2477SOL    HW219065   4.324   0.424  14.109 -1.8612 -1.2821  1.3535
 2478SOL     OW19066   0.778   3.616   4.822  0.4837  0.6475  0.7048
 2478SOL    HW119067   0.812   3.642   4.908  0.0158  0.6091  0.8978
 2478SOL    HW219068   0.727   3.537   4.842  0.3222  0.2655 -1.1757
 2479SOL     OW19069   4.405   4.178   8.308 -0.1148 -0.5022 -0.4596
 2479SOL    HW119070   4.430   4.115   8.376  1.1282 -0.1250 -0.5684
 2479SOL    HW219071   4.310   4.184   8.320  0.0604 -1.1529  1.3536
 2480SOL     OW19072   2.125   4.625   5.416 -0.8065  0.5040 -0.4118
 2480SOL    HW119073   2.092   4.690   5.478  1.6014  0.4893  0.8936
 2480SOL    HW219074   2.059   4.555   5.418 -0.4503  0.1520 -0.9221
 2481SOL     OW19075   4.265   4.664   9.027 -0.0607  0.1044  0.0218
 2481SOL    HW119076   4.285   4.718   9.104 -0.8426  1.0684 -0.4501
 2481SOL    HW219077   4.321   4.587   9.037 -0.2123 -0.1755 -1.3607
 2482SOL     OW19078   4.679   1.051   6.520 -0.3225  0.3867  0.9740
 2482SOL    HW119079   4.587   1.074   6.529 -0.3762 -0.2061  2.0160
 2482SOL    HW219080   4.712   1.130   6.477  0.7344 -1.7393 -2.1227
 2483SOL     OW19081   0.552   4.438   6.368  0.2680  0.5705  0.2863
 2483SOL    HW119082   0.464   4.400   6.370  1.0251 -1.2709 -1.7411
 2483SOL    HW219083   0.549   4.520   6.318  0.6299 -0.4871 -1.4544
 2484SOL     OW19084   1.036   4.538  10.444 -0.0065  0.5935  0.0751
 2484SOL    HW119085   0.946   4.508  10.429 -1.2494  2.9247  2.8330
 2484SOL    HW219086   1.030   4.622  10.490  2.6601  0.4497  0.7004
 2485SOL     OW19087   0.101   2.953   6.034 -0.3816 -0.8211 -0.0461
 2485SOL    HW119088   0.016   2.909   6.021 -1.5880  1.6642 -0.4862
 2485SOL    HW219089   0.157   2.907   5.972 -0.0077 -0.6996  0.2053
 2486SOL     OW19090   0.726   3.681   5.064 -0.6968  0.4877  0.0971
 2486SOL    HW119091   0.748   3.773   5.075 -1.8691  0.9368 -1.3571
 2486SOL    HW219092   0.751   3.654   5.152 -0.6817 -0.5691 -0.2204
 2487SOL     OW19093   3.326   1.117   0.773  0.5058 -0.1723 -0.0066
 2487SOL    HW119094   3.240   1.126   0.732  0.7237 -1.5500 -0.7727
 2487SOL    HW219095   3.307   1.159   0.856 -1.3600 -0.0381 -0.5001
 2488SOL     OW19096   2.966   0.714   7.844  0.4307 -0.0093  0.3341
 2488SOL    HW119097   2.971   0.630   7.797  0.9617 -0.1494  0.6439
 2488SOL    HW219098   2.923   0.693   7.927  0.7004 -0.3149  0.4010
 2489SOL     OW19099   0.128   3.889  10.136 -0.7177 -0.1513  0.6786
 2489SOL    HW119100   0.204   3.944  10.156  1.1799 -2.6433  0.3429
 2489SOL    HW219101   0.100   3.902  10.045  0.6886  0.5906  0.3544
 2490SOL     OW19102   3.198   3.355   5.122  0.2051 -0.4640  0.2614
 2490SOL    HW119103   3.240   3.285   5.172 -0.4976 -0.9275  0.1951
 2490SOL    HW219104   3.170   3.413   5.193  1.8591 -0.5444  0.9918
 2491SOL     OW19105   4.187   2.016  16.129 -0.4372  0.1774  0.0838
 2491SOL    HW119106   4.154   2.106  16.126 -0.1750  0.2904  0.5910
 2491SOL    HW219107   4.254   2.029  16.062 -1.2568 -0.8276 -0.9337
 2492SOL     OW19108   2.362   0.641   9.955  0.4238  0.0118  0.4035
 2492SOL    HW119109   2.425   0.588   9.907  0.1198 -0.1093  0.1351
 2492SOL    HW219110   2.364   0.730   9.921  1.5123  0.4085  1.5263
 2493SOL     OW19111   4.224   2.217   5.578  0.2910 -0.3465  0.1747
 2493SOL    HW119112   4.138   2.235   5.541  2.4101  1.0324 -4.1312
 2493SOL    HW219113   4.264   2.180   5.499  0.5373 -2.3827  1.2508
 2494SOL     OW19114   1.728   4.601   6.465  0.1206  0.3677  0.1290
 2494SOL    HW119115   1.643   4.640   6.488  0.1531  1.0636 -0.9590
 2494SOL    HW219116   1.713   4.515   6.505 -1.2222  0.3952 -0.3217
 2495SOL     OW19117   1.800   0.623   6.481  0.3100  0.6757  0.1831
 2495SOL    HW119118   1.712   0.609   6.445 -0.0098 -1.8635  1.9246
 2495SOL    HW219119   1.827   0.532   6.493 -2.6281 -0.1381  0.8172
 2496SOL     OW19120   3.331   3.919  15.421  0.0515 -0.3546 -0.5926
 2496SOL    HW119121   3.349   3.847  15.481  1.8477 -0.2363 -0.9811
 2496SOL    HW219122   3.379   3.897  15.341  0.9720  0.1274 -0.1632
 2497SOL     OW19123   4.516   3.513   3.308  0.1054  0.3118 -0.0399
 2497SOL    HW119124   4.464   3.482   3.233 -0.6299 -0.3155  0.7363
 2497SOL    HW219125   4.581   3.568   3.264  1.8786  0.5628  2.9190
 2498SOL     OW19126   2.804   1.533   7.157  0.3166 -0.2841 -0.3384
 2498SOL    HW119127   2.892   1.503   7.135  0.0912  0.0086 -1.6792
 2498SOL    HW219128   2.787   1.493   7.242 -0.2272 -1.2439 -0.8914
 2499SOL     OW19129   2.708   3.775   4.027 -0.0446  0.0336 -0.1296
 2499SOL    HW119130   2.710   3.868   4.049 -0.2856  0.2500 -1.0422
 2499SOL    HW219131   2.690   3.737   4.113 -2.8896  0.9767 -0.3302
 2500SOL     OW19132   1.610   3.558  17.618  0.2727  0.4688 -0.2922
 2500SOL    HW119133   1.529   3.597  17.652  0.4359  1.0501 -0.5741
 2500SOL    HW219134   1.639   3.501  17.689  1.3993  0.7387 -0.5352
 2501SOL     OW19135   0.815   4.602   2.250 -0.0290 -0.2159 -0.1397
 2501SOL    HW119136   0.735   4.631   2.294 -0.2234  0.7322 -1.0931
 2501SOL    HW219137   0.880   4.654   2.298 -0.7324  0.8338 -0.3266
 2502SOL     OW19138   2.313   1.320  11.335 -0.2553  0.0505  0.1423
 2502SOL    HW119139   2.341   1.393  11.280  0.8740  0.0371  0.6922
 2502SOL    HW219140   2.381   1.318  11.402 -1.8774 -1.4210  1.7743
 2503SOL     OW19141   0.234   3.452   8.198  0.0920 -0.3816  0.1983
 2503SOL    HW119142   0.195   3.374   8.157 -1.1124  1.3458 -1.9655
 2503SOL    HW219143   0.218   3.517   8.129 -0.2637 -1.9798 -1.2364
 2504SOL     OW19144   0.229   4.258   3.231  0.3419 -0.9022 -0.0755
 2504SOL    HW119145   0.255   4.176   3.272  2.3172 -0.6324 -0.7853
 2504SOL    HW219146   0.163   4.285   3.295  0.7101 -0.6360  0.1947
 2505SOL     OW19147   1.362   0.911   2.768 -0.0024  0.5192 -0.3306
 2505SOL    HW119148   1.438   0.956   2.731  1.6333 -2.6623 -0.8961
 2505SOL    HW219149   1.359   0.936   2.860 -0.5596 -2.1035  0.3902
 2506SOL     OW19150   1.917   4.032  13.654  0.2606  0.5151  0.3418
 2506SOL    HW119151   1.947   4.004  13.740 -2.4414  0.6293  1.2919
 2506SOL    HW219152   1.945   3.956  13.603 -1.7326  1.0190 -1.4729
 2507SOL     OW19153   0.366   2.171   2.912  0.0037 -0.0947 -0.2246
 2507SOL    HW119154   0.341   2.243   2.855  2.4584 -0.0344 -1.2228
 2507SOL    HW219155   0.462   2.174   2.916 -0.0672  0.2922  1.3515
 2508SOL     OW19156   3.449   1.854   4.722 -0.7403  0.1607  0.1209
 2508SOL    HW119157   3.404   1.906   4.656 -1.6602  0.6942  1.1631
 2508SOL    HW219158   3.543   1.870   4.726 -0.5917 -0.6933  0.0249
 2509SOL     OW19159   1.671   2.158   7.482 -0.3071 -0.2825 -0.5869
 2509SOL    HW119160   1.637   2.237   7.526  0.6699  1.5703 -3.2072
 2509SOL    HW219161   1.701   2.107   7.558  0.5479 -1.6369 -1.8489
 2510SOL     OW19162   3.058   4.020   0.863  0.3966  0.5496  0.1516
 2510SOL    HW119163   3.083   4.110   0.882  2.5389  0.5031 -2.4985
 2510SOL    HW219164   3.142   3.983   0.889  0.4739  1.7229  1.5262
 2511SOL     OW19165   0.673   0.039  12.583  0.1162 -0.4334  0.3866
 2511SOL    HW119166   0.599   0.019  12.526  0.6986  1.2041 -0.9449
 2511SOL    HW219167   0.646   0.117  12.631 -2.3811 -0.2186 -1.3977
 2512SOL     OW19168   0.290   1.777   9.723 -0.1799  0.5170  0.4501
 2512SOL    HW119169   0.262   1.813   9.807 -0.3006  0.1145  0.5802
 2512SOL    HW219170   0.250   1.839   9.662  1.2864  0.1749 -0.8548
 2513SOL     OW19171   3.526   4.496   5.356  0.0467  0.1442  0.0214
 2513SOL    HW119172   3.454   4.560   5.355 -1.5409 -1.6895 -1.8768
 2513SOL    HW219173   3.498   4.434   5.289  0.7331  0.9512 -0.9949
 2514SOL     OW19174   2.397   4.311  11.045  0.2045 -0.0968  0.0319
 2514SOL    HW119175   2.333   4.299  10.975 -0.8260  0.9180  0.7863
 2514SOL    HW219176   2.373   4.238  11.103  0.1836  0.1670  0.3528
 2515SOL     OW19177   3.655   3.161   1.048 -0.2834  0.4970  0.0555
 2515SOL    HW119178   3.653   3.087   0.988  1.4178  1.0790 -0.7274
 2515SOL    HW219179   3.700   3.121   1.123  0.3084 -0.0998 -0.6254
 2516SOL     OW19180   3.118   2.625   6.238 -0.3166 -0.0026 -0.1304
 2516SOL    HW119181   3.076   2.539   6.240 -0.3635  0.0061 -0.8936
 2516SOL    HW219182   3.203   2.607   6.198 -0.9425 -0.0389 -1.4298
 2517SOL     OW19183   0.492   4.338   5.338 -0.2516  0.2644  0.7063
 2517SOL    HW119184   0.560   4.290   5.291 -0.8357  0.0352  0.0916
 2517SOL    HW219185   0.537   4.420   5.359 -2.3079  0.6976  3.3332
 2518SOL     OW19186   3.912   1.089   7.481 -0.5479 -0.1611  0.2618
 2518SOL    HW119187   3.968   1.023   7.441  1.4547  2.4646 -1.3042
 2518SOL    HW219188   3.837   1.033   7.502 -1.4923  1.0107  0.0388
 2519SOL     OW19189   4.609   3.254   1.939 -0.4115 -0.2234  0.0313
 2519SOL    HW119190   4.579   3.345   1.935 -2.1909 -0.8519 -1.1850
 2519SOL    HW219191   4.697   3.264   1.975 -0.6863  1.0291  0.3535
 2520SOL     OW19192   1.981   2.554   7.347  0.2518 -0.3720  0.5746
 2520SOL    HW119193   1.949   2.504   7.423 -0.1700  0.3844  0.8968
 2520SOL    HW219194   2.073   2.529   7.338  0.3316  0.0004  0.3722
 2521SOL     OW19195   3.769   4.171   5.020  0.0627  0.2914 -0.2920
 2521SOL    HW119196   3.694   4.185   4.962  0.3843 -1.1237 -1.0284
 2521SOL    HW219197   3.785   4.259   5.056 -0.1857  0.2962 -0.1959
 2522SOL     OW19198   3.767   1.614   8.164 -0.1112  0.7195  0.1882
 2522SOL    HW119199   3.679   1.586   8.137 -1.0230  2.8293  0.9310
 2522SOL    HW219200   3.764   1.606   8.260 -0.6859  0.9330  0.1901
 2523SOL     OW19201   4.378   0.303  13.509 -0.5719  0.4785 -0.4063
 2523SOL    HW119202   4.382   0.294  13.414 -0.0208 -3.2071 -0.0287
 2523SOL    HW219203   4.355   0.396  13.513 -0.9026  0.3743  0.0445
 2524SOL     OW19204   1.018   1.421   7.207 -0.2502  0.0932  0.2332
 2524SOL    HW119205   1.080   1.387   7.272 -1.1825 -2.0409  0.0138
 2524SOL    HW219206   0.957   1.347   7.207  0.7136 -0.7164 -2.0226
 2525SOL     OW19207   3.059   1.616   3.957  0.1020 -0.4075 -0.1445
 2525SOL    HW119208   2.976   1.592   3.915  0.5170  1.0324 -1.7998
 2525SOL    HW219209   3.035   1.696   4.003 -2.2956 -0.0579 -1.9771
 2526SOL     OW19210   3.946   0.042   6.261  0.3564 -0.0812 -0.1794
 2526SOL    HW119211   3.944   4.724   6.183  0.7036  0.2790 -0.4444
 2526SOL    HW219212   4.024   0.097   6.250  1.0003 -0.9825 -0.1105
 2527SOL     OW19213   2.389   1.634   7.801 -0.3579 -0.2529  0.3723
 2527SOL    HW119214   2.375   1.729   7.793  3.4994  0.3723  0.9310
 2527SOL    HW219215   2.434   1.619   7.718  0.0588 -1.2457  0.7868
 2528SOL     OW19216   0.816   2.563   8.195 -0.3268 -0.1940  0.3895
 2528SOL    HW119217   0.901   2.604   8.180 -0.8258  1.1901  1.2426
 2528SOL    HW219218   0.803   2.519   8.111 -1.6027  0.7584  0.0923
 2529SOL     OW19219   2.560   1.010   6.107  0.0356  0.2093 -0.2521
 2529SOL    HW119220   2.575   0.972   6.194 -1.6922  0.3708  0.1199
 2529SOL    HW219221   2.581   1.097   6.140  1.2876  1.1185 -3.4660
 2530SOL     OW19222   2.709   3.457   7.148 -0.5596  0.1818  0.5472
 2530SOL    HW119223   2.670   3.369   7.155 -0.5253  0.2034  0.9771
 2530SOL    HW219224   2.724   3.469   7.241 -0.9633 -2.5551  0.9656
 2531SOL     OW19225   0.887   4.534   6.397  0.4561  0.2685 -0.0634
 2531SOL    HW119226   0.884   4.605   6.333 -2.0649 -0.2146 -0.4927
 2531SOL    HW219227   0.825   4.576   6.456 -1.2235 -1.6004 -0.4931
 2532SOL     OW19228   0.036   4.368   8.176  0.7018  0.2715  0.3735
 2532SOL    HW119229   0.118   4.356   8.128  0.1549  0.2145 -0.5463
 2532SOL    HW219230   0.060   4.319   8.255  0.7451  0.7376  0.6525
 2533SOL     OW19231   2.835   3.445   8.944  0.4533  0.0835 -0.9448
 2533SOL    HW119232   2.912   3.479   8.989 -0.9402  0.3971  1.2275
 2533SOL    HW219233   2.770   3.514   8.957  1.1914  1.3619 -4.1776
 2534SOL     OW19234   1.198   4.002   2.531 -0.0626  0.5740 -0.0047
 2534SOL    HW119235   1.225   4.055   2.606  2.3898 -2.7926  1.5137
 2534SOL    HW219236   1.104   3.985   2.530  0.2039 -0.8909 -0.5088
 2535SOL     OW19237   4.704   1.589   6.288 -0.2038 -0.2795 -0.3180
 2535SOL    HW119238   4.693   1.658   6.353  0.8615 -2.3082  1.9879
 2535SOL    HW219239   4.656   1.517   6.330 -0.8027  0.3550  0.0819
 2536SOL     OW19240   3.088   0.089  11.526  0.0237  0.3349  0.6899
 2536SOL    HW119241   3.070   0.171  11.571 -2.2359 -0.2372  0.8807
 2536SOL    HW219242   3.154   0.116  11.463 -0.3259  1.9918  1.0421
 2537SOL     OW19243   0.752   4.005   8.665 -0.6858  0.0455 -0.3353
 2537SOL    HW119244   0.796   4.032   8.585 -1.0766 -1.8572 -1.1861
 2537SOL    HW219245   0.759   3.910   8.663  0.3207  0.0305  3.0467
 2538SOL     OW19246   1.093   1.357   6.293 -0.3475  0.8213 -0.0695
 2538SOL    HW119247   1.050   1.442   6.306 -1.8622  0.2083 -1.0512
 2538SOL    HW219248   1.171   1.397   6.255 -0.1249  0.1683 -0.2924
 2539SOL     OW19249   3.147   3.185   7.242  0.3238  0.3913 -0.4031
 2539SOL    HW119250   3.146   3.104   7.191  1.6584 -0.6591  1.2951
 2539SOL    HW219251   3.066   3.177   7.292  0.0034 -0.7449 -1.1053
 2540SOL     OW19252   2.634   1.720   9.901  0.3510  0.4049 -0.6069
 2540SOL    HW119253   2.597   1.713   9.813 -0.7553 -1.3854 -0.0253
 2540SOL    HW219254   2.581   1.657   9.951 -3.6045  3.0490 -1.4654
 2541SOL     OW19255   4.403   1.276   4.766 -0.2617 -0.1622  0.4392
 2541SOL    HW119256   4.337   1.268   4.698  0.7790  0.8399 -0.6812
 2541SOL    HW219257   4.374   1.206   4.825  1.1326 -0.5240  0.7010
 2542SOL     OW19258   0.932   3.014  14.159  0.6788  0.7321 -0.3051
 2542SOL    HW119259   0.937   3.050  14.071  0.8133 -0.6849 -0.8861
 2542SOL    HW219260   0.840   3.015  14.187  0.0841 -1.9479 -2.1546
 2543SOL     OW19261   1.066   3.703  13.087 -0.4043 -0.1667 -0.1506
 2543SOL    HW119262   1.021   3.735  13.009  0.8225 -1.3499 -1.3470
 2543SOL    HW219263   1.089   3.616  13.055 -0.1706 -0.8217  1.7582
 2544SOL     OW19264   0.911   4.631   7.216  0.2178 -0.0296 -0.4299
 2544SOL    HW119265   1.000   4.625   7.252  0.2940 -0.8509 -0.7407
 2544SOL    HW219266   0.860   4.691   7.271  0.1061 -0.3458 -0.1867
 2545SOL     OW19267   0.728   0.449   1.651 -0.0395  0.3631 -0.3798
 2545SOL    HW119268   0.748   0.539   1.625  2.7198 -0.3195 -0.6397
 2545SOL    HW219269   0.692   0.458   1.739  0.4123  0.5861 -0.2213
 2546SOL     OW19270   4.020   4.428  10.586 -0.2391  0.0465  0.1962
 2546SOL    HW119271   4.023   4.342  10.544 -0.3754  0.4582 -0.6479
 2546SOL    HW219272   3.927   4.444  10.604 -0.7203 -3.5356  1.1065
 2547SOL     OW19273   1.321   1.249   4.390  0.2770  0.0109 -0.7621
 2547SOL    HW119274   1.314   1.323   4.330  0.0403  0.4574 -0.1827
 2547SOL    HW219275   1.391   1.281   4.447 -1.4581 -1.2856  2.0859
 2548SOL     OW19276   2.827   1.046   9.566  0.1565 -1.0234  0.4603
 2548SOL    HW119277   2.897   0.981   9.560  1.0477 -0.0785  0.7315
 2548SOL    HW219278   2.857   1.106   9.634 -0.8288  0.1027 -0.0987
 2549SOL     OW19279   0.993   4.504   4.594 -0.8119  0.1448 -0.4739
 2549SOL    HW119280   0.981   4.410   4.612  2.7144 -0.0653  0.9460
 2549SOL    HW219281   1.063   4.529   4.654 -0.3748  0.4045 -1.0989
 2550SOL     OW19282   1.502   2.232   6.234  0.4335  0.1148  0.0138
 2550SOL    HW119283   1.481   2.246   6.326 -1.9871  2.3751 -0.8610
 2550SOL    HW219284   1.446   2.302   6.201  0.0099 -0.5680 -0.7302
 2551SOL     OW19285   1.307   4.545   4.219  0.4907  0.1814 -0.1177
 2551SOL    HW119286   1.272   4.490   4.150 -2.1879 -0.4938  1.7830
 2551SOL    HW219287   1.391   4.500   4.228  1.8553  2.6366 -0.4907
 2552SOL     OW19288   3.133   4.180   9.628  0.2821  0.1545  0.0964
 2552SOL    HW119289   3.126   4.264   9.581  1.3861 -0.1514 -0.6089
 2552SOL    HW219290   3.055   4.181   9.684  1.3485 -2.1379  1.6071
 2553SOL     OW19291   1.446   0.197  15.538  0.2508 -0.1635  0.0459
 2553SOL    HW119292   1.512   0.128  15.551 -0.0154  0.0066  2.2244
 2553SOL    HW219293   1.472   0.264  15.601  1.2991 -1.3664  0.9034
 2554SOL     OW19294   2.995   3.739   9.600  0.2878 -0.6258 -0.6981
 2554SOL    HW119295   2.985   3.667   9.538  0.2650 -1.3108  0.1195
 2554SOL    HW219296   2.964   3.698   9.680  0.3557 -1.3262 -1.0320
 2555SOL     OW19297   0.096   2.221   3.762 -0.6182 -0.2757 -0.2410
 2555SOL    HW119298   0.011   2.251   3.731 -0.0909 -0.2840 -1.7183
 2555SOL    HW219299   0.141   2.193   3.681 -2.1635 -0.1013 -1.1527
 2556SOL     OW19300   3.416   0.389   7.390 -0.3124 -0.2179  0.3049
 2556SOL    HW119301   3.418   0.430   7.477  1.6651 -0.9550  0.6008
 2556SOL    HW219302   3.406   0.296   7.408 -0.9722 -0.7831 -3.0250
 2557SOL     OW19303   3.095   4.074   6.981 -0.4729 -0.0857  0.4037
 2557SOL    HW119304   3.160   4.143   6.990 -0.5195  0.0120 -0.0260
 2557SOL    HW219305   3.075   4.059   7.074  3.9309  1.3444  1.5686
 2558SOL     OW19306   4.188   4.275   4.067  0.1956 -0.0267 -0.2321
 2558SOL    HW119307   4.105   4.305   4.030 -1.1521 -3.8547 -0.3550
 2558SOL    HW219308   4.233   4.358   4.079 -0.2251  0.2360 -0.4568
 2559SOL     OW19309   2.399   3.987   5.706  0.0967 -0.1782 -0.1324
 2559SOL    HW119310   2.382   3.933   5.783  2.0133 -1.0136 -0.3072
 2559SOL    HW219311   2.469   4.043   5.739 -1.1373  0.3062  1.6089
 2560SOL     OW19312   2.782   1.099   5.763  0.2954  0.4725  0.4008
 2560SOL    HW119313   2.759   1.187   5.794 -0.1472 -0.0521  1.5781
 2560SOL    HW219314   2.743   1.103   5.676 -1.3596 -1.3851  1.0503
 2561SOL     OW19315   0.012   2.534   4.754  0.1286 -0.7064 -0.3786
 2561SOL    HW119316   0.009   2.610   4.813  0.1900 -1.9970  1.2910
 2561SOL    HW219317   4.658   2.524   4.728  1.4230 -0.7926 -4.7292
 2562SOL     OW19318   3.312   1.388  11.613 -0.1189 -0.2793 -0.0327
 2562SOL    HW119319   3.407   1.386  11.600  0.3988 -1.6367  3.9228
 2562SOL    HW219320   3.309   1.302  11.655  1.3585 -0.7563 -0.8947
 2563SOL     OW19321   1.677   1.409   4.380  0.4352 -0.2652  0.5091
 2563SOL    HW119322   1.675   1.369   4.467  0.4055 -0.4125  0.4402
 2563SOL    HW219323   1.632   1.349   4.321  2.0752 -1.4093  0.4381
 2564SOL     OW19324   0.569   1.180  13.403  0.2399 -0.0130 -0.1792
 2564SOL    HW119325   0.662   1.192  13.383  0.4233 -1.3342 -0.1188
 2564SOL    HW219326   0.561   1.093  13.362  4.0976 -0.7304  0.5938
 2565SOL     OW19327   3.838   2.652  14.935  0.0901  0.4881 -0.2010
 2565SOL    HW119328   3.887   2.729  14.906 -1.1030  0.8550 -1.2711
 2565SOL    HW219329   3.768   2.704  14.975  0.8551  1.1931  0.2243
 2566SOL     OW19330   0.915   1.563   6.960  0.0531 -0.0702 -0.3794
 2566SOL    HW119331   0.882   1.636   7.012 -0.3161  0.6532 -1.6429
 2566SOL    HW219332   0.965   1.520   7.030  0.3067 -0.0089 -0.5203
 2567SOL     OW19333   4.308   3.390   8.420 -0.1553 -0.8403 -0.3897
 2567SOL    HW119334   4.258   3.317   8.384 -1.1047  0.9038 -2.6303
 2567SOL    HW219335   4.259   3.455   8.369  2.2040 -0.0986 -1.7493
 2568SOL     OW19336   2.521   1.368  16.206 -0.6653 -0.8051  0.4556
 2568SOL    HW119337   2.606   1.394  16.171 -1.3132  0.6462 -0.0466
 2568SOL    HW219338   2.491   1.318  16.130  0.2156 -0.3690 -0.1829
 2569SOL     OW19339   3.214   1.175   7.817  0.0658 -0.5162  0.1905
 2569SOL    HW119340   3.170   1.205   7.737 -2.0735  0.7779  1.8597
 2569SOL    HW219341   3.142   1.163   7.879 -0.4750  1.2235 -0.0858
 2570SOL     OW19342   1.592   1.863   5.478  0.4668  0.0875 -0.5281
 2570SOL    HW119343   1.581   1.936   5.417 -0.3394  1.6012  1.4218
 2570SOL    HW219344   1.667   1.890   5.532  0.0467  1.9897 -0.9040
 2571SOL     OW19345   1.595   0.154   4.444 -0.5280 -0.6275 -0.4131
 2571SOL    HW119346   1.607   0.143   4.538 -2.3884  0.1869 -0.0829
 2571SOL    HW219347   1.578   0.248   4.436  0.2565 -0.3430  1.2714
 2572SOL     OW19348   2.977   1.861   1.734  0.0455  0.0123  0.0813
 2572SOL    HW119349   3.014   1.933   1.683 -1.3374  2.0601  1.9894
 2572SOL    HW219350   3.042   1.859   1.804  0.8098 -2.8972 -0.7018
 2573SOL     OW19351   0.542   4.414   5.917  0.0915 -0.1755 -0.1120
 2573SOL    HW119352   0.488   4.448   5.846  0.7053  1.9639  0.4447
 2573SOL    HW219353   0.485   4.397   5.992  1.1425  0.1476  0.7474
 2574SOL     OW19354   2.090   2.330  16.755  0.4693 -0.0650  0.1863
 2574SOL    HW119355   2.159   2.325  16.689 -1.8745 -0.3621 -2.2510
 2574SOL    HW219356   2.134   2.386  16.818  2.9832 -1.6587 -0.1388
 2575SOL     OW19357   3.059   0.928   3.180  0.3732 -0.0190  0.4712
 2575SOL    HW119358   3.137   0.879   3.209 -2.2013 -2.2180  3.6682
 2575SOL    HW219359   3.089   1.017   3.164  0.6646 -0.3274 -0.7606
 2576SOL     OW19360   0.871   0.219   0.540 -0.1610  0.5636 -0.1686
 2576SOL    HW119361   0.863   0.295   0.483  0.4495 -0.4736 -1.6321
 2576SOL    HW219362   0.902   0.152   0.479  0.1550 -0.1135  0.7417
 2577SOL     OW19363   2.963   2.142  13.703 -0.3786  0.2717  0.1914
 2577SOL    HW119364   3.050   2.172  13.674 -0.8721  3.0863  1.5858
 2577SOL    HW219365   2.956   2.191  13.785  2.5438 -0.2047  0.7079
 2578SOL     OW19366   1.357   0.452   5.473  0.7295 -0.3884 -0.1082
 2578SOL    HW119367   1.347   0.358   5.456 -1.3767 -0.7202  2.8515
 2578SOL    HW219368   1.295   0.478   5.405  0.8496  0.3458  0.0563
 2579SOL     OW19369   2.335   1.012   1.427 -0.2325 -0.3780 -0.2205
 2579SOL    HW119370   2.253   1.021   1.476  0.2515  0.6637  0.3919
 2579SOL    HW219371   2.316   0.954   1.353  2.3007  2.2768 -2.9451
 2580SOL     OW19372   2.113   1.729  15.122  0.2808 -0.1864  0.3563
 2580SOL    HW119373   2.176   1.663  15.091 -1.0016 -0.7610 -0.9886
 2580SOL    HW219374   2.099   1.765  15.035  0.9480 -1.6407 -0.3511
 2581SOL     OW19375   4.024   3.134   2.926 -0.3990  0.4676  0.1225
 2581SOL    HW119376   4.013   3.069   2.996 -1.7324 -0.4491 -0.9496
 2581SOL    HW219377   4.007   3.215   2.975 -0.6390  1.0213 -0.8855
 2582SOL     OW19378   0.380   2.962   3.219  0.5562  0.2100 -0.3730
 2582SOL    HW119379   0.449   3.000   3.273 -0.5755  1.4628  0.2031
 2582SOL    HW219380   0.312   2.962   3.287 -0.7927 -1.9863 -1.7459
 2583SOL     OW19381   3.346   0.526   4.186 -0.0592  0.0270  0.7487
 2583SOL    HW119382   3.297   0.508   4.106  2.0653 -2.4055  0.0088
 2583SOL    HW219383   3.276   0.506   4.249 -1.7584 -1.7942 -1.7162
 2584SOL     OW19384   3.327   2.571   0.074  0.3171 -0.1789 -0.1687
 2584SOL    HW119385   3.312   2.637   0.141 -0.8731  0.2421 -0.8496
 2584SOL    HW219386   3.268   2.503   0.107 -0.1863  0.6570  0.6332
 2585SOL     OW19387   1.966   3.507   7.219 -0.1659  0.2860  0.0326
 2585SOL    HW119388   1.897   3.495   7.154 -1.2249 -2.3124  1.6277
 2585SOL    HW219389   2.029   3.566   7.177  1.1762 -1.7524 -0.7904
 2586SOL     OW19390   2.505   3.958   6.498  0.4153  0.0620  0.1204
 2586SOL    HW119391   2.542   3.877   6.462 -0.1902 -0.7302  1.2953
 2586SOL    HW219392   2.428   3.961   6.442 -0.0353  1.9099  0.8435
 2587SOL     OW19393   1.760   2.467  15.479  0.1183  0.0468 -0.3990
 2587SOL    HW119394   1.750   2.445  15.386 -1.6432  0.3621 -0.2922
 2587SOL    HW219395   1.743   2.561  15.472 -1.3776 -0.1055  0.9729
 2588SOL     OW19396   3.175   1.368   3.234 -0.0259 -0.0934 -0.0096
 2588SOL    HW119397   3.154   1.442   3.177 -0.0175  1.0033  1.4248
 2588SOL    HW219398   3.265   1.385   3.263 -0.2942  1.0375  0.1418
 2589SOL     OW19399   1.670   3.491   0.703 -0.0173  0.2449 -0.0305
 2589SOL    HW119400   1.666   3.587   0.712  0.6405  0.1062  1.6129
 2589SOL    HW219401   1.584   3.458   0.728 -0.4128  1.9472  0.8520
 2590SOL     OW19402   2.013   3.198   7.972 -0.7550 -0.1889 -0.4855
 2590SOL    HW119403   1.983   3.286   7.949 -0.5679  0.4832  1.7850
 2590SOL    HW219404   1.987   3.162   7.888 -1.6242  0.3662 -0.4610
 2591SOL     OW19405   0.545   4.274   6.774  0.0219 -0.6530  0.0008
 2591SOL    HW119406   0.571   4.366   6.769  0.0900 -0.8396 -3.4795
 2591SOL    HW219407   0.597   4.239   6.701 -0.9680  0.3595 -1.1998
 2592SOL     OW19408   0.477   3.262  15.693  0.1994  0.3515 -0.1320
 2592SOL    HW119409   0.434   3.296  15.772 -3.3366  0.2323 -2.0294
 2592SOL    HW219410   0.475   3.336  15.633 -2.1824  0.4416  0.0572
 2593SOL     OW19411   2.702   1.468  10.294 -0.6621  0.0664 -0.3214
 2593SOL    HW119412   2.697   1.563  10.301  1.1252  0.0329  1.4678
 2593SOL    HW219413   2.794   1.457  10.318 -1.0951 -4.0877 -0.5950
 2594SOL     OW19414   3.864   4.621   5.999 -0.4591 -0.6827 -0.2673
 2594SOL    HW119415   3.951   4.616   5.959  0.2636  0.2503  1.1846
 2594SOL    HW219416   3.822   4.651   5.918  1.7366  0.8871 -0.8271
 2595SOL     OW19417   0.610   3.529   1.523  0.4295  0.0879 -0.7279
 2595SOL    HW119418   0.522   3.555   1.549  0.6407  1.2182 -1.1598
 2595SOL    HW219419   0.662   3.609   1.521  1.0221 -0.2147  3.2408
 2596SOL     OW19420   4.021   2.053   5.193 -0.3114 -0.2402  0.5268
 2596SOL    HW119421   3.967   2.042   5.115 -0.4561 -0.1230  0.6094
 2596SOL    HW219422   4.067   1.969   5.194  0.4606  0.1576 -1.4048
 2597SOL     OW19423   4.102   0.791   6.820 -0.1371 -0.3493 -0.0016
 2597SOL    HW119424   4.158   0.740   6.762  2.3398  1.8182  0.4696
 2597SOL    HW219425   4.149   0.875   6.814 -1.3824  0.3495  0.0386
 2598SOL     OW19426   0.675   3.533   4.205  0.0630  0.1183  0.2953
 2598SOL    HW119427   0.596   3.586   4.202 -0.3059 -0.5258 -1.4804
 2598SOL    HW219428   0.674   3.488   4.289  0.9255 -0.4520 -0.0026
 2599SOL     OW19429   0.452   0.339  13.611 -0.2642 -0.6454 -0.6567
 2599SOL    HW119430   0.417   0.255  13.580 -0.5982 -0.9462  0.5436
 2599SOL    HW219431   0.371   0.386  13.631 -0.6642 -0.6310 -2.2775
 2600SOL     OW19432   4.075   4.254   2.279 -0.6721 -0.2614  0.6819
 2600SOL    HW119433   4.036   4.287   2.360 -0.8271 -2.1536  1.3738
 2600SOL    HW219434   4.034   4.168   2.274  1.6907 -1.5495  3.3701
 2601SOL     OW19435   0.360   4.010   3.297  0.1327 -0.2232  0.1651
 2601SOL    HW119436   0.289   3.952   3.270  0.4451 -0.1489 -0.8300
 2601SOL    HW219437   0.425   3.966   3.352 -0.1832 -2.5017 -1.2874
 2602SOL     OW19438   2.961   4.030  11.922  0.2132  0.3039  0.5715
 2602SOL    HW119439   2.922   4.117  11.921  0.4349  0.3644 -2.8284
 2602SOL    HW219440   2.985   4.034  12.015 -0.2980  2.5659  0.5954
 2603SOL     OW19441   1.999   4.454   8.690  0.5226 -0.1345  0.2221
 2603SOL    HW119442   2.045   4.403   8.756  0.3208 -1.4146 -0.6264
 2603SOL    HW219443   1.930   4.491   8.745  0.7286  0.6074 -0.0142
 2604SOL     OW19444   1.559   2.192   4.271 -0.3472 -0.0036  0.0770
 2604SOL    HW119445   1.474   2.183   4.228 -0.7387  0.4409  0.7496
 2604SOL    HW219446   1.566   2.287   4.279 -0.8948  0.1061 -0.7374
 2605SOL     OW19447   3.238   4.658   7.816 -0.6392 -0.3751  0.8777
 2605SOL    HW119448   3.275   4.609   7.743  1.2258  1.1292  0.8073
 2605SOL    HW219449   3.315   4.703   7.850  1.6683 -2.3626 -1.7137
 2606SOL     OW19450   0.970   2.436   6.159  0.7362 -0.0620  0.3861
 2606SOL    HW119451   0.933   2.399   6.239  0.5785 -1.9418 -0.5594
 2606SOL    HW219452   1.037   2.377   6.124  1.2061  0.3285  0.6132
 2607SOL     OW19453   0.223   3.060   5.411  0.1555 -0.3363 -0.2843
 2607SOL    HW119454   0.171   3.038   5.488 -2.1067  0.2827 -1.6232
 2607SOL    HW219455   0.217   3.156   5.411  1.7901 -0.2333 -4.2056
 2608SOL     OW19456   2.302   0.335  17.683  0.3971 -0.2904  0.4354
 2608SOL    HW119457   2.390   0.366  17.706 -0.0606  0.8498  0.6837
 2608SOL    HW219458   2.293   0.388  17.603 -1.7001  0.6920  1.3176
 2609SOL     OW19459   3.086   0.520   5.242  0.3924 -0.1611  0.0715
 2609SOL    HW119460   3.035   0.600   5.248 -1.2589 -1.3344  1.6119
 2609SOL    HW219461   3.099   0.520   5.147 -0.0045  1.9615  0.0277
 2610SOL     OW19462   2.196   4.234   8.500  0.0046  0.0017  0.2177
 2610SOL    HW119463   2.137   4.199   8.433 -0.0173 -0.8340  0.6649
 2610SOL    HW219464   2.227   4.313   8.457 -0.1946 -0.5939 -1.0246
 2611SOL     OW19465   0.100   1.363   4.952 -0.3083  0.4649 -0.3575
 2611SOL    HW119466   0.157   1.429   4.991  1.5619 -0.9136 -0.7337
 2611SOL    HW219467   0.125   1.369   4.859 -0.7687 -1.0027 -0.5674
 2612SOL     OW19468   2.139   1.756   9.731 -0.2775  0.3035  0.6477
 2612SOL    HW119469   2.234   1.749   9.726 -0.3727 -0.8485  0.6465
 2612SOL    HW219470   2.117   1.703   9.807 -0.4785 -0.0139  0.3665
 2613SOL     OW19471   1.595   4.725  15.545  0.0238  0.6060 -0.0850
 2613SOL    HW119472   1.575   4.681  15.628  1.9500 -0.5296 -0.2116
 2613SOL    HW219473   1.672   4.670  15.528 -0.9631 -1.2892  1.4893
 2614SOL     OW19474   3.816   0.958  10.548 -0.6208 -0.0657 -0.0680
 2614SOL    HW119475   3.857   0.976  10.633 -1.0529  1.5401 -0.2011
 2614SOL    HW219476   3.859   1.024  10.494 -0.1999 -0.2064  0.0927
 2615SOL     OW19477   1.279   1.698   5.029  0.0020 -0.2653 -0.0990
 2615SOL    HW119478   1.251   1.729   5.116 -0.2068 -0.0997 -0.2248
 2615SOL    HW219479   1.200   1.720   4.980  1.4203  1.9756 -1.3879
 2616SOL     OW19480   3.854   4.071   6.117 -0.5011  0.7363  0.0167
 2616SOL    HW119481   3.890   3.994   6.162 -0.0566 -0.0348 -1.6423
 2616SOL    HW219482   3.820   4.036   6.035  1.9592 -0.9115 -0.2925
 2617SOL     OW19483   1.115   4.003   6.302  0.3538  0.2435  0.0682
 2617SOL    HW119484   1.160   4.080   6.266  1.7017 -0.5035  0.1557
 2617SOL    HW219485   1.154   3.992   6.389  0.7523  0.4854 -0.0793
 2618SOL     OW19486   1.374   3.228   5.595 -0.4266  0.4650 -0.1281
 2618SOL    HW119487   1.368   3.295   5.528  1.0795 -1.0400 -1.7846
 2618SOL    HW219488   1.456   3.183   5.573 -0.7694 -0.8327  1.2564
 2619SOL     OW19489   3.138   0.971   4.144  0.4812  0.0126  0.1375
 2619SOL    HW119490   3.051   1.005   4.164  0.3126  0.9164 -2.0887
 2619SOL    HW219491   3.160   0.928   4.227  0.2959  0.1169  0.2397
 2620SOL     OW19492   2.241   3.230   2.497 -0.3043  1.0831  0.0176
 2620SOL    HW119493   2.287   3.162   2.545 -0.7047 -1.2440 -2.9501
 2620SOL    HW219494   2.299   3.302   2.522  0.6319  0.4810 -0.4471
 2621SOL     OW19495   1.481   0.708   2.542 -0.3520  0.0164 -0.2119
 2621SOL    HW119496   1.488   0.764   2.465 -0.0402 -0.6974 -0.7000
 2621SOL    HW219497   1.553   0.739   2.598  0.8861  0.1520 -1.8652
 2622SOL     OW19498   4.295   1.512   5.259 -0.5046 -0.0581 -0.2254
 2622SOL    HW119499   4.254   1.492   5.175  0.4013  0.2632 -0.7416
 2622SOL    HW219500   4.387   1.515   5.236 -0.2138 -2.6773  0.6131
 2623SOL     OW19501   0.725   1.521  15.129  0.2721  0.0539  0.1596
 2623SOL    HW119502   0.772   1.458  15.074 -2.8433 -1.2967 -0.9453
 2623SOL    HW219503   0.775   1.600  15.107 -0.0378  0.5415  1.2303
 2624SOL     OW19504   4.258   0.200   5.280  0.1051 -0.6894  0.2209
 2624SOL    HW119505   4.177   0.251   5.288 -0.2688 -1.0805 -1.0664
 2624SOL    HW219506   4.251   0.134   5.348 -0.3750 -0.8351  0.0325
 2625SOL     OW19507   4.118   2.879  11.467 -0.1111 -0.4157 -0.6062
 2625SOL    HW119508   4.153   2.828  11.394 -0.4655 -0.5203 -0.7028
 2625SOL    HW219509   4.034   2.906  11.432  0.5108 -0.1197 -1.8868
 2626SOL     OW19510   4.109   2.251   3.498 -0.1054  0.1040 -0.5130
 2626SOL    HW119511   4.125   2.344   3.486 -0.6506  0.1207 -1.1143
 2626SOL    HW219512   4.014   2.237   3.493  0.1156 -1.2490 -0.9080
 2627SOL     OW19513   3.080   3.642  14.197 -0.7644 -0.1617  0.1550
 2627SOL    HW119514   3.003   3.616  14.147 -1.3855  0.0620  0.9855
 2627SOL    HW219515   3.114   3.715  14.146  0.6572 -0.6968  0.3311
 2628SOL     OW19516   2.075   3.562   9.469  0.3465 -0.3077 -0.4264
 2628SOL    HW119517   2.039   3.473   9.471 -0.4070  0.0147  0.1374
 2628SOL    HW219518   2.005   3.608   9.515 -1.3661 -1.9960 -1.3309
 2629SOL     OW19519   3.376   0.473   3.832 -0.0812 -0.4269 -0.0596
 2629SOL    HW119520   3.459   0.476   3.878  0.0404 -0.6467 -0.2656
 2629SOL    HW219521   3.383   0.550   3.776  0.6501 -0.9084 -0.6241
 2630SOL     OW19522   2.940   1.969   0.930  0.1281 -0.0530  0.4845
 2630SOL    HW119523   2.997   1.929   0.864  0.6871  0.1206  0.8574
 2630SOL    HW219524   2.913   2.045   0.879  1.4462  0.3904  0.4464
 2631SOL     OW19525   2.060   4.727   9.507  0.4979 -0.0368  0.0909
 2631SOL    HW119526   2.136   0.037   9.541  0.9422  0.2871 -1.3207
 2631SOL    HW219527   2.018   0.049   9.445 -0.0342 -0.0815  0.4108
 2632SOL     OW19528   1.333   3.832   8.626  0.7226 -0.1430 -0.0062
 2632SOL    HW119529   1.273   3.897   8.663 -3.0847 -3.7912  0.2290
 2632SOL    HW219530   1.277   3.791   8.560 -1.7585  4.1984 -0.5813
 2633SOL     OW19531   3.239   1.613   9.212  0.2198 -0.2630 -0.4010
 2633SOL    HW119532   3.167   1.623   9.273  0.8417 -0.3229  0.3435
 2633SOL    HW219533   3.294   1.673   9.262 -1.0783  1.1355 -0.6606
 2634SOL     OW19534   3.753   3.814  12.693 -0.3087 -0.4761 -0.0032
 2634SOL    HW119535   3.835   3.770  12.714 -1.4553 -1.6052  2.0982
 2634SOL    HW219536   3.688   3.745  12.708  0.1652 -0.3498  2.6095
 2635SOL     OW19537   3.349   2.704   8.825 -0.0753  0.2188 -0.1739
 2635SOL    HW119538   3.277   2.766   8.818  0.5628  0.9601 -0.0966
 2635SOL    HW219539   3.404   2.744   8.757  1.0791 -1.1651 -0.0695
 2636SOL     OW19540   3.486   1.519  13.361 -0.5282 -0.1059  0.0262
 2636SOL    HW119541   3.531   1.438  13.383 -2.0239 -0.5326  1.5359
 2636SOL    HW219542   3.449   1.500  13.275 -0.5429 -1.6424  0.3824
 2637SOL     OW19543   3.208   4.137  14.837  0.9908 -0.2275  0.3530
 2637SOL    HW119544   3.119   4.116  14.867  0.9696  1.0195  1.1549
 2637SOL    HW219545   3.258   4.125  14.918  0.1330  0.5138  0.9986
 2638SOL     OW19546   1.955   3.325   4.668  0.1802  0.3224 -0.5569
 2638SOL    HW119547   1.990   3.238   4.646 -0.7413 -0.8123  2.3494
 2638SOL    HW219548   2.018   3.356   4.733 -1.1794  1.6946  0.1131
 2639SOL     OW19549   0.396   3.402   6.865  0.1471 -0.6006 -0.4828
 2639SOL    HW119550   0.452   3.444   6.930 -1.5473 -0.1834  0.7128
 2639SOL    HW219551   0.315   3.447   6.888  0.9639  0.9688 -0.6660
 2640SOL     OW19552   0.943   3.263   7.835  0.1315  0.2967 -0.2738
 2640SOL    HW119553   0.926   3.283   7.743  2.4843  1.9719 -0.3405
 2640SOL    HW219554   0.887   3.322   7.885 -1.6164  0.0039 -1.8927
 2641SOL     OW19555   4.062   3.782  10.404 -0.6180 -0.6616  0.0240
 2641SOL    HW119556   4.073   3.812  10.494  0.0345  0.0418 -0.2929
 2641SOL    HW219557   4.096   3.852  10.348  0.2487  1.5989  3.4196
 2642SOL     OW19558   0.424   1.608   7.255  0.2725  0.1128 -0.6419
 2642SOL    HW119559   0.413   1.652   7.339 -1.2345 -0.5814 -0.4634
 2642SOL    HW219560   0.442   1.515   7.269  1.8003  0.7311  1.3397
 2643SOL     OW19561   4.317   2.231   4.942  0.2924 -0.1879  0.1293
 2643SOL    HW119562   4.368   2.238   4.862  0.5013  3.3463  0.5309
 2643SOL    HW219563   4.380   2.212   5.012  1.5119  2.6945 -0.1843
 2644SOL     OW19564   1.857   2.641  10.040  0.4390 -0.3571  0.3961
 2644SOL    HW119565   1.799   2.713  10.015  0.1031 -1.4082 -1.8427
 2644SOL    HW219566   1.943   2.658  10.001 -0.2107  1.5323 -0.2401
 2645SOL     OW19567   4.049   2.726  15.327 -0.1021 -0.2519 -0.0986
 2645SOL    HW119568   3.959   2.743  15.299  0.2491 -0.3773 -1.3192
 2645SOL    HW219569   4.094   2.770  15.254  2.9232  0.0806  1.9557
 2646SOL     OW19570   0.135   2.164  15.558  0.2167 -0.9832 -0.5109
 2646SOL    HW119571   0.124   2.251  15.597  2.4884 -0.8214 -0.2428
 2646SOL    HW219572   0.161   2.191  15.470 -0.6078  1.7384  0.0498
 2647SOL     OW19573   4.346   1.818   9.047  0.3582  0.2125  0.0576
 2647SOL    HW119574   4.332   1.909   9.075 -1.4502  0.1588 -0.7275
 2647SOL    HW219575   4.350   1.782   9.135 -0.5456  0.8719  0.3638
 2648SOL     OW19576   0.041   2.966   2.381  0.0578 -0.4283  0.2216
 2648SOL    HW119577   0.047   2.893   2.443 -1.0606  0.4300  1.3459
 2648SOL    HW219578   4.734   3.035   2.430  2.1226  0.8271  0.3533
 2649SOL     OW19579   4.378   2.150   4.608 -0.1135 -0.0022  0.2267
 2649SOL    HW119580   4.391   2.094   4.531 -0.7759 -0.2506  0.2944
 2649SOL    HW219581   4.461   2.170   4.650 -0.5325  0.9500  0.5902
 2650SOL     OW19582   0.861   3.878  13.383  0.1867 -0.1232  0.4451
 2650SOL    HW119583   0.929   3.834  13.434 -0.7452 -2.3423 -0.2066
 2650SOL    HW219584   0.857   3.962  13.429  0.9517  0.2035 -0.0934
 2651SOL     OW19585   2.310   3.371   1.554  0.1647 -0.0622  0.1252
 2651SOL    HW119586   2.395   3.381   1.598  0.1450  1.9282 -0.2570
 2651SOL    HW219587   2.267   3.315   1.618  0.0532 -0.6890 -0.5021
 2652SOL     OW19588   2.058   3.205   6.435  0.0534 -0.3598  0.5845
 2652SOL    HW119589   1.973   3.240   6.462 -0.6451  1.1022 -3.5154
 2652SOL    HW219590   2.113   3.276   6.403 -1.4820  1.1601  1.3142
 2653SOL     OW19591   4.707   0.392   8.530 -0.0071  0.3244  0.4984
 2653SOL    HW119592   0.054   0.421   8.497  0.9676 -2.2078  0.7837
 2653SOL    HW219593   4.726   0.305   8.565 -1.8683 -0.5827 -0.7311
 2654SOL     OW19594   0.323   0.112  13.505 -0.0519 -0.1536  0.5558
 2654SOL    HW119595   0.379   0.046  13.464 -0.0871 -1.3159  2.3437
 2654SOL    HW219596   0.244   0.059  13.517 -1.6413  1.6312 -2.0939
 2655SOL     OW19597   3.150   0.277   6.586 -0.0722 -0.9750 -0.4563
 2655SOL    HW119598   3.135   0.185   6.565 -2.9997 -0.0454 -2.4212
 2655SOL    HW219599   3.245   0.271   6.600 -0.1056  1.1799  0.7359
 2656SOL     OW19600   2.629   0.836   7.743  0.0128  0.8964  0.4073
 2656SOL    HW119601   2.685   0.841   7.821 -0.4970  0.8427  0.7800
 2656SOL    HW219602   2.680   0.890   7.682 -0.7804  0.4200 -0.6672
 2657SOL     OW19603   2.284   1.533  10.164 -0.3923  0.2302 -0.4394
 2657SOL    HW119604   2.279   1.528  10.260  1.3260 -2.0165 -0.4656
 2657SOL    HW219605   2.306   1.444  10.139 -4.0705 -0.7708 -0.1087
 2658SOL     OW19606   0.983   4.585   1.820  0.2785 -0.6765  0.6733
 2658SOL    HW119607   1.017   4.638   1.748  2.5683 -0.5225  1.8483
 2658SOL    HW219608   0.896   4.618   1.842 -0.1612 -0.7570 -0.9906
 2659SOL     OW19609   2.925   2.935  15.587  0.0732  0.7386  0.7091
 2659SOL    HW119610   2.969   2.855  15.614 -1.0613  0.0905  0.6605
 2659SOL    HW219611   2.991   3.000  15.612  1.3374 -0.4694  0.4896
 2660SOL     OW19612   1.822   2.294   9.234  0.6031  0.2502 -0.2297
 2660SOL    HW119613   1.857   2.232   9.297 -2.5736  0.6336  1.8899
 2660SOL    HW219614   1.892   2.359   9.224  1.5097 -0.8627 -1.1389
 2661SOL     OW19615   1.570   0.501   1.178  0.4996 -0.0103 -0.6266
 2661SOL    HW119616   1.585   0.443   1.253  1.5597 -1.4008 -1.9014
 2661SOL    HW219617   1.588   0.587   1.214  2.0235  0.3169 -2.1641
 2662SOL     OW19618   4.691   3.425   8.698 -0.7681 -0.0911 -0.3135
 2662SOL    HW119619   0.029   3.412   8.755 -1.9687  0.0947  1.3326
 2662SOL    HW219620   4.716   3.352   8.641  0.6649  0.1250  0.0243
 2663SOL     OW19621   3.644   3.613   5.650  0.1802  0.3312 -0.3280
 2663SOL    HW119622   3.569   3.645   5.702  0.3041  0.0315  0.0349
 2663SOL    HW219623   3.611   3.530   5.614 -0.6480 -0.4159  2.0678
 2664SOL     OW19624   4.271   3.997   4.109 -0.4717 -1.1386 -0.2649
 2664SOL    HW119625   4.256   4.090   4.128 -0.5026 -1.1062 -0.4433
 2664SOL    HW219626   4.344   3.996   4.046 -0.5178 -1.1189 -0.3191
 2665SOL     OW19627   3.155   3.199   2.077  0.3783 -0.2142  0.2292
 2665SOL    HW119628   3.212   3.156   2.012 -0.8042 -2.9927  1.0097
 2665SOL    HW219629   3.217   3.208   2.149  2.2925 -3.2321 -1.0184
 2666SOL     OW19630   0.373   0.207  17.594 -0.4275 -0.7432 -0.4269
 2666SOL    HW119631   0.372   0.139  17.527 -1.4178 -1.1827  0.0402
 2666SOL    HW219632   0.322   0.277  17.553  2.3106  1.0279 -0.8476
 2667SOL     OW19633   4.074   1.608  16.711 -0.3724 -0.2599 -0.2683
 2667SOL    HW119634   4.069   1.691  16.663  2.7465  0.8204  1.2659
 2667SOL    HW219635   4.090   1.637  16.801  0.4915  1.9854 -1.1542
 2668SOL     OW19636   3.244   3.474   0.621  0.4508  0.1289  0.0113
 2668SOL    HW119637   3.291   3.558   0.625 -0.3726  0.5855  0.1719
 2668SOL    HW219638   3.237   3.469   0.525  0.8804 -0.5197  0.0145
 2669SOL     OW19639   0.346   2.086   9.601  0.2635  0.7889  0.3517
 2669SOL    HW119640   0.414   2.020   9.616  1.3096  0.9452 -3.9116
 2669SOL    HW219641   0.374   2.115   9.514 -1.4712  1.2806 -0.0453
 2670SOL     OW19642   1.930   2.601   8.599 -0.3654  0.4764  0.0546
 2670SOL    HW119643   1.982   2.662   8.547 -0.4043  0.3038 -0.1873
 2670SOL    HW219644   1.941   2.635   8.688 -0.5227  0.7877 -0.0468
 2671SOL     OW19645   3.774   1.629   2.653  0.7840  0.2054 -0.3271
 2671SOL    HW119646   3.827   1.577   2.714  2.0622 -0.9271 -2.3592
 2671SOL    HW219647   3.799   1.589   2.569 -0.1020  2.8606 -1.8282
 2672SOL     OW19648   2.816   0.599   1.944  0.5493 -0.2715  0.0780
 2672SOL    HW119649   2.875   0.564   1.876  0.3084  1.0461 -0.8103
 2672SOL    HW219650   2.852   0.552   2.019  1.2595  1.3310  0.7403
 2673SOL     OW19651   3.800   4.007   8.832  0.1492  0.3439  0.0917
 2673SOL    HW119652   3.894   3.993   8.818  0.2607  2.1637 -0.9646
 2673SOL    HW219653   3.770   3.917   8.819  0.1175  0.7285 -2.6281
 2674SOL     OW19654   4.488   1.663  13.310  0.1947 -0.1357 -0.0423
 2674SOL    HW119655   4.400   1.687  13.337  0.0137  0.7563 -1.4357
 2674SOL    HW219656   4.542   1.738  13.334  0.5497 -0.4657  0.1967
 2675SOL     OW19657   2.659   1.019   7.532 -0.1464  0.0774 -0.0255
 2675SOL    HW119658   2.565   1.010   7.513 -0.2021 -3.1967  1.8415
 2675SOL    HW219659   2.652   1.114   7.546 -0.3596  0.1167 -0.4138
 2676SOL     OW19660   2.401   1.662   0.418 -0.0993  0.0644  0.1033
 2676SOL    HW119661   2.420   1.751   0.388 -0.1130 -0.4374 -1.3849
 2676SOL    HW219662   2.310   1.673   0.446  0.1637  0.6444  0.7279
 2677SOL     OW19663   3.570   3.462   7.729  0.4672  0.0934 -0.2228
 2677SOL    HW119664   3.580   3.502   7.815  2.4924  2.6577 -1.6472
 2677SOL    HW219665   3.648   3.406   7.725  0.0301 -0.5941  0.9596
 2678SOL     OW19666   1.772   0.612   9.685  0.3275  0.2024 -0.1513
 2678SOL    HW119667   1.838   0.596   9.618  1.6084 -1.9565  1.6219
 2678SOL    HW219668   1.787   0.533   9.738 -1.3546 -0.9656 -1.4072
 2679SOL     OW19669   1.797   0.869   7.977  0.3569  0.0536  0.0184
 2679SOL    HW119670   1.787   0.833   8.065 -0.5203 -0.6741 -0.3783
 2679SOL    HW219671   1.825   0.955   8.010 -1.2596  0.7936 -0.5336
 2680SOL     OW19672   0.182   3.495  13.762 -0.0396  0.1546 -0.1682
 2680SOL    HW119673   0.142   3.435  13.825  0.2876 -2.0809 -2.0991
 2680SOL    HW219674   0.134   3.472  13.683  1.9002 -1.4731 -0.8863
 2681SOL     OW19675   3.650   4.230   6.237 -0.0367  0.1180  0.2211
 2681SOL    HW119676   3.715   4.300   6.246  0.5397 -0.5258  1.0263
 2681SOL    HW219677   3.709   4.179   6.182 -0.1916  2.0693 -1.7588
 2682SOL     OW19678   1.737   3.489   0.113 -0.2247 -0.2290 -0.3832
 2682SOL    HW119679   1.768   3.572   0.151 -3.1648  0.1177  1.2477
 2682SOL    HW219680   1.650   3.472   0.149  0.6367 -0.3841  1.6411
 2683SOL     OW19681   0.948   4.360   2.225  0.3429  0.2493 -0.6198
 2683SOL    HW119682   0.992   4.367   2.140 -0.6556 -2.9515 -1.4000
 2683SOL    HW219683   0.927   4.452   2.244  0.0327  0.4106 -1.7016
 2684SOL     OW19684   3.208   2.362   6.485  0.0854 -0.7678  0.1796
 2684SOL    HW119685   3.142   2.352   6.417  0.6613  1.1895 -0.6575
 2684SOL    HW219686   3.161   2.406   6.556  0.1153  0.0764 -0.3373
 2685SOL     OW19687   3.518   4.077   9.929 -0.0514  0.3909 -0.3050
 2685SOL    HW119688   3.554   4.012   9.988 -2.8243 -1.4910 -0.6738
 2685SOL    HW219689   3.584   4.065   9.860  0.2155 -1.6361  0.2906
 2686SOL     OW19690   2.377   1.880   4.066  0.3635  0.3219 -0.2353
 2686SOL    HW119691   2.420   1.850   4.146  2.9769  0.4155 -1.6130
 2686SOL    HW219692   2.429   1.827   4.006  2.0706  0.0691  1.4804
 2687SOL     OW19693   1.079   4.669  10.016  0.5747  0.2690 -0.2775
 2687SOL    HW119694   1.124   4.611  10.077  0.6722 -0.4433 -1.0159
 2687SOL    HW219695   1.125   0.013  10.032  2.2278 -0.4836 -1.1974
 2688SOL     OW19696   2.188   3.731  13.318 -0.0066 -0.1841 -0.2598
 2688SOL    HW119697   2.145   3.803  13.271  1.0615  0.7577  0.1987
 2688SOL    HW219698   2.192   3.772  13.405  0.6367  1.7965 -1.2359
 2689SOL     OW19699   4.247   0.807   4.569 -0.1728  0.1100  0.1287
 2689SOL    HW119700   4.283   0.790   4.656  1.5115 -1.2831 -0.8526
 2689SOL    HW219701   4.326   0.853   4.542  1.9437 -3.7261 -0.1577
 2690SOL     OW19702   3.662   4.128   3.850  0.4650  0.1319  0.1293
 2690SOL    HW119703   3.595   4.156   3.913  1.3445  1.2789  0.5515
 2690SOL    HW219704   3.719   4.070   3.900  0.3212 -0.1240  0.0021
 2691SOL     OW19705   3.986   2.771   7.832  0.4156 -0.3610 -0.5794
 2691SOL    HW119706   3.926   2.771   7.907  0.1108 -1.3410 -0.8127
 2691SOL    HW219707   4.006   2.677   7.834 -0.1545 -0.5010 -1.3093
 2692SOL     OW19708   1.526   0.471   7.222 -0.2165 -0.3826  0.0672
 2692SOL    HW119709   1.519   0.400   7.285  0.0945 -0.4605  0.0154
 2692SOL    HW219710   1.433   0.476   7.201 -0.3555  1.2610  1.0415
 2693SOL     OW19711   1.825   3.520   8.495 -0.0203 -0.2880 -0.3247
 2693SOL    HW119712   1.776   3.602   8.505  3.6998  2.0547 -1.5030
 2693SOL    HW219713   1.894   3.525   8.560  0.8481  2.6096 -1.5001
 2694SOL     OW19714   3.109   3.482   7.141  0.1599  0.1201  0.7943
 2694SOL    HW119715   3.199   3.457   7.160  0.0180 -0.6283  0.4941
 2694SOL    HW219716   3.080   3.499   7.230  0.6387  1.6093  0.6518
 2695SOL     OW19717   1.265   0.753   6.533 -0.1411  0.4151 -0.4769
 2695SOL    HW119718   1.201   0.760   6.462 -1.6176  0.8865  0.9209
 2695SOL    HW219719   1.245   0.833   6.581  3.6869  1.1243 -0.0740
 2696SOL     OW19720   0.683   1.474   7.150 -0.2123  0.3743 -0.5637
 2696SOL    HW119721   0.723   1.390   7.127 -2.5477 -0.6922 -0.7437
 2696SOL    HW219722   0.718   1.486   7.238 -0.8313 -0.9281 -0.1361
 2697SOL     OW19723   0.370   2.702  16.416 -0.0967 -0.2332  0.0468
 2697SOL    HW119724   0.371   2.665  16.327  2.0765  0.0616 -0.0487
 2697SOL    HW219725   0.458   2.738  16.421 -1.0338  2.0889 -0.2024
 2698SOL     OW19726   2.279   1.639   1.912  0.1985 -0.3664  0.3390
 2698SOL    HW119727   2.280   1.544   1.902 -2.1751 -0.1431 -2.0745
 2698SOL    HW219728   2.330   1.651   1.992  1.7897  0.4090 -0.8014
 2699SOL     OW19729   0.159   3.319   2.321  0.7081  1.0565  0.2270
 2699SOL    HW119730   0.158   3.236   2.369 -0.9682  1.2449  0.5260
 2699SOL    HW219731   0.245   3.359   2.336  0.6148  0.8751  1.2229
 2700SOL     OW19732   1.951   0.943   8.897  0.6681 -0.2886 -0.0967
 2700SOL    HW119733   1.922   0.940   8.988 -1.8232  2.5021 -0.8118
 2700SOL    HW219734   2.009   1.019   8.899 -0.1407  0.2823  1.6490
 2701SOL     OW19735   0.484   3.993   9.672  0.3306 -0.1324 -0.3534
 2701SOL    HW119736   0.397   4.023   9.645  0.1840  1.1609  1.5409
 2701SOL    HW219737   0.540   4.071   9.664  0.8369 -0.5721 -1.0849
 2702SOL     OW19738   4.558   1.739   0.042  0.0762 -0.2921  0.3116
 2702SOL    HW119739   4.577   1.771  17.703 -1.4111 -0.4081 -0.0562
 2702SOL    HW219740   4.639   1.707   0.080  0.7136  0.8414 -0.0851
 2703SOL     OW19741   3.826   2.043  14.370 -0.9496 -0.2075 -0.0445
 2703SOL    HW119742   3.838   2.104  14.297 -4.1192  0.5553  0.0739
 2703SOL    HW219743   3.734   2.019  14.359 -0.6755 -1.1205 -0.3000
 2704SOL     OW19744   2.425   0.251  15.011 -0.2582  0.7145 -0.1270
 2704SOL    HW119745   2.355   0.262  14.946  1.9136  0.0372 -2.6075
 2704SOL    HW219746   2.492   0.282  14.949  0.5398  3.1193  1.9515
 2705SOL     OW19747   1.577   1.885   3.403 -0.3665  0.6461  0.3156
 2705SOL    HW119748   1.575   1.942   3.326  1.0944  4.4401  3.0302
 2705SOL    HW219749   1.503   1.828   3.381 -1.2883  1.4668  1.2860
 2706SOL     OW19750   3.910   1.805   5.671 -0.1148  0.5732 -0.2770
 2706SOL    HW119751   3.822   1.839   5.655  0.7069  1.8243 -2.1059
 2706SOL    HW219752   3.969   1.864   5.624  1.6374 -0.1755  0.9442
 2707SOL     OW19753   3.399   1.680   9.442  0.2552 -0.3277 -0.9031
 2707SOL    HW119754   3.404   1.671   9.537 -0.1542  2.0303 -0.6567
 2707SOL    HW219755   3.481   1.646   9.407  1.7137  1.0682  1.1828
 2708SOL     OW19756   1.246   0.306  16.340  0.1368  0.1416 -0.1186
 2708SOL    HW119757   1.182   0.378  16.337  0.1926  0.2754  2.2572
 2708SOL    HW219758   1.191   0.241  16.296 -0.6115  1.0490 -0.5377
 2709SOL     OW19759   0.346   0.196   5.486 -0.3406  0.1900  0.2623
 2709SOL    HW119760   0.392   0.242   5.416 -1.4349  1.5582  0.4358
 2709SOL    HW219761   0.417   0.135   5.505  0.3638 -0.0132 -2.9788
 2710SOL     OW19762   0.900   1.954   3.239  0.3495  0.5708 -0.5121
 2710SOL    HW119763   0.978   1.904   3.216 -1.0596 -1.2096 -1.3371
 2710SOL    HW219764   0.946   2.033   3.268  3.0315 -0.0803 -3.0317
 2711SOL     OW19765   0.014   4.440   3.101 -0.2039  0.3111  0.4540
 2711SOL    HW119766   0.032   4.403   3.187 -0.4256 -0.7967  0.0238
 2711SOL    HW219767   0.023   4.535   3.098  3.0427  0.0106  0.6007
 2712SOL     OW19768   3.926   2.678  16.189 -0.1876  0.0900 -0.3566
 2712SOL    HW119769   3.864   2.642  16.125 -0.5081 -0.0053  0.0048
 2712SOL    HW219770   3.972   2.601  16.223  1.0791  0.9968 -0.0068
 2713SOL     OW19771   3.640   3.446   5.256  0.3825  0.0110 -0.0655
 2713SOL    HW119772   3.695   3.522   5.238  3.4067 -1.8952  0.9820
 2713SOL    HW219773   3.566   3.461   5.198  0.7373  0.9396 -0.2815
 2714SOL     OW19774   4.047   0.301   8.063 -0.2091 -0.0974  0.5302
 2714SOL    HW119775   4.116   0.326   8.001  1.3021 -1.3168  1.7034
 2714SOL    HW219776   4.026   0.378   8.115  0.5431  1.6496 -1.7231
 2715SOL     OW19777   4.500   4.616  13.527  0.7906 -0.3097 -0.3894
 2715SOL    HW119778   4.465   4.637  13.614 -0.0490  3.8883 -1.7497
 2715SOL    HW219779   4.593   4.605  13.545  0.3154  0.8974  2.6853
 2716SOL     OW19780   0.279   2.445  15.147  0.0921 -0.1383 -0.2173
 2716SOL    HW119781   0.241   2.531  15.161  2.4595  0.4763  2.4912
 2716SOL    HW219782   0.371   2.472  15.145  0.5395 -1.4316  1.7921
 2717SOL     OW19783   2.716   2.455   7.776  0.4739 -0.1220 -0.3757
 2717SOL    HW119784   2.762   2.495   7.850  1.9728 -0.4673 -1.1264
 2717SOL    HW219785   2.791   2.415   7.731  0.2851 -1.1131  0.1680
 2718SOL     OW19786   0.530   3.856   2.609 -0.3361  0.4142 -0.1847
 2718SOL    HW119787   0.584   3.931   2.584  1.3379 -0.7395 -0.0428
 2718SOL    HW219788   0.449   3.900   2.636  0.3638  1.5220  0.0917
 2719SOL     OW19789   1.174   1.876   0.624 -0.1154 -0.4679 -0.1172
 2719SOL    HW119790   1.251   1.885   0.681  0.3581  0.3760 -0.8870
 2719SOL    HW219791   1.128   1.956   0.648 -0.9041 -0.8148 -0.4834
 2720SOL     OW19792   0.513   1.344   6.736 -0.2582  0.8686  0.0445
 2720SOL    HW119793   0.513   1.266   6.681  1.1545  2.4704 -2.2299
 2720SOL    HW219794   0.563   1.316   6.813  2.8851  0.0034 -2.3460
 2721SOL     OW19795   0.778   4.110   4.865 -0.2595 -0.1545  0.0158
 2721SOL    HW119796   0.705   4.141   4.918 -0.4935  0.1226 -0.4690
 2721SOL    HW219797   0.722   4.061   4.804  0.8406  1.0031 -1.9124
 2722SOL     OW19798   2.325   0.986   4.534  0.0260 -0.3470 -0.0096
 2722SOL    HW119799   2.344   0.916   4.597  1.5260  1.2028  1.2972
 2722SOL    HW219800   2.388   0.959   4.467  1.6272 -2.2371  2.2673
 2723SOL     OW19801   1.613   2.412   5.846 -0.1688 -0.4339 -0.0904
 2723SOL    HW119802   1.529   2.428   5.889 -0.9233 -0.4831 -1.5491
 2723SOL    HW219803   1.665   2.394   5.925 -0.1516 -0.1150 -0.0322
 2724SOL     OW19804   4.137   4.043   2.901 -0.1705 -0.0258  0.1066
 2724SOL    HW119805   4.104   3.985   2.970 -3.8153  0.3256 -1.3379
 2724SOL    HW219806   4.111   4.129   2.933  1.1720  0.3636  0.1531
 2725SOL     OW19807   0.480   3.689   4.953  0.0135  0.2436  0.0943
 2725SOL    HW119808   0.426   3.622   4.995  0.8485  0.9146  2.2242
 2725SOL    HW219809   0.561   3.672   5.000  1.0336  3.1814 -0.6280
 2726SOL     OW19810   0.881   1.436   0.942  0.3590  0.4352  0.3836
 2726SOL    HW119811   0.799   1.387   0.937  1.8132 -2.0624  0.5762
 2726SOL    HW219812   0.885   1.477   0.856  3.6218  0.3159  0.4816
 2727SOL     OW19813   3.403   4.619   6.972 -0.1312 -0.2165  0.1538
 2727SOL    HW119814   3.471   4.687   6.968 -0.7477  0.3677 -0.4799
 2727SOL    HW219815   3.384   4.593   6.882  0.4874 -2.2711  0.6278
 2728SOL     OW19816   3.515   4.071   1.748 -0.1633 -0.5340  0.4367
 2728SOL    HW119817   3.513   3.999   1.685  1.4823 -0.4355  0.2734
 2728SOL    HW219818   3.464   4.033   1.820  0.9641 -0.9009  1.0474
 2729SOL     OW19819   3.162   0.486   8.583  0.1030 -0.2858  0.0214
 2729SOL    HW119820   3.100   0.549   8.619 -2.4611 -2.2141 -1.0546
 2729SOL    HW219821   3.197   0.543   8.514 -2.6725  0.1313 -1.0138
 2730SOL     OW19822   0.171   2.249  15.321 -0.2979 -0.3779  0.0490
 2730SOL    HW119823   0.204   2.330  15.283  0.7209  0.1937  2.1504
 2730SOL    HW219824   0.136   2.208  15.242  2.1721  1.9275 -2.2544
 2731SOL     OW19825   4.543   1.335   5.497  0.5118 -0.0193 -0.2194
 2731SOL    HW119826   4.607   1.280   5.451 -0.8451  0.9079 -3.1594
 2731SOL    HW219827   4.582   1.422   5.487 -1.6660  0.8904 -0.6360
 2732SOL     OW19828   3.139   1.852   3.729 -0.4237 -0.2613  0.0699
 2732SOL    HW119829   3.069   1.910   3.760 -0.5950 -1.2533  1.5516
 2732SOL    HW219830   3.094   1.800   3.663 -0.6091  0.3105 -0.2542
 2733SOL     OW19831   2.265   4.152   3.074  0.0679 -0.0663 -0.4550
 2733SOL    HW119832   2.301   4.064   3.076 -0.4169 -0.2822 -1.1642
 2733SOL    HW219833   2.270   4.166   2.979 -0.3693 -0.5600 -0.5502
 2734SOL     OW19834   3.485   0.908   3.599 -0.7518 -0.8201 -0.0616
 2734SOL    HW119835   3.559   0.881   3.544  1.3083  1.0236  1.8121
 2734SOL    HW219836   3.506   0.998   3.625  1.3985 -1.0356 -0.9835
 2735SOL     OW19837   2.097   0.503   8.037  0.7821 -0.1636  0.1518
 2735SOL    HW119838   2.024   0.548   7.993 -0.9789 -1.9129  1.2848
 2735SOL    HW219839   2.083   0.539   8.124  1.1431 -0.2251  0.2359
 2736SOL     OW19840   1.740   1.816   2.955  0.0970  0.2668 -0.4325
 2736SOL    HW119841   1.702   1.740   2.999  0.6630  0.6672  0.7645
 2736SOL    HW219842   1.679   1.844   2.887 -0.1489  0.5994 -0.0765
 2737SOL     OW19843   0.463   2.019   4.700  0.3772 -0.3944  0.9432
 2737SOL    HW119844   0.378   1.976   4.700  0.9312 -1.4663  2.6562
 2737SOL    HW219845   0.457   2.068   4.618 -0.5378  0.7099  1.6824
 2738SOL     OW19846   0.678   2.371   6.496 -0.4517  0.8785 -0.2090
 2738SOL    HW119847   0.641   2.458   6.512 -0.5941  1.0500 -1.4952
 2738SOL    HW219848   0.689   2.330   6.581 -1.1092  0.1005 -0.5039
 2739SOL     OW19849   0.059   4.608   3.468  0.0250 -0.4949  0.0201
 2739SOL    HW119850   0.135   4.625   3.412  1.8588 -1.2119  2.2772
 2739SOL    HW219851   0.088   4.657   3.544 -2.3846  0.1895  0.5073
 2740SOL     OW19852   3.187   0.674  13.182 -0.6717 -0.0522 -0.3519
 2740SOL    HW119853   3.177   0.586  13.219  0.0957 -0.7272 -1.7465
 2740SOL    HW219854   3.138   0.726  13.245 -0.4457  1.2168 -1.2303
 2741SOL     OW19855   1.973   2.732   8.871  0.5591 -0.0584 -0.7151
 2741SOL    HW119856   2.022   2.680   8.935  0.0772 -0.3157 -0.5558
 2741SOL    HW219857   1.924   2.790   8.929  1.7668  0.5732 -0.3149
 2742SOL     OW19858   4.564   4.423   2.742  0.6054  0.1746  0.3191
 2742SOL    HW119859   4.640   4.478   2.724 -1.0794  2.7529  1.0496
 2742SOL    HW219860   4.593   4.346   2.792  1.0540  0.0058 -0.2023
 2743SOL     OW19861   3.981   2.273   9.193  0.3917 -0.9672 -0.3249
 2743SOL    HW119862   4.069   2.291   9.224  0.0826 -1.8079  1.0204
 2743SOL    HW219863   3.953   2.358   9.158 -0.4635 -1.1776 -0.1728
 2744SOL     OW19864   3.928   1.846   7.709 -0.3217  0.0792 -0.3987
 2744SOL    HW119865   3.916   1.926   7.658  0.0353  0.2571 -0.2026
 2744SOL    HW219866   3.846   1.848   7.759  0.2039  0.5588  0.4407
 2745SOL     OW19867   4.258   0.769  14.297 -0.4927  0.2819 -0.1110
 2745SOL    HW119868   4.267   0.859  14.265  1.0663 -0.2534 -1.1881
 2745SOL    HW219869   4.222   0.737  14.215 -2.7659 -1.7576  1.6813
 2746SOL     OW19870   2.356   3.010   9.027 -0.0055  0.1826  0.1768
 2746SOL    HW119871   2.395   3.097   9.035  0.0851  0.1626 -0.0439
 2746SOL    HW219872   2.307   3.014   8.945 -1.2137  1.9612  0.9964
 2747SOL     OW19873   4.262   1.617  10.563  0.6600 -0.0018  0.2593
 2747SOL    HW119874   4.334   1.664  10.521 -1.6818  1.3898 -2.1476
 2747SOL    HW219875   4.300   1.597  10.649  1.8304 -1.5268 -0.5949
 2748SOL     OW19876   0.724   0.552   5.500 -0.1608  0.5038 -0.0353
 2748SOL    HW119877   0.700   0.603   5.577  0.8293  0.6739  0.1666
 2748SOL    HW219878   0.766   0.615   5.441 -0.3155  0.4528 -0.1984
 2749SOL     OW19879   2.325   2.935  13.266  0.0525  0.0728  0.2751
 2749SOL    HW119880   2.267   2.869  13.229  0.5147 -0.0037 -0.3126
 2749SOL    HW219881   2.404   2.888  13.291  0.0211  1.1873  2.4285
 2750SOL     OW19882   1.443   1.076   6.689 -0.1216  0.2122  0.1408
 2750SOL    HW119883   1.348   1.072   6.703 -0.5186  0.6323 -2.4394
 2750SOL    HW219884   1.442   1.056   6.596 -0.6508 -2.1275  0.6438
 2751SOL     OW19885   3.430   4.251   6.405 -0.3157 -0.0835  0.1176
 2751SOL    HW119886   3.440   4.332   6.456 -0.5501  0.3960 -0.5913
 2751SOL    HW219887   3.500   4.238   6.342 -0.3678  0.7097 -0.1022
 2752SOL     OW19888   0.919   4.533   3.323  0.0812 -0.4894  0.0188
 2752SOL    HW119889   1.011   4.549   3.345  0.2795 -0.5142 -0.7864
 2752SOL    HW219890   0.926   4.481   3.243 -1.1579  0.8173 -0.9417
 2753SOL     OW19891   1.323   1.522   9.074  0.8057  0.3129  0.1412
 2753SOL    HW119892   1.370   1.575   9.010  0.5055 -2.1392 -2.1312
 2753SOL    HW219893   1.389   1.527   9.143  0.8074  0.7035  0.1117
 2754SOL     OW19894   1.068   4.295  14.463  0.0766  0.8166  0.0766
 2754SOL    HW119895   1.035   4.292  14.553 -0.4744  0.2335 -0.1448
 2754SOL    HW219896   1.161   4.304  14.481  0.2298  0.9652 -0.7905
 2755SOL     OW19897   4.707   0.759   7.490 -0.2553 -0.7248  0.1181
 2755SOL    HW119898   4.634   0.804   7.534  1.6876  1.8013  0.7378
 2755SOL    HW219899   0.023   0.717   7.556 -1.4509  0.0686  1.5967
 2756SOL     OW19900   0.939   1.030   9.265 -0.2383 -0.1747 -0.1971
 2756SOL    HW119901   1.024   0.997   9.236  1.0185  0.8570  2.3219
 2756SOL    HW219902   0.907   1.063   9.181  0.5524  2.2776  0.4782
 2757SOL     OW19903   1.202   3.014   5.715 -0.2099  0.0697  0.0838
 2757SOL    HW119904   1.239   2.938   5.760 -0.8926 -1.8855 -2.6871
 2757SOL    HW219905   1.281   3.056   5.680 -1.0287 -0.2667 -2.1866
 2758SOL     OW19906   2.514   1.068   3.668 -0.9177 -0.1254 -0.3208
 2758SOL    HW119907   2.592   1.024   3.634 -0.7036 -0.7820  1.0379
 2758SOL    HW219908   2.442   1.006   3.654  0.6393 -1.4478 -2.5059
 2759SOL     OW19909   4.284   3.480  14.748 -0.2934 -0.1003 -0.2309
 2759SOL    HW119910   4.332   3.483  14.665  2.3055  0.2200  1.2750
 2759SOL    HW219911   4.296   3.568  14.784 -0.3349  0.2779 -1.1327
 2760SOL     OW19912   0.089   4.385  11.992  0.0694  0.3024  0.1479
 2760SOL    HW119913   0.169   4.439  11.994 -0.9235  1.8735 -2.1199
 2760SOL    HW219914   0.123   4.306  11.949  0.5158  0.9890 -0.7734
 2761SOL     OW19915   2.318   0.622  15.158  0.9044 -0.3799 -0.2484
 2761SOL    HW119916   2.403   0.582  15.136  1.1062 -1.0631  1.7520
 2761SOL    HW219917   2.259   0.556  15.194  0.4234  0.2836  0.1708
 2762SOL     OW19918   4.232   1.491   6.553  0.5704 -0.4691  0.3647
 2762SOL    HW119919   4.206   1.431   6.623  1.7886  0.3996  1.5593
 2762SOL    HW219920   4.236   1.574   6.601 -3.1782  0.6976 -1.3934
 2763SOL     OW19921   0.448   0.405  12.869  0.0277 -0.3668  0.3996
 2763SOL    HW119922   0.473   0.423  12.960 -1.6798  1.3759  0.5175
 2763SOL    HW219923   0.522   0.346  12.856  1.2420  1.3529 -0.4910
 2764SOL     OW19924   2.254   1.044  11.288  0.1646  0.7325 -0.5362
 2764SOL    HW119925   2.279   1.037  11.196  2.5469 -0.7965  0.2486
 2764SOL    HW219926   2.266   1.139  11.294 -0.3361  0.7900 -0.4744
 2765SOL     OW19927   2.526   2.448  17.115  0.0974 -0.1823 -0.1782
 2765SOL    HW119928   2.531   2.367  17.064  1.7121 -0.1262 -0.1009
 2765SOL    HW219929   2.617   2.462  17.139 -0.2680  1.6319  0.1575
 2766SOL     OW19930   3.099   4.313  16.533 -0.5815  0.4066 -0.0855
 2766SOL    HW119931   3.016   4.361  16.538  0.5303  2.2987  0.3083
 2766SOL    HW219932   3.145   4.349  16.608 -2.3823 -1.8856  2.1201
 2767SOL     OW19933   1.810   3.709   7.430  0.4187  0.4440  0.0285
 2767SOL    HW119934   1.872   3.732   7.361 -0.4299  1.1886 -0.4757
 2767SOL    HW219935   1.820   3.613   7.433  2.5234  0.6490 -0.2834
 2768SOL     OW19936   3.450   0.437   2.575 -0.5369 -0.1137 -0.1413
 2768SOL    HW119937   3.494   0.522   2.578  1.1418 -1.0392  1.0037
 2768SOL    HW219938   3.510   0.401   2.510 -0.9496  1.3096 -1.3221
 2769SOL     OW19939   2.391   1.113  14.645  0.3654 -0.5873 -0.1848
 2769SOL    HW119940   2.485   1.118  14.663 -0.2032 -0.0291  2.7344
 2769SOL    HW219941   2.388   1.034  14.592 -1.4623 -0.4729 -0.2779
 2770SOL     OW19942   3.634   2.362   1.482  0.2203 -0.0430 -0.8491
 2770SOL    HW119943   3.556   2.308   1.492  2.1956 -2.4682  1.3863
 2770SOL    HW219944   3.685   2.305   1.425 -0.0341 -0.8843 -0.2320
 2771SOL     OW19945   2.673   3.028   5.106 -0.8481 -0.3605 -0.5977
 2771SOL    HW119946   2.719   3.108   5.133 -0.3919 -0.5578 -0.8010
 2771SOL    HW219947   2.700   3.028   5.014 -3.2636 -0.4886 -1.3134
 2772SOL     OW19948   0.757   3.819  13.830 -0.5688  0.5303  0.1495
 2772SOL    HW119949   0.691   3.774  13.883 -1.0556  1.3239  0.2150
 2772SOL    HW219950   0.827   3.754  13.837 -0.4361  0.8722  1.9766
 2773SOL     OW19951   0.835   3.994   8.123  0.2210 -0.3545  0.1982
 2773SOL    HW119952   0.768   4.019   8.058  0.2307  1.1930  0.7859
 2773SOL    HW219953   0.782   3.968   8.198  0.9191  1.3561  1.2890
 2774SOL     OW19954   0.464   1.645   2.157  0.5719  0.3061  0.0715
 2774SOL    HW119955   0.384   1.662   2.207 -0.6969  1.2878 -2.3016
 2774SOL    HW219956   0.432   1.629   2.068  0.5128 -0.7373  0.2728
 2775SOL     OW19957   4.116   0.475   4.410 -0.7887 -0.0660  0.4898
 2775SOL    HW119958   4.106   0.380   4.399 -2.8578  0.0593  1.3920
 2775SOL    HW219959   4.147   0.476   4.501  2.1113  1.6395 -0.5150
 2776SOL     OW19960   4.634   0.145   4.952  0.4409 -0.2293 -0.8542
 2776SOL    HW119961   4.619   0.086   5.025  1.0698  0.0294 -0.5135
 2776SOL    HW219962   4.679   0.216   4.998  0.9996 -0.2553 -1.3598
 2777SOL     OW19963   0.194   3.561   3.591  0.3618 -0.4093  0.5223
 2777SOL    HW119964   0.138   3.638   3.580  0.4904 -0.1086  2.0583
 2777SOL    HW219965   0.202   3.553   3.686 -2.6912 -0.3175  0.7936
 2778SOL     OW19966   1.263   4.663  11.835  0.1646 -0.0293 -0.5690
 2778SOL    HW119967   1.247   4.724  11.763  0.4964 -0.6802 -1.2024
 2778SOL    HW219968   1.314   4.601  11.783 -0.4729 -1.4018  0.4473
 2779SOL     OW19969   0.627   2.774  14.399 -0.2705 -0.5570  0.6095
 2779SOL    HW119970   0.545   2.805  14.361  0.0403 -1.8444 -1.1409
 2779SOL    HW219971   0.659   2.846  14.453 -0.5029  2.0921 -2.7941
 2780SOL     OW19972   4.016   2.459   6.168 -0.3148 -0.2903 -0.0478
 2780SOL    HW119973   4.100   2.423   6.194 -0.3180 -1.2008 -1.2769
 2780SOL    HW219974   3.956   2.390   6.197  0.3159 -1.4000 -1.3805
 2781SOL     OW19975   2.932   1.017   6.814  0.1727 -0.1523  0.1696
 2781SOL    HW119976   2.941   1.084   6.882 -2.3496 -0.4219  0.7702
 2781SOL    HW219977   2.837   1.008   6.804 -0.0033  0.3261  1.3297
 2782SOL     OW19978   3.124   4.141   1.746  0.1342  0.1155  0.0101
 2782SOL    HW119979   3.046   4.197   1.756  0.5477  0.4403  1.4721
 2782SOL    HW219980   3.195   4.196   1.712  0.5693 -1.2238 -1.2179
 2783SOL     OW19981   2.438   3.022   0.577  0.0509 -0.6256 -0.0663
 2783SOL    HW119982   2.502   3.040   0.645 -1.3713 -1.3205  1.4447
 2783SOL    HW219983   2.483   3.014   0.493  0.5162  0.5181  0.0754
 2784SOL     OW19984   0.700   4.461   2.025 -0.3937 -0.2612  0.4085
 2784SOL    HW119985   0.628   4.416   2.070 -1.2225 -0.2018 -0.8450
 2784SOL    HW219986   0.761   4.488   2.093  1.2241  1.4355 -1.7156
 2785SOL     OW19987   3.294   2.294   6.167 -0.5360 -0.0880  0.2458
 2785SOL    HW119988   3.207   2.262   6.192 -0.2109  0.8677  2.6723
 2785SOL    HW219989   3.344   2.213   6.167 -0.7671 -0.2349  1.2730
 2786SOL     OW19990   2.222   2.358   4.591  0.1081  0.2282  0.0540
 2786SOL    HW119991   2.245   2.266   4.583 -0.2781  0.1436 -0.0775
 2786SOL    HW219992   2.259   2.363   4.679 -1.5100 -0.7198  0.7858
 2787SOL     OW19993   2.303   0.602  12.450 -0.7027  0.0414 -0.3200
 2787SOL    HW119994   2.276   0.552  12.527  1.9194  2.2485  2.0300
 2787SOL    HW219995   2.379   0.650  12.482 -0.1939 -1.7894  1.2576
 2788SOL     OW19996   0.717   3.775   1.840  0.5216  0.0331  0.1525
 2788SOL    HW119997   0.670   3.840   1.892 -3.7132 -1.3973 -1.8808
 2788SOL    HW219998   0.745   3.704   1.898  3.0874  1.9359  1.2615
 2789SOL     OW19999   4.467   3.754   8.165  0.7576  0.2061  0.0537
 2789SOL    HW120000   4.389   3.787   8.119  0.0723 -0.8840  0.4243
 2789SOL    HW220001   4.479   3.671   8.120 -2.9290 -0.9103  1.0896
 2790SOL     OW20002   2.889   1.404  12.593 -0.0489  0.3724 -0.5330
 2790SOL    HW120003   2.980   1.375  12.599 -0.4090 -0.0602  3.1987
 2790SOL    HW220004   2.838   1.341  12.644  1.6122 -0.4554  0.1117
 2791SOL     OW20005   4.085   3.674  16.906 -0.3742 -0.3495  0.5563
 2791SOL    HW120006   4.056   3.587  16.935  2.5195 -0.7688  2.2275
 2791SOL    HW220007   4.151   3.683  16.975  2.4548  2.0185 -2.4774
 2792SOL     OW20008   3.395   1.141   6.385 -0.3110  0.0523  0.0176
 2792SOL    HW120009   3.347   1.182   6.458  2.3658 -0.2978  1.9956
 2792SOL    HW220010   3.327   1.085   6.348  0.6822 -1.1202 -0.0457
 2793SOL     OW20011   2.741   3.508   4.550  0.2832  0.0523 -0.4794
 2793SOL    HW120012   2.789   3.435   4.511 -1.6792  0.3098 -3.3644
 2793SOL    HW220013   2.808   3.574   4.534  0.5318  0.0130  0.4196
 2794SOL     OW20014   3.453   3.623  11.408 -0.3680  0.2594 -0.2166
 2794SOL    HW120015   3.465   3.668  11.491  2.5317  0.7648 -0.8906
 2794SOL    HW220016   3.359   3.609  11.414 -0.3302  0.7136  1.3518
 2795SOL     OW20017   0.558   1.466  12.588 -0.2948 -0.0972  0.0568
 2795SOL    HW120018   0.576   1.372  12.579 -0.6795  0.0660 -2.4859
 2795SOL    HW220019   0.631   1.498  12.640  1.1484  1.0219 -2.6623
 2796SOL     OW20020   0.041   0.167   6.367 -0.2749 -0.1956  1.0588
 2796SOL    HW120021   0.101   0.185   6.294 -4.5737  4.8808 -1.2091
 2796SOL    HW220022   0.085   0.089   6.401 -0.2306  0.0779  1.6324
 2797SOL     OW20023   0.551   3.862   3.477 -0.2756  0.0372 -0.4143
 2797SOL    HW120024   0.571   3.901   3.562  1.7748 -0.5082 -0.6356
 2797SOL    HW220025   0.636   3.856   3.433 -0.2605 -1.1563 -0.2226
 2798SOL     OW20026   1.310   1.223  16.946 -0.0012 -0.1611 -0.1049
 2798SOL    HW120027   1.291   1.206  17.038  0.3594  0.7513  0.1410
 2798SOL    HW220028   1.405   1.210  16.944  0.0432  0.2509 -0.5971
 2799SOL     OW20029   3.292   0.887   6.847 -0.0406  0.3160 -0.4223
 2799SOL    HW120030   3.215   0.917   6.800 -2.4059 -3.6243  0.9231
 2799SOL    HW220031   3.240   0.818   6.889  1.6167  0.9397  2.6169
 2800SOL     OW20032   2.600   4.398   2.673  0.5161 -0.0541  0.2489
 2800SOL    HW120033   2.690   4.364   2.677  0.0166 -0.9695  3.9350
 2800SOL    HW220034   2.552   4.328   2.716  1.6686 -1.7881 -1.2818
 2801SOL     OW20035   1.652   4.366   6.584 -0.2671  0.0901 -0.4693
 2801SOL    HW120036   1.676   4.404   6.668  1.9315 -1.4482 -0.4047
 2801SOL    HW220037   1.558   4.388   6.581 -1.4170 -4.8708 -0.3466
 2802SOL     OW20038   4.063   3.933  16.968 -0.2296 -0.9282 -0.1137
 2802SOL    HW120039   3.989   3.897  17.015 -1.2734 -0.4298 -1.3723
 2802SOL    HW220040   4.090   3.849  16.932  0.6340 -0.8214  0.2845
 2803SOL     OW20041   2.014   1.331   9.089 -0.0168  0.1786 -0.0730
 2803SOL    HW120042   2.090   1.390   9.094  1.1510 -1.1700 -1.7395
 2803SOL    HW220043   2.043   1.275   9.017 -0.0897 -0.8519  0.7028
 2804SOL     OW20044   1.688   4.587   1.533 -0.7346  0.0130  0.2028
 2804SOL    HW120045   1.662   4.677   1.554 -0.6262 -0.2273  1.3926
 2804SOL    HW220046   1.680   4.539   1.616 -4.5716  0.4863  0.1097
 2805SOL     OW20047   1.975   4.472   0.740  0.2116  0.1522  0.3556
 2805SOL    HW120048   1.892   4.428   0.755  0.4135 -0.7031 -1.0357
 2805SOL    HW220049   2.026   4.395   0.763  1.9536  1.8170  2.0362
 2806SOL     OW20050   1.155   0.034  12.891  0.3565  0.0597 -0.2409
 2806SOL    HW120051   1.249   0.045  12.876  0.6640  1.0812  2.3315
 2806SOL    HW220052   1.132   0.009  12.802 -1.4636  0.5863  0.0843
 2807SOL     OW20053   0.823   3.784   3.385  0.3719  0.1260  0.0555
 2807SOL    HW120054   0.888   3.753   3.323 -0.7817 -0.8585 -0.6512
 2807SOL    HW220055   0.872   3.792   3.467  0.6951  2.0182 -0.3285
 2808SOL     OW20056   4.457   4.197   1.659  0.2680 -0.0865  0.3093
 2808SOL    HW120057   4.491   4.191   1.748  0.1341 -3.2961  0.1807
 2808SOL    HW220058   4.391   4.266   1.668 -1.2472 -1.0339 -3.3422
 2809SOL     OW20059   4.292   1.668   5.502 -0.1731 -0.2131  0.3346
 2809SOL    HW120060   4.370   1.718   5.479 -0.5497 -0.2134 -0.9421
 2809SOL    HW220061   4.297   1.600   5.435 -1.9352 -0.5088  0.5069
 2810SOL     OW20062   2.188   1.874   9.090  0.1796 -0.3722 -0.1386
 2810SOL    HW120063   2.102   1.912   9.071  0.0844 -1.9807 -2.9517
 2810SOL    HW220064   2.209   1.832   9.007  0.6850 -0.9233  0.2636
 2811SOL     OW20065   1.763   3.819   9.012 -0.6612 -0.4222  0.6423
 2811SOL    HW120066   1.741   3.885   8.946  1.6782 -0.1702  0.1100
 2811SOL    HW220067   1.734   3.870   9.088  0.3626  0.2111  0.6038
 2812SOL     OW20068   2.153   0.827   4.166 -0.2090 -0.4219 -0.2522
 2812SOL    HW120069   2.248   0.817   4.157 -0.2673 -0.6505 -0.6387
 2812SOL    HW220070   2.126   0.871   4.085 -0.0203 -0.1392 -0.1620
 2813SOL     OW20071   0.876   2.818  16.827 -0.0821  0.1390 -0.0838
 2813SOL    HW120072   0.878   2.733  16.782 -1.1818  0.2822 -0.4009
 2813SOL    HW220073   0.792   2.832  16.870  0.0128  2.0741 -0.5435
 2814SOL     OW20074   1.975   1.412   2.028  0.3591 -0.5958 -0.6269
 2814SOL    HW120075   2.052   1.383   2.077  0.7009 -0.0458 -0.8420
 2814SOL    HW220076   1.995   1.505   2.022 -0.4536 -0.3857 -0.0314
 2815SOL     OW20077   0.808   2.579   5.429 -0.1160 -0.5042 -0.1326
 2815SOL    HW120078   0.820   2.637   5.353  0.5940 -0.4754  0.0031
 2815SOL    HW220079   0.885   2.591   5.484  0.4391 -0.7144 -0.8576
 2816SOL     OW20080   3.232   3.166  13.329 -0.5889  0.3957 -0.1250
 2816SOL    HW120081   3.219   3.071  13.330  0.2958  0.2633 -1.2171
 2816SOL    HW220082   3.274   3.177  13.414  0.2427  1.2724 -0.6477
 2817SOL     OW20083   0.173   2.575   6.236 -0.4573  0.3389 -0.4636
 2817SOL    HW120084   0.139   2.546   6.151  0.0763  0.0942 -0.5920
 2817SOL    HW220085   0.090   2.570   6.284  0.9192  1.0669  1.9539
 2818SOL     OW20086   3.589   3.862   1.586 -0.3538  0.1091  0.2657
 2818SOL    HW120087   3.615   3.772   1.604 -2.9366 -1.1320 -2.1474
 2818SOL    HW220088   3.669   3.905   1.556 -0.8487  0.6078 -0.3563
 2819SOL     OW20089   2.610   3.678   6.465  0.2251 -0.2799 -0.1889
 2819SOL    HW120090   2.576   3.602   6.419 -1.9733 -0.2464  1.3829
 2819SOL    HW220091   2.602   3.650   6.556 -0.0814  1.4130  0.3039
 2820SOL     OW20092   2.633   1.941   0.261 -0.2028  0.5443  0.4816
 2820SOL    HW120093   2.540   1.929   0.276 -0.4434  0.5172 -1.0119
 2820SOL    HW220094   2.660   1.860   0.218 -0.8346  0.5701  0.0397
 2821SOL     OW20095   0.666   2.016   2.093 -0.1860  0.0763  0.0480
 2821SOL    HW120096   0.601   1.982   2.031 -1.1677 -1.0016  1.6649
 2821SOL    HW220097   0.615   2.088   2.130  1.4872  1.4634 -0.3928
 2822SOL     OW20098   3.573   2.782   5.415 -0.1067 -0.7517  0.7491
 2822SOL    HW120099   3.626   2.754   5.340 -1.2695 -0.2016 -0.2849
 2822SOL    HW220100   3.619   2.732   5.482  2.2027 -1.8043 -1.6322
 2823SOL     OW20101   4.252   2.169   7.370 -0.1581 -0.2735  0.0542
 2823SOL    HW120102   4.213   2.114   7.438 -0.0451 -0.6811 -0.2099
 2823SOL    HW220103   4.251   2.259   7.403 -0.1037 -1.2060  2.5532
 2824SOL     OW20104   2.806   0.702   9.453  0.1483  0.1616  0.3894
 2824SOL    HW120105   2.869   0.645   9.498  1.0762  0.7812 -0.1062
 2824SOL    HW220106   2.724   0.664   9.484  2.0446 -4.1304  0.0750
 2825SOL     OW20107   0.557   1.743  17.064 -0.0112  0.2222  0.1364
 2825SOL    HW120108   0.552   1.654  17.030  0.9494  0.2446 -0.0461
 2825SOL    HW220109   0.594   1.787  16.987  0.9866 -2.2271 -0.7717
 2826SOL     OW20110   2.470   0.256   8.790 -0.7230  0.2253  0.4319
 2826SOL    HW120111   2.430   0.243   8.876 -1.2718 -0.0948  0.1236
 2826SOL    HW220112   2.527   0.333   8.795 -0.4390  0.0082  0.4931
 2827SOL     OW20113   1.216   2.268   7.141  0.0524 -0.4883 -0.2899
 2827SOL    HW120114   1.193   2.257   7.049  0.9656  2.1673 -0.8322
 2827SOL    HW220115   1.129   2.271   7.179 -0.8317 -3.8644 -2.0113
 2828SOL     OW20116   1.317   0.162  13.645  0.4805 -0.0455 -0.3178
 2828SOL    HW120117   1.275   0.115  13.717 -1.0397  0.5359 -0.8158
 2828SOL    HW220118   1.372   0.226  13.690  1.3201 -0.4082 -0.8348
 2829SOL     OW20119   0.475   2.543   8.631  0.2522 -0.2668 -0.7361
 2829SOL    HW120120   0.410   2.509   8.570 -1.7110 -1.1235  1.8338
 2829SOL    HW220121   0.553   2.533   8.577  1.2908  1.7476  0.3662
 2830SOL     OW20122   0.287   1.525   5.628  0.2878 -0.0083  0.0882
 2830SOL    HW120123   0.288   1.431   5.611 -2.4531  0.4693 -2.6494
 2830SOL    HW220124   0.373   1.537   5.587  0.3707 -0.3702  0.1598
 2831SOL     OW20125   3.557   2.098  16.408 -0.8965  0.1929  0.4716
 2831SOL    HW120126   3.614   2.024  16.389  0.0016 -0.0133  3.8829
 2831SOL    HW220127   3.489   2.063  16.466  0.1080  1.8596  2.6706
 2832SOL     OW20128   2.551   3.627   4.217  0.1360 -0.3224  0.2254
 2832SOL    HW120129   2.486   3.693   4.193  0.1435  0.3508  2.0292
 2832SOL    HW220130   2.591   3.676   4.289  3.1646  1.6489 -2.8337
 2833SOL     OW20131   1.407   3.470   0.840  0.1235 -0.5547 -0.8404
 2833SOL    HW120132   1.372   3.391   0.882  0.0365 -0.0527  0.0439
 2833SOL    HW220133   1.333   3.490   0.782 -1.8232 -0.5867  1.5998
 2834SOL     OW20134   2.790   3.993  15.966  0.5565 -0.1207 -0.4013
 2834SOL    HW120135   2.752   4.037  15.890 -0.7484  1.4972  1.1943
 2834SOL    HW220136   2.876   3.966  15.934  0.3616  0.3017 -1.3045
 2835SOL     OW20137   4.504   0.991  14.183 -0.4053  0.0598 -0.2924
 2835SOL    HW120138   4.524   1.041  14.104 -1.9801  0.6046 -0.3626
 2835SOL    HW220139   4.510   0.902  14.147 -2.3713 -1.1692  2.4361
 2836SOL     OW20140   4.292   0.087   7.923 -0.0294  0.1990 -0.4703
 2836SOL    HW120141   4.320   0.131   8.003 -0.9017 -0.8924  0.4447
 2836SOL    HW220142   4.311   0.150   7.854  1.2044  0.7566  0.3737
 2837SOL     OW20143   1.009   2.019   6.612  0.0145  0.4579 -0.0616
 2837SOL    HW120144   1.054   2.096   6.645 -1.0453  0.1144  2.1692
 2837SOL    HW220145   0.994   1.970   6.693  4.9781 -2.6122 -0.9673
 2838SOL     OW20146   0.845   0.847   7.736  0.1641 -0.0667  0.1455
 2838SOL    HW120147   0.940   0.851   7.748 -0.0740 -0.7805  2.2551
 2838SOL    HW220148   0.834   0.758   7.769  0.6320  0.2760  1.2136
 2839SOL     OW20149   0.959   2.120   3.572 -0.0037 -0.6018  0.6909
 2839SOL    HW120150   1.009   2.040   3.587 -0.4589 -1.0548 -0.2602
 2839SOL    HW220151   1.035   2.169   3.540 -1.2412  0.8868  0.0534
 2840SOL     OW20152   0.068   2.234  14.679  0.7380 -0.4621 -0.0755
 2840SOL    HW120153   0.059   2.154  14.730  0.8279  0.1671  0.9161
 2840SOL    HW220154   0.103   2.283  14.753 -2.2127  2.9167 -0.8713
 2841SOL     OW20155   1.046   4.382   8.882 -0.3848 -0.1643  0.0989
 2841SOL    HW120156   1.089   4.459   8.844 -3.2390  1.2640 -0.2565
 2841SOL    HW220157   1.128   4.333   8.880  0.3645  1.0327  1.0569
 2842SOL     OW20158   1.656   2.364   9.593 -0.4622  0.4559  0.4316
 2842SOL    HW120159   1.639   2.402   9.507  1.0848  1.9914  0.7947
 2842SOL    HW220160   1.741   2.403   9.615  0.9910 -2.1794 -0.4660
 2843SOL     OW20161   0.554   4.057   8.860  0.0754 -0.2801 -0.8360
 2843SOL    HW120162   0.575   4.141   8.901 -1.6728  0.3563 -1.2858
 2843SOL    HW220163   0.613   4.046   8.786  0.3432 -2.7811 -0.2632
 2844SOL     OW20164   2.664   0.116   8.370 -0.0997 -0.1558  0.3337
 2844SOL    HW120165   2.629   0.096   8.457 -0.4944 -0.5765  0.0733
 2844SOL    HW220166   2.740   0.058   8.370 -1.6846 -2.2050  3.0158
 2845SOL     OW20167   4.364   0.301   5.768 -0.2450 -0.2455 -0.2877
 2845SOL    HW120168   4.444   0.248   5.765  0.0294  0.1189  0.6903
 2845SOL    HW220169   4.313   0.266   5.695  1.2459  1.6772 -2.2130
 2846SOL     OW20170   4.127   2.233   4.011 -0.7173  0.6809 -0.7164
 2846SOL    HW120171   4.196   2.260   3.951  2.7336 -2.8028  1.6746
 2846SOL    HW220172   4.093   2.310   4.058 -0.5321 -0.0303  0.5981
 2847SOL     OW20173   2.470   1.998   7.136  0.1384 -0.0417  0.2801
 2847SOL    HW120174   2.545   1.957   7.179 -0.1013 -0.6661  0.1120
 2847SOL    HW220175   2.511   2.066   7.082  0.4489 -0.9049 -0.5824
 2848SOL     OW20176   4.441   4.166  10.035  0.1493 -0.0095 -0.3589
 2848SOL    HW120177   4.477   4.095   9.982 -1.1471  0.4949 -1.8954
 2848SOL    HW220178   4.512   4.176  10.099 -1.9685  1.4483  1.7582
 2849SOL     OW20179   3.042   3.507   2.584  0.5586  0.4275 -0.5519
 2849SOL    HW120180   3.020   3.588   2.539  1.4527  2.0008  1.8781
 2849SOL    HW220181   3.056   3.448   2.509  0.3904 -0.7918  0.3696
 2850SOL     OW20182   1.487   2.074   4.897  0.5091  0.0069  0.0122
 2850SOL    HW120183   1.394   2.058   4.881  0.1472  2.0783  0.0438
 2850SOL    HW220184   1.495   2.151   4.841  0.7648 -0.0200  0.0142
 2851SOL     OW20185   4.375   1.564  10.801 -0.5315  0.1490  0.0219
 2851SOL    HW120186   4.416   1.609  10.875 -0.7031  2.0714 -1.0581
 2851SOL    HW220187   4.389   1.471  10.822 -1.5284 -0.0197 -0.0532
 2852SOL     OW20188   4.516   0.443   8.023 -0.1400 -0.7373 -0.7829
 2852SOL    HW120189   4.543   0.410   8.109  0.9884  0.9234 -0.4918
 2852SOL    HW220190   4.479   0.530   8.040 -2.7128 -2.2808  1.6114
 2853SOL     OW20191   1.536   3.775   7.305 -0.8236  0.4110 -0.0581
 2853SOL    HW120192   1.549   3.774   7.399  0.1576 -1.8989 -0.2316
 2853SOL    HW220193   1.617   3.806   7.266 -0.9529  1.0664  0.1875
 2854SOL     OW20194   1.907   3.124   4.124  0.4172 -0.5444  0.3063
 2854SOL    HW120195   1.960   3.183   4.176  0.0251 -1.8822  2.2122
 2854SOL    HW220196   1.904   3.159   4.035 -1.3917 -1.3628  0.0438
 2855SOL     OW20197   2.652   3.808  11.248 -0.7374 -0.1823 -0.6612
 2855SOL    HW120198   2.668   3.714  11.237  2.0136  0.0130  1.9219
 2855SOL    HW220199   2.742   3.839  11.240 -0.6383 -0.1314  0.7141
 2856SOL     OW20200   0.340   4.684   7.416 -0.2700 -0.5662  0.6286
 2856SOL    HW120201   0.373   4.706   7.329 -2.8231 -0.5958 -0.3342
 2856SOL    HW220202   0.246   4.687   7.401 -0.3209  0.9263  1.2501
 2857SOL     OW20203   3.698   2.071  17.435 -0.3436 -0.4791 -0.1226
 2857SOL    HW120204   3.651   2.154  17.442 -0.7000 -0.5722 -1.3472
 2857SOL    HW220205   3.728   2.075  17.526  2.0026  1.0145 -0.9588
 2858SOL     OW20206   2.267   1.267   5.074  0.4953  0.1777  0.4199
 2858SOL    HW120207   2.290   1.275   4.981 -4.0411  0.7528 -0.6566
 2858SOL    HW220208   2.181   1.307   5.086 -0.3823 -1.5223 -0.1544
 2859SOL     OW20209   3.828   0.188   4.330 -0.0162 -0.0419  0.5169
 2859SOL    HW120210   3.804   0.280   4.318 -2.4411 -0.9515 -1.5250
 2859SOL    HW220211   3.916   0.208   4.364  0.9320 -1.4754 -1.0821
 2860SOL     OW20212   3.651   1.992   7.349  0.3069  0.3561  0.0848
 2860SOL    HW120213   3.693   2.034   7.423  0.0188  1.0890 -0.1749
 2860SOL    HW220214   3.659   1.897   7.362  1.8046  0.5129  0.3314
 2861SOL     OW20215   3.141   3.477   3.918 -0.2308  0.5971  0.0620
 2861SOL    HW120216   3.062   3.528   3.932 -0.4021 -0.1190  1.6502
 2861SOL    HW220217   3.205   3.543   3.945  0.3540 -0.4518  1.2237
 2862SOL     OW20218   1.046   0.195   3.464  0.4535  0.4356 -0.7467
 2862SOL    HW120219   1.119   0.223   3.410 -0.0493  0.8381 -1.2138
 2862SOL    HW220220   1.004   0.278   3.486 -1.1909 -0.1631 -1.5849
 2863SOL     OW20221   4.412   2.720   8.303 -0.1318  0.4186  0.3373
 2863SOL    HW120222   4.466   2.670   8.365 -0.9821 -1.1131 -0.1804
 2863SOL    HW220223   4.358   2.760   8.371 -1.4039 -4.0133  1.9000
 2864SOL     OW20224   2.087   1.976   6.513  0.4400 -0.7854 -0.4190
 2864SOL    HW120225   2.076   1.887   6.548  0.6439 -0.9162 -0.6897
 2864SOL    HW220226   2.008   2.009   6.557 -0.2477  0.0767 -2.3390
 2865SOL     OW20227   4.077   2.686   6.604 -0.2589  0.0140 -0.3096
 2865SOL    HW120228   4.113   2.598   6.600  0.5941  0.2518  1.8207
 2865SOL    HW220229   4.111   2.716   6.688  1.3950 -2.7684  0.0228
 2866SOL     OW20230   3.890   3.820   3.365  0.2090  0.0195  0.0607
 2866SOL    HW120231   3.847   3.738   3.389 -0.4288  0.7122  1.2737
 2866SOL    HW220232   3.924   3.852   3.449 -2.7611  0.8044  0.9733
 2867SOL     OW20233   1.996   4.363   1.744  0.3295  0.0129 -0.0775
 2867SOL    HW120234   1.908   4.397   1.762  0.7468  0.2303  1.6117
 2867SOL    HW220235   1.984   4.271   1.723  1.1282  0.3346 -1.8529
 2868SOL     OW20236   3.464   0.610   0.264  0.1885  0.0355 -0.1434
 2868SOL    HW120237   3.497   0.601   0.354  3.2918  0.3275 -1.2610
 2868SOL    HW220238   3.419   0.694   0.274 -0.9856 -0.6369  0.2371
 2869SOL     OW20239   4.608   3.609  11.399 -0.5810  0.3754  0.3283
 2869SOL    HW120240   4.650   3.575  11.321 -0.1689  0.6604  0.4258
 2869SOL    HW220241   4.680   3.605  11.462  0.4758 -0.9826 -0.9649
 2870SOL     OW20242   1.724   2.396   7.809 -0.2350 -0.2880 -0.4944
 2870SOL    HW120243   1.690   2.465   7.866  2.6273 -0.2700  1.1877
 2870SOL    HW220244   1.677   2.319   7.840 -2.0263  1.9218  2.3234
 2871SOL     OW20245   0.918   2.660   4.019 -0.6081 -0.8446  0.5928
 2871SOL    HW120246   0.933   2.566   4.030 -1.3386 -1.2240 -1.6001
 2871SOL    HW220247   0.845   2.654   3.957 -2.7365 -0.8412  3.1223
 2872SOL     OW20248   1.748   1.847   5.207 -0.4031 -0.4097  0.0966
 2872SOL    HW120249   1.793   1.922   5.246 -3.3797  1.5494 -0.3200
 2872SOL    HW220250   1.667   1.889   5.181 -0.4330 -1.2921 -1.2359
 2873SOL     OW20251   2.795   3.222   9.091 -0.0965 -0.3826 -0.4212
 2873SOL    HW120252   2.805   3.284   9.019 -2.9111 -1.4664 -1.7602
 2873SOL    HW220253   2.796   3.285   9.163  0.2076  2.5955 -3.0468
 2874SOL     OW20254   3.480   2.042   7.711 -0.2555 -0.3407 -0.4263
 2874SOL    HW120255   3.428   1.974   7.754  0.5364 -0.4429  0.3947
 2874SOL    HW220256   3.560   1.989   7.701  1.7109  2.2934  1.3273
 2875SOL     OW20257   1.328   1.187  16.676 -0.3805  0.1551 -0.2718
 2875SOL    HW120258   1.339   1.091  16.674  0.2274  0.2527 -1.6618
 2875SOL    HW220259   1.310   1.197  16.770 -0.7091 -0.3004 -0.2808
 2876SOL     OW20260   2.090   3.150   1.905 -0.1644 -0.7718 -1.0491
 2876SOL    HW120261   2.007   3.108   1.881 -0.7798 -0.3141  0.2484
 2876SOL    HW220262   2.112   3.100   1.983 -1.1872  0.5914  0.1316
 2877SOL     OW20263   2.019   3.862   9.450  0.4693 -0.3623  0.2784
 2877SOL    HW120264   2.085   3.924   9.481  1.6234 -0.4515 -2.0049
 2877SOL    HW220265   1.941   3.890   9.497  1.3195  0.8540  0.9770
 2878SOL     OW20266   3.865   1.366   5.026 -0.0998  0.4032 -0.1569
 2878SOL    HW120267   3.824   1.369   4.940 -1.1113 -0.5295  0.2926
 2878SOL    HW220268   3.874   1.272   5.042 -2.0448  0.5687  1.8780
 2879SOL     OW20269   3.771   3.563   8.284 -0.3208  0.0717  0.7241
 2879SOL    HW120270   3.689   3.561   8.335 -0.8633 -2.2580 -0.2481
 2879SOL    HW220271   3.759   3.492   8.221  0.9927  1.6183 -1.2657
 2880SOL     OW20272   1.308   1.822   5.533  0.1660 -0.2583  0.1012
 2880SOL    HW120273   1.301   1.917   5.520  2.1785 -0.3216 -1.4147
 2880SOL    HW220274   1.401   1.808   5.547  0.2198  0.9733  1.0300
 2881SOL     OW20275   4.418   3.884   3.719  0.1827  0.1582 -0.2854
 2881SOL    HW120276   4.338   3.836   3.741  0.9535 -0.1917  1.7020
 2881SOL    HW220277   4.408   3.951   3.787 -3.2227 -0.4374 -0.1771
 2882SOL     OW20278   0.161   3.767  11.270 -0.5450  0.0203 -0.5290
 2882SOL    HW120279   0.217   3.809  11.205  0.6712 -0.9330 -0.1078
 2882SOL    HW220280   0.222   3.698  11.298 -0.3611 -0.1775 -1.4162
 2883SOL     OW20281   1.981   2.573   3.754 -0.3027  0.2874 -0.1725
 2883SOL    HW120282   2.043   2.601   3.686  0.3638 -1.0667 -0.1322
 2883SOL    HW220283   2.025   2.498   3.795 -2.1635 -1.5469 -1.5084
 2884SOL     OW20284   3.207   4.415   2.894 -0.6714  0.3984 -0.8908
 2884SOL    HW120285   3.167   4.484   2.948 -0.5189  0.8064 -1.2973
 2884SOL    HW220286   3.180   4.441   2.806  0.5692  1.4456 -0.9686
 2885SOL     OW20287   0.327   0.480   2.960  0.2677  0.4194  0.4481
 2885SOL    HW120288   0.323   0.419   3.034  0.5193  1.1426  1.0680
 2885SOL    HW220289   0.252   0.538   2.975 -0.1149 -0.2227  1.0536
 2886SOL     OW20290   3.615   3.013   9.301  0.5409  0.7148 -0.2266
 2886SOL    HW120291   3.548   2.950   9.328  1.6297  0.0867  0.9938
 2886SOL    HW220292   3.633   3.053   9.386 -1.0997 -2.0044  1.3901
 2887SOL     OW20293   3.701   0.425   5.567 -0.0172  0.3397  0.3408
 2887SOL    HW120294   3.685   0.354   5.629  0.2764  2.0287  2.3680
 2887SOL    HW220295   3.771   0.385   5.514 -1.4287 -1.3816 -0.2285
 2888SOL     OW20296   0.031   1.657   3.549  0.6156 -0.0712  0.0629
 2888SOL    HW120297   0.087   1.640   3.474  1.9015 -2.4940  1.5861
 2888SOL    HW220298   4.685   1.664   3.503  1.4001  1.1620 -1.1491
 2889SOL     OW20299   2.544   3.028   4.766 -0.6808  0.1812 -0.4964
 2889SOL    HW120300   2.595   3.108   4.757 -0.4027  0.0552 -0.0349
 2889SOL    HW220301   2.603   2.970   4.718 -1.6850  0.2569 -1.8375
 2890SOL     OW20302   0.772   1.899   3.462 -0.9296 -0.0941  0.2002
 2890SOL    HW120303   0.817   1.911   3.378  1.5743 -1.2796  1.3765
 2890SOL    HW220304   0.697   1.949   3.429 -0.4406  1.4989  1.5446
 2891SOL     OW20305   3.176   1.674   1.042  0.1857  0.3586  1.0216
 2891SOL    HW120306   3.163   1.758   0.998  0.0038 -0.0060  0.3778
 2891SOL    HW220307   3.133   1.622   0.974  1.4046  0.0458  0.5063
 2892SOL     OW20308   2.182   3.348  17.655 -0.3023 -0.3269 -0.7279
 2892SOL    HW120309   2.222   3.378  17.737  3.3514 -0.1149 -2.6003
 2892SOL    HW220310   2.262   3.332  17.605 -0.2898 -0.7928 -0.5590
 2893SOL     OW20311   2.548   2.942   3.222 -0.3094  0.5112 -0.6086
 2893SOL    HW120312   2.498   2.893   3.287  1.7471 -0.8880 -0.0915
 2893SOL    HW220313   2.494   3.018   3.245 -1.3557 -0.1355 -0.9233
 2894SOL     OW20314   0.704   3.051   3.116  0.0660  0.0320  0.1481
 2894SOL    HW120315   0.798   3.054   3.095 -0.0951 -2.1202 -0.8369
 2894SOL    HW220316   0.679   3.015   3.030  0.3033  1.1674 -0.4033
 2895SOL     OW20317   4.207   2.041   4.183 -0.0173  0.4705 -0.0505
 2895SOL    HW120318   4.135   2.057   4.245  0.0139 -0.9081  0.3452
 2895SOL    HW220319   4.188   2.110   4.120 -0.9752  0.2476 -0.0075
 2896SOL     OW20320   0.326   3.489   4.121 -0.1320 -0.6980 -0.0456
 2896SOL    HW120321   0.372   3.568   4.148 -1.8478  0.3084 -0.0420
 2896SOL    HW220322   0.269   3.476   4.197 -0.0752 -3.5421 -0.5046
 2897SOL     OW20323   1.016   2.042   7.443 -0.0150 -0.0539 -0.9966
 2897SOL    HW120324   0.922   2.049   7.423 -0.3309 -0.6021  0.3040
 2897SOL    HW220325   1.044   1.969   7.387  0.3563 -0.9872  0.4238
 2898SOL     OW20326   0.173   0.239   3.831  0.0948  0.1894 -0.1750
 2898SOL    HW120327   0.254   0.239   3.883 -0.2851  2.4784  0.4164
 2898SOL    HW220328   0.167   0.333   3.816 -0.3956  0.1340 -0.3184
 2899SOL     OW20329   3.656   1.683   5.375 -0.1771 -0.1042 -0.4331
 2899SOL    HW120330   3.744   1.654   5.352  0.8565  3.8219 -1.3913
 2899SOL    HW220331   3.594   1.644   5.313 -0.0129 -0.2982 -0.4757
 2900SOL     OW20332   1.484   2.339  14.112  0.1562  0.0318 -0.1187
 2900SOL    HW120333   1.495   2.381  14.026  1.5079  0.8698  0.4502
 2900SOL    HW220334   1.484   2.415  14.171 -0.2136 -0.7923  0.9370
 2901SOL     OW20335   3.921   2.597  17.655  0.6407  0.4708  0.1286
 2901SOL    HW120336   3.996   2.656  17.645  2.0816 -1.8864 -2.8777
 2901SOL    HW220337   3.921   2.601   0.001 -0.6126 -0.6500  0.1673
 2902SOL     OW20338   3.556   1.030   2.168  0.3692 -0.3529 -0.0886
 2902SOL    HW120339   3.464   1.055   2.161  0.1652 -1.0300  0.1259
 2902SOL    HW220340   3.555   0.956   2.230  0.8372  2.4438  3.2512
 2903SOL     OW20341   2.072   0.016   1.346  0.1183  0.4543  0.0830
 2903SOL    HW120342   1.977   0.013   1.334 -0.0262  1.8661  0.9013
 2903SOL    HW220343   2.061   0.108   1.371 -0.5257  0.1889  0.7795
 2904SOL     OW20344   1.604   0.485   2.352  0.4549 -0.1562 -0.1746
 2904SOL    HW120345   1.590   0.499   2.258  0.4139  1.5793  0.0815
 2904SOL    HW220346   1.531   0.430   2.382  2.0567 -0.4270  3.1943
 2905SOL     OW20347   4.191   0.130   6.741 -0.1758  0.9218  0.1680
 2905SOL    HW120348   4.235   0.045   6.738  0.8666  1.6220 -5.1046
 2905SOL    HW220349   4.204   0.150   6.833 -1.6976 -1.6218  0.9149
 2906SOL     OW20350   2.760   1.298   8.065 -0.5219 -0.2543 -0.4767
 2906SOL    HW120351   2.684   1.274   8.012 -0.9820  0.0613  0.0482
 2906SOL    HW220352   2.829   1.283   8.000 -0.0196 -0.2313  0.0477
 2907SOL     OW20353   4.273   4.515   4.864  0.2125  0.6930  0.3657
 2907SOL    HW120354   4.277   4.482   4.774 -0.6791  1.2212  0.1337
 2907SOL    HW220355   4.356   4.480   4.898  0.0108  0.9944  1.1704
 2908SOL     OW20356   0.211   2.354   1.880 -0.1059  0.4719 -0.0234
 2908SOL    HW120357   0.167   2.379   1.961 -1.9463  0.1436 -0.9276
 2908SOL    HW220358   0.271   2.424   1.853 -0.2240 -0.0872 -1.7568
 2909SOL     OW20359   4.329   1.385  14.556 -0.2125 -0.4227  0.1978
 2909SOL    HW120360   4.236   1.371  14.571 -0.7750  1.3789 -1.6651
 2909SOL    HW220361   4.333   1.414  14.465  1.0718 -1.0253  0.0477
 2910SOL     OW20362   1.231   1.935   6.274  0.0264  0.2818 -0.0335
 2910SOL    HW120363   1.316   1.942   6.318  0.2674 -2.2488 -0.0846
 2910SOL    HW220364   1.205   2.027   6.277 -1.1451 -0.0842  0.7186
 2911SOL     OW20365   2.473   1.230  12.989 -0.2074 -0.3213 -0.1381
 2911SOL    HW120366   2.506   1.141  12.980 -0.0650 -0.4507  1.6649
 2911SOL    HW220367   2.440   1.237  13.078 -0.7853 -0.4073 -0.3464
 2912SOL     OW20368   0.327   4.447  13.540 -0.3039  0.2142 -0.1838
 2912SOL    HW120369   0.393   4.449  13.470 -0.7457 -1.3253 -0.6355
 2912SOL    HW220370   0.255   4.412  13.489 -0.0279 -0.4954 -0.0805
 2913SOL     OW20371   4.271   2.555  15.310  0.1100  0.6575 -0.3911
 2913SOL    HW120372   4.241   2.476  15.266 -0.1021  0.7492 -0.4100
 2913SOL    HW220373   4.198   2.617  15.302  1.3592  2.0593 -0.8850
 2914SOL     OW20374   4.071   3.842  13.132 -0.1744 -0.2953  0.3000
 2914SOL    HW120375   4.092   3.793  13.053 -0.7799  1.7316 -1.0977
 2914SOL    HW220376   3.994   3.800  13.171 -0.1579  1.1258  1.8381
 2915SOL     OW20377   4.710   3.469   5.141  0.0442  0.3447 -0.2016
 2915SOL    HW120378   0.012   3.556   5.140 -0.3711  0.5213 -1.0229
 2915SOL    HW220379   4.714   3.449   5.235  0.8780  2.0923  0.1344
 2916SOL     OW20380   2.327   2.290   6.875  0.1458  0.1970 -0.5319
 2916SOL    HW120381   2.320   2.302   6.970  0.4418 -0.1850 -0.4609
 2916SOL    HW220382   2.239   2.274   6.843  0.0784 -0.8537  0.1791
 2917SOL     OW20383   3.272   2.781  14.474  0.0650  0.1049 -0.1059
 2917SOL    HW120384   3.315   2.700  14.501 -2.0308 -0.8365  0.4208
 2917SOL    HW220385   3.279   2.842  14.547  0.5474 -1.7551  1.4005
 2918SOL     OW20386   1.877   2.713  11.414  0.2805  0.0737  0.2855
 2918SOL    HW120387   1.901   2.727  11.506 -0.5282 -2.8156  0.9658
 2918SOL    HW220388   1.895   2.803  11.389  1.1624 -0.5375 -1.2744
 2919SOL     OW20389   2.902   0.944  16.298 -0.8800  0.3331 -0.0759
 2919SOL    HW120390   2.938   0.978  16.380 -1.2028  0.2626  0.0957
 2919SOL    HW220391   2.975   0.970  16.241 -0.5752  1.4511  0.8199
 2920SOL     OW20392   4.427   2.006   4.374 -0.1382 -0.5386  0.1188
 2920SOL    HW120393   4.349   1.983   4.323 -0.0051  0.2483 -0.4361
 2920SOL    HW220394   4.482   2.064   4.322 -1.3655  0.4619 -0.0550
 2921SOL     OW20395   1.719   1.331   4.785 -0.3971  0.1528 -0.3262
 2921SOL    HW120396   1.808   1.357   4.810 -0.5162 -0.6475  0.9528
 2921SOL    HW220397   1.661   1.374   4.848  0.5506  0.4426  0.3548
 2922SOL     OW20398   3.157   0.037   4.096  0.1417 -0.0830  0.3334
 2922SOL    HW120399   3.130   0.070   4.181 -1.6326  0.1071 -0.3045
 2922SOL    HW220400   3.249   0.015   4.111  0.2934  1.7763  2.1344
 2923SOL     OW20401   0.712   0.195   1.553 -0.0636 -0.3498 -0.3181
 2923SOL    HW120402   0.802   0.207   1.523  0.4325 -1.3833  0.7147
 2923SOL    HW220403   0.703   0.277   1.601  2.7206  0.2394 -0.7940
 2924SOL     OW20404   0.930   2.593   7.387  0.3469  0.1809  0.0234
 2924SOL    HW120405   0.997   2.525   7.379 -0.0683 -0.4214  1.7128
 2924SOL    HW220406   0.859   2.536   7.417 -1.4366  2.1945 -0.3630
 2925SOL     OW20407   2.365   4.665   6.155  0.1782  0.3900 -0.2382
 2925SOL    HW120408   2.433   4.706   6.208  0.3568  1.0589 -1.0001
 2925SOL    HW220409   2.409   4.660   6.071  1.4450  0.8138  0.4084
 2926SOL     OW20410   4.326   1.853   3.296  0.7090  0.2694  0.0725
 2926SOL    HW120411   4.268   1.865   3.371  1.4248 -0.4649  0.7376
 2926SOL    HW220412   4.303   1.932   3.246 -1.6268 -0.2736  0.3117
 2927SOL     OW20413   4.365   4.560   8.554 -0.0791  0.5985 -0.3201
 2927SOL    HW120414   4.298   4.574   8.620  0.5627 -0.5479  0.5866
 2927SOL    HW220415   4.401   4.477   8.587  0.6644  1.1928  0.3873
 2928SOL     OW20416   1.592   4.425   8.667 -0.6775 -0.5952 -0.2951
 2928SOL    HW120417   1.521   4.488   8.675 -0.2233 -0.2933  1.3534
 2928SOL    HW220418   1.570   4.397   8.578 -0.5835 -0.0567 -0.4848
 2929SOL     OW20419   2.589   0.556   9.491  0.4492 -0.8466 -0.2518
 2929SOL    HW120420   2.498   0.577   9.514  1.3880  0.9448  1.9013
 2929SOL    HW220421   2.574   0.519   9.404 -1.1949 -3.0251  0.9774
 2930SOL     OW20422   1.726   3.169  10.686 -0.8493 -0.3504  0.0768
 2930SOL    HW120423   1.661   3.239  10.689  1.4859  1.7648  1.0291
 2930SOL    HW220424   1.668   3.097  10.662 -1.5587 -0.6460  2.7452
 2931SOL     OW20425   3.138   2.022  14.403  0.1964  0.1624  0.6099
 2931SOL    HW120426   3.118   2.102  14.452 -0.2822  0.9883 -0.9224
 2931SOL    HW220427   3.056   1.975  14.418  0.0213  0.6536  1.1749
 2932SOL     OW20428   2.510   3.613   6.745  0.1315  0.4011 -0.0295
 2932SOL    HW120429   2.431   3.667   6.753 -0.3756 -0.4481  0.7649
 2932SOL    HW220430   2.523   3.601   6.839  2.4324  0.7946 -0.3118
 2933SOL     OW20431   4.669   0.627  12.350 -0.0395 -0.3474 -0.3815
 2933SOL    HW120432   0.010   0.573  12.339  0.7870  0.7587  0.0792
 2933SOL    HW220433   4.713   0.698  12.398  1.7263 -1.6709 -0.0174
 2934SOL     OW20434   1.296   1.402   5.079 -0.8720 -0.0544 -0.5005
 2934SOL    HW120435   1.361   1.470   5.063  1.7330 -2.2225  0.9024
 2934SOL    HW220436   1.309   1.327   5.021  0.2051 -1.2936  1.3387
 2935SOL     OW20437   4.736   0.823   2.819  0.2213  0.2299 -0.4639
 2935SOL    HW120438   0.060   0.894   2.838  1.0930 -0.1054 -1.9613
 2935SOL    HW220439   4.664   0.872   2.780  0.6294  2.2533  1.3638
 2936SOL     OW20440   1.685   1.000   7.060 -0.2400 -0.1025 -0.2338
 2936SOL    HW120441   1.778   0.981   7.062 -0.3358 -0.6403 -0.8263
 2936SOL    HW220442   1.654   0.912   7.079  0.2948 -0.2438 -0.0191
 2937SOL     OW20443   2.656   1.330   4.091 -0.6297 -0.2487 -0.1287
 2937SOL    HW120444   2.591   1.396   4.066 -1.0061 -0.5004  0.1824
 2937SOL    HW220445   2.603   1.252   4.077  0.1104 -0.3248 -2.5224
 2938SOL     OW20446   4.655   3.857   8.332 -0.0116 -0.0028 -0.7037
 2938SOL    HW120447   4.594   3.815   8.271  0.7626  1.5432 -2.5498
 2938SOL    HW220448   4.701   3.780   8.366  0.1961  0.0593 -0.8483
 2939SOL     OW20449   2.382   1.938  12.674 -0.0203  0.6072  0.2873
 2939SOL    HW120450   2.342   1.970  12.755 -0.5980 -0.4335  0.4055
 2939SOL    HW220451   2.464   1.898  12.704 -0.2221  1.6461  2.1773
 2940SOL     OW20452   0.790   4.715   6.883 -0.1472  0.1886  0.3601
 2940SOL    HW120453   0.750   0.063   6.872  1.0961  1.0365  2.6241
 2940SOL    HW220454   0.787   4.714   6.978  4.3172 -0.1630  0.4950
 2941SOL     OW20455   3.767   3.888   5.898  0.3967 -0.4085 -0.2224
 2941SOL    HW120456   3.681   3.930   5.889  0.5858  0.2258  1.0163
 2941SOL    HW220457   3.747   3.795   5.883  0.0858 -0.2304 -0.9251
 2942SOL     OW20458   3.648   1.889   7.050  0.0864 -0.4265 -0.2114
 2942SOL    HW120459   3.700   1.809   7.046 -1.0279 -1.2636  2.2256
 2942SOL    HW220460   3.712   1.954   7.020 -0.4824  0.1647 -0.1173
 2943SOL     OW20461   4.304   1.918   2.749 -0.3255  0.2820 -0.1573
 2943SOL    HW120462   4.396   1.894   2.742 -0.2324  0.5844  0.0247
 2943SOL    HW220463   4.296   2.009   2.779 -2.7636  0.3404 -0.9265
 2944SOL     OW20464   4.736   4.301   6.744 -0.2965 -0.1614  0.0189
 2944SOL    HW120465   4.674   4.272   6.811 -0.5358  0.8420  0.2256
 2944SOL    HW220466   0.079   4.265   6.781 -2.0505  0.7745  4.8594
 2945SOL     OW20467   0.848   1.872   4.371 -0.7363  0.4309  0.2893
 2945SOL    HW120468   0.761   1.881   4.332 -0.7565 -2.0004 -0.2658
 2945SOL    HW220469   0.873   1.962   4.390 -1.7755  1.1585 -1.7994
 2946SOL     OW20470   3.804   2.459   5.899  0.4774 -0.2017  0.3665
 2946SOL    HW120471   3.862   2.478   5.972  0.0875  1.0065  0.3679
 2946SOL    HW220472   3.850   2.481   5.818  0.3758  1.0092  0.6443
 2947SOL     OW20473   0.224   0.089  13.865 -0.0974 -0.2603  0.8499
 2947SOL    HW120474   0.309   0.095  13.822 -0.3563 -0.4350  0.3253
 2947SOL    HW220475   0.187   0.012  13.822 -0.4627 -0.0277  0.7482
 2948SOL     OW20476   1.622   4.615   5.925 -0.2914  0.0964 -0.5823
 2948SOL    HW120477   1.572   4.550   5.876  1.7440 -1.0144 -1.2004
 2948SOL    HW220478   1.563   4.641   5.995  0.4894  0.6455 -0.1210
 2949SOL     OW20479   0.262   3.812   9.529  0.7454 -0.1965  0.2595
 2949SOL    HW120480   0.212   3.754   9.586  0.9428 -0.0039  0.6272
 2949SOL    HW220481   0.347   3.786   9.564  1.1125  0.9693  0.2247
 2950SOL     OW20482   3.836   1.859  12.553 -0.1346  0.0164  0.5478
 2950SOL    HW120483   3.815   1.766  12.544  2.1941 -0.3533 -1.0726
 2950SOL    HW220484   3.924   1.852  12.590  0.1800  1.9081  0.1375
 2951SOL     OW20485   2.316   4.500   0.959  0.3899  0.6500  0.2717
 2951SOL    HW120486   2.272   4.443   1.022  1.3306 -1.7366 -1.2135
 2951SOL    HW220487   2.330   4.571   1.022 -1.0565  1.1857 -0.0200
 2952SOL     OW20488   1.197   1.681  15.174 -0.3333  0.2022 -0.0839
 2952SOL    HW120489   1.269   1.623  15.146  0.9668  0.9622  1.6783
 2952SOL    HW220490   1.203   1.642  15.261 -0.7053  0.4943  0.0707
 2953SOL     OW20491   4.212   3.508   6.327  0.1804  0.0305 -0.1376
 2953SOL    HW120492   4.121   3.524   6.304  0.8524  0.9332 -2.1671
 2953SOL    HW220493   4.259   3.578   6.282 -0.1323  0.0542 -0.4252
 2954SOL     OW20494   0.443   2.405   7.045 -0.1552 -0.2210  0.1469
 2954SOL    HW120495   0.473   2.490   7.011 -2.1180  0.7030  0.7223
 2954SOL    HW220496   0.491   2.344   6.989  0.2501 -1.4013  1.7846
 2955SOL     OW20497   3.820   4.305   6.573 -0.5284  0.3419 -0.0569
 2955SOL    HW120498   3.899   4.300   6.521 -0.6312  0.4537 -0.2240
 2955SOL    HW220499   3.802   4.399   6.564  2.3107  0.7987 -0.6939
 2956SOL     OW20500   2.594   0.248   4.821 -0.3037  0.3997  0.3926
 2956SOL    HW120501   2.651   0.179   4.787 -0.6866  1.0967 -1.6954
 2956SOL    HW220502   2.653   0.285   4.886  0.0401  0.0183  0.3031
 2957SOL     OW20503   4.091   1.775  12.247 -0.0918 -0.7962  0.1544
 2957SOL    HW120504   4.089   1.839  12.175 -1.0554 -1.5398 -0.4903
 2957SOL    HW220505   4.183   1.756  12.263  0.6277  1.4376 -1.3779
 2958SOL     OW20506   4.653   3.386  16.165  0.8445  0.0556 -0.1560
 2958SOL    HW120507   4.622   3.341  16.243  2.0980  1.9945  1.4388
 2958SOL    HW220508   4.597   3.462  16.146  1.5335  0.2575 -1.4198
 2959SOL     OW20509   0.258   2.949   5.153 -0.1293 -0.6352 -0.1585
 2959SOL    HW120510   0.258   2.954   5.249  1.4667 -0.5229 -0.1607
 2959SOL    HW220511   0.298   3.033   5.129 -0.8658 -0.4109 -0.5954
 2960SOL     OW20512   3.385   2.475   8.608  0.2907 -0.4959  0.3537
 2960SOL    HW120513   3.392   2.472   8.703  0.6220  0.1382  0.3506
 2960SOL    HW220514   3.289   2.473   8.605  0.3511 -0.3669 -2.1094
 2961SOL     OW20515   1.348   1.227   3.651  0.3071 -0.0061 -0.2023
 2961SOL    HW120516   1.307   1.312   3.667 -0.2094 -0.8294  2.9203
 2961SOL    HW220517   1.303   1.196   3.573 -1.3607  3.1055 -0.4615
 2962SOL     OW20518   4.679   1.136  12.315 -0.6781  0.1554 -0.4845
 2962SOL    HW120519   4.623   1.064  12.344 -0.2943  0.6951  1.5775
 2962SOL    HW220520   4.647   1.211  12.365  2.9097  0.9742  0.6505
 2963SOL     OW20521   4.496   3.642   4.447  0.3064  0.2736  0.3592
 2963SOL    HW120522   4.578   3.662   4.402 -0.5008  0.6353 -0.9729
 2963SOL    HW220523   4.519   3.649   4.539 -1.4684 -1.3906  0.9215
 2964SOL     OW20524   1.715   1.446   2.038  0.4029 -0.1095  0.1306
 2964SOL    HW120525   1.809   1.459   2.048  0.4393 -1.5662  1.5237
 2964SOL    HW220526   1.694   1.480   1.951  0.9670  0.4688  0.2246
 2965SOL     OW20527   4.226   3.061   4.134  0.9832 -0.0198  0.1237
 2965SOL    HW120528   4.183   3.146   4.131  2.1423  0.5664  0.1762
 2965SOL    HW220529   4.208   3.029   4.045 -0.5916 -1.9641  1.1519
 2966SOL     OW20530   1.073   4.355   3.924 -0.6297 -0.3706 -0.0579
 2966SOL    HW120531   1.013   4.420   3.959  2.6171  1.7419  1.6013
 2966SOL    HW220532   1.149   4.413   3.932  0.4114 -1.3232 -2.7997
 2967SOL     OW20533   1.816   0.444  17.237  0.2714 -0.0613  0.1091
 2967SOL    HW120534   1.730   0.487  17.232  0.4290  0.3124  0.6405
 2967SOL    HW220535   1.862   0.499  17.301 -0.2782  0.5313  0.0024
 2968SOL     OW20536   2.706   0.349  15.211 -0.2287  0.5676  0.0293
 2968SOL    HW120537   2.674   0.294  15.283  0.8432 -0.2024 -0.0816
 2968SOL    HW220538   2.650   0.317  15.140  1.0671  0.2924 -0.8666
 2969SOL     OW20539   0.557   2.236   5.809 -0.0468  0.4223 -0.3991
 2969SOL    HW120540   0.507   2.166   5.767  2.5095 -0.6282 -1.6750
 2969SOL    HW220541   0.620   2.245   5.737  1.2927 -1.0653  0.5851
 2970SOL     OW20542   2.167   2.212   4.266  0.0030  0.2888 -0.1192
 2970SOL    HW120543   2.104   2.260   4.321 -0.0050 -1.0902  1.0695
 2970SOL    HW220544   2.189   2.143   4.329  0.7665 -1.0813 -1.8936
 2971SOL     OW20545   4.056   2.555   3.439 -0.3321  0.3539 -0.3082
 2971SOL    HW120546   4.087   2.553   3.530  1.2333  3.1220 -0.7958
 2971SOL    HW220547   3.991   2.625   3.443 -0.4951  0.0567  2.2752
 2972SOL     OW20548   3.044   2.880   7.460  0.7326  0.6818 -0.6913
 2972SOL    HW120549   3.032   2.794   7.501  1.6886  0.8007 -0.1663
 2972SOL    HW220550   2.951   2.897   7.444  0.8856  1.1150 -1.1181
 2973SOL     OW20551   3.371   4.652  10.251  0.1237  0.8990 -0.0240
 2973SOL    HW120552   3.450   4.601  10.268 -0.7859 -0.7304 -0.6215
 2973SOL    HW220553   3.381   4.673  10.159 -0.7202 -0.4007 -0.4151
 2974SOL     OW20554   1.598   1.037   0.911 -0.2018  0.5268  0.6234
 2974SOL    HW120555   1.643   0.954   0.896 -0.2151  0.7104 -0.4258
 2974SOL    HW220556   1.652   1.089   0.970  0.7899  1.1981 -0.8852
 2975SOL     OW20557   4.509   3.653  14.494  0.0404 -0.0502  0.4237
 2975SOL    HW120558   4.443   3.586  14.475  1.9533 -1.2342 -2.1926
 2975SOL    HW220559   4.588   3.636  14.442  1.6341  1.4785  2.3630
 2976SOL     OW20560   3.821   4.391   8.675 -0.1255 -0.1937 -0.3480
 2976SOL    HW120561   3.761   4.448   8.723 -0.3705  0.2523 -1.1828
 2976SOL    HW220562   3.772   4.391   8.593  0.9831 -0.3432 -1.0160
 2977SOL     OW20563   1.171   1.009   6.651  0.9508  0.2636  0.1704
 2977SOL    HW120564   1.154   1.069   6.578 -0.4437  1.1927  1.2667
 2977SOL    HW220565   1.087   1.003   6.696  0.9620  1.8979  0.4198
 2978SOL     OW20566   3.233   3.860   1.802  0.8524 -0.0574 -0.1733
 2978SOL    HW120567   3.191   3.946   1.807 -2.6864 -1.7317 -0.8764
 2978SOL    HW220568   3.310   3.878   1.856 -0.9128  1.1586  1.9324
 2979SOL     OW20569   2.083   4.395   2.117  0.3993 -0.2064 -0.0101
 2979SOL    HW120570   2.075   4.316   2.064  0.3013  0.4152 -0.9385
 2979SOL    HW220571   2.121   4.371   2.201 -0.3190 -1.4683 -0.0578
 2980SOL     OW20572   1.997   4.027   6.553 -0.9580 -0.0124 -0.2364
 2980SOL    HW120573   1.908   4.035   6.587  0.1358 -0.1990  2.7116
 2980SOL    HW220574   2.017   4.114   6.520  1.6302  0.0444  1.4502
 2981SOL     OW20575   1.145   0.638  14.314  0.5054  0.4462  0.0252
 2981SOL    HW120576   1.159   0.549  14.345  3.3549  1.0038  0.3122
 2981SOL    HW220577   1.180   0.695  14.382 -1.1398  0.3679  0.9233
 2982SOL     OW20578   2.784   4.085   2.406  0.1348  1.0153 -0.0921
 2982SOL    HW120579   2.706   4.115   2.360 -0.7484 -1.3479 -0.1159
 2982SOL    HW220580   2.815   4.014   2.349  1.5901  1.4774  0.1322
 2983SOL     OW20581   1.254   0.702  14.696  0.0577 -0.4243 -0.0820
 2983SOL    HW120582   1.240   0.638  14.766 -0.3311  1.0483  1.1709
 2983SOL    HW220583   1.265   0.782  14.748  1.6495 -1.9877  2.0117
 2984SOL     OW20584   2.013   3.554   2.393  0.1675 -0.5854 -0.4039
 2984SOL    HW120585   2.012   3.492   2.320  2.6584 -0.3483 -0.6422
 2984SOL    HW220586   2.054   3.627   2.347  0.2116  1.0490  2.2286
 2985SOL     OW20587   0.431   0.934   9.013 -0.3172 -0.0170  0.2125
 2985SOL    HW120588   0.446   0.840   9.009  0.3767  0.0330  1.6162
 2985SOL    HW220589   0.357   0.925   9.073 -2.8476  1.9615 -2.6442
 2986SOL     OW20590   2.693   4.170   1.227  0.4445 -0.0696  0.1047
 2986SOL    HW120591   2.650   4.086   1.244  0.9662 -0.2605  0.4863
 2986SOL    HW220592   2.752   4.140   1.157 -0.3633  0.7811 -0.9373
 2987SOL     OW20593   4.153   0.454   1.164  0.0354 -0.2636  0.1593
 2987SOL    HW120594   4.063   0.484   1.169  1.1936  2.7269  3.0054
 2987SOL    HW220595   4.140   0.367   1.125  1.7466  0.7022 -2.6103
 2988SOL     OW20596   0.628   3.114   5.366  0.2270  0.6803  0.1052
 2988SOL    HW120597   0.722   3.101   5.377  0.1558  1.5038  1.5945
 2988SOL    HW220598   0.620   3.206   5.390  0.0608  0.8434 -0.5508
 2989SOL     OW20599   0.163   1.626   3.326 -0.3217  0.0717  0.4293
 2989SOL    HW120600   0.252   1.610   3.294 -0.2144 -0.3997  0.9608
 2989SOL    HW220601   0.132   1.695   3.268  1.3511 -0.7640 -1.4587
 2990SOL     OW20602   3.789   1.754   1.365 -0.5159  0.1574 -0.4504
 2990SOL    HW120603   3.737   1.755   1.285  0.7344 -1.0243 -1.2690
 2990SOL    HW220604   3.786   1.660   1.384 -2.7359  0.6005  1.5046
 2991SOL     OW20605   4.356   1.633   3.077  0.5378 -0.4276 -0.4500
 2991SOL    HW120606   4.336   1.652   3.168 -1.8439 -1.7305 -0.7078
 2991SOL    HW220607   4.395   1.717   3.053  1.9065 -0.4523  1.7219
 2992SOL     OW20608   1.150   0.705   5.011 -0.1877  0.1466 -0.2906
 2992SOL    HW120609   1.070   0.758   5.011 -0.7385 -0.6838  4.7890
 2992SOL    HW220610   1.113   0.617   5.001 -0.7785  0.3965 -0.3133
 2993SOL     OW20611   2.903   2.225   5.637 -0.0549 -0.1712  0.0023
 2993SOL    HW120612   2.931   2.312   5.609 -0.1727 -0.4669 -1.0478
 2993SOL    HW220613   2.811   2.246   5.648 -0.9199 -1.6221 -4.2680
 2994SOL     OW20614   0.377   2.172  15.689 -0.9442 -0.0335 -0.6407
 2994SOL    HW120615   0.310   2.127  15.637 -2.8218  1.6216  0.3472
 2994SOL    HW220616   0.442   2.176  15.619 -1.6515  3.1069 -1.1082
 2995SOL     OW20617   0.271   4.238  16.324 -0.1239  0.1069  0.6389
 2995SOL    HW120618   0.333   4.252  16.253 -0.9664  1.2044  0.1156
 2995SOL    HW220619   0.276   4.311  16.386  0.9590  2.1178 -1.8332
 2996SOL     OW20620   1.547   2.519   2.131  0.6985  1.2781 -0.2970
 2996SOL    HW120621   1.624   2.528   2.187  0.4091 -0.1067  0.3028
 2996SOL    HW220622   1.584   2.526   2.043  1.6243  0.9537  0.0669
 2997SOL     OW20623   4.644   3.609  12.696 -0.2083 -0.8175  0.4161
 2997SOL    HW120624   4.706   3.548  12.737 -0.4926 -0.7459  0.9538
 2997SOL    HW220625   4.660   3.691  12.742 -3.0807  0.2810 -0.5596
 2998SOL     OW20626   2.430   2.052  12.091 -0.1913  0.6088 -0.0730
 2998SOL    HW120627   2.377   2.098  12.157 -0.9487  0.4210 -0.5536
 2998SOL    HW220628   2.449   1.972  12.140  1.2989  2.1391  1.8728
 2999SOL     OW20629   0.775   0.759   3.585 -0.1117  0.6896 -1.0484
 2999SOL    HW120630   0.869   0.741   3.583  0.1879  1.9757  1.0467
 2999SOL    HW220631   0.763   0.780   3.678 -3.2703  1.8776 -1.7439
 3000SOL     OW20632   4.025   3.569   7.689 -0.0303 -0.2766  0.8365
 3000SOL    HW120633   3.938   3.552   7.653 -0.0773  2.3370 -0.3343
 3000SOL    HW220634   4.074   3.578   7.606 -1.5357 -0.0397 -0.0179
 3001SOL     OW20635   1.696   4.711   3.630 -0.2492 -0.6152 -0.0205
 3001SOL    HW120636   1.735   4.676   3.550 -0.5016 -0.3917 -0.2411
 3001SOL    HW220637   1.772   4.713   3.689 -0.3922  4.3298  0.0060
 3002SOL     OW20638   0.443   0.925   3.078 -0.4625 -0.2437 -0.5431
 3002SOL    HW120639   0.508   0.962   3.138 -0.5294 -0.5131 -0.3007
 3002SOL    HW220640   0.396   1.000   3.043  0.8181  1.2147  0.8665
 3003SOL     OW20641   0.238   3.029   2.201  0.0091 -0.1725 -0.0040
 3003SOL    HW120642   0.173   2.998   2.264 -0.4690 -1.5351 -1.1722
 3003SOL    HW220643   0.303   3.063   2.263 -1.6370 -0.0788  1.7053
 3004SOL     OW20644   2.552   2.325   5.555 -0.0392  0.0860  0.1372
 3004SOL    HW120645   2.615   2.369   5.497  0.4094 -0.3766  0.2744
 3004SOL    HW220646   2.529   2.394   5.617  2.4958  0.3578  0.7673
 3005SOL     OW20647   4.173   0.579   3.539 -0.3603  0.3194  0.1279
 3005SOL    HW120648   4.125   0.512   3.589  1.1240  0.3914  1.6377
 3005SOL    HW220649   4.264   0.556   3.555 -0.4353  0.6943  1.0898
 3006SOL     OW20650   4.235   2.214   6.589 -0.5871 -0.5029 -0.6596
 3006SOL    HW120651   4.208   2.162   6.664 -2.9294  2.8876  0.8293
 3006SOL    HW220652   4.303   2.167   6.540  1.0435  0.2062  0.9253
 3007SOL     OW20653   0.198   3.001   3.427  0.4373  0.9109  0.3971
 3007SOL    HW120654   0.108   2.980   3.405  0.5358  1.1114 -0.2041
 3007SOL    HW220655   0.186   3.080   3.479 -1.7120 -0.3618  1.8295
 3008SOL     OW20656   2.744   1.849   1.370 -0.0440 -0.1070  0.6983
 3008SOL    HW120657   2.678   1.803   1.319  2.6741  1.1452 -3.9226
 3008SOL    HW220658   2.818   1.791   1.352  0.2109  1.2811 -2.7015
 3009SOL     OW20659   1.154   2.943  11.770  0.3902 -0.6653 -0.4851
 3009SOL    HW120660   1.134   3.030  11.737 -0.6608 -1.1154 -1.0233
 3009SOL    HW220661   1.212   2.961  11.844  2.2648 -1.6435 -1.7346
 3010SOL     OW20662   0.322   3.924   9.908 -0.0118  0.0613  0.3126
 3010SOL    HW120663   0.374   3.952   9.832 -0.0424 -1.8915 -0.4144
 3010SOL    HW220664   0.248   3.985   9.906  1.1475  1.4347 -0.8363
 3011SOL     OW20665   1.853   0.526   5.566 -0.0485 -0.4353 -0.1328
 3011SOL    HW120666   1.870   0.485   5.481  1.5889 -3.3746  1.6216
 3011SOL    HW220667   1.855   0.618   5.538 -0.0791 -1.0216 -2.1063
 3012SOL     OW20668   1.583   0.705   5.357  0.0849  0.2554 -0.8297
 3012SOL    HW120669   1.676   0.717   5.336  0.6774 -1.2875  0.9450
 3012SOL    HW220670   1.595   0.708   5.452  2.7249  0.1125 -1.1498
 3013SOL     OW20671   2.096   0.549  10.099  0.1539 -0.1986 -0.4456
 3013SOL    HW120672   2.095   0.577  10.190 -0.8877 -2.2295  0.1575
 3013SOL    HW220673   2.160   0.609  10.061  2.0858 -1.4251  0.8556
 3014SOL     OW20674   2.059   1.570   3.394 -0.7472  0.6649  0.2914
 3014SOL    HW120675   2.010   1.642   3.355  1.6043  1.0956 -1.8312
 3014SOL    HW220676   1.990   1.525   3.443 -1.2028 -0.7334 -1.6331
 3015SOL     OW20677   2.750   1.331   7.503 -0.0001 -0.0306 -0.0960
 3015SOL    HW120678   2.836   1.352   7.467  0.0538 -2.0359 -1.1661
 3015SOL    HW220679   2.702   1.316   7.422 -2.9459 -0.9058  1.8221
 3016SOL     OW20680   2.925   4.560   7.012  0.0864  0.2876 -0.0734
 3016SOL    HW120681   3.006   4.600   7.043  1.6228 -3.4673  0.7572
 3016SOL    HW220682   2.884   4.624   6.954 -0.2896 -0.5617 -0.7462
 3017SOL     OW20683   4.395   1.033   4.301 -0.2163  0.2236 -0.6471
 3017SOL    HW120684   4.433   1.010   4.385 -0.6466 -1.2214 -0.8369
 3017SOL    HW220685   4.396   0.947   4.257 -2.2624  0.7517 -1.7454
 3018SOL     OW20686   4.278   1.431   8.756 -0.2360 -0.2650  0.3349
 3018SOL    HW120687   4.373   1.435   8.742 -0.1136  0.4122  1.3563
 3018SOL    HW220688   4.271   1.338   8.778  0.0936 -0.8236 -1.9830
 3019SOL     OW20689   0.581   2.446   4.909 -0.8538  0.0744 -1.0026
 3019SOL    HW120690   0.555   2.515   4.971  2.3342  1.6261 -1.4039
 3019SOL    HW220691   0.591   2.500   4.831  3.3549  0.0416 -0.4890
 3020SOL     OW20692   3.533   1.926  14.306 -0.6524 -0.5787 -0.1847
 3020SOL    HW120693   3.444   1.904  14.332 -0.8342  0.5539  0.1687
 3020SOL    HW220694   3.558   1.874  14.230 -0.3928  2.2016 -2.0188
 3021SOL     OW20695   3.797   1.509   4.009  0.1826 -0.1694  0.2247
 3021SOL    HW120696   3.716   1.536   3.967  1.2008  1.2143 -0.8475
 3021SOL    HW220697   3.852   1.581   3.978  1.5180 -1.5235 -0.5903
 3022SOL     OW20698   3.017   0.977   7.539  0.0655 -0.0571 -0.2902
 3022SOL    HW120699   3.083   1.044   7.555 -1.1718  1.1912 -0.4851
 3022SOL    HW220700   3.071   0.903   7.511  2.6737  0.5352  3.1584
 3023SOL     OW20701   3.220   3.844   9.449 -0.2191  0.0207  0.2481
 3023SOL    HW120702   3.280   3.846   9.524 -0.1858  2.1390  0.1612
 3023SOL    HW220703   3.137   3.823   9.492  1.2399 -4.3481  0.9596
 3024SOL     OW20704   3.814   0.777   2.130  0.2139  0.3848  0.6375
 3024SOL    HW120705   3.777   0.812   2.211  0.8321  2.8138 -0.1337
 3024SOL    HW220706   3.770   0.693   2.138 -0.6256  0.8220  0.6132
 3025SOL     OW20707   3.204   2.209  12.939  0.4875 -0.5409 -0.5920
 3025SOL    HW120708   3.297   2.210  12.919  0.7158  1.6188  0.5630
 3025SOL    HW220709   3.190   2.255  13.022 -1.1165 -0.6524 -0.8018
 3026SOL     OW20710   3.403   0.767  12.550  0.3432 -0.7023  0.0378
 3026SOL    HW120711   3.446   0.744  12.633 -1.7907  1.4846  1.7576
 3026SOL    HW220712   3.436   0.696  12.494  0.0959 -0.3021 -0.6036
 3027SOL     OW20713   2.292   2.243   5.480  0.7457 -0.0133  0.5509
 3027SOL    HW120714   2.375   2.274   5.445 -0.7157 -0.0655 -3.0123
 3027SOL    HW220715   2.259   2.326   5.512  3.8960  1.1021  0.9125
 3028SOL     OW20716   4.045   0.113   8.481  0.3350 -0.3926  0.5324
 3028SOL    HW120717   4.111   0.107   8.413 -1.1311 -3.5537 -0.6491
 3028SOL    HW220718   4.019   0.021   8.487 -0.7772 -0.2102 -1.5382
 3029SOL     OW20719   0.126   2.348  14.926  0.0329 -0.0247  0.3659
 3029SOL    HW120720   0.109   2.280  14.991 -0.6826 -0.0920  0.1150
 3029SOL    HW220721   0.184   2.411  14.969  0.2825  1.5804 -2.2812
 3030SOL     OW20722   3.090   2.421   9.637  0.1890  0.3052 -0.2421
 3030SOL    HW120723   3.098   2.326   9.647 -0.1063  0.6416  3.2601
 3030SOL    HW220724   3.120   2.420   9.546  1.0775  4.5159 -0.0014
 3031SOL     OW20725   1.953   2.791   6.596  0.6831 -0.1356  0.2312
 3031SOL    HW120726   1.884   2.856   6.588  0.2656 -0.9233 -2.6770
 3031SOL    HW220727   2.038   2.836   6.596  1.6714 -1.9777 -1.5233
 3032SOL     OW20728   4.520   2.855   2.566  0.0168 -0.2195 -0.2559
 3032SOL    HW120729   4.605   2.817   2.584  0.0079 -0.1860 -0.1433
 3032SOL    HW220730   4.462   2.785   2.594  0.2788 -0.3513 -0.0502
 3033SOL     OW20731   2.929   0.180   5.677  0.0590  0.3486 -0.0655
 3033SOL    HW120732   3.014   0.220   5.660  0.0452  1.0608  1.5236
 3033SOL    HW220733   2.905   0.220   5.761  0.4415 -0.3290  0.3596
 3034SOL     OW20734   2.131   2.954   6.105  0.1017 -0.4442  0.3253
 3034SOL    HW120735   2.068   2.887   6.079 -0.2377 -0.5076  1.3019
 3034SOL    HW220736   2.200   2.949   6.039  2.5543  0.1393  2.8281
 3035SOL     OW20737   4.623   4.534   2.412 -0.0701  0.2678 -0.2078
 3035SOL    HW120738   4.672   4.614   2.392 -0.1510  0.3472 -0.0864
 3035SOL    HW220739   4.542   4.573   2.446  1.3139 -0.8895  4.2892
 3036SOL     OW20740   3.744   3.256   7.077  0.1982  0.1772 -0.0357
 3036SOL    HW120741   3.787   3.299   7.151  0.4116 -1.7306  0.9435
 3036SOL    HW220742   3.727   3.334   7.023  0.2757 -0.8251 -1.5034
 3037SOL     OW20743   4.064   3.956   6.532 -0.8553 -0.1455 -0.2341
 3037SOL    HW120744   4.000   4.020   6.503  1.0126  0.8442 -2.1506
 3037SOL    HW220745   4.145   4.004   6.513  0.4949 -2.5371 -0.5394
 3038SOL     OW20746   2.214   4.441   4.907  0.0026  0.3671 -0.5848
 3038SOL    HW120747   2.254   4.524   4.882  3.1488 -1.1144 -0.5063
 3038SOL    HW220748   2.238   4.381   4.836  1.1794  0.3097 -0.1364
 3039SOL     OW20749   3.697   2.876   2.942  0.1490 -0.5182  0.3938
 3039SOL    HW120750   3.737   2.827   2.870  0.3872 -0.7993  0.7157
 3039SOL    HW220751   3.642   2.938   2.894  0.2674 -0.8945 -0.2311
 3040SOL     OW20752   4.146   2.911   5.047  0.3255  0.4981 -0.1583
 3040SOL    HW120753   4.157   2.971   4.973  0.5761  1.4829  0.6904
 3040SOL    HW220754   4.050   2.904   5.044  0.3009  1.8149 -2.6749
 3041SOL     OW20755   1.891   2.290   4.106 -0.1370 -0.1511 -0.4976
 3041SOL    HW120756   1.984   2.267   4.109 -0.6743 -2.0424  1.9156
 3041SOL    HW220757   1.855   2.229   4.171  1.7374 -0.7984 -0.0876
 3042SOL     OW20758   0.484   0.558   7.631 -0.3164 -0.0785  0.4290
 3042SOL    HW120759   0.402   0.511   7.617 -0.4129 -0.1998  1.4270
 3042SOL    HW220760   0.519   0.561   7.542 -0.9125  2.0546  0.2625
 3043SOL     OW20761   2.572   1.067   4.761  0.1415  0.1803 -0.1187
 3043SOL    HW120762   2.524   0.985   4.757 -0.6369  0.5332  1.7482
 3043SOL    HW220763   2.589   1.097   4.672 -0.0315  0.5556 -0.0278
 3044SOL     OW20764   1.000   1.826   4.623 -0.0626 -0.5334 -0.4857
 3044SOL    HW120765   1.008   1.754   4.560  2.0159 -1.3435  0.7109
 3044SOL    HW220766   1.078   1.872   4.591 -0.9669 -0.3911 -2.4678
 3045SOL     OW20767   1.069   1.862   9.353 -0.4401  0.3113  0.2318
 3045SOL    HW120768   1.102   1.949   9.379 -0.8761  0.4130  0.4480
 3045SOL    HW220769   1.120   1.809   9.415 -0.7479  2.9489  2.7630
 3046SOL     OW20770   0.444   1.365   5.995  0.7440 -0.0761 -0.1220
 3046SOL    HW120771   0.362   1.341   5.951  0.9010 -0.5759 -0.1448
 3046SOL    HW220772   0.498   1.395   5.921  1.5384 -1.1217  0.0330
 3047SOL     OW20773   3.072   4.236   2.278 -0.0943 -0.0846 -0.5836
 3047SOL    HW120774   3.117   4.222   2.361  2.0902  0.6967 -1.6345
 3047SOL    HW220775   3.073   4.332   2.269 -1.9984 -0.2006 -1.9744
 3048SOL     OW20776   4.539   3.059   8.522 -0.4278  0.5083 -0.4686
 3048SOL    HW120777   4.593   3.131   8.555 -1.0311  0.2718  0.9970
 3048SOL    HW220778   4.587   3.019   8.449 -2.3631 -1.2412 -0.7953
 3049SOL     OW20779   2.535   2.093   3.521 -0.1825 -0.0769 -0.2619
 3049SOL    HW120780   2.591   2.041   3.580  0.4381  0.0739 -0.7181
 3049SOL    HW220781   2.599   2.151   3.481  0.8571 -0.9195  0.1816
 3050SOL     OW20782   2.344   1.231   5.692 -0.4966 -0.0027  0.0734
 3050SOL    HW120783   2.251   1.251   5.679 -0.2941  1.1509  0.4738
 3050SOL    HW220784   2.344   1.208   5.785  1.4214 -1.0494 -0.1725
 3051SOL     OW20785   2.336   3.523   4.372 -0.9251  0.0322  0.3689
 3051SOL    HW120786   2.395   3.573   4.315 -0.6849 -2.0620 -1.2218
 3051SOL    HW220787   2.394   3.536   4.447  0.0374  0.1205 -0.3899
 3052SOL     OW20788   2.164   3.343  14.816  0.1050 -0.4480 -0.5321
 3052SOL    HW120789   2.155   3.416  14.877  0.9122  0.0390 -0.9843
 3052SOL    HW220790   2.080   3.303  14.797 -0.8134  0.6158  1.2518
 3053SOL     OW20791   3.529   1.264   4.639  0.1598  0.5334 -0.0780
 3053SOL    HW120792   3.555   1.275   4.547  0.9392  0.0185  0.0811
 3053SOL    HW220793   3.454   1.205   4.637  0.4684  0.1344  0.2856
 3054SOL     OW20794   3.691   0.819  13.588  0.2437 -0.7737  0.4919
 3054SOL    HW120795   3.643   0.872  13.652 -1.5875 -4.0654  1.8250
 3054SOL    HW220796   3.728   0.757  13.651  3.2771 -0.3010 -0.8318
 3055SOL     OW20797   3.028   1.924   7.835  0.4775  0.2526 -0.2041
 3055SOL    HW120798   3.070   1.947   7.752 -2.0429  0.2615 -1.4928
 3055SOL    HW220799   3.079   1.982   7.892  2.7412  1.4111 -3.3948
 3056SOL     OW20800   4.380   3.342   2.645  0.2038  0.0956  0.0920
 3056SOL    HW120801   4.340   3.278   2.703  1.7272 -0.7754  0.1866
 3056SOL    HW220802   4.392   3.419   2.701  1.8241  0.1263 -0.2853
 3057SOL     OW20803   2.865   0.791   3.873  0.4359 -0.2722 -0.2339
 3057SOL    HW120804   2.938   0.787   3.811 -0.1946 -2.6137 -0.8249
 3057SOL    HW220805   2.854   0.885   3.887 -2.4273 -0.5220 -0.7637
 3058SOL     OW20806   3.128   1.713  12.325  0.4482  0.2885 -0.2933
 3058SOL    HW120807   3.216   1.676  12.314  0.5080  0.4115 -0.2331
 3058SOL    HW220808   3.076   1.634  12.333  1.6897 -0.3212  1.7822
 3059SOL     OW20809   3.154   1.862   8.130 -0.3145 -0.0677 -0.0436
 3059SOL    HW120810   3.082   1.820   8.084 -1.4842  0.7560  1.0095
 3059SOL    HW220811   3.209   1.786   8.147  0.2632  0.5059  0.6875
 3060SOL     OW20812   0.672   4.700   2.704 -0.1425 -0.1874 -0.2171
 3060SOL    HW120813   0.661   0.048   2.745 -0.2221 -0.8565  1.1489
 3060SOL    HW220814   0.763   4.681   2.727 -1.0229 -1.6566  2.0295
 3061SOL     OW20815   1.428   2.119   8.938  0.2518 -0.0244  0.1012
 3061SOL    HW120816   1.360   2.063   8.976 -1.6316  2.5956  0.5202
 3061SOL    HW220817   1.498   2.114   9.002  1.8322 -1.5613 -1.7257
 3062SOL     OW20818   0.077   0.111   7.768 -0.1615 -0.2506  0.1071
 3062SOL    HW120819   0.054   0.024   7.801  1.4472 -0.1128  1.6433
 3062SOL    HW220820   0.153   0.117   7.827 -0.4613  1.6228  0.2858
 3063SOL     OW20821   0.468   1.410   7.780  0.4448  0.4133 -0.4132
 3063SOL    HW120822   0.562   1.413   7.762  0.4728 -2.3987 -0.7292
 3063SOL    HW220823   0.439   1.405   7.689 -0.2868 -3.4216  0.0400
 3064SOL     OW20824   4.653   1.692   1.996 -0.9058 -0.0684  0.3202
 3064SOL    HW120825   4.694   1.606   2.007  0.7984  0.5960 -0.9243
 3064SOL    HW220826   4.717   1.743   1.947 -0.2261 -1.3806 -0.1660
 3065SOL     OW20827   0.591   0.868   7.916  0.5667  0.0073 -0.3840
 3065SOL    HW120828   0.642   0.890   7.994  0.1258 -0.0057 -0.0976
 3065SOL    HW220829   0.661   0.874   7.850  2.6341  2.9574  2.0971
 3066SOL     OW20830   2.397   3.348   8.693 -0.1303 -0.1378  0.3792
 3066SOL    HW120831   2.386   3.320   8.602 -1.4949  0.7660  0.2648
 3066SOL    HW220832   2.318   3.400   8.712  0.2906  0.2104  1.1616
 3067SOL     OW20833   3.515   4.655   6.615 -0.1266 -0.2860  0.0471
 3067SOL    HW120834   3.595   4.617   6.580  1.2340  0.6491  2.1887
 3067SOL    HW220835   3.560   4.703   6.684 -1.1185 -0.0420  0.5254
 3068SOL     OW20836   2.286   2.338   0.202 -0.1389  0.5527  0.4362
 3068SOL    HW120837   2.377   2.321   0.227 -0.0349 -0.0554 -0.3642
 3068SOL    HW220838   2.245   2.348   0.288  0.7071 -0.2720  0.9387
 3069SOL     OW20839   0.035   3.027   4.980  0.4623  0.2616  0.7386
 3069SOL    HW120840   0.111   2.974   5.003  2.2145  1.4729 -2.2448
 3069SOL    HW220841   0.041   3.099   5.043 -3.1164 -0.2934  1.7009
 3070SOL     OW20842   0.455   2.262   7.426  0.0969  0.3781 -0.3145
 3070SOL    HW120843   0.486   2.202   7.494  1.6370 -0.4142 -1.7105
 3070SOL    HW220844   0.514   2.236   7.355  1.4217 -0.3581  1.0461
 3071SOL     OW20845   4.499   2.741   8.919 -0.1958 -0.0178 -0.2176
 3071SOL    HW120846   4.425   2.684   8.901  0.0729 -0.5986  0.5416
 3071SOL    HW220847   4.470   2.826   8.884  0.7581 -0.2226 -1.4811
 3072SOL     OW20848   1.110   2.221   6.873  0.3319  0.0274 -0.1058
 3072SOL    HW120849   1.160   2.239   6.793 -1.6311  0.7594 -1.1811
 3072SOL    HW220850   1.103   2.126   6.877 -0.1800  0.0473 -0.4372
 3073SOL     OW20851   2.307   4.680   4.827 -0.1022  0.0911  0.2799
 3073SOL    HW120852   2.296   4.663   4.733  3.7693 -0.2741 -0.0936
 3073SOL    HW220853   2.334   0.034   4.827 -0.1262  0.0953  1.1543
 3074SOL     OW20854   2.347   0.594   2.803 -0.2828 -0.2468 -0.5013
 3074SOL    HW120855   2.428   0.636   2.775 -1.5864  2.7473  0.2330
 3074SOL    HW220856   2.300   0.593   2.720 -1.6229 -2.7548  0.2758
 3075SOL     OW20857   3.802   0.695   5.446  0.0310  0.1851 -0.3395
 3075SOL    HW120858   3.892   0.728   5.437 -0.0992  0.7096  0.3087
 3075SOL    HW220859   3.791   0.674   5.538 -1.2627 -1.4771 -0.8649
 3076SOL     OW20860   1.706   1.609  15.563  0.4845 -0.5621 -0.2242
 3076SOL    HW120861   1.766   1.681  15.585 -0.8846  0.7113 -0.6420
 3076SOL    HW220862   1.728   1.548  15.633  0.7588 -0.6100 -0.3503
 3077SOL     OW20863   2.854   3.588   8.628 -0.0824  0.0604 -0.0503
 3077SOL    HW120864   2.759   3.593   8.639  0.0966 -1.3199  2.0808
 3077SOL    HW220865   2.879   3.647   8.698 -0.4956  0.3921 -0.1847
 3078SOL     OW20866   3.112   0.219  13.538  0.0898 -0.6017  0.2806
 3078SOL    HW120867   3.173   0.220  13.612 -1.0773 -0.8529  1.2458
 3078SOL    HW220868   3.050   0.291  13.550  0.6835 -0.3283  1.6758
 3079SOL     OW20869   0.477   3.922  13.794 -0.0843 -0.4531  0.1706
 3079SOL    HW120870   0.419   3.903  13.719 -0.4051  1.4633 -0.0729
 3079SOL    HW220871   0.534   3.988  13.753 -1.4028  1.4274  1.3314
 3080SOL     OW20872   1.972   1.063   5.012 -0.2346 -0.5582  0.3591
 3080SOL    HW120873   1.985   1.157   5.021 -0.1382 -0.5902  0.5635
 3080SOL    HW220874   1.990   1.056   4.918  2.2816  1.0611  0.7069
 3081SOL     OW20875   0.469   0.165   7.612 -0.2781 -0.2817 -0.1318
 3081SOL    HW120876   0.402   0.110   7.571 -2.7948  1.4147  1.6991
 3081SOL    HW220877   0.513   0.102   7.667 -0.9261 -0.2888  0.3833
 3082SOL     OW20878   3.365   1.713   8.435  0.2155 -0.0150  0.4631
 3082SOL    HW120879   3.444   1.751   8.473  0.2042  0.7375 -0.2646
 3082SOL    HW220880   3.314   1.794   8.437  0.6571  0.2691  0.3763
 3083SOL     OW20881   1.643   1.057  13.858  0.1324  0.1034 -0.0126
 3083SOL    HW120882   1.655   1.150  13.835  0.6403  0.6349  2.3828
 3083SOL    HW220883   1.548   1.055  13.873 -0.1902  1.3351 -1.9417
 3084SOL     OW20884   0.165   0.526   7.960 -0.5487 -0.1910 -0.5054
 3084SOL    HW120885   0.158   0.480   8.044  2.0639  1.1937  0.4791
 3084SOL    HW220886   0.136   0.449   7.911 -0.6587 -1.3679  1.3840
 3085SOL     OW20887   2.240   2.233   6.518 -0.8383  0.5740 -0.6914
 3085SOL    HW120888   2.258   2.320   6.553  1.8067 -0.4996  0.5737
 3085SOL    HW220889   2.150   2.222   6.550 -0.4066 -2.3489 -0.4314
 3086SOL     OW20890   3.787   0.025   0.016  0.5398  0.7389  0.5706
 3086SOL    HW120891   3.707   4.720   0.048  0.1896  1.8164  1.1224
 3086SOL    HW220892   3.857   4.704   0.045 -0.2501  0.0679  1.1243
 3087SOL     OW20893   3.424   2.447   8.874  0.2470 -0.1413 -0.4856
 3087SOL    HW120894   3.429   2.542   8.860 -0.5332  0.2766  2.2533
 3087SOL    HW220895   3.332   2.442   8.898  0.9518  0.7415  2.3367
 3088SOL     OW20896   2.901   1.066   7.274 -0.1848  0.9508 -0.7613
 3088SOL    HW120897   2.973   1.129   7.268 -0.5815  2.0029  5.0364
 3088SOL    HW220898   2.870   1.087   7.362  0.4339  0.2974 -0.3837
 3089SOL     OW20899   4.334   0.785   7.391  0.8997 -0.4568 -0.5367
 3089SOL    HW120900   4.415   0.805   7.436 -0.4856  1.3888  1.1289
 3089SOL    HW220901   4.318   0.693   7.410 -0.5541  0.3321  2.0326
 3090SOL     OW20902   4.011   1.836  16.273 -0.1915 -0.0050 -0.2604
 3090SOL    HW120903   4.058   1.901  16.220  1.3177 -2.7058 -2.2208
 3090SOL    HW220904   4.034   1.760  16.221  2.2123  1.8183 -1.8389
 3091SOL     OW20905   2.612   4.050   3.049  0.6704 -0.0990  0.1341
 3091SOL    HW120906   2.573   4.091   3.126  1.4515 -1.4735  1.2678
 3091SOL    HW220907   2.704   4.043   3.075  0.8993  0.1630 -0.6149
 3092SOL     OW20908   1.538   2.592  16.599  0.0966 -0.5270 -0.2437
 3092SOL    HW120909   1.537   2.627  16.689 -2.0999 -0.1968 -0.4008
 3092SOL    HW220910   1.476   2.519  16.600 -0.5780  0.0899  3.4001
 3093SOL     OW20911   3.487   0.189   4.691  0.0019  0.2195 -0.2932
 3093SOL    HW120912   3.524   0.257   4.635  0.9022 -0.1655 -0.1505
 3093SOL    HW220913   3.492   0.234   4.776  1.1336 -0.3993 -0.0448
 3094SOL     OW20914   2.438   0.692   8.468  0.2295 -0.3247  0.1517
 3094SOL    HW120915   2.421   0.643   8.388  0.9402  0.0206 -0.2096
 3094SOL    HW220916   2.533   0.691   8.460  0.1059 -1.3750 -1.1357
 3095SOL     OW20917   3.547   3.360  17.024 -0.3574  0.4024 -0.1251
 3095SOL    HW120918   3.483   3.353  17.095  1.8715 -0.2267  1.8217
 3095SOL    HW220919   3.537   3.451  16.995  0.2768  0.1548 -1.1005
 3096SOL     OW20920   2.334   4.526  11.186 -0.4602  0.0930 -0.4277
 3096SOL    HW120921   2.265   4.466  11.214 -0.4140 -0.6067 -1.7739
 3096SOL    HW220922   2.380   4.468  11.126 -0.4355 -1.9063  1.5652
 3097SOL     OW20923   1.175   4.681   7.291 -0.4884  0.2941 -0.1066
 3097SOL    HW120924   1.175   0.025   7.243  1.3388 -1.5302 -3.2258
 3097SOL    HW220925   1.256   4.687   7.341  0.7299  0.1358 -2.0551
 3098SOL     OW20926   1.619   3.952   5.876  0.4240  0.2086  0.0869
 3098SOL    HW120927   1.656   3.884   5.931  0.4288 -1.3953 -1.8977
 3098SOL    HW220928   1.533   3.911   5.868  0.2992  0.2633  1.1676
 3099SOL     OW20929   0.792   0.517  11.957 -0.2282  0.5852  0.4220
 3099SOL    HW120930   0.722   0.582  11.965 -0.7002  0.5603 -3.7552
 3099SOL    HW220931   0.780   0.443  12.017 -2.3168  1.3500  0.9735
 3100SOL     OW20932   4.623   1.693  15.970 -0.1407 -0.4197 -0.6309
 3100SOL    HW120933   4.663   1.633  15.907  3.1539  1.6115 -0.4641
 3100SOL    HW220934   4.530   1.672  15.972 -0.8986  2.9888  0.0266
 3101SOL     OW20935   3.727   4.002   8.469  0.3180  0.7105  0.3022
 3101SOL    HW120936   3.790   3.933   8.448  1.2191  1.5519  0.2408
 3101SOL    HW220937   3.675   3.960   8.537 -0.3750 -0.7930 -1.1631
 3102SOL     OW20938   0.642   3.820  16.670 -0.3520 -0.4313  0.0292
 3102SOL    HW120939   0.604   3.735  16.689 -1.9357  0.6552  1.7819
 3102SOL    HW220940   0.585   3.861  16.604  0.6974 -0.4992 -0.9142
 3103SOL     OW20941   1.182   3.442   0.325  0.1383  0.2808 -0.1859
 3103SOL    HW120942   1.170   3.537   0.330  2.4556  0.4547  2.0655
 3103SOL    HW220943   1.089   3.421   0.335  0.0976 -0.4189 -2.1102
 3104SOL     OW20944   0.520   0.404  13.131  0.1643  0.1880  0.2279
 3104SOL    HW120945   0.578   0.340  13.173  0.7218  0.5518  0.0220
 3104SOL    HW220946   0.458   0.430  13.198 -1.2636 -0.1026 -0.9876
 3105SOL     OW20947   1.484   1.480  12.572  0.6955  0.1953 -0.2481
 3105SOL    HW120948   1.533   1.418  12.627 -1.7656 -2.4084 -0.9929
 3105SOL    HW220949   1.443   1.542  12.632 -0.2728  1.8028 -2.6142
 3106SOL     OW20950   0.133   0.316   2.781  0.1178  0.2686 -0.1072
 3106SOL    HW120951   0.205   0.354   2.831 -0.8138  1.7814  0.0785
 3106SOL    HW220952   0.130   0.226   2.814 -0.0932 -0.0007 -0.8612
 3107SOL     OW20953   3.018   0.249   4.724  0.0496  0.1393  0.1741
 3107SOL    HW120954   3.077   0.323   4.712  0.4216 -0.0539  0.8398
 3107SOL    HW220955   3.076   0.175   4.707  1.5593  1.5620 -0.9222
 3108SOL     OW20956   2.847   1.073   5.448  0.2602 -0.1368 -0.0614
 3108SOL    HW120957   2.886   0.987   5.432  1.1346  0.3480 -0.5040
 3108SOL    HW220958   2.870   1.122   5.369 -2.5200  2.6372  0.8711
 3109SOL     OW20959   3.638   4.493   5.025  0.2591 -0.0208  0.0359
 3109SOL    HW120960   3.690   4.572   5.042  1.4963 -0.7898 -0.1332
 3109SOL    HW220961   3.584   4.473   5.102 -0.0099 -2.1540 -0.7119
 3110SOL     OW20962   3.551   1.672   6.336  0.4528  0.1363 -0.1966
 3110SOL    HW120963   3.472   1.720   6.362  1.3946  2.6860 -2.0021
 3110SOL    HW220964   3.513   1.584   6.337  0.9504 -0.0680  1.1234
 3111SOL     OW20965   1.898   3.216   2.746 -0.5374  0.1301  0.1124
 3111SOL    HW120966   1.911   3.289   2.686 -0.8629  0.1452  0.0618
 3111SOL    HW220967   1.826   3.173   2.700 -0.0084  0.2899 -0.8572
 3112SOL     OW20968   4.697   3.775  13.031 -0.1207 -0.2397  0.0100
 3112SOL    HW120969   0.021   3.807  12.966 -0.8012  0.3624 -0.3414
 3112SOL    HW220970   4.705   3.845  13.096  2.1785 -0.2205 -0.2901
 3113SOL     OW20971   3.686   2.136   6.729  0.0914  0.0100 -0.1401
 3113SOL    HW120972   3.603   2.140   6.682 -1.0229  1.0878  1.9181
 3113SOL    HW220973   3.656   2.168   6.814 -3.5850 -0.1920 -1.3533
 3114SOL     OW20974   1.354   1.556  16.957  0.2193 -0.9507  0.4628
 3114SOL    HW120975   1.399   1.628  16.913  2.1780 -1.9594  0.8541
 3114SOL    HW220976   1.368   1.565  17.052  1.8756 -4.2213  0.5155
 3115SOL     OW20977   2.150   3.841  14.814 -0.6669  0.4215  0.3379
 3115SOL    HW120978   2.235   3.814  14.781  0.0879  0.9380  1.8829
 3115SOL    HW220979   2.099   3.836  14.733  1.5112 -0.3942 -0.9849
 3116SOL     OW20980   3.463   3.976  16.152  0.5574  0.3884 -0.3253
 3116SOL    HW120981   3.535   3.960  16.090  0.2265  1.3311 -0.9544
 3116SOL    HW220982   3.479   4.059  16.196 -0.9073  1.9559 -2.7296
 3117SOL     OW20983   1.157   3.824   6.080  0.1885 -0.7453  0.3421
 3117SOL    HW120984   1.176   3.880   6.155  2.4845 -1.8005  0.5490
 3117SOL    HW220985   1.084   3.775   6.115 -0.9870  0.3488 -0.5850
 3118SOL     OW20986   1.194   4.653   2.380  0.1751 -0.9561 -0.4564
 3118SOL    HW120987   1.235   4.729   2.421  1.8588 -1.7451 -0.6782
 3118SOL    HW220988   1.139   4.698   2.317  0.8662 -0.7960 -0.9485
 3119SOL     OW20989   3.329   0.832   9.430  1.0374  0.2689  0.5058
 3119SOL    HW120990   3.423   0.817   9.424  0.9273  0.4415 -1.6513
 3119SOL    HW220991   3.298   0.851   9.342 -0.9051 -1.1138  0.9032
 3120SOL     OW20992   3.662   3.771   1.225  0.4547 -0.0906 -0.1559
 3120SOL    HW120993   3.609   3.735   1.297 -0.2596  1.0775 -0.0929
 3120SOL    HW220994   3.595   3.778   1.157  1.5369  2.0053 -0.9850
 3121SOL     OW20995   0.733   1.834   7.020 -0.1723 -0.1423 -0.1043
 3121SOL    HW120996   0.724   1.900   6.951  2.4741  1.4872  1.1424
 3121SOL    HW220997   0.806   1.875   7.066 -0.4365  0.2242 -0.0099
 3122SOL     OW20998   1.772   3.099   5.702  0.2661  0.1163  0.4568
 3122SOL    HW120999   1.845   3.084   5.762  0.3772 -2.8262 -0.4333
 3122SOL    HW221000   1.810   3.127   5.618 -2.7947  1.6773 -0.4066
 3123SOL     OW21001   1.668   2.745   8.024  0.2069  0.2872  0.0538
 3123SOL    HW121002   1.615   2.810   8.070 -0.5185 -0.8518  0.8318
 3123SOL    HW221003   1.597   2.699   7.980  0.7725 -1.3135  0.8065
 3124SOL     OW21004   3.474   2.783   8.586 -0.0099  0.4294  0.1545
 3124SOL    HW121005   3.397   2.827   8.550 -1.3468 -1.4992  0.6782
 3124SOL    HW221006   3.500   2.845   8.655  1.6438 -1.4376  1.2179
 3125SOL     OW21007   4.486   4.151  11.749  0.1310  0.2108  0.4338
 3125SOL    HW121008   4.406   4.203  11.756  0.6162  1.1012 -0.7232
 3125SOL    HW221009   4.514   4.168  11.839  2.7470  0.5172 -0.4384
 3126SOL     OW21010   2.858   0.301   5.907  0.0014  0.0051  0.1190
 3126SOL    HW121011   2.841   0.384   5.950 -0.3832 -0.2190  0.4050
 3126SOL    HW221012   2.826   0.243   5.976  0.3004  1.0094  1.0988
 3127SOL     OW21013   3.444   3.610   6.643 -0.5274 -0.3900 -0.2631
 3127SOL    HW121014   3.472   3.663   6.718  0.4572  0.9223 -1.5405
 3127SOL    HW221015   3.383   3.551   6.686 -1.1814 -0.7354 -1.6584
 3128SOL     OW21016   3.679   4.449   3.409  0.0859 -0.0882 -0.6555
 3128SOL    HW121017   3.619   4.415   3.475  0.6059 -0.0956 -0.1866
 3128SOL    HW221018   3.622   4.427   3.335 -0.5021  0.7839 -0.4729
 3129SOL     OW21019   2.617   2.122  11.312  0.3287 -0.4408 -0.0395
 3129SOL    HW121020   2.623   2.027  11.315  1.8503 -0.4233 -1.6876
 3129SOL    HW221021   2.689   2.139  11.373  1.1430 -0.6948 -0.9318
 3130SOL     OW21022   3.274   0.268   2.157 -0.2387  0.5262 -0.8417
 3130SOL    HW121023   3.188   0.235   2.129 -0.0715 -2.2745  1.9544
 3130SOL    HW221024   3.261   0.252   2.250 -1.9151 -0.4424 -1.2408
 3131SOL     OW21025   3.087   2.502  17.531 -0.8505 -0.3866 -0.4171
 3131SOL    HW121026   3.001   2.545  17.536 -0.5204  0.3321 -0.8854
 3131SOL    HW221027   3.105   2.483  17.623  1.9799  1.4789 -0.5716
 3132SOL     OW21028   0.832   2.793  13.581  0.4734  0.1298 -0.2870
 3132SOL    HW121029   0.888   2.846  13.524  0.7972  0.2905  0.1876
 3132SOL    HW221030   0.889   2.768  13.653  0.2187 -1.0493 -0.4995
 3133SOL     OW21031   2.917   1.496   7.852 -0.4943 -0.2621  0.1246
 3133SOL    HW121032   2.901   1.403   7.834  2.2195 -0.6473 -0.2289
 3133SOL    HW221033   2.827   1.524   7.835 -0.5271  0.5565  1.6394
 3134SOL     OW21034   4.184   4.129   4.747 -0.3995  0.2480  0.6718
 3134SOL    HW121035   4.230   4.125   4.832 -0.8206 -1.4856  0.8150
 3134SOL    HW221036   4.226   4.057   4.700  0.6586  1.2193  0.1364
 3135SOL     OW21037   4.495   3.136   2.420  0.6763  0.5766  0.5372
 3135SOL    HW121038   4.431   3.184   2.367 -0.5517 -1.5392  0.0935
 3135SOL    HW221039   4.490   3.174   2.507 -1.0112 -0.6126  0.9822
 3136SOL     OW21040   2.335   0.568   4.490  0.0362  0.1833 -0.3382
 3136SOL    HW121041   2.385   0.487   4.494  1.4789  0.9985 -1.7712
 3136SOL    HW221042   2.243   0.544   4.479  0.6277 -2.6330  0.9035
 3137SOL     OW21043   0.515   3.532   3.224 -0.6317 -0.3068 -0.3015
 3137SOL    HW121044   0.440   3.555   3.169 -0.0662 -0.3478 -1.0870
 3137SOL    HW221045   0.490   3.581   3.302  0.9592  0.5942 -0.3548
 3138SOL     OW21046   2.837   1.637   2.003  0.5715  0.0221  0.3354
 3138SOL    HW121047   2.828   1.604   2.092  0.6218  0.3707  0.4685
 3138SOL    HW221048   2.802   1.563   1.954  1.2173 -0.1522  0.1283
 3139SOL     OW21049   0.512   0.392  15.750 -0.3814 -0.0715 -0.1180
 3139SOL    HW121050   0.423   0.379  15.718  0.0286 -0.3944 -1.1159
 3139SOL    HW221051   0.543   0.456  15.686  2.5343 -0.9685  0.3759
 3140SOL     OW21052   0.792   1.685   7.756 -0.5844 -0.0431 -0.2261
 3140SOL    HW121053   0.776   1.604   7.803  0.2122  0.1885  0.4655
 3140SOL    HW221054   0.838   1.745   7.816 -1.1837 -0.9109  1.0869
 3141SOL     OW21055   1.611   4.722  12.274  0.5037 -0.1639  0.4412
 3141SOL    HW121056   1.553   4.661  12.229  1.9943 -0.9060 -0.4737
 3141SOL    HW221057   1.558   0.064  12.274  1.1074  0.2315  0.2277
 3142SOL     OW21058   3.395   2.035   7.256  0.5186 -0.4559  0.1777
 3142SOL    HW121059   3.361   1.959   7.208  2.3370 -0.7980 -0.5818
 3142SOL    HW221060   3.487   2.010   7.267  0.8231  0.6923  0.2034
 3143SOL     OW21061   1.716   3.920   3.121 -0.1080  0.0032 -0.4527
 3143SOL    HW121062   1.723   3.828   3.097  0.6178  0.0657 -0.4659
 3143SOL    HW221063   1.800   3.921   3.167  0.2493  1.1103 -1.1087
 3144SOL     OW21064   2.321   4.727   5.668 -0.0963  0.4409  0.5452
 3144SOL    HW121065   2.228   4.721   5.648  0.1283 -4.2420  0.7793
 3144SOL    HW221066   2.360   0.024   5.588  0.1664  1.4751  1.1313
 3145SOL     OW21067   4.480   2.299  15.680 -0.3491 -0.3101  0.4235
 3145SOL    HW121068   4.532   2.293  15.760 -0.0983 -3.0696  0.0743
 3145SOL    HW221069   4.547   2.254  15.628 -0.6319  0.5658 -0.6717
 3146SOL     OW21070   0.089   3.659  12.423 -0.2081 -0.0985 -0.7203
 3146SOL    HW121071   0.021   3.650  12.490 -0.8303 -2.3380 -1.6725
 3146SOL    HW221072   0.037   3.694  12.350  1.0432  1.0063 -1.0741
 3147SOL     OW21073   4.016   1.073   6.237 -0.1156 -0.1032 -0.1789
 3147SOL    HW121074   4.004   1.153   6.289 -0.9803  1.3772 -2.6328
 3147SOL    HW221075   3.955   1.082   6.163 -0.4790  2.8943  0.4935
 3148SOL     OW21076   3.154   3.037   2.840  0.1385  0.2070 -0.0045
 3148SOL    HW121077   3.159   3.099   2.767  0.0494  0.3738  0.1322
 3148SOL    HW221078   3.085   2.981   2.804  2.0754 -1.1507 -1.5965
 3149SOL     OW21079   3.671   2.083   0.528 -0.6874  0.0960 -0.1930
 3149SOL    HW121080   3.747   2.036   0.562 -1.2857 -1.0571 -0.4562
 3149SOL    HW221081   3.608   2.017   0.555  0.2574 -0.4331  0.7170
 3150SOL     OW21082   0.551   2.986  14.988  0.4945  0.2796 -0.3792
 3150SOL    HW121083   0.517   3.026  14.908  0.1694 -0.0215 -0.3893
 3150SOL    HW221084   0.603   2.914  14.950 -0.4932 -0.6602  0.0675
 3151SOL     OW21085   3.189   4.119  14.569  0.4624  0.8203  0.0121
 3151SOL    HW121086   3.215   4.135  14.660  3.2871  1.4452 -0.9162
 3151SOL    HW221087   3.102   4.160  14.576 -1.2926 -2.7994 -0.8915
 3152SOL     OW21088   1.253   3.154  10.043 -0.2925 -0.2890 -0.2816
 3152SOL    HW121089   1.207   3.195  10.116  0.7587 -0.0533  0.2459
 3152SOL    HW221090   1.189   3.088  10.017  0.4796 -1.1946  0.1486
 3153SOL     OW21091   3.481   3.123   7.428 -0.2048 -0.2708  0.3205
 3153SOL    HW121092   3.545   3.079   7.484 -1.3862 -0.7625  1.2737
 3153SOL    HW221093   3.406   3.064   7.430 -0.2964 -0.1247  1.2184
 3154SOL     OW21094   0.239   1.382   8.333  0.3086  0.0098  0.6022
 3154SOL    HW121095   0.176   1.311   8.323  1.8819 -0.9930 -2.2960
 3154SOL    HW221096   0.287   1.400   8.252 -0.4178  2.1838  0.6728
 3155SOL     OW21097   4.594   2.140  15.922 -0.1803 -0.1269  0.6651
 3155SOL    HW121098   4.678   2.112  15.884 -0.1141  0.5516  0.3016
 3155SOL    HW221099   4.619   2.225  15.959  0.3487  0.7009 -1.6327
 3156SOL     OW21100   1.016   0.806  14.540 -0.3833 -1.1997 -0.6625
 3156SOL    HW121101   1.072   0.753  14.597  0.0147 -1.8350 -1.6488
 3156SOL    HW221102   1.067   0.887  14.545  2.0603 -2.7637 -0.2510
 3157SOL     OW21103   2.544   3.593   2.386  1.1643 -0.1452 -0.2922
 3157SOL    HW121104   2.545   3.689   2.386 -1.6779 -0.1212 -2.8112
 3157SOL    HW221105   2.479   3.587   2.316  0.1419 -0.5973  0.7207
 3158SOL     OW21106   2.725   2.175   8.191  0.1278  0.4479 -0.5249
 3158SOL    HW121107   2.778   2.124   8.252 -0.4204  1.3584  0.7045
 3158SOL    HW221108   2.704   2.248   8.249 -1.0718 -0.8552  0.6649
 3159SOL     OW21109   1.140   4.047   0.084  0.1415  0.1965 -0.3408
 3159SOL    HW121110   1.169   3.956   0.088 -1.6345 -0.3317  0.3201
 3159SOL    HW221111   1.047   4.031   0.100  0.1364  1.6156  1.0523
 3160SOL     OW21112   3.216   2.228   5.221  0.2441 -0.2119 -0.2853
 3160SOL    HW121113   3.156   2.216   5.147 -0.0973  0.0061 -0.0413
 3160SOL    HW221114   3.273   2.297   5.189  0.7285 -0.5206 -0.0879
 3161SOL     OW21115   0.434   0.309   3.910 -0.0563 -0.1178 -0.6085
 3161SOL    HW121116   0.489   0.384   3.888  1.5651 -1.2658 -0.4073
 3161SOL    HW221117   0.499   0.263   3.963  2.1382  1.2831 -2.0904
 3162SOL     OW21118   4.616   1.497  16.573 -0.7628  0.0798  0.2881
 3162SOL    HW121119   4.655   1.491  16.660  1.1064  1.4139 -0.4679
 3162SOL    HW221120   4.521   1.495  16.589 -0.7403 -1.8078  0.1952
 3163SOL     OW21121   2.848   2.382   1.317  0.0579  0.6431 -0.3385
 3163SOL    HW121122   2.839   2.305   1.373  0.9360  0.4978 -0.4009
 3163SOL    HW221123   2.896   2.349   1.242 -0.5173  0.5047 -0.6406
 3164SOL     OW21124   1.505   0.338  13.795  0.4083 -0.2599  0.3112
 3164SOL    HW121125   1.529   0.306  13.882 -1.4721  0.8646  1.2370
 3164SOL    HW221126   1.430   0.395  13.813 -0.0650 -0.6492 -0.4171
 3165SOL     OW21127   1.948   2.625  11.902  0.2492 -0.8407 -0.1322
 3165SOL    HW121128   1.936   2.621  11.997  2.1892  3.2289  0.2699
 3165SOL    HW221129   2.014   2.558  11.883 -0.5264 -1.9685  1.1440
 3166SOL     OW21130   1.971   3.814   3.157  0.0098  0.1129 -0.0585
 3166SOL    HW121131   1.983   3.893   3.104 -0.4844 -0.8786 -1.6631
 3166SOL    HW221132   1.975   3.754   3.082  2.9986 -1.7978  1.6432
 3167SOL     OW21133   0.015   3.468   3.001  0.2014 -0.0546  0.0040
 3167SOL    HW121134   0.063   3.454   2.919  1.2340  2.5892  0.1593
 3167SOL    HW221135   4.715   3.382   3.016  2.1433 -0.8165  0.6344
 3168SOL     OW21136   2.489   2.268   7.402  0.1002  0.2872  0.1447
 3168SOL    HW121137   2.397   2.281   7.379  0.0976 -0.5549 -0.3360
 3168SOL    HW221138   2.508   2.174   7.398  1.3587  0.7045 -3.8189
 3169SOL     OW21139   3.360   3.392  10.114  0.4523  0.3282 -0.3897
 3169SOL    HW121140   3.443   3.361  10.079  0.1967 -1.3246  0.4428
 3169SOL    HW221141   3.348   3.469  10.058  1.7899 -0.2826 -1.5188
 3170SOL     OW21142   4.056   3.342   8.599 -0.1825  0.5404  0.1468
 3170SOL    HW121143   4.069   3.375   8.510  3.2108 -0.0623  0.4430
 3170SOL    HW221144   4.009   3.416   8.639 -1.9131  0.8776 -2.5107
 3171SOL     OW21145   3.568   4.168   9.533 -0.1138 -0.3195  0.3833
 3171SOL    HW121146   3.593   4.253   9.497  0.9949  0.1894  2.3492
 3171SOL    HW221147   3.563   4.108   9.459  0.3250  0.6769 -0.4473
 3172SOL     OW21148   1.534   3.534   2.043  0.4991 -0.1544  0.2889
 3172SOL    HW121149   1.467   3.589   2.002 -0.2283 -1.5109 -0.3614
 3172SOL    HW221150   1.481   3.463   2.081 -2.8651  1.4976 -1.2990
 3173SOL     OW21151   0.984   3.909   9.102 -0.0599  0.2572 -0.1223
 3173SOL    HW121152   1.022   3.977   9.157 -0.9075 -0.4544  1.3774
 3173SOL    HW221153   0.895   3.917   9.138 -0.6554 -1.0507 -1.3242
 3174SOL     OW21154   4.208   1.050  11.808  0.5977  0.3616 -0.5514
 3174SOL    HW121155   4.198   1.010  11.722 -0.1552 -1.5145  0.4033
 3174SOL    HW221156   4.130   1.014  11.851  1.5488  0.8976  1.6570
 3175SOL     OW21157   1.085   2.858   6.806  0.4425 -0.3764  0.1826
 3175SOL    HW121158   1.156   2.858   6.870 -0.0321 -1.9174  0.6960
 3175SOL    HW221159   1.027   2.929   6.835  1.9102  0.2975  1.4288
 3176SOL     OW21160   2.514   4.539   1.212 -0.6125  0.7323 -0.0383
 3176SOL    HW121161   2.428   4.534   1.255 -0.5424 -0.3942 -0.0140
 3176SOL    HW221162   2.531   4.630   1.234 -1.0148  0.6062  0.7708
 3177SOL     OW21163   0.051   0.616   2.400 -0.2125 -0.0250 -0.2520
 3177SOL    HW121164   0.106   0.684   2.362  0.2644  1.2877  2.7893
 3177SOL    HW221165   0.106   0.540   2.382 -0.0044  0.3634 -1.2310
 3178SOL     OW21166   0.873   3.918   9.913 -0.4547 -0.4829  0.3978
 3178SOL    HW121167   0.924   3.864   9.853 -1.9426  0.1452 -1.3993
 3178SOL    HW221168   0.786   3.910   9.875 -0.2202  0.2820 -0.2832
 3179SOL     OW21169   2.665   3.943   4.918 -0.1475 -0.6756 -0.2948
 3179SOL    HW121170   2.624   3.932   5.004 -0.3738  0.1788 -0.2900
 3179SOL    HW221171   2.707   3.858   4.909 -2.7516 -2.1389  1.2446
 3180SOL     OW21172   1.176   1.083   1.356  0.0611  0.8706 -0.8845
 3180SOL    HW121173   1.106   1.062   1.294  0.2470 -3.1892  0.3215
 3180SOL    HW221174   1.126   1.135   1.419 -1.8626 -0.1175 -1.6147
 3181SOL     OW21175   0.760   2.712   1.343  0.1258 -0.6145 -0.1014
 3181SOL    HW121176   0.721   2.627   1.325 -0.3770 -0.4397  0.1357
 3181SOL    HW221177   0.685   2.772   1.352  0.6403 -0.3965  2.7904
 3182SOL     OW21178   1.287   1.776   6.907  0.1358  0.3372 -0.1709
 3182SOL    HW121179   1.344   1.714   6.954  1.0436  0.6352 -0.8783
 3182SOL    HW221180   1.319   1.760   6.819  2.5708  0.7043  0.6295
 3183SOL     OW21181   4.381   3.391  12.761  0.6658 -0.0552 -0.1631
 3183SOL    HW121182   4.412   3.308  12.797 -1.6082 -0.6083  0.4566
 3183SOL    HW221183   4.415   3.462  12.816 -1.4650  0.6920  0.1578
 3184SOL     OW21184   3.633   2.425   7.683  0.3332  0.1447 -0.5944
 3184SOL    HW121185   3.614   2.484   7.756  1.5360 -2.2441  1.6197
 3184SOL    HW221186   3.625   2.342   7.730  1.1853  0.2467 -0.2536
 3185SOL     OW21187   4.435   1.034   7.942 -0.1434  0.0152  0.1914
 3185SOL    HW121188   4.503   0.970   7.922 -0.5281  0.5252 -2.7557
 3185SOL    HW221189   4.362   0.987   7.981 -0.9111  2.2907  1.4830
 3186SOL     OW21190   1.366   2.933   8.444  0.1003 -0.0675 -0.6609
 3186SOL    HW121191   1.417   2.867   8.491  2.2735  1.6452 -0.5836
 3186SOL    HW221192   1.370   3.005   8.507  0.3754  2.3913 -3.5149
 3187SOL     OW21193   0.286   2.826   5.878 -0.4735 -0.2950 -0.1514
 3187SOL    HW121194   0.378   2.814   5.853 -0.6973 -0.9916 -0.6223
 3187SOL    HW221195   0.249   2.740   5.861 -2.4496  0.0401  2.4574
 3188SOL     OW21196   1.001   0.713   4.570 -0.1171  0.3252 -0.2953
 3188SOL    HW121197   1.005   0.618   4.584  1.0168  0.1361 -1.9192
 3188SOL    HW221198   1.092   0.731   4.549 -0.3801  2.0034  0.0333
 3189SOL     OW21199   1.273   1.862   5.255 -0.1207 -0.1573 -0.1135
 3189SOL    HW121200   1.221   1.906   5.188 -0.1003  0.5696  0.3528
 3189SOL    HW221201   1.288   1.924   5.327 -1.1248  1.4275 -1.2946
 3190SOL     OW21202   0.509   1.081   1.929  0.3758  0.0793 -0.0541
 3190SOL    HW121203   0.426   1.084   1.976  0.0529 -0.6720 -0.5831
 3190SOL    HW221204   0.567   1.134   1.984  0.6440  1.7423 -1.9259
 3191SOL     OW21205   4.653   4.220   4.646  0.8782 -0.0261 -0.0166
 3191SOL    HW121206   0.006   4.231   4.618  0.2440 -0.9886 -2.4487
 3191SOL    HW221207   4.674   4.215   4.740 -2.1453 -0.5338  0.6570
 3192SOL     OW21208   1.954   2.940   5.853  0.2759  0.3372  0.7905
 3192SOL    HW121209   2.006   2.986   5.787 -2.8155  0.9006 -1.2338
 3192SOL    HW221210   1.956   2.852   5.816  0.6603  0.4861  0.4618
 3193SOL     OW21211   1.514   4.093   9.340  0.3473  0.1674 -0.3422
 3193SOL    HW121212   1.579   4.161   9.324  3.3483 -2.3226  1.3215
 3193SOL    HW221213   1.436   4.129   9.297  0.3754 -2.7135 -2.7770
 3194SOL     OW21214   3.843   1.136   2.953  0.1941 -0.1779  0.2506
 3194SOL    HW121215   3.794   1.061   2.984 -0.1780 -0.1079 -0.1730
 3194SOL    HW221216   3.868   1.170   3.039  0.8807 -1.9056  0.7422
 3195SOL     OW21217   1.816   1.024   5.490  0.5658 -0.5499  0.0719
 3195SOL    HW121218   1.896   1.003   5.538  0.9662  0.1537 -0.2952
 3195SOL    HW221219   1.808   0.946   5.436  0.2003 -0.2438 -0.3193
 3196SOL     OW21220   1.754   3.011   7.903 -0.1826  0.0569 -0.2053
 3196SOL    HW121221   1.819   2.970   7.960 -0.9678 -1.3883 -0.3395
 3196SOL    HW221222   1.692   3.041   7.969 -0.8803 -2.1380  0.1405
 3197SOL     OW21223   1.682   3.637   2.233  0.3000  0.2818 -0.2832
 3197SOL    HW121224   1.743   3.710   2.223 -0.9407  1.2240 -1.0680
 3197SOL    HW221225   1.643   3.636   2.145 -2.8544 -1.2931  1.1334
 3198SOL     OW21226   1.537   1.276   2.183  0.4855  0.6086  0.2409
 3198SOL    HW121227   1.605   1.243   2.242 -1.6188 -1.2044  1.6394
 3198SOL    HW221228   1.585   1.317   2.111 -0.4898 -0.9401 -1.2795
 3199SOL     OW21229   1.208   1.375   0.552  0.1023  0.4127  0.0640
 3199SOL    HW121230   1.135   1.374   0.490  0.3221  0.5232 -0.1981
 3199SOL    HW221231   1.238   1.285   0.565 -0.3314  0.2435 -0.1248
 3200SOL     OW21232   4.510   3.961   7.784  0.3566  0.2463 -0.4977
 3200SOL    HW121233   4.466   3.881   7.811 -0.2294  1.2822  1.6428
 3200SOL    HW221234   4.518   4.004   7.869 -0.2729 -1.1245  0.2465
 3201SOL     OW21235   4.161   2.398   9.604 -0.5087 -0.5737  0.1670
 3201SOL    HW121236   4.141   2.376   9.695 -0.7600  0.1972  0.3010
 3201SOL    HW221237   4.223   2.467   9.627 -0.8899  0.0073 -0.5515
 3202SOL     OW21238   0.367   0.528   4.221  1.3124 -0.5073  0.6676
 3202SOL    HW121239   0.350   0.542   4.128 -1.3943 -2.8472  0.7779
 3202SOL    HW221240   0.427   0.454   4.227 -0.1104 -1.4885  3.2533
 3203SOL     OW21241   4.364   2.607  15.844 -0.4920 -0.3014  0.2083
 3203SOL    HW121242   4.372   2.515  15.867  0.6784  0.1291  1.5025
 3203SOL    HW221243   4.360   2.603  15.748 -1.5634 -1.3924  0.2991
 3204SOL     OW21244   4.545   3.348  17.430 -0.0706 -0.4740  0.1137
 3204SOL    HW121245   4.546   3.263  17.473  2.2569 -0.2871  0.4451
 3204SOL    HW221246   4.486   3.325  17.358  2.0604  1.0483 -2.1048
 3205SOL     OW21247   0.919   2.873   4.213 -0.1533 -0.0080 -0.7592
 3205SOL    HW121248   0.887   2.816   4.283  0.5769 -0.5197 -0.8461
 3205SOL    HW221249   0.921   2.807   4.143  3.0660  0.2713 -0.9257
 3206SOL     OW21250   3.820   2.713  10.882 -0.1596  0.3127  0.4160
 3206SOL    HW121251   3.892   2.691  10.823  0.8269  1.5651  1.1451
 3206SOL    HW221252   3.770   2.632  10.879  0.3640  0.0285 -0.7598
 3207SOL     OW21253   1.243   0.336   6.401 -0.1800  0.1420 -0.1431
 3207SOL    HW121254   1.161   0.385   6.398  0.7282  1.7081  0.2436
 3207SOL    HW221255   1.279   0.372   6.320 -1.0840 -1.0009 -1.0430
 3208SOL     OW21256   4.030   1.699   7.299  0.4438 -0.3152  0.0322
 3208SOL    HW121257   4.067   1.612   7.310 -0.6969 -0.7378  0.5692
 3208SOL    HW221258   4.052   1.726   7.210  2.0011 -1.9500 -0.0683
 3209SOL     OW21259   1.006   1.520   5.748 -0.0455 -0.4385  0.4989
 3209SOL    HW121260   0.965   1.606   5.756  0.7593 -0.3297  3.5651
 3209SOL    HW221261   0.924   1.483   5.715 -0.3689 -1.2100  2.1661
 3210SOL     OW21262   0.029   3.286   6.296  0.6380 -0.5129  0.1063
 3210SOL    HW121263   4.706   3.343   6.343  1.6971  0.3472  0.4306
 3210SOL    HW221264   4.723   3.201   6.297  1.8139 -1.1427 -1.9199
 3211SOL     OW21265   4.299   4.366  11.768 -0.2082  0.6424  0.4609
 3211SOL    HW121266   4.322   4.382  11.676  1.2529 -0.5465  0.6270
 3211SOL    HW221267   4.383   4.387  11.809 -0.3153 -3.2685  2.6819
 3212SOL     OW21268   3.460   1.228   9.797 -0.6215 -0.9023 -0.0618
 3212SOL    HW121269   3.531   1.210   9.736  0.3231 -0.2659  0.8508
 3212SOL    HW221270   3.488   1.176   9.872  1.7134 -1.6088 -1.4330
 3213SOL     OW21271   2.165   3.965   5.337 -0.0267 -0.4615  0.2479
 3213SOL    HW121272   2.213   3.890   5.304  0.5332  0.0011  0.0089
 3213SOL    HW221273   2.097   3.932   5.396 -1.6099  1.4142 -0.5099
 3214SOL     OW21274   1.567   2.067   5.289  0.0694  0.2361  0.2418
 3214SOL    HW121275   1.511   2.092   5.216  1.8595  2.4305 -0.3965
 3214SOL    HW221276   1.591   2.152   5.328 -0.3211  1.2438 -1.7465
 3215SOL     OW21277   2.036   2.020  17.317  0.2702  0.1394 -0.4331
 3215SOL    HW121278   2.001   1.945  17.268 -0.3652 -0.2568  0.6353
 3215SOL    HW221279   1.974   2.087  17.287  0.4746 -0.0026 -1.1857
 3216SOL     OW21280   0.094   2.173   5.652  0.4080  0.4975  0.0600
 3216SOL    HW121281   0.022   2.115   5.674 -0.7142  2.0956  0.5905
 3216SOL    HW221282   0.167   2.118   5.682  0.8035  0.1553 -1.5275
 3217SOL     OW21283   3.953   0.121  16.577  0.1054 -0.1029 -0.2884
 3217SOL    HW121284   3.963   0.095  16.485 -0.9718 -3.5829  0.5485
 3217SOL    HW221285   4.044   0.146  16.593  0.0630 -0.2561  0.1725
 3218SOL     OW21286   2.128   1.627   0.436 -0.5329  0.4112 -0.1560
 3218SOL    HW121287   2.070   1.703   0.447 -0.4091  0.3790  0.7874
 3218SOL    HW221288   2.115   1.579   0.518  2.4829 -0.7881 -0.3538
 3219SOL     OW21289   4.618   0.433   2.829  0.4149 -0.2720  0.2074
 3219SOL    HW121290   4.707   0.401   2.818  0.7800  0.6917  0.3740
 3219SOL    HW221291   4.609   0.499   2.760  1.4094 -0.7669 -0.3861
 3220SOL     OW21292   4.207   2.521   3.672  0.4652  0.1036  0.1309
 3220SOL    HW121293   4.288   2.558   3.635  0.2941  0.4687  0.1192
 3220SOL    HW221294   4.194   2.574   3.751  0.9869 -0.1400  0.3851
 3221SOL     OW21295   0.471   2.474   6.202 -0.1485  0.2728 -0.5466
 3221SOL    HW121296   0.384   2.514   6.201 -0.3018 -0.0519 -0.3501
 3221SOL    HW221297   0.453   2.389   6.242  3.1883 -1.3064 -2.3901
 3222SOL     OW21298   1.770   0.578   5.073 -0.1477 -0.4951  0.5559
 3222SOL    HW121299   1.790   0.504   5.015  1.2205 -2.1391  3.1428
 3222SOL    HW221300   1.827   0.550   5.145  0.3882 -0.4405  0.1586
 3223SOL     OW21301   0.883   1.176  14.732  0.0344 -0.1154  0.3056
 3223SOL    HW121302   0.975   1.202  14.737 -0.1812  0.8172 -0.7059
 3223SOL    HW221303   0.843   1.261  14.751 -0.5609 -0.1765 -0.6331
 3224SOL     OW21304   1.021   0.207  13.597  0.2620 -0.4217 -0.0579
 3224SOL    HW121305   1.020   0.262  13.519 -1.6247  0.1133  0.3556
 3224SOL    HW221306   1.114   0.206  13.622  0.0445  0.7042  0.8226
 3225SOL     OW21307   4.346   0.358  11.008  0.4912 -0.0469  0.3729
 3225SOL    HW121308   4.293   0.289  11.048  0.0490  1.4415  2.3326
 3225SOL    HW221309   4.425   0.309  10.983  1.5788  1.5517  0.6994
 3226SOL     OW21310   2.092   4.158  17.440 -0.0457 -0.3533  0.1368
 3226SOL    HW121311   2.156   4.101  17.397  1.7683  0.9891  1.0600
 3226SOL    HW221312   2.013   4.107  17.424  0.6621 -0.0915 -4.2023
 3227SOL     OW21313   2.416   4.251   6.873 -0.1379 -0.5561 -0.3329
 3227SOL    HW121314   2.411   4.182   6.806 -1.7690 -0.3661 -0.4134
 3227SOL    HW221315   2.374   4.324   6.827  0.8311  0.0223 -0.2908
 3228SOL     OW21316   1.126   4.475   2.597 -0.2376  0.4920  0.3703
 3228SOL    HW121317   1.209   4.522   2.602 -0.9077  1.7096  0.1393
 3228SOL    HW221318   1.161   4.407   2.540 -1.3460 -0.3443  0.6858
 3229SOL     OW21319   4.055   3.661  14.891  0.0350 -0.3429 -0.2502
 3229SOL    HW121320   4.043   3.655  14.985  0.4704 -0.5252 -0.2083
 3229SOL    HW221321   4.136   3.713  14.891 -0.1762 -0.0257  1.7064
 3230SOL     OW21322   2.572   1.252   4.948 -0.3468  0.1704 -0.4809
 3230SOL    HW121323   2.512   1.317   4.912 -0.2805 -0.4698 -1.7561
 3230SOL    HW221324   2.563   1.185   4.880  0.6478  2.1266 -2.5284
 3231SOL     OW21325   3.282   2.864   6.000 -0.8064  0.1932  0.2990
 3231SOL    HW121326   3.371   2.844   5.970 -2.3008 -4.0879 -1.3785
 3231SOL    HW221327   3.276   2.792   6.063  2.0884  0.9697  1.4692
 3232SOL     OW21328   4.385   0.297  17.014  0.0818  0.6860  0.0674
 3232SOL    HW121329   4.466   0.274  16.969  1.0176  0.9747  1.5994
 3232SOL    HW221330   4.343   0.211  17.019  0.7853  0.2854 -1.0112
 3233SOL     OW21331   3.990   1.914  17.070 -0.3329 -0.0355 -0.0927
 3233SOL    HW121332   3.965   1.920  17.162 -0.6873 -0.5584 -0.1560
 3233SOL    HW221333   3.967   2.000  17.035 -0.5952  0.4682  1.3029
 3234SOL     OW21334   2.125   0.159   8.899 -0.2421  0.4519 -0.2789
 3234SOL    HW121335   2.124   0.187   8.808  1.0840  0.2627 -0.3638
 3234SOL    HW221336   2.173   0.077   8.885  0.9284  0.8505  1.3927
 3235SOL     OW21337   2.254   3.976   1.803 -0.4092 -0.1116 -0.2911
 3235SOL    HW121338   2.273   3.890   1.842  0.7585 -0.6629 -2.0864
 3235SOL    HW221339   2.230   3.940   1.717  2.0189  0.6334 -1.2679
 3236SOL     OW21340   3.095   1.705   2.779 -0.0957 -0.5901 -0.2160
 3236SOL    HW121341   3.089   1.780   2.720 -3.0337 -0.9532 -0.3961
 3236SOL    HW221342   3.173   1.664   2.742  0.6344 -1.0541  1.8549
 3237SOL     OW21343   0.866   1.868  15.355 -0.4726  0.1295  0.2220
 3237SOL    HW121344   0.946   1.920  15.351 -1.5036  1.8900  2.4894
 3237SOL    HW221345   0.884   1.789  15.304  0.8175  0.1908  0.5958
 3238SOL     OW21346   4.698   4.724   3.025 -0.6476  0.2507 -0.1406
 3238SOL    HW121347   0.032   0.025   2.974  0.3981  0.0004  1.1378
 3238SOL    HW221348   4.657   0.059   3.071 -0.9560 -0.1896  0.2870
 3239SOL     OW21349   4.341   2.552   0.753  0.5428  0.0034  0.4440
 3239SOL    HW121350   4.399   2.501   0.697 -1.0791  0.4401 -1.6601
 3239SOL    HW221351   4.409   2.600   0.799  1.4299 -0.7487 -0.0902
 3240SOL     OW21352   3.856   2.398  13.827 -0.0876  0.1509 -0.0810
 3240SOL    HW121353   3.950   2.383  13.816  0.4643  1.3457  3.1240
 3240SOL    HW221354   3.817   2.333  13.769  0.8804 -0.6803  0.1930
 3241SOL     OW21355   4.468   2.575  13.001  0.1125  0.6590  0.3349
 3241SOL    HW121356   4.505   2.597  12.915  0.3023  0.4587  0.3663
 3241SOL    HW221357   4.424   2.658  13.022 -0.3874  0.5854 -0.4026
 3242SOL     OW21358   1.444   1.461   6.283  0.7063 -0.4853  0.5716
 3242SOL    HW121359   1.465   1.554   6.282 -1.0760 -0.0900 -0.1071
 3242SOL    HW221360   1.390   1.453   6.205  1.3932 -0.5771  0.1056
 3243SOL     OW21361   0.893   0.778   6.846  0.0210  0.3718 -0.1504
 3243SOL    HW121362   0.878   0.708   6.909  0.6590  0.8066  0.4885
 3243SOL    HW221363   0.987   0.783   6.865 -0.5440  0.1194  2.7135
 3244SOL     OW21364   1.559   2.461   4.217  0.1258  0.3113 -0.2378
 3244SOL    HW121365   1.625   2.456   4.148  0.1613 -1.7573 -0.0507
 3244SOL    HW221366   1.479   2.484   4.168 -1.7960 -0.3505  2.6265
 3245SOL     OW21367   0.048   4.056  15.755 -0.0237  0.0238 -0.1091
 3245SOL    HW121368   0.099   4.084  15.680  0.3068 -1.6800 -0.5279
 3245SOL    HW221369   0.056   4.129  15.816 -0.0322  0.8209 -1.0732
 3246SOL     OW21370   1.344   3.580   2.600 -0.3494 -0.2008  0.6037
 3246SOL    HW121371   1.347   3.551   2.691 -2.2445 -1.4010  0.2823
 3246SOL    HW221372   1.409   3.524   2.558 -1.5720  0.6723 -2.4575
 3247SOL     OW21373   0.082   1.509   3.989 -0.3045  0.1238 -0.3779
 3247SOL    HW121374   0.108   1.472   3.905 -0.7087  0.0977 -0.4956
 3247SOL    HW221375   4.729   1.478   3.993 -1.3599  3.1214 -0.9448
 3248SOL     OW21376   3.159   4.341   1.160 -0.0253 -0.1300 -0.6441
 3248SOL    HW121377   3.128   4.397   1.231 -0.8761  0.8730 -1.8182
 3248SOL    HW221378   3.232   4.298   1.206 -1.7688 -0.6909  1.5931
 3249SOL     OW21379   4.489   0.779   7.650  0.3093 -0.4807  0.0259
 3249SOL    HW121380   4.451   0.691   7.644  2.6937 -1.3526 -2.4156
 3249SOL    HW221381   4.528   0.772   7.737 -2.5980  1.3622  1.4512
 3250SOL     OW21382   1.866   4.425   2.920 -0.6125  0.0666 -0.6079
 3250SOL    HW121383   1.807   4.497   2.942 -1.2166 -0.5834 -0.1180
 3250SOL    HW221384   1.948   4.451   2.961 -0.0184 -0.0475 -1.7058
 3251SOL     OW21385   1.560   1.003   3.422  0.4454 -0.6530 -0.0429
 3251SOL    HW121386   1.623   1.037   3.359 -0.2745  1.4816  0.3933
 3251SOL    HW221387   1.572   0.911   3.399  0.8686 -1.1391  2.1202
 3252SOL     OW21388   3.728   0.686  17.089  0.7333 -0.3599  0.3643
 3252SOL    HW121389   3.816   0.671  17.056 -0.3046 -1.0145 -2.1511
 3252SOL    HW221390   3.676   0.636  17.025  1.4536 -0.7471  0.0888
 3253SOL     OW21391   2.752   4.399   8.342 -0.3477 -0.4126  0.3240
 3253SOL    HW121392   2.783   4.386   8.252  0.9974  1.9695  0.4460
 3253SOL    HW221393   2.663   4.427   8.320  0.2297  0.5851 -0.7672
 3254SOL     OW21394   3.829   2.493  14.082  0.2114  0.6999  0.3625
 3254SOL    HW121395   3.852   2.445  14.162 -0.6395  0.6101  0.5509
 3254SOL    HW221396   3.819   2.424  14.016 -1.1300 -0.2563  1.5493
 3255SOL     OW21397   0.992   1.318   3.570  0.3766 -0.2091  0.3357
 3255SOL    HW121398   1.002   1.223   3.579  0.9676 -0.2725 -1.0135
 3255SOL    HW221399   1.079   1.351   3.548  0.9667 -1.9039  0.1329
 3256SOL     OW21400   3.465   1.183   9.133 -0.6895  0.0730 -0.4747
 3256SOL    HW121401   3.437   1.119   9.068  1.5131 -0.6878 -0.6570
 3256SOL    HW221402   3.426   1.263   9.098 -1.3938  0.3946  1.0361
 3257SOL     OW21403   3.494   4.235   7.222 -0.4577 -0.2583  0.7156
 3257SOL    HW121404   3.433   4.263   7.154  0.2376  0.0059  0.1932
 3257SOL    HW221405   3.447   4.163   7.264 -1.3001 -1.0720 -1.6363
 3258SOL     OW21406   2.998   2.375   3.889 -0.5855  0.0632  0.5383
 3258SOL    HW121407   2.944   2.323   3.949  0.8488 -0.8723  1.0290
 3258SOL    HW221408   2.936   2.438   3.853 -0.5961  0.2030  0.8024
 3259SOL     OW21409   3.611   3.297   6.676 -0.3408 -0.0368 -0.2629
 3259SOL    HW121410   3.590   3.222   6.620  0.5675  0.1852 -0.9006
 3259SOL    HW221411   3.526   3.330   6.705 -0.6255  0.3226 -1.4871
 3260SOL     OW21412   3.689   4.523   4.026 -0.2276 -0.5576 -0.8684
 3260SOL    HW121413   3.668   4.597   4.083 -0.3589 -0.3632 -1.1705
 3260SOL    HW221414   3.765   4.482   4.067  1.4031  1.3742 -2.0062
 3261SOL     OW21415   2.532   2.860   8.685 -0.4137  0.0624  0.0883
 3261SOL    HW121416   2.467   2.856   8.614 -1.6827 -1.7447  1.3553
 3261SOL    HW221417   2.485   2.902   8.757 -1.7328  0.4884 -1.0178
 3262SOL     OW21418   4.437   2.255   5.744 -0.6299  0.1220  0.5971
 3262SOL    HW121419   4.461   2.163   5.747  2.8322  1.0718  1.9271
 3262SOL    HW221420   4.346   2.247   5.716  0.0274  0.1145 -1.5416
 3263SOL     OW21421   3.126   3.140   8.534 -0.2795  0.2898 -0.2025
 3263SOL    HW121422   3.067   3.180   8.598  0.6474  0.1389  0.7479
 3263SOL    HW221423   3.090   3.172   8.451 -0.2436  0.5582 -0.1159
 3264SOL     OW21424   2.425   2.513   2.627 -0.5112  0.2894  0.1887
 3264SOL    HW121425   2.396   2.543   2.541 -0.5522 -0.1829  0.0367
 3264SOL    HW221426   2.516   2.543   2.628 -0.4818  0.1677  2.0828
 3265SOL     OW21427   2.142   1.136   8.941  0.0557  0.0141 -0.0238
 3265SOL    HW121428   2.212   1.115   9.004 -0.8199 -0.5333  0.7755
 3265SOL    HW221429   2.197   1.182   8.878  1.0728 -0.4288  0.5273
 3266SOL     OW21430   1.714   1.100   1.229 -0.0388 -0.3355 -0.1053
 3266SOL    HW121431   1.647   1.163   1.204 -0.3911  0.4703  2.8592
 3266SOL    HW221432   1.775   1.122   1.159 -3.6631 -2.2325 -3.8701
 3267SOL     OW21433   0.640   1.019   9.668  1.1972  0.4004  0.1670
 3267SOL    HW121434   0.665   1.050   9.755 -2.1119 -1.0079  1.5926
 3267SOL    HW221435   0.694   0.940   9.659 -0.5048 -0.8805  1.1921
 3268SOL     OW21436   1.785   2.721   3.856  0.0936 -0.1782 -0.1621
 3268SOL    HW121437   1.739   2.640   3.880  1.5603 -0.6552  1.0181
 3268SOL    HW221438   1.869   2.696   3.817  0.5049  2.1835 -0.7753
 3269SOL     OW21439   1.863   0.146  17.254  0.1464 -0.3098  0.1919
 3269SOL    HW121440   1.927   0.163  17.323  0.9049 -0.0002 -0.5813
 3269SOL    HW221441   1.858   0.238  17.230 -0.3592 -0.1638  0.8708
 3270SOL     OW21442   2.474   2.110   6.728 -0.1714  0.3717 -0.2388
 3270SOL    HW121443   2.413   2.119   6.655 -1.7789 -1.2749  0.9019
 3270SOL    HW221444   2.437   2.174   6.789  1.4767 -0.3719  1.5357
 3271SOL     OW21445   2.168   1.554   4.126 -0.0716 -0.1795  0.1691
 3271SOL    HW121446   2.223   1.525   4.198 -2.9180  1.6311  3.0908
 3271SOL    HW221447   2.140   1.473   4.083  1.0243  0.4297 -1.6851
 3272SOL     OW21448   0.585   3.441   8.974 -0.5446  0.2752  0.5462
 3272SOL    HW121449   0.617   3.400   8.894  1.4604  0.5430  1.2158
 3272SOL    HW221450   0.536   3.517   8.944  2.0307  1.4552 -0.5711
 3273SOL     OW21451   0.790   2.976   0.536 -0.1534 -0.1885  0.2336
 3273SOL    HW121452   0.875   2.939   0.559  0.5066 -0.4864 -2.7496
 3273SOL    HW221453   0.743   2.893   0.528  1.1157 -0.9165  0.3481
 3274SOL     OW21454   4.683   4.110   5.308  0.2481 -0.4168  0.1084
 3274SOL    HW121455   4.650   4.025   5.334 -1.7517  0.4429  0.3850
 3274SOL    HW221456   0.023   4.089   5.255  0.7221 -0.3510  0.7817
 3275SOL     OW21457   0.187   2.758   3.751 -0.5961  0.2869 -0.1894
 3275SOL    HW121458   0.256   2.736   3.814  0.0726  1.0281 -0.6599
 3275SOL    HW221459   0.234   2.817   3.692  0.2085 -1.6395 -1.4699
 3276SOL     OW21460   0.844   1.491   7.946  0.0483  0.2468  0.0615
 3276SOL    HW121461   0.783   1.418   7.956  0.7486 -0.2364  0.7639
 3276SOL    HW221462   0.874   1.504   8.036 -0.8811 -0.3988  0.4759
 3277SOL     OW21463   2.500   0.911   8.165 -0.1208  0.4225 -0.7754
 3277SOL    HW121464   2.529   0.822   8.144 -2.0750 -0.5577  0.6772
 3277SOL    HW221465   2.474   0.934   8.076  0.1661 -1.1607 -1.2730
 3278SOL     OW21466   1.650   0.357   3.554  0.2354 -0.0888  0.0508
 3278SOL    HW121467   1.642   0.451   3.563 -3.6077 -0.5518  1.2885
 3278SOL    HW221468   1.745   0.350   3.545  0.2285  0.7791 -0.6237
 3279SOL     OW21469   2.259   4.131   2.790 -0.5998  0.3860 -0.0122
 3279SOL    HW121470   2.264   4.223   2.767  0.8635  0.7635  1.7931
 3279SOL    HW221471   2.351   4.103   2.791 -0.6064  0.2966 -1.4915
 3280SOL     OW21472   2.252   1.210   1.941  0.2270  0.1980 -1.0028
 3280SOL    HW121473   2.198   1.191   1.864 -0.6852 -0.2273 -0.2631
 3280SOL    HW221474   2.328   1.152   1.939  0.0083 -0.1012 -0.7475
 3281SOL     OW21475   2.498   2.377   3.483 -0.5405 -0.2245 -0.4879
 3281SOL    HW121476   2.581   2.355   3.441 -1.2643 -0.6268 -1.6730
 3281SOL    HW221477   2.463   2.292   3.506 -0.8305  0.2309  0.7920
 3282SOL     OW21478   3.315   1.661   1.272  0.4057  0.1073  1.0402
 3282SOL    HW121479   3.265   1.669   1.191  0.4110  2.6569  1.3096
 3282SOL    HW221480   3.288   1.737   1.323  1.8796  2.7308 -2.1452
 3283SOL     OW21481   4.629   1.194   0.115 -0.2797 -0.2902  0.0183
 3283SOL    HW121482   4.551   1.243   0.088  0.5820  1.7863  1.3053
 3283SOL    HW221483   4.667   1.259   0.175 -1.5178  0.5985 -0.1596
 3284SOL     OW21484   3.528   4.041   2.817  0.1682  0.6211  0.3846
 3284SOL    HW121485   3.599   4.019   2.877 -1.0748 -0.6671  1.3701
 3284SOL    HW221486   3.533   3.963   2.762  1.5778  0.5639  0.5922
 3285SOL     OW21487   2.228   1.717  16.355 -0.2537 -0.1215  0.4720
 3285SOL    HW121488   2.175   1.698  16.433  1.0179 -0.0096  1.3679
 3285SOL    HW221489   2.285   1.640  16.360  1.0769  0.9107  1.1425
 3286SOL     OW21490   0.665   3.559  17.079 -0.2484  0.1470  0.8982
 3286SOL    HW121491   0.691   3.549  17.170  1.1012  1.0300  0.6037
 3286SOL    HW221492   0.602   3.487  17.075  0.2351 -0.2000 -0.6920
 3287SOL     OW21493   0.766   3.757   1.553  0.3044  0.8383 -0.2476
 3287SOL    HW121494   0.747   3.799   1.637 -1.9993  0.6503 -0.6601
 3287SOL    HW221495   0.761   3.835   1.496 -1.5611 -0.8118 -2.3568
 3288SOL     OW21496   1.152   3.243  12.328 -0.2562 -0.2927 -0.2229
 3288SOL    HW121497   1.111   3.197  12.255 -1.9298  0.6665  0.1186
 3288SOL    HW221498   1.129   3.336  12.323 -0.2118 -0.3358 -1.1051
 3289SOL     OW21499   2.533   2.591   9.377  0.2061 -0.2713  0.0386
 3289SOL    HW121500   2.491   2.518   9.424 -1.4574  1.6923  1.6002
 3289SOL    HW221501   2.542   2.569   9.284 -0.6013 -0.2135 -0.0557
 3290SOL     OW21502   0.737   2.648  15.427 -0.1347 -0.7518 -0.0981
 3290SOL    HW121503   0.684   2.579  15.388  0.7221 -1.2098 -0.4425
 3290SOL    HW221504   0.679   2.723  15.415  1.2381  0.5373  1.3044
 3291SOL     OW21505   3.663   2.066  10.298  0.1951 -0.1276 -0.3009
 3291SOL    HW121506   3.665   2.010  10.221  0.7869 -0.4947 -0.0201
 3291SOL    HW221507   3.615   2.145  10.274 -0.7705  0.2554  2.8174
 3292SOL     OW21508   2.834   3.824   6.719 -0.9333  0.3239  0.1472
 3292SOL    HW121509   2.778   3.898   6.746  0.5746  1.2819  0.6390
 3292SOL    HW221510   2.786   3.752   6.760  0.0256 -0.2871  0.1961
 3293SOL     OW21511   1.471   1.544   3.868 -0.5569 -0.6033  0.3090
 3293SOL    HW121512   1.461   1.591   3.785  0.3369  0.2663  0.6942
 3293SOL    HW221513   1.390   1.563   3.915  0.1155  1.6781  0.5291
 3294SOL     OW21514   3.186   1.603   1.969  0.0923  0.1263  0.2156
 3294SOL    HW121515   3.221   1.686   1.936 -1.1895  0.5742  0.0041
 3294SOL    HW221516   3.099   1.635   1.992  0.5003  0.9117  0.6809
 3295SOL     OW21517   2.970   1.887   4.104  0.0755  0.6185  0.3804
 3295SOL    HW121518   3.050   1.891   4.155  0.6467  4.0518 -0.7986
 3295SOL    HW221519   2.911   1.892   4.179 -0.9666 -0.6503 -0.3498
 3296SOL     OW21520   1.070   3.771  12.820 -0.3698 -0.2977 -0.2946
 3296SOL    HW121521   1.069   3.865  12.804  0.0510 -0.1746  0.4126
 3296SOL    HW221522   1.052   3.720  12.741  1.3406  1.4867 -1.8390
 3297SOL     OW21523   4.185   0.896   2.168  0.4094 -0.0578  0.2364
 3297SOL    HW121524   4.258   0.842   2.135 -0.8953 -1.4988 -0.2868
 3297SOL    HW221525   4.234   0.953   2.228  3.4239 -0.0560 -2.2083
 3298SOL     OW21526   0.052   3.750  12.126  0.2076  0.4337  0.2927
 3298SOL    HW121527   4.716   3.756  12.065  1.3888  1.4804 -1.0461
 3298SOL    HW221528   0.076   3.842  12.135  3.0483 -0.5031  2.5443
 3299SOL     OW21529   0.002   0.687   3.410  0.0387  0.2806  0.1317
 3299SOL    HW121530   4.663   0.740   3.433 -0.5126 -1.0910  1.4567
 3299SOL    HW221531   0.015   0.728   3.324 -0.8896 -1.0483 -0.6353
 3300SOL     OW21532   4.637   0.777   3.982  0.2001  0.1695  0.2509
 3300SOL    HW121533   4.643   0.707   4.047  0.4048  0.5990  0.7006
 3300SOL    HW221534   4.612   0.722   3.908 -0.3295  1.4000 -0.4972
 3301SOL     OW21535   3.521   2.138  14.115  0.1360  0.6002  0.1281
 3301SOL    HW121536   3.613   2.162  14.129  0.8891 -1.9473 -0.4923
 3301SOL    HW221537   3.509   2.089  14.196  0.2929 -0.5631 -0.5539
 3302SOL     OW21538   0.655   2.897  13.793  0.7828  0.4737  0.1119
 3302SOL    HW121539   0.731   2.864  13.745 -0.3868 -3.0609  0.6215
 3302SOL    HW221540   0.649   2.841  13.871  1.0233 -0.1269 -0.3043
 3303SOL     OW21541   0.229   1.325   3.414  0.4581  0.2106  0.1432
 3303SOL    HW121542   0.168   1.395   3.439  1.8148  1.4460 -0.0025
 3303SOL    HW221543   0.308   1.378   3.424 -0.5613  1.7592  0.0738
 3304SOL     OW21544   4.232   0.672   6.612 -0.3485  0.5104 -0.6111
 3304SOL    HW121545   4.246   0.582   6.585  1.0852  0.2401  1.0297
 3304SOL    HW221546   4.293   0.725   6.560  0.3320  1.9437  1.6306
 3305SOL     OW21547   4.678   2.374   9.006  0.1711 -0.1904 -0.4092
 3305SOL    HW121548   4.688   2.439   8.936 -1.5726  0.1112 -0.3872
 3305SOL    HW221549   4.727   2.414   9.078  0.1423 -0.3090 -0.3248
 3306SOL     OW21550   3.647   3.305   3.239  0.0243  0.8895  0.5594
 3306SOL    HW121551   3.650   3.400   3.230 -2.1941  0.9295  0.3094
 3306SOL    HW221552   3.683   3.281   3.154  0.9519  2.6222  0.4601
 3307SOL     OW21553   2.030   4.264   7.452 -1.1809 -0.3726  0.1086
 3307SOL    HW121554   2.086   4.326   7.405 -3.2671  2.4507  1.3743
 3307SOL    HW221555   1.948   4.312   7.450 -0.3411  1.0495 -0.1053
 3308SOL     OW21556   0.907   0.221   1.919 -0.4923  0.1742  0.2638
 3308SOL    HW121557   0.870   0.282   1.983  0.7818  0.4852  0.7008
 3308SOL    HW221558   0.847   0.147   1.916 -1.8485  1.1837  2.2172
 3309SOL     OW21559   1.393   3.462  16.662  0.7925  0.0010  0.6004
 3309SOL    HW121560   1.346   3.532  16.617  2.9441  0.9616 -0.1429
 3309SOL    HW221561   1.353   3.458  16.749 -0.6759  1.2001 -0.0248
 3310SOL     OW21562   2.647   4.484   7.475  1.0309 -0.0801 -0.1722
 3310SOL    HW121563   2.696   4.563   7.500  3.1784 -1.5898  0.4570
 3310SOL    HW221564   2.712   4.435   7.424 -0.7710 -1.1078 -1.4518
 3311SOL     OW21565   1.490   0.156   6.829  0.2963 -0.0375  0.1664
 3311SOL    HW121566   1.529   0.080   6.785 -0.8884 -0.4969 -0.0926
 3311SOL    HW221567   1.531   0.220   6.771 -1.1906  0.8238  0.0512
 3312SOL     OW21568   0.012   2.251  11.035 -0.3059 -0.8004 -0.0089
 3312SOL    HW121569   0.027   2.332  10.987 -2.7149  0.5597  1.5533
 3312SOL    HW221570   0.091   2.255  11.088 -0.9601  1.5585  0.7836
 3313SOL     OW21571   0.471   3.044   9.292  0.7474 -0.1547 -0.2296
 3313SOL    HW121572   0.388   3.091   9.284 -0.7065 -3.1061 -2.6705
 3313SOL    HW221573   0.521   3.114   9.251  1.0139 -0.4123 -0.3426
 3314SOL     OW21574   3.354   3.848   6.784  0.2685 -0.7946  0.2459
 3314SOL    HW121575   3.313   3.818   6.703 -0.1347  2.6921 -0.8309
 3314SOL    HW221576   3.293   3.825   6.855  0.3895  1.2611  1.0298
 3315SOL     OW21577   0.951   3.392   4.241  0.3048 -0.2206  0.1958
 3315SOL    HW121578   0.856   3.387   4.250  0.1526 -1.1587 -1.8568
 3315SOL    HW221579   0.970   3.298   4.235 -0.7359 -0.3237 -1.6543
 3316SOL     OW21580   1.005   3.652  12.580  0.2662  0.1359  0.3580
 3316SOL    HW121581   1.013   3.616  12.492 -2.0785 -0.1238  0.2596
 3316SOL    HW221582   0.910   3.665  12.586  0.3103  1.6521 -1.8274
 3317SOL     OW21583   2.225   4.201   1.549  0.2465  0.0182  0.3334
 3317SOL    HW121584   2.239   4.295   1.534  1.3330 -0.3074 -0.6995
 3317SOL    HW221585   2.297   4.178   1.491 -0.5671  0.7094 -0.9481
 3318SOL     OW21586   2.314   2.926   0.993 -0.4197 -0.2342  0.0643
 3318SOL    HW121587   2.343   2.988   1.060  3.4060 -0.6397 -1.2261
 3318SOL    HW221588   2.333   2.975   0.913  2.4100 -1.4981 -0.0405
 3319SOL     OW21589   3.039   4.084   6.687  0.1108 -0.2962  0.4919
 3319SOL    HW121590   3.134   4.092   6.674 -0.3136  2.2391 -0.9601
 3319SOL    HW221591   3.040   4.079   6.783 -2.4857 -0.1673  0.5131
 3320SOL     OW21592   0.345   4.161   7.651 -0.2525 -0.2952  0.4534
 3320SOL    HW121593   0.335   4.242   7.601  0.2474 -1.2223 -1.1438
 3320SOL    HW221594   0.294   4.169   7.732 -0.2202 -0.6129  0.5036
 3321SOL     OW21595   0.204   2.364  13.620  0.4721  0.0401 -0.6552
 3321SOL    HW121596   0.174   2.314  13.544  1.7190 -0.1599 -1.0170
 3321SOL    HW221597   0.123   2.414  13.631 -0.0435 -0.9844  0.1904
 3322SOL     OW21598   1.233   3.955   3.884 -0.1304 -0.1529 -0.4886
 3322SOL    HW121599   1.228   3.925   3.793 -2.5985  1.8390 -1.0116
 3322SOL    HW221600   1.199   3.884   3.937 -0.6342  0.7644  0.4206
 3323SOL     OW21601   3.384   1.456   8.598 -1.1452 -0.1128  0.0593
 3323SOL    HW121602   3.402   1.526   8.660  0.3080  0.3395 -0.8712
 3323SOL    HW221603   3.338   1.500   8.527  1.5333  1.0249 -0.9780
 3324SOL     OW21604   4.579   4.081   6.032 -0.7157 -0.1655  0.5706
 3324SOL    HW121605   4.636   4.157   6.024 -1.1656  0.0026 -1.0531
 3324SOL    HW221606   4.636   4.006   6.051 -0.7255 -0.5399 -0.8790
 3325SOL     OW21607   2.501   2.160   3.063 -0.4920  0.0062  0.3957
 3325SOL    HW121608   2.483   2.167   3.157 -1.0016  0.1636  0.2852
 3325SOL    HW221609   2.536   2.246   3.039 -0.1846 -0.0131  0.7580
 3326SOL     OW21610   2.912   2.293  13.948  0.0241 -0.4417 -0.4413
 3326SOL    HW121611   2.817   2.305  13.952  0.1619  0.0279  1.4629
 3326SOL    HW221612   2.932   2.356  14.017 -2.0468  0.6868 -0.8723
 3327SOL     OW21613   1.049   0.711   7.317  0.1134  0.2928  0.3900
 3327SOL    HW121614   1.052   0.634   7.374 -2.1775  0.3634  0.6187
 3327SOL    HW221615   0.990   0.769   7.364  0.6483 -0.2777  1.7522
 3328SOL     OW21616   3.515   2.874   5.815  0.0070 -0.1106 -0.0891
 3328SOL    HW121617   3.582   2.905   5.875  0.5061 -1.1396 -0.1225
 3328SOL    HW221618   3.544   2.785   5.796  1.7356 -0.2748  3.4148
 3329SOL     OW21619   0.449   4.635   9.535  0.2551 -0.1619  0.0575
 3329SOL    HW121620   0.496   4.707   9.577  0.4796 -0.5060  0.3971
 3329SOL    HW221621   0.499   4.556   9.556 -1.7971 -1.5228 -0.2266
 3330SOL     OW21622   1.198   0.118  10.961 -0.5693  0.3341 -0.3749
 3330SOL    HW121623   1.241   0.056  10.902  0.3124  0.4198  0.1858
 3330SOL    HW221624   1.117   0.075  10.989  0.3662 -0.3266  1.3109
 3331SOL     OW21625   4.060   2.285  16.075  0.5531 -0.3630  0.0737
 3331SOL    HW121626   4.089   2.333  16.153 -0.6074  0.0505  0.2466
 3331SOL    HW221627   4.083   2.352  16.011 -1.4802 -1.1749 -1.5070
 3332SOL     OW21628   2.480   3.463   1.187 -0.2001  0.2657 -0.0904
 3332SOL    HW121629   2.396   3.445   1.145 -0.1310  0.0610 -0.1382
 3332SOL    HW221630   2.540   3.439   1.116  0.4607  2.1292 -0.1748
 3333SOL     OW21631   4.130   2.090  14.199 -0.0415  0.1384  0.3865
 3333SOL    HW121632   4.177   2.140  14.132  0.0493  2.3554  2.0809
 3333SOL    HW221633   4.194   2.019  14.206 -0.9206 -0.6833  0.0913
 3334SOL     OW21634   0.611   2.450   2.615 -0.4229 -0.5656 -0.2587
 3334SOL    HW121635   0.602   2.439   2.521  0.5225 -1.1413 -0.2760
 3334SOL    HW221636   0.688   2.394   2.624 -1.0121 -1.1754  1.0955
 3335SOL     OW21637   3.515   3.049   4.997  0.6723  0.5261 -0.2442
 3335SOL    HW121638   3.508   3.090   5.083 -0.0628 -0.3110  0.0917
 3335SOL    HW221639   3.582   3.103   4.956  0.8228 -0.4044 -1.2156
 3336SOL     OW21640   1.667   2.771  14.804 -0.1555  0.3000 -0.0591
 3336SOL    HW121641   1.677   2.702  14.739  0.5224  2.2944 -2.0446
 3336SOL    HW221642   1.703   2.733  14.885 -0.0097  1.0438  0.2280
 3337SOL     OW21643   3.493   0.575   5.483  0.2881 -0.3740 -0.0887
 3337SOL    HW121644   3.447   0.508   5.431  1.2387  0.0083 -1.4218
 3337SOL    HW221645   3.577   0.531   5.491  1.3363  1.6496 -0.1195
 3338SOL     OW21646   1.283   3.335   9.130 -0.6266  0.5838 -0.5849
 3338SOL    HW121647   1.327   3.414   9.098  1.3360 -1.7240 -3.6226
 3338SOL    HW221648   1.325   3.261   9.085 -1.6307  0.4952 -1.3671
 3339SOL     OW21649   4.630   0.404  16.383 -0.1184 -0.8731 -0.2640
 3339SOL    HW121650   4.662   0.460  16.454  0.1297  2.3760 -2.9524
 3339SOL    HW221651   4.600   0.465  16.316 -0.2317 -1.0650 -0.3881
 3340SOL     OW21652   1.258   2.356   0.689  0.1570 -0.3647 -0.2029
 3340SOL    HW121653   1.175   2.310   0.684 -0.3423  0.7097 -1.8532
 3340SOL    HW221654   1.301   2.292   0.746  0.3868  1.2303  1.4065
 3341SOL     OW21655   3.490   1.203   8.687  0.0419 -0.2730 -0.1254
 3341SOL    HW121656   3.444   1.287   8.693  1.8324  0.5672  2.1039
 3341SOL    HW221657   3.568   1.228   8.737  0.2753 -2.3655  0.5384
 3342SOL     OW21658   1.403   3.298   6.525  0.0258 -0.0422  0.1153
 3342SOL    HW121659   1.402   3.349   6.605  2.1030  1.2610 -0.6959
 3342SOL    HW221660   1.311   3.272   6.529  0.1881 -1.1497 -2.7600
 3343SOL     OW21661   2.262   1.536   5.254  0.0115 -0.4530 -0.1881
 3343SOL    HW121662   2.167   1.540   5.269 -0.3310  0.3410 -2.5328
 3343SOL    HW221663   2.269   1.542   5.159 -1.3983 -0.4485 -0.2993
 3344SOL     OW21664   0.583   4.534   6.741  0.6318  0.3240  0.3638
 3344SOL    HW121665   0.490   4.542   6.723  0.2088 -0.4631  2.2315
 3344SOL    HW221666   0.613   4.578   6.661 -2.0862  2.4544  0.5069
 3345SOL     OW21667   3.529   3.392   7.457  0.0471 -0.2726  0.4072
 3345SOL    HW121668   3.538   3.409   7.550  1.5262 -0.2966  0.2775
 3345SOL    HW221669   3.493   3.303   7.454 -0.0158 -0.2537  0.6084
 3346SOL     OW21670   1.291   2.649   8.435  0.4682  0.4049  0.2896
 3346SOL    HW121671   1.370   2.671   8.484  1.8596  0.5239 -2.0207
 3346SOL    HW221672   1.230   2.719   8.457 -0.4102 -0.6175  1.0960
 3347SOL     OW21673   1.632   2.087   0.867  0.9128 -0.1386  0.1836
 3347SOL    HW121674   1.619   1.997   0.897 -1.2967 -0.2461 -1.1110
 3347SOL    HW221675   1.543   2.120   0.884  1.2300  0.1813  1.1974
 3348SOL     OW21676   2.157   0.566  17.499  0.1784 -0.0665 -0.1061
 3348SOL    HW121677   2.147   0.650  17.542  0.3345  0.6847 -1.5468
 3348SOL    HW221678   2.248   0.575  17.471  0.4762  0.6450  1.1204
 3349SOL     OW21679   2.792   2.951   7.375 -0.2236  0.0751 -0.3257
 3349SOL    HW121680   2.725   2.912   7.432 -0.4463  1.2272  0.2087
 3349SOL    HW221681   2.807   3.037   7.415  1.6295  0.7097 -2.4609
 3350SOL     OW21682   4.446   2.992   4.842  0.0350 -0.3589  0.0642
 3350SOL    HW121683   4.535   3.028   4.848  0.2293 -0.8891  0.4046
 3350SOL    HW221684   4.426   2.977   4.934  1.8675 -1.3745  0.3121
 3351SOL     OW21685   0.538   0.062   3.298 -0.0005 -0.3559  0.1232
 3351SOL    HW121686   0.629   0.087   3.278 -0.1777  0.5903  0.4879
 3351SOL    HW221687   0.488   0.019   3.229  0.9247 -1.6364  0.2390
 3352SOL     OW21688   2.416   0.573   2.193 -0.1833  0.4029  0.5379
 3352SOL    HW121689   2.341   0.524   2.160 -1.0060  2.5980 -0.9134
 3352SOL    HW221690   2.448   0.632   2.124  0.9554 -0.4831  0.2965
 3353SOL     OW21691   0.087   4.621  12.637  0.2141 -0.2670  0.0349
 3353SOL    HW121692   0.165   4.575  12.605 -0.9390 -1.7077 -0.7102
 3353SOL    HW221693   0.051   4.564  12.706 -1.2618 -1.5719 -1.8313
 3354SOL     OW21694   1.676   1.614   8.793 -0.1714  0.1492  0.4516
 3354SOL    HW121695   1.583   1.612   8.817 -0.1124  0.1926  0.6848
 3354SOL    HW221696   1.695   1.546   8.858  0.4852 -1.2433 -1.2074
 3355SOL     OW21697   4.219   3.273  16.659 -0.0990  0.3977 -0.0280
 3355SOL    HW121698   4.224   3.368  16.662 -2.1234  0.4772  0.6320
 3355SOL    HW221699   4.309   3.241  16.650  0.0507  0.3829  1.4883
 3356SOL     OW21700   2.730   4.643   5.775 -0.3316  0.6172 -0.3066
 3356SOL    HW121701   2.778   4.704   5.719  0.2672 -1.4217 -1.9809
 3356SOL    HW221702   2.675   4.591   5.717 -1.6163 -0.8548  2.1973
 3357SOL     OW21703   0.486   1.797   5.739 -0.1753 -0.0386  0.2586
 3357SOL    HW121704   0.520   1.767   5.823  0.5087 -0.7551 -0.2728
 3357SOL    HW221705   0.544   1.871   5.726 -1.4734  0.9477  0.1353
 3358SOL     OW21706   4.543   0.922   5.141 -0.8720 -0.1209 -0.2599
 3358SOL    HW121707   4.607   0.850   5.146 -0.9364 -0.1630 -0.0396
 3358SOL    HW221708   4.462   0.873   5.131 -1.3934  0.7117 -0.0914
 3359SOL     OW21709   0.591   0.003   4.303 -0.2392 -0.2376  0.7459
 3359SOL    HW121710   0.672   0.003   4.354  0.8180 -0.7710 -0.9358
 3359SOL    HW221711   0.587   4.649   4.277 -2.3759  0.0593  0.0010
 3360SOL     OW21712   3.842   1.594   4.644  0.1403 -0.2327 -0.0879
 3360SOL    HW121713   3.932   1.623   4.658 -0.4268  1.8442 -0.6602
 3360SOL    HW221714   3.840   1.637   4.558  0.4297  1.3341  0.6943
 3361SOL     OW21715   0.992   0.996   1.167  0.3900  0.0136 -0.0373
 3361SOL    HW121716   0.970   1.052   1.093 -0.9339  0.8595  1.0035
 3361SOL    HW221717   0.958   0.914   1.131 -1.6391  0.6312  0.4794
 3362SOL     OW21718   2.219   2.082   4.043  0.0673  0.1809 -0.1397
 3362SOL    HW121719   2.271   2.003   4.059  0.1826  0.2006 -0.4224
 3362SOL    HW221720   2.210   2.122   4.129  0.4446 -1.0979  0.5025
 3363SOL     OW21721   2.443   4.378  10.219 -0.2921  0.4947 -0.5112
 3363SOL    HW121722   2.537   4.360  10.228 -0.7514 -0.8246  1.5796
 3363SOL    HW221723   2.446   4.472  10.205 -1.5463  0.1361 -3.2135
 3364SOL     OW21724   3.780   4.592   0.360  0.3283 -0.3970  0.1473
 3364SOL    HW121725   3.699   4.590   0.309 -0.2414 -1.0787  1.0854
 3364SOL    HW221726   3.843   4.599   0.288  0.7902  3.6391  0.9561
 3365SOL     OW21727   2.879   0.405   1.342 -0.1240 -0.4118  0.0759
 3365SOL    HW121728   2.956   0.422   1.288  1.4054 -1.7481  1.8431
 3365SOL    HW221729   2.830   0.379   1.263 -0.4017  2.1562 -0.5913
 3366SOL     OW21730   2.900   3.188   2.159 -0.1469  0.5510  0.2699
 3366SOL    HW121731   2.870   3.228   2.077 -1.2349 -0.3152  0.2529
 3366SOL    HW221732   2.994   3.199   2.143 -0.2123  1.3135  0.3877
 3367SOL     OW21733   1.311   2.210   2.031 -0.0030  0.6980 -0.0256
 3367SOL    HW121734   1.306   2.288   2.087  0.1635  1.4469 -1.0549
 3367SOL    HW221735   1.392   2.232   1.985 -0.0097 -0.4021 -0.5545
 3368SOL     OW21736   3.336   3.481   1.594 -0.2377  0.0522 -0.1104
 3368SOL    HW121737   3.363   3.438   1.675  1.0732 -0.1124 -0.6398
 3368SOL    HW221738   3.272   3.419   1.559  0.2157 -0.7402  0.4643
 3369SOL     OW21739   1.374   3.584   8.072 -0.1031  0.5110  0.2001
 3369SOL    HW121740   1.321   3.634   8.010 -0.7053  0.9677  1.0853
 3369SOL    HW221741   1.321   3.506   8.092 -0.9119  0.7567 -0.9756
 3370SOL     OW21742   2.819   1.657   8.367  0.3503  0.2759 -0.4324
 3370SOL    HW121743   2.767   1.737   8.361 -0.2188 -0.1873 -1.4836
 3370SOL    HW221744   2.765   1.592   8.324  1.9678 -2.5117  1.7300
 3371SOL     OW21745   1.973   3.926   5.883  0.1093  0.2185 -0.0409
 3371SOL    HW121746   1.921   3.981   5.942 -1.5134  0.2351 -1.4682
 3371SOL    HW221747   1.927   3.843   5.888  1.1578 -0.3233  0.5819
 3372SOL     OW21748   3.947   4.600   8.520 -0.2246  0.0693 -0.2215
 3372SOL    HW121749   3.913   4.539   8.586  0.3881 -0.0614 -0.0196
 3372SOL    HW221750   3.871   4.654   8.500  0.0829  0.0023 -1.5901
 3373SOL     OW21751   2.155   2.889   3.875  0.4437 -0.4181 -0.6702
 3373SOL    HW121752   2.248   2.907   3.867  0.9516 -2.6403  0.1989
 3373SOL    HW221753   2.152   2.797   3.902  0.7120  0.2610  1.6616
 3374SOL     OW21754   2.473   0.015   9.620 -0.5599 -0.5955  0.4160
 3374SOL    HW121755   2.463   4.681   9.558  0.0937 -0.5446  0.2496
 3374SOL    HW221756   2.567   0.006   9.633 -0.4682  0.3246  0.4016
 3375SOL     OW21757   2.098   2.915   1.488  0.4032 -0.1028 -0.4145
 3375SOL    HW121758   2.072   2.826   1.513  1.9027 -0.8154 -1.4245
 3375SOL    HW221759   2.171   2.920   1.549  0.1603  1.1919 -0.2383
 3376SOL     OW21760   1.767   3.622   1.927  0.3500 -0.1489  0.1344
 3376SOL    HW121761   1.801   3.533   1.921 -0.8927 -0.7562  1.8827
 3376SOL    HW221762   1.679   3.605   1.962 -0.0848  1.8858  0.0618
 3377SOL     OW21763   1.923   4.117   3.755  0.0006 -0.0521  0.2125
 3377SOL    HW121764   1.981   4.042   3.763 -1.1973 -1.0882 -0.7609
 3377SOL    HW221765   1.975   4.164   3.691  1.7000 -2.5090 -0.1956
 3378SOL     OW21766   3.715   1.516   7.274 -0.5385  0.1170 -0.4082
 3378SOL    HW121767   3.669   1.488   7.353 -0.9305  2.2619  0.1441
 3378SOL    HW221768   3.783   1.450   7.284 -0.9874  0.3306  4.2953
 3379SOL     OW21769   1.225   0.964   5.936 -0.0233  0.0138 -0.0425
 3379SOL    HW121770   1.268   1.033   5.988  0.9853 -1.0038  0.4671
 3379SOL    HW221771   1.213   1.011   5.853  1.6171 -0.5186 -0.5797
 3380SOL     OW21772   1.693   4.459   4.953  0.1883 -0.6179  0.0142
 3380SOL    HW121773   1.705   4.404   4.875  3.1128  1.8258 -1.2736
 3380SOL    HW221774   1.759   4.426   5.014  0.6802  0.2113 -0.0709
 3381SOL     OW21775   2.801   2.580   4.368 -0.0717 -0.3982 -0.2610
 3381SOL    HW121776   2.731   2.622   4.317 -1.7857 -1.8296  0.9233
 3381SOL    HW221777   2.817   2.651   4.431 -0.4982  1.5126 -2.2815
 3382SOL     OW21778   1.760   4.324   7.715 -0.1110 -0.4252 -0.7571
 3382SOL    HW121779   1.837   4.310   7.770 -0.1292 -0.4664 -0.7426
 3382SOL    HW221780   1.796   4.384   7.650  2.1085 -1.5476 -0.5584
 3383SOL     OW21781   2.389   3.882  11.314  0.0439  0.3535  0.3171
 3383SOL    HW121782   2.342   3.963  11.291 -0.3322  0.0608  0.0416
 3383SOL    HW221783   2.464   3.876  11.256 -1.1670  3.0909 -1.5533
 3384SOL     OW21784   4.104   4.223   6.027  0.5827 -0.0077  0.1959
 3384SOL    HW121785   4.045   4.225   5.952  0.8610 -0.2250 -0.0301
 3384SOL    HW221786   4.044   4.190   6.094 -0.4293  1.2937 -0.0572
 3385SOL     OW21787   0.252   4.194   5.383 -0.8365  0.8059  0.2712
 3385SOL    HW121788   0.226   4.207   5.291 -2.0114 -0.9379  0.3560
 3385SOL    HW221789   0.344   4.221   5.387  0.4021 -3.2606 -0.9791
 3386SOL     OW21790   4.415   2.892   6.926  0.2347 -0.3615 -0.0294
 3386SOL    HW121791   4.491   2.922   6.877  0.2622 -0.6743 -0.1736
 3386SOL    HW221792   4.456   2.818   6.971 -0.7680  0.2730  1.9578
 3387SOL     OW21793   4.181   0.542   8.686 -0.2265 -0.3092  0.5235
 3387SOL    HW121794   4.098   0.583   8.660 -0.6847 -1.7655 -0.3094
 3387SOL    HW221795   4.151   0.451   8.682 -1.5415  0.1547 -0.2486
 3388SOL     OW21796   2.464   0.353   4.207  0.6140 -0.7590 -0.1023
 3388SOL    HW121797   2.488   0.359   4.299  0.2335 -0.5802 -0.0108
 3388SOL    HW221798   2.530   0.299   4.164 -0.4646 -1.7128 -0.5834
 3389SOL     OW21799   2.629   2.069   5.542 -0.1771  0.1152 -0.8154
 3389SOL    HW121800   2.631   2.065   5.447  0.9062 -0.2500 -0.7790
 3389SOL    HW221801   2.611   2.159   5.568  1.3322 -0.1079  0.9949
 3390SOL     OW21802   2.908   4.570   5.428  0.4114  0.1800 -0.1931
 3390SOL    HW121803   2.853   4.640   5.464  0.1329 -0.9858  1.6511
 3390SOL    HW221804   2.849   4.533   5.362  1.9209 -0.6878 -1.0648
 3391SOL     OW21805   3.741   2.092  10.559 -0.5442  0.4496  0.4900
 3391SOL    HW121806   3.716   2.075  10.468  2.1141  1.9147 -0.4803
 3391SOL    HW221807   3.835   2.074  10.558 -0.2998  1.7122  0.3242
 3392SOL     OW21808   4.174   0.384   6.675 -0.3671 -0.3035 -0.4982
 3392SOL    HW121809   4.182   0.297   6.714  0.7226 -0.4001 -0.9416
 3392SOL    HW221810   4.246   0.429   6.719 -0.8302 -1.0380  1.0222
 3393SOL     OW21811   1.807   1.101  16.129 -0.1401 -0.0273 -0.0849
 3393SOL    HW121812   1.790   1.052  16.209 -1.7546  1.1175  0.2865
 3393SOL    HW221813   1.901   1.086  16.126  0.1045  1.6384 -0.9082
 3394SOL     OW21814   0.442   3.244   5.103 -0.2237  0.0669 -0.1419
 3394SOL    HW121815   0.509   3.189   5.145 -0.1910  0.8676  0.8322
 3394SOL    HW221816   0.430   3.202   5.017  0.2817  0.8591 -0.5934
 3395SOL     OW21817   0.038   0.372   6.564  0.4625  0.1787 -0.1020
 3395SOL    HW121818   0.030   0.300   6.500  0.7731  2.2769 -2.5195
 3395SOL    HW221819   4.715   0.339   6.630  0.9150 -2.3818 -0.9784
 3396SOL     OW21820   2.925   4.574   7.362  0.2650 -0.4722 -0.1287
 3396SOL    HW121821   2.924   4.657   7.313  2.8157 -0.7227 -0.5770
 3396SOL    HW221822   2.864   4.518   7.316  0.4881  0.5260 -1.6306
 3397SOL     OW21823   3.165   1.362   6.176 -0.5033 -0.1876 -0.1560
 3397SOL    HW121824   3.196   1.409   6.100 -1.9794 -0.9173 -1.2123
 3397SOL    HW221825   3.095   1.309   6.137 -0.2892 -0.1458 -0.5840
 3398SOL     OW21826   3.782   4.485  13.207  0.4019 -0.1691 -0.5349
 3398SOL    HW121827   3.847   4.451  13.268  2.3840 -1.3399 -3.2880
 3398SOL    HW221828   3.817   4.574  13.212 -1.0439  0.3828 -0.3197
 3399SOL     OW21829   2.521   4.412   2.165  0.0405  0.3448 -0.0415
 3399SOL    HW121830   2.589   4.394   2.231  0.5076  0.3925 -0.5086
 3399SOL    HW221831   2.441   4.428   2.214  1.0818  0.9326  1.4817
 3400SOL     OW21832   3.510   1.802   4.322  0.6819  0.4346 -0.0195
 3400SOL    HW121833   3.538   1.795   4.231 -1.6354 -0.4772 -0.6622
 3400SOL    HW221834   3.429   1.852   4.315 -0.1899 -1.0897 -0.6396
 3401SOL     OW21835   4.095   3.379   3.333 -0.5497 -0.1956 -0.3730
 3401SOL    HW121836   4.031   3.313   3.359  2.2531 -1.9058  2.1690
 3401SOL    HW221837   4.051   3.416   3.256  0.7514  0.5789 -0.7360
 3402SOL     OW21838   0.492   2.838  15.623 -0.1357  0.1559  0.3545
 3402SOL    HW121839   0.575   2.819  15.667 -1.0156 -1.5252  1.2892
 3402SOL    HW221840   0.447   2.868  15.702 -1.2271 -1.8545  0.4882
 3403SOL     OW21841   1.003   0.137  14.537  0.2952 -0.1477 -0.0623
 3403SOL    HW121842   0.910   0.118  14.540  0.8073 -2.6336 -0.1676
 3403SOL    HW221843   1.046   0.058  14.570 -1.7548 -1.4266 -0.4667
 3404SOL     OW21844   1.535   2.766   3.483 -0.1653  0.4065 -0.1542
 3404SOL    HW121845   1.607   2.819   3.518 -0.4179 -0.2646  1.3324
 3404SOL    HW221846   1.465   2.830   3.471 -0.0180  0.6780  0.4443
 3405SOL     OW21847   1.935   2.598  11.009 -0.0393 -0.2902 -0.9462
 3405SOL    HW121848   1.967   2.685  10.987 -2.6080  0.4288 -1.8797
 3405SOL    HW221849   1.993   2.539  10.962  2.7366  1.7330 -0.0473
 3406SOL     OW21850   2.091   2.772   2.342 -0.1260  0.0897 -0.2444
 3406SOL    HW121851   2.036   2.814   2.408 -1.4848  0.8583 -1.8805
 3406SOL    HW221852   2.169   2.827   2.356 -0.2047  0.8500 -2.9131
 3407SOL     OW21853   3.344   3.137   5.230  0.5118 -0.0576 -0.2512
 3407SOL    HW121854   3.292   3.059   5.210  0.8483 -0.4724  0.5139
 3407SOL    HW221855   3.389   3.115   5.311  0.2654 -0.3847 -0.2034
 3408SOL     OW21856   0.287   2.096   9.287  0.2149 -0.1620 -0.4606
 3408SOL    HW121857   0.266   2.183   9.322  3.4783  0.1649  0.7212
 3408SOL    HW221858   0.197   2.071   9.265  0.1984 -0.1793 -0.3730
 3409SOL     OW21859   2.665   0.631   3.302 -0.4809  0.0095  0.1968
 3409SOL    HW121860   2.630   0.585   3.226  1.2470  0.7010 -1.0218
 3409SOL    HW221861   2.693   0.715   3.264  1.1076  0.4560  2.3113
 3410SOL     OW21862   2.194   3.389   5.665  0.2539 -0.2796 -0.4305
 3410SOL    HW121863   2.222   3.310   5.711 -3.0795 -1.6054 -0.6517
 3410SOL    HW221864   2.228   3.371   5.577  1.2084 -1.2472  0.1323
 3411SOL     OW21865   2.066   1.059   3.947  0.1212 -0.0660  0.3466
 3411SOL    HW121866   1.978   1.036   3.916  0.1259  1.6737 -0.9368
 3411SOL    HW221867   2.115   1.037   3.868 -1.7180 -0.8265 -0.5941
 3412SOL     OW21868   3.100   3.405   3.323 -0.2622  0.2232 -0.3088
 3412SOL    HW121869   3.125   3.452   3.244 -0.6058  0.9415  0.0049
 3412SOL    HW221870   3.006   3.395   3.312 -0.5035  1.6369  0.4173
 3413SOL     OW21871   3.286   0.980   4.552  0.5569  0.0678  0.4008
 3413SOL    HW121872   3.278   1.073   4.574 -2.0946  0.3183 -1.6020
 3413SOL    HW221873   3.204   0.960   4.508  0.8265 -1.7606  0.7455
 3414SOL     OW21874   2.548   3.178   8.210 -0.0288  0.3603 -0.2714
 3414SOL    HW121875   2.518   3.221   8.290 -3.6784  1.0084 -1.9938
 3414SOL    HW221876   2.504   3.225   8.139 -0.2538 -1.1130 -1.0982
 3415SOL     OW21877   4.382   3.956  17.370  0.3200  0.0902  0.3221
 3415SOL    HW121878   4.465   3.911  17.381  1.6003  1.9862 -1.6726
 3415SOL    HW221879   4.356   3.936  17.280 -1.3422  1.3862  0.5209
 3416SOL     OW21880   3.047   2.403   0.087  0.2715 -0.0623 -0.0051
 3416SOL    HW121881   3.096   2.370   0.162 -0.7995 -2.0551 -0.1787
 3416SOL    HW221882   3.031   2.321   0.040 -0.1898  1.4303 -2.4393
 3417SOL     OW21883   4.305   3.223   3.216  0.0040 -0.4224 -0.3583
 3417SOL    HW121884   4.243   3.287   3.251  0.3935 -1.4301  2.1044
 3417SOL    HW221885   4.268   3.157   3.273 -0.1658 -1.1716 -1.3284
 3418SOL     OW21886   2.542   0.597   1.577 -0.2664  0.6715  0.3745
 3418SOL    HW121887   2.637   0.607   1.586 -0.0681 -1.7192  0.8282
 3418SOL    HW221888   2.512   0.683   1.608  0.1838  1.5984 -1.7689
 3419SOL     OW21889   3.810   4.475   1.777  1.0649  0.1808 -0.1848
 3419SOL    HW121890   3.806   4.391   1.823 -2.7458  0.9312  0.8821
 3419SOL    HW221891   3.775   4.532   1.846 -0.3234  1.5248 -1.9982
 3420SOL     OW21892   3.022   2.618   4.188  0.2340 -0.0153  0.6235
 3420SOL    HW121893   3.079   2.590   4.116  0.9776  3.8175 -0.2841
 3420SOL    HW221894   3.028   2.546   4.250  0.3064 -0.9190 -0.4472
 3421SOL     OW21895   4.500   0.900  13.670 -0.2529  0.2308  0.9270
 3421SOL    HW121896   4.542   0.906  13.585  0.1694  0.6968  1.1722
 3421SOL    HW221897   4.567   0.838  13.700  0.2369  0.6061  0.5901
 3422SOL     OW21898   3.729   0.414   5.949  0.0977  0.2429 -0.0939
 3422SOL    HW121899   3.737   0.338   6.006 -0.6595  1.9072  2.2301
 3422SOL    HW221900   3.734   0.370   5.864  0.5710  0.1110  0.0017
 3423SOL     OW21901   3.637   2.954   3.765  0.0859  0.2883 -0.7866
 3423SOL    HW121902   3.606   2.871   3.729  0.8728 -0.1810 -0.3687
 3423SOL    HW221903   3.552   2.999   3.770  0.7802  1.2978  1.9251
 3424SOL     OW21904   0.067   2.793   8.522 -0.0115 -0.2495 -0.3669
 3424SOL    HW121905   0.071   2.798   8.427  0.3799 -0.3963 -0.3570
 3424SOL    HW221906   0.115   2.866   8.561  1.2226  0.3151 -2.9382
 3425SOL     OW21907   2.624   4.678   2.644 -0.2729 -0.1896 -0.1142
 3425SOL    HW121908   2.580   4.667   2.559 -1.2420  1.4409  0.1795
 3425SOL    HW221909   2.573   4.611   2.690  1.3286 -1.9846 -0.9935
 3426SOL     OW21910   4.459   1.181   7.168  0.0498 -0.4674  0.0655
 3426SOL    HW121911   4.490   1.248   7.230  1.5167 -0.1730 -0.9761
 3426SOL    HW221912   4.373   1.165   7.206 -0.2000  2.4530  0.6658
 3427SOL     OW21913   0.973   0.407   3.750  0.0682  0.4395  0.4794
 3427SOL    HW121914   0.988   0.335   3.812  2.4196  0.6103  0.1142
 3427SOL    HW221915   0.998   0.479   3.809  1.9212 -0.6451  1.0426
 3428SOL     OW21916   2.717   0.130   3.184 -0.1001 -0.5297  0.1091
 3428SOL    HW121917   2.755   0.200   3.238 -0.8715 -0.1721  0.1927
 3428SOL    HW221918   2.787   0.098   3.128  1.5200  2.7043  0.2986
 3429SOL     OW21919   3.671   0.738  10.440  0.3187 -0.2273  0.2979
 3429SOL    HW121920   3.747   0.796  10.449  0.2808 -0.1899  0.3764
 3429SOL    HW221921   3.708   0.670  10.496 -1.6333 -1.1597  0.4398
 3430SOL     OW21922   0.194   2.676   7.912 -0.3538 -0.1649  0.2314
 3430SOL    HW121923   0.217   2.584   7.901 -0.0915 -0.2712  1.7422
 3430SOL    HW221924   0.243   2.723   7.844 -1.2119 -2.8667 -2.2227
 3431SOL     OW21925   4.686   0.149   0.269 -0.1052  0.8110  0.4041
 3431SOL    HW121926   4.731   0.156   0.185 -1.1024 -0.0681 -0.1958
 3431SOL    HW221927   0.015   0.103   0.320  1.0142  0.8491 -1.0281
 3432SOL     OW21928   3.162   3.996  11.728 -0.7075 -0.1323  0.0058
 3432SOL    HW121929   3.233   4.029  11.784 -2.3028  2.7175  0.3821
 3432SOL    HW221930   3.092   3.986  11.793 -0.4832  2.1731  0.6170
 3433SOL     OW21931   4.525   0.891  12.404  0.0498 -0.0831  0.0022
 3433SOL    HW121932   4.619   0.876  12.410  0.1734 -0.0040 -1.7596
 3433SOL    HW221933   4.503   0.868  12.494 -0.2580 -0.1720 -0.0934
 3434SOL     OW21934   3.212   3.044   6.791  0.3747  0.3511 -0.0639
 3434SOL    HW121935   3.300   3.052   6.826 -0.3955  1.0026  1.6907
 3434SOL    HW221936   3.207   2.948   6.796 -1.6213  0.4416 -0.3457
 3435SOL     OW21937   0.151   0.762   4.550 -0.6142  0.0118 -0.3194
 3435SOL    HW121938   0.123   0.816   4.477 -2.1639 -0.4094 -0.0289
 3435SOL    HW221939   0.236   0.800   4.571  0.5373 -2.5245 -0.3047
 3436SOL     OW21940   4.527   2.017   3.579  0.2386 -0.2830  0.4198
 3436SOL    HW121941   4.559   2.076   3.647 -0.5352 -0.2692  0.7693
 3436SOL    HW221942   4.437   2.007   3.610  0.5075 -0.4254  1.1464
 3437SOL     OW21943   0.993   2.753  12.762  0.5074 -0.1666 -0.9599
 3437SOL    HW121944   0.938   2.770  12.685 -0.8207 -0.2654 -0.0341
 3437SOL    HW221945   1.072   2.797  12.730  1.5558  0.1644  2.0876
 3438SOL     OW21946   2.184   4.596   3.727 -0.1735 -0.1384 -0.3773
 3438SOL    HW121947   2.179   4.548   3.645  1.6204 -2.1316  0.6968
 3438SOL    HW221948   2.271   4.583   3.763 -0.4119 -1.1341 -0.1675
 3439SOL     OW21949   3.294   2.817   1.832  0.2260 -0.1380 -0.2171
 3439SOL    HW121950   3.368   2.813   1.772  0.2426  0.0854 -0.2140
 3439SOL    HW221951   3.244   2.743   1.798 -0.6289  0.3773 -0.0903
 3440SOL     OW21952   0.318   2.712   2.809  0.1895 -0.2079  0.3573
 3440SOL    HW121953   0.397   2.702   2.863  1.5354 -0.4533 -1.6566
 3440SOL    HW221954   0.251   2.656   2.847 -0.1995 -0.7270 -1.1122
 3441SOL     OW21955   1.994   0.242   8.377  0.0738 -0.1283  0.2814
 3441SOL    HW121956   1.919   0.184   8.384  2.2050 -2.5271  3.0789
 3441SOL    HW221957   1.973   0.300   8.450  0.1467 -0.6842  0.7483
 3442SOL     OW21958   4.277   0.445   1.694 -0.5063  0.3590  0.5298
 3442SOL    HW121959   4.338   0.386   1.650 -1.5320  0.4461 -1.0099
 3442SOL    HW221960   4.207   0.451   1.629 -0.4791 -1.7249  0.2854
 3443SOL     OW21961   1.854   4.070   5.396 -0.2104 -0.0009  0.1000
 3443SOL    HW121962   1.817   4.119   5.470  1.1589 -0.0439  0.8042
 3443SOL    HW221963   1.906   4.001   5.436 -0.7977 -0.7295 -0.3992
 3444SOL     OW21964   4.101   4.320   5.589  0.3792 -0.0549 -0.4280
 3444SOL    HW121965   4.156   4.321   5.668 -0.6062  1.9005  0.2530
 3444SOL    HW221966   4.156   4.377   5.535  0.5355  1.4964  1.3476
 3445SOL     OW21967   4.376   1.451   7.687 -0.1335  0.2387 -0.0225
 3445SOL    HW121968   4.411   1.496   7.611 -0.6377 -0.5937 -0.7475
 3445SOL    HW221969   4.423   1.493   7.759 -0.1735 -1.9742  1.2934
 3446SOL     OW21970   2.586   2.895   1.596 -1.0534  0.3604 -0.0703
 3446SOL    HW121971   2.649   2.830   1.628 -2.2376  0.7968  3.1937
 3446SOL    HW221972   2.590   2.954   1.671 -0.7089 -0.1300  0.3007
 3447SOL     OW21973   3.223   1.341   1.729 -0.3505  0.2789  0.1582
 3447SOL    HW121974   3.301   1.299   1.765 -1.5907 -0.2932  2.2504
 3447SOL    HW221975   3.151   1.317   1.789  0.3975  1.4650  1.5381
 3448SOL     OW21976   3.414   3.863  13.421 -0.5515 -0.5641 -0.1031
 3448SOL    HW121977   3.343   3.924  13.442 -0.0460  0.1544 -0.4760
 3448SOL    HW221978   3.363   3.792  13.383 -0.7898 -0.3787 -0.1278
 3449SOL     OW21979   2.057   2.654   3.177 -0.5486  0.7455  0.2918
 3449SOL    HW121980   2.029   2.710   3.249 -1.4002 -0.9760  1.3029
 3449SOL    HW221981   2.019   2.570   3.203  1.8967 -0.6805 -0.6566
 3450SOL     OW21982   4.581   3.877   2.316  0.6240 -0.4377  0.3695
 3450SOL    HW121983   4.578   3.813   2.387  0.4476  1.6832  2.2715
 3450SOL    HW221984   4.508   3.933   2.342  0.2824 -1.2124  1.1047
 3451SOL     OW21985   4.686   2.789  16.325 -0.2758 -0.1945 -0.3221
 3451SOL    HW121986   4.668   2.740  16.245  0.1846 -0.9165  0.0182
 3451SOL    HW221987   0.014   2.730  16.363  0.5563  0.4679 -0.7269
 3452SOL     OW21988   0.113   3.979   5.079  0.2517 -0.4065  0.4899
 3452SOL    HW121989   0.206   3.967   5.061 -0.0877  0.8236 -2.1099
 3452SOL    HW221990   0.080   3.890   5.093 -0.9173 -0.1311 -0.5222
 3453SOL     OW21991   2.812   0.541   8.755  0.5239 -0.0452  0.8907
 3453SOL    HW121992   2.841   0.450   8.747  0.8285 -0.1789  3.4423
 3453SOL    HW221993   2.726   0.532   8.797 -0.3097 -0.1406 -0.8477
 3454SOL     OW21994   4.564   3.804   4.141 -0.5032 -0.1383  0.2024
 3454SOL    HW121995   4.568   3.767   4.053  0.7164 -0.7965  0.5268
 3454SOL    HW221996   4.468   3.809   4.144 -0.5185 -0.4543  0.2041
 3455SOL     OW21997   2.280   0.248   8.443  0.0912 -0.2929  0.3067
 3455SOL    HW121998   2.188   0.246   8.414  0.4980 -0.7518 -0.9834
 3455SOL    HW221999   2.304   0.157   8.427 -1.3021 -0.8451  1.3800
 3456SOL     OW22000   3.790   2.141  14.120  0.0982  0.3287 -0.1642
 3456SOL    HW122001   3.830   2.123  14.035 -0.1393 -0.2784 -0.1428
 3456SOL    HW222002   3.842   2.216  14.151  0.1731  0.6194 -0.9951
 3457SOL     OW22003   1.736   2.097   5.824  0.2525  0.1253  0.0780
 3457SOL    HW122004   1.781   2.026   5.777 -0.5964 -0.0654 -0.4603
 3457SOL    HW222005   1.764   2.172   5.772  1.2118 -0.0390  0.3514
 3458SOL     OW22006   1.187   3.988   4.527  0.0887  0.0805  0.2375
 3458SOL    HW122007   1.264   4.033   4.562  0.4684 -1.1305  0.9745
 3458SOL    HW222008   1.172   3.926   4.598  1.6310  1.4324  1.7591
 3459SOL     OW22009   1.908   1.665   6.392  0.8035  0.1019 -0.6066
 3459SOL    HW122010   1.959   1.604   6.446  0.2602  1.0228  0.9488
 3459SOL    HW222011   1.878   1.607   6.322 -1.4097 -0.6447  0.9751
 3460SOL     OW22012   1.845   1.803  15.711 -0.2514  0.4323 -0.0826
 3460SOL    HW122013   1.904   1.809  15.786 -1.9983 -0.9300  1.3871
 3460SOL    HW222014   1.803   1.889  15.714  0.8632  0.9377  1.3849
 3461SOL     OW22015   2.400   4.200   0.991  0.4809 -0.4407 -0.2495
 3461SOL    HW122016   2.320   4.250   1.009  1.2718  0.0252  2.0212
 3461SOL    HW222017   2.451   4.204   1.072  1.9115 -0.0649 -1.1672
 3462SOL     OW22018   2.205   1.355   7.044  0.5362  0.1413 -0.3122
 3462SOL    HW122019   2.133   1.347   7.106  0.2845  1.6224 -0.4182
 3462SOL    HW222020   2.211   1.450   7.032  0.2045  0.4961  2.1938
 3463SOL     OW22021   2.191   3.835   4.105 -0.4069 -0.0586  0.5142
 3463SOL    HW122022   2.126   3.778   4.064 -1.3940  1.1789  0.3640
 3463SOL    HW222023   2.144   3.911   4.140 -0.5174  0.6651 -1.2111
 3464SOL     OW22024   0.124   2.441  12.249  0.2956 -0.2019 -0.3199
 3464SOL    HW122025   0.033   2.451  12.278  0.5081 -1.0732  0.6420
 3464SOL    HW222026   0.134   2.347  12.237  1.4053 -0.2258  0.8892
 3465SOL     OW22027   3.423   3.551   6.128  0.1901 -0.2595  0.3097
 3465SOL    HW122028   3.343   3.588   6.167 -0.3472 -0.3626 -0.7031
 3465SOL    HW222029   3.399   3.462   6.103  0.3416 -0.8451  2.2508
 3466SOL     OW22030   4.207   3.499  17.312 -0.0395 -0.5341 -0.1900
 3466SOL    HW122031   4.125   3.537  17.345  0.7370  1.1450 -0.2164
 3466SOL    HW222032   4.193   3.408  17.337 -0.1984 -0.3583  0.3509
 3467SOL     OW22033   1.655   0.155   9.699  0.0864 -0.0280  0.2368
 3467SOL    HW122034   1.726   0.091   9.703  1.7301  1.7855 -0.4630
 3467SOL    HW222035   1.617   0.158   9.787  1.0986 -2.2807  0.7601
 3468SOL     OW22036   1.368   1.520  13.815 -0.4354 -0.2485 -0.3502
 3468SOL    HW122037   1.321   1.526  13.731  0.8235 -1.9619 -1.1791
 3468SOL    HW222038   1.458   1.525  13.782 -0.6740 -1.0925 -1.1505
 3469SOL     OW22039   0.819   0.433   7.251 -0.3438 -0.2670 -0.2193
 3469SOL    HW122040   0.743   0.396   7.297  0.7784 -2.8529 -0.4498
 3469SOL    HW222041   0.882   0.455   7.320 -1.6707 -0.5768  1.1083
 3470SOL     OW22042   0.484   0.911   4.047 -0.3435  0.7588 -0.2523
 3470SOL    HW122043   0.541   0.960   3.987  1.4938  2.0241  2.5341
 3470SOL    HW222044   0.403   0.959   4.032 -0.3674  0.9572  0.5487
 3471SOL     OW22045   2.680   1.750   7.493  0.5180  0.3668 -0.1869
 3471SOL    HW122046   2.739   1.789   7.558  0.4565  1.5274 -0.8329
 3471SOL    HW222047   2.614   1.717   7.554  0.9255  2.0044  1.1353
 3472SOL     OW22048   1.891   0.445   1.367  0.2783  0.0201  0.4718
 3472SOL    HW122049   1.800   0.466   1.387  0.6074  3.1725 -1.3006
 3472SOL    HW222050   1.934   0.510   1.422  1.4842 -0.3029 -0.0887
 3473SOL     OW22051   4.269   1.187   9.472 -0.7667  0.4290 -0.2128
 3473SOL    HW122052   4.274   1.272   9.515  0.9860  0.8054 -1.1491
 3473SOL    HW222053   4.213   1.204   9.397 -0.4061  1.4049 -0.2499
 3474SOL     OW22054   3.481   3.056   6.891  0.4694  0.1413  0.1879
 3474SOL    HW122055   3.563   3.030   6.849  0.7187  2.0573 -0.5095
 3474SOL    HW222056   3.510   3.060   6.983  1.4497 -0.8775 -0.0856
 3475SOL     OW22057   0.821   0.069   3.300 -0.1679  0.3610 -0.4026
 3475SOL    HW122058   0.875   0.123   3.357  1.7926  0.5575 -2.4406
 3475SOL    HW222059   0.830   4.718   3.336 -2.0718 -1.3747 -4.1803
 3476SOL     OW22060   2.095   3.230  15.605  0.5802  1.1892  0.1076
 3476SOL    HW122061   2.045   3.270  15.676 -0.8432 -1.9534  0.8791
 3476SOL    HW222062   2.111   3.139  15.627 -1.8001  0.5034 -0.9854
 3477SOL     OW22063   2.702   1.758   6.004  0.1184  0.7236 -0.3500
 3477SOL    HW122064   2.662   1.790   6.084 -1.1854 -1.3930 -0.1444
 3477SOL    HW222065   2.668   1.819   5.939 -1.1134 -1.2844 -1.6096
 3478SOL     OW22066   2.337   3.552   2.175 -0.0748  0.1881 -0.0251
 3478SOL    HW122067   2.360   3.546   2.082 -1.8739  0.3387 -0.4786
 3478SOL    HW222068   2.271   3.621   2.183  0.4653  0.7063  0.0396
 3479SOL     OW22069   3.073   1.931  12.493 -0.1029  0.6223  0.2858
 3479SOL    HW122070   2.993   1.904  12.539 -1.8614  3.3532 -1.2099
 3479SOL    HW222071   3.094   1.842  12.462  2.0434  1.8117 -1.7166
 3480SOL     OW22072   2.897   1.581   1.710  0.8225 -0.4388  0.0596
 3480SOL    HW122073   2.897   1.667   1.751  0.6314 -0.3744 -0.0767
 3480SOL    HW222074   2.834   1.532   1.763  0.9372 -1.3304 -0.6281
 3481SOL     OW22075   3.527   3.668   9.106 -0.3712  0.2791  0.0546
 3481SOL    HW122076   3.584   3.730   9.150  0.8858 -1.8916  1.4982
 3481SOL    HW222077   3.441   3.669   9.149  0.6073  2.6520  1.9498
 3482SOL     OW22078   2.855   3.241   6.403 -0.1706  0.4266 -0.4827
 3482SOL    HW122079   2.895   3.264   6.487  0.7884 -0.1313 -0.7964
 3482SOL    HW222080   2.885   3.151   6.404  0.1627  0.5613  2.8968
 3483SOL     OW22081   2.118   3.172   3.149 -0.0008  0.0551 -0.0643
 3483SOL    HW122082   2.106   3.247   3.090 -1.1915 -0.4101 -0.4140
 3483SOL    HW222083   2.145   3.210   3.232 -4.5206  1.2540  0.8356
 3484SOL     OW22084   0.672   3.946   6.369  0.9800  0.0307  0.1418
 3484SOL    HW122085   0.735   3.968   6.300 -1.2632  1.3178 -1.4756
 3484SOL    HW222086   0.739   3.925   6.435  1.3546  0.0732 -0.2266
 3485SOL     OW22087   4.128   2.733   0.177  0.8478 -0.0765 -0.4597
 3485SOL    HW122088   4.075   2.687   0.242  0.7492  0.8455  0.1000
 3485SOL    HW222089   4.204   2.676   0.178  0.1750 -0.9445  0.6600
 3486SOL     OW22090   1.282   1.773   8.649  0.6147  0.4581  0.6504
 3486SOL    HW122091   1.211   1.837   8.653 -0.7090 -1.0539  1.3081
 3486SOL    HW222092   1.334   1.814   8.579  0.5945  0.3160  0.5539
 3487SOL     OW22093   1.825   1.369   7.276 -0.9821 -0.1533  0.2356
 3487SOL    HW122094   1.850   1.294   7.222  0.5861  0.8217 -0.4015
 3487SOL    HW222095   1.739   1.331   7.291 -1.2371 -0.1378 -1.1504
 3488SOL     OW22096   0.719   4.217   5.992 -0.0647 -0.0945  0.4302
 3488SOL    HW122097   0.656   4.279   5.955  0.5115  0.9661  1.2149
 3488SOL    HW222098   0.712   4.142   5.932 -2.8480  0.2062  0.4036
 3489SOL     OW22099   1.261   0.106   3.966 -0.0144 -0.1779 -0.0022
 3489SOL    HW122100   1.271   0.126   4.059 -0.4720  2.0616 -0.4242
 3489SOL    HW222101   1.315   0.028   3.958  1.2222  0.9278 -2.4943
 3490SOL     OW22102   3.426   1.438  14.995  0.5251  0.2879  0.1469
 3490SOL    HW122103   3.488   1.503  14.960 -0.3534  1.4239  0.6810
 3490SOL    HW222104   3.412   1.385  14.917  0.7270  0.4211  0.0176
 3491SOL     OW22105   0.997   3.693   8.177  0.0011  0.1582 -0.3215
 3491SOL    HW122106   0.937   3.632   8.219  0.2843 -1.0652 -1.7352
 3491SOL    HW222107   0.971   3.675   8.087  1.0288  0.7077 -0.7312
 3492SOL     OW22108   2.747   0.704   5.564 -0.0679 -0.1967  0.5083
 3492SOL    HW122109   2.737   0.619   5.608 -0.2215  0.7287  2.2759
 3492SOL    HW222110   2.839   0.726   5.581 -0.5082 -0.4666  3.2279
 3493SOL     OW22111   3.645   2.632   9.247 -0.4977  0.1032  0.8097
 3493SOL    HW122112   3.665   2.556   9.193 -0.5065  0.1185  0.7850
 3493SOL    HW222113   3.682   2.707   9.201 -2.9761 -0.4558 -2.0248
 3494SOL     OW22114   3.787   4.271   8.399  0.0608 -0.3456 -0.4261
 3494SOL    HW122115   3.841   4.245   8.474  1.2952 -0.4298 -1.3552
 3494SOL    HW222116   3.768   4.179   8.381 -1.0178  0.3253 -2.6658
 3495SOL     OW22117   3.186   2.492   0.650  0.5299  0.6097 -0.4880
 3495SOL    HW122118   3.098   2.512   0.619 -0.0574 -0.0500  0.7401
 3495SOL    HW222119   3.239   2.528   0.579 -1.0007  3.0034 -0.4072
 3496SOL     OW22120   4.455   4.512  15.230 -0.5880  0.1439  0.1176
 3496SOL    HW122121   4.434   4.419  15.219 -1.8768  0.2777  1.4627
 3496SOL    HW222122   4.408   4.544  15.153 -0.8526 -4.1188 -1.5115
 3497SOL     OW22123   0.411   3.799  12.382 -0.1255 -0.2686  0.4429
 3497SOL    HW122124   0.321   3.822  12.406 -0.8845 -2.4260 -0.3402
 3497SOL    HW222125   0.410   3.722  12.325  1.7243 -0.4360  0.6496
 3498SOL     OW22126   2.328   4.325   6.012  0.3035  0.0786 -0.3716
 3498SOL    HW122127   2.407   4.298   5.964  0.6104  0.7836 -0.2666
 3498SOL    HW222128   2.284   4.348   5.930 -2.6668 -0.0637  1.1927
 3499SOL     OW22129   2.319   1.279  14.114  0.2590  0.0715  0.0640
 3499SOL    HW122130   2.242   1.329  14.140  1.1721  1.2925  0.4000
 3499SOL    HW222131   2.379   1.351  14.097  0.4732  0.3580  2.0704
 3500SOL     OW22132   4.661   4.513   5.787  0.2334  0.6935  0.2522
 3500SOL    HW122133   4.720   4.569   5.735 -0.4016  0.6608 -0.5000
 3500SOL    HW222134   4.615   4.478   5.711 -1.6592  0.4571  1.5104
 3501SOL     OW22135   3.818   1.453   7.791  0.3263 -0.0503 -0.7532
 3501SOL    HW122136   3.726   1.464   7.814  0.7414  0.8259  0.5369
 3501SOL    HW222137   3.841   1.378   7.846 -0.5543 -0.6308 -1.1999
 3502SOL     OW22138   2.509   1.925   8.908 -0.3056  0.0965  0.5875
 3502SOL    HW122139   2.493   1.958   8.996  2.1458  1.1997  0.5886
 3502SOL    HW222140   2.423   1.903   8.871 -0.0697 -0.2413  0.2399
 3503SOL     OW22141   0.674   1.528  15.709 -0.0399  0.2568 -0.2150
 3503SOL    HW122142   0.701   1.615  15.678 -0.2915  0.8481  1.2245
 3503SOL    HW222143   0.722   1.470  15.651  0.5154 -0.0907  0.5928
 3504SOL     OW22144   2.804   2.756   6.789 -0.2307  0.3053  0.3866
 3504SOL    HW122145   2.722   2.743   6.836 -0.5495  0.2975 -0.1712
 3504SOL    HW222146   2.825   2.844   6.819 -0.6568  0.1929  1.0113
 3505SOL     OW22147   2.311   1.888   2.393 -0.6649  0.1027 -0.2443
 3505SOL    HW122148   2.296   1.870   2.486  0.0624 -1.9663 -0.5379
 3505SOL    HW222149   2.407   1.897   2.389 -0.6497 -0.1544 -0.4724
 3506SOL     OW22150   2.910   1.493   1.057  0.0668  0.3880 -0.2234
 3506SOL    HW122151   2.982   1.449   1.102 -0.3216  0.2636  0.2717
 3506SOL    HW222152   2.935   1.493   0.964  1.0261  1.4379  0.0374
 3507SOL     OW22153   1.448   3.253   4.552  0.3536 -0.0045  0.3143
 3507SOL    HW122154   1.401   3.171   4.568  3.9491 -1.9954  0.6874
 3507SOL    HW222155   1.518   3.246   4.617  0.6232 -0.5064 -0.0267
 3508SOL     OW22156   0.489   2.930   5.502  0.2572  0.4575 -0.0416
 3508SOL    HW122157   0.403   2.970   5.490  0.3836  0.3739 -1.1809
 3508SOL    HW222158   0.542   2.994   5.454  0.4486  0.3486  0.0259
 3509SOL     OW22159   4.243   1.604   4.655 -0.1245  0.4708 -0.1972
 3509SOL    HW122160   4.195   1.668   4.708 -0.2127 -0.5377  0.9552
 3509SOL    HW222161   4.328   1.594   4.699  0.7023  3.4461 -1.1241
 3510SOL     OW22162   2.243   0.925  10.407  0.1592 -0.3972  0.3186
 3510SOL    HW122163   2.225   0.905  10.316  2.1054  1.3072 -0.4470
 3510SOL    HW222164   2.257   1.020  10.409  2.5300 -0.7620  0.9830
 3511SOL     OW22165   1.890   0.438   3.108  0.5157 -0.0355  0.8501
 3511SOL    HW122166   1.950   0.513   3.102 -0.1487  0.2775 -2.2101
 3511SOL    HW222167   1.951   0.365   3.097  1.5045  0.8202  0.5456
 3512SOL     OW22168   3.588   0.590   6.143  0.0534  0.9022  0.7310
 3512SOL    HW122169   3.651   0.539   6.092  1.5008  2.4149  0.9857
 3512SOL    HW222170   3.632   0.609   6.226  0.8828 -0.6741  0.6516
 3513SOL     OW22171   1.038   2.818   4.550 -0.0346 -0.3538  0.4347
 3513SOL    HW122172   1.130   2.812   4.524 -0.4815 -0.3000 -1.1722
 3513SOL    HW222173   1.018   2.903   4.512  1.8951  0.4329  1.1865
 3514SOL     OW22174   3.250   2.744   8.030 -0.6164 -0.2938  0.0832
 3514SOL    HW122175   3.218   2.826   7.991 -0.5092 -0.4907 -0.4211
 3514SOL    HW222176   3.313   2.766   8.099 -2.3055 -0.5915  1.7026
 3515SOL     OW22177   3.771   2.769  14.057 -0.4310 -0.3561  0.0038
 3515SOL    HW122178   3.761   2.675  14.048  1.1005 -0.2748 -2.6839
 3515SOL    HW222179   3.817   2.771  14.141  2.5175  0.1740 -1.6216
 3516SOL     OW22180   1.510   2.486   3.488  0.3876  0.0806 -0.3077
 3516SOL    HW122181   1.599   2.467   3.458 -0.2223  0.0675 -2.0956
 3516SOL    HW222182   1.521   2.581   3.484  2.4052 -0.2183 -1.6456
 3517SOL     OW22183   3.731   1.690   3.486  0.3378  0.0293 -0.1049
 3517SOL    HW122184   3.765   1.765   3.535  0.1660 -1.6727  2.6079
 3517SOL    HW222185   3.728   1.621   3.551 -1.2336  0.4846  0.3146
 3518SOL     OW22186   4.681   1.086   7.725  0.5417 -0.4475  0.1808
 3518SOL    HW122187   0.022   1.033   7.733  0.4228 -0.6242  0.2138
 3518SOL    HW222188   4.675   1.136   7.807  0.7684 -2.5118  1.4832
 3519SOL     OW22189   1.494   3.675  14.058  0.4867 -0.2884  0.3917
 3519SOL    HW122190   1.538   3.598  14.021  1.4579  0.5471 -0.1888
 3519SOL    HW222191   1.508   3.673  14.152 -0.8047  1.1584  0.6009
 3520SOL     OW22192   1.174   4.049   8.825 -0.2048 -0.3837 -0.6450
 3520SOL    HW122193   1.093   4.090   8.854  1.8159  2.3889  1.0597
 3520SOL    HW222194   1.171   4.079   8.734 -0.3541 -1.7901 -1.1049
 3521SOL     OW22195   4.435   2.064   6.776 -0.4966  0.2409 -0.2098
 3521SOL    HW122196   4.477   2.058   6.862 -1.9325 -1.1587  0.3898
 3521SOL    HW222197   4.341   2.062   6.792 -0.9360 -0.9820 -2.9257
 3522SOL     OW22198   2.688   4.457   6.835  0.7357 -0.0053 -0.1154
 3522SOL    HW122199   2.739   4.378   6.815 -1.5300 -1.3447 -0.5484
 3522SOL    HW222200   2.641   4.430   6.914  0.7680  3.2221  0.9784
 3523SOL     OW22201   0.468   1.540   4.269 -0.4782  0.2496 -0.2110
 3523SOL    HW122202   0.530   1.532   4.341  1.9167  0.1716 -2.3034
 3523SOL    HW222203   0.433   1.627   4.289  1.1392  0.9478 -0.4733
 3524SOL     OW22204   1.866   0.449  11.959  0.3945  0.1561  0.0255
 3524SOL    HW122205   1.847   0.448  12.053  2.0394 -0.7923  0.3556
 3524SOL    HW222206   1.962   0.452  11.958  0.4324 -0.7651  1.0388
 3525SOL     OW22207   1.154   1.567   3.426 -0.2744  0.1367  0.2767
 3525SOL    HW122208   1.243   1.535   3.427  0.6088  2.5338 -1.9507
 3525SOL    HW222209   1.164   1.636   3.492 -1.4955  1.1513 -0.5725
 3526SOL     OW22210   2.926   4.730   3.816  0.2926 -0.7959 -0.1002
 3526SOL    HW122211   2.894   4.717   3.905  1.9333  1.2087  0.7896
 3526SOL    HW222212   2.978   0.073   3.824  1.7329 -1.8428  1.2063
 3527SOL     OW22213   4.185   0.036   4.985 -0.8880  0.4959 -0.4933
 3527SOL    HW122214   4.205   4.689   4.945 -1.4538  0.0831  0.1190
 3527SOL    HW222215   4.091   0.045   4.971 -0.7310  0.9911 -1.2499
 3528SOL     OW22216   4.232   3.101   2.760 -0.2994  0.1255  0.3703
 3528SOL    HW122217   4.172   3.129   2.830  1.0056 -2.0017  2.3445
 3528SOL    HW222218   4.266   3.014   2.784  0.8371  1.4072  3.3511
 3529SOL     OW22219   1.660   2.311   5.368 -0.1824 -0.6916  0.2158
 3529SOL    HW122220   1.712   2.346   5.441 -0.7206 -2.7204  1.5660
 3529SOL    HW222221   1.732   2.304   5.305 -1.5112 -4.6387 -0.8902
 3530SOL     OW22222   0.012   3.293   9.122  0.3674 -0.0220 -0.0717
 3530SOL    HW122223   4.659   3.322   9.117  0.5632  0.7534  0.9000
 3530SOL    HW222224   0.010   3.218   9.062  0.1236  0.2396 -0.3945
 3531SOL     OW22225   4.635   3.329   3.494 -0.1070 -0.1356 -0.2753
 3531SOL    HW122226   4.608   3.372   3.575  1.0121 -0.1446  0.1031
 3531SOL    HW222227   4.581   3.384   3.436  2.7014  0.6748 -2.1279
 3532SOL     OW22228   2.962   1.677   8.045  0.6837 -0.5340  0.1794
 3532SOL    HW122229   2.962   1.610   7.976 -0.4047  2.5061 -2.7526
 3532SOL    HW222230   2.871   1.689   8.072  1.2671  4.0866  0.1513
 3533SOL     OW22231   2.886   0.887   9.012 -0.2724 -0.2506 -0.0111
 3533SOL    HW122232   2.957   0.945   8.986 -1.1982  0.8128 -0.1806
 3533SOL    HW222233   2.863   0.910   9.101  2.8724 -1.7910  1.1902
 3534SOL     OW22234   2.363   4.426   6.670 -0.1910 -0.8062  0.3304
 3534SOL    HW122235   2.397   4.437   6.581 -0.4214  0.4906  0.3984
 3534SOL    HW222236   2.296   4.494   6.663 -0.8802 -1.5463 -0.2303
 3535SOL     OW22237   3.135   0.682   6.964  0.1446  0.4521 -0.0066
 3535SOL    HW122238   3.157   0.622   6.892  0.8417  0.5468  0.1238
 3535SOL    HW222239   3.086   0.615   7.013  0.0221 -0.3948 -1.2727
 3536SOL     OW22240   0.740   2.665   2.335  0.4049 -0.2742  0.2070
 3536SOL    HW122241   0.809   2.672   2.270 -1.7564  0.9520 -1.9871
 3536SOL    HW222242   0.711   2.756   2.325  0.3992 -0.4903 -1.5892
 3537SOL     OW22243   0.535   4.197   8.433 -0.4012 -0.4110  0.1532
 3537SOL    HW122244   0.504   4.249   8.507 -0.0292 -1.1600  0.8381
 3537SOL    HW222245   0.470   4.127   8.425  0.2591 -0.8866 -1.0396
 3538SOL     OW22246   1.600   0.100   1.301  0.1490  0.1232  0.2607
 3538SOL    HW122247   1.561   0.026   1.254  0.4662  0.5923 -0.7553
 3538SOL    HW222248   1.695   0.104   1.287  0.2953  1.5372  1.7611
 3539SOL     OW22249   1.064   3.245   3.417 -0.5990 -0.1220 -0.6164
 3539SOL    HW122250   1.053   3.294   3.335  0.3243 -1.4771 -1.5610
 3539SOL    HW222251   0.979   3.264   3.457 -1.2142 -0.8634 -1.5764
 3540SOL     OW22252   3.763   3.508   4.910  0.0925 -1.1362 -0.2872
 3540SOL    HW122253   3.785   3.567   4.983  0.0513 -3.0922  1.2991
 3540SOL    HW222254   3.827   3.506   4.838  1.4426 -0.8478  0.8872
 3541SOL     OW22255   3.527   0.972   4.354  0.5593  0.6747  0.2207
 3541SOL    HW122256   3.502   0.905   4.291 -0.9763  0.1219  1.4257
 3541SOL    HW222257   3.443   0.984   4.398  0.5847  1.6940 -0.0041
 3542SOL     OW22258   2.809   2.377   9.661  0.0009  0.0520  0.6119
 3542SOL    HW122259   2.865   2.426   9.602 -2.6501  0.1020 -1.8514
 3542SOL    HW222260   2.868   2.328   9.719  1.1377  1.0304  0.2656
 3543SOL     OW22261   3.917   3.936   7.978 -0.1085  0.2352 -0.1339
 3543SOL    HW122262   3.998   3.909   7.934  0.4976 -1.1330  1.7721
 3543SOL    HW222263   3.964   3.987   8.045  1.0457 -1.7007  0.5399
 3544SOL     OW22264   2.568   2.525   3.717 -0.0477  0.1494  0.5565
 3544SOL    HW122265   2.541   2.597   3.660  0.9924  2.1436  2.5687
 3544SOL    HW222266   2.561   2.453   3.654 -1.7013 -0.9175  1.9481
 3545SOL     OW22267   1.778   3.533   8.195  0.0476 -0.0620 -0.0862
 3545SOL    HW122268   1.741   3.540   8.283  0.8610 -0.0900  0.2605
 3545SOL    HW222269   1.757   3.443   8.172  1.1046 -0.8853  2.2128
 3546SOL     OW22270   1.128   4.589   6.798 -0.6635 -0.3161 -0.1343
 3546SOL    HW122271   1.155   4.679   6.813 -2.1610 -0.1479  1.6484
 3546SOL    HW222272   1.034   4.601   6.784 -0.4202  2.2400  0.4703
 3547SOL     OW22273   3.966   2.967   4.231 -0.0617 -0.3197  0.4884
 3547SOL    HW122274   3.996   3.046   4.277 -0.2673  1.1028 -1.8128
 3547SOL    HW222275   4.041   2.922   4.271  0.7309 -0.0358 -0.6652
 3548SOL     OW22276   1.334   0.333   2.260 -0.4147  0.0295 -0.1824
 3548SOL    HW122277   1.257   0.280   2.240  0.1741 -1.1890  0.7676
 3548SOL    HW222278   1.299   0.378   2.337  0.6037  1.7049 -0.7093
 3549SOL     OW22279   4.298   0.147   0.816 -0.6718 -0.4575  0.0836
 3549SOL    HW122280   4.350   0.150   0.736  0.5059  0.5916  0.8866
 3549SOL    HW222281   4.207   0.126   0.795 -0.6245 -1.0262  0.4258
 3550SOL     OW22282   4.343   0.556   0.896 -0.4418  0.1118  0.6567
 3550SOL    HW122283   4.272   0.531   0.955 -1.5803  0.5924 -0.4959
 3550SOL    HW222284   4.424   0.519   0.930  0.6213  1.2266 -0.6506
 3551SOL     OW22285   2.139   2.061   2.275  0.0547  0.9233 -0.4398
 3551SOL    HW122286   2.085   2.102   2.342  1.2756  1.1690  0.3884
 3551SOL    HW222287   2.175   1.991   2.329 -0.8884  0.9596  0.2239
 3552SOL     OW22288   3.122   3.467   6.113  0.3657  0.1863 -0.0351
 3552SOL    HW122289   3.027   3.460   6.125  0.2788  1.2051 -0.1525
 3552SOL    HW222290   3.142   3.390   6.166  2.1111 -1.1343 -2.5780
 3553SOL     OW22291   2.246   2.965  10.433 -0.8575 -0.4265  0.0702
 3553SOL    HW122292   2.258   2.946  10.526 -2.3417 -1.7394 -0.0232
 3553SOL    HW222293   2.236   3.060  10.440 -0.9648 -0.5120  1.0830
 3554SOL     OW22294   4.231   2.344   2.770 -0.1883  0.6769 -0.2436
 3554SOL    HW122295   4.178   2.319   2.846  1.1378 -0.8927  0.1813
 3554SOL    HW222296   4.169   2.318   2.701  1.5966 -2.4498 -0.6728
 3555SOL     OW22297   2.266   0.121   3.091 -0.3537 -0.2960 -0.2490
 3555SOL    HW122298   2.355   0.153   3.103 -0.7683  0.4497  0.8567
 3555SOL    HW222299   2.274   0.028   3.111  1.5830  0.1716  1.1330
 3556SOL     OW22300   3.036   3.887   0.103  0.0826  0.5735 -0.0967
 3556SOL    HW122301   2.969   3.919   0.165  0.2640  0.1524  0.3119
 3556SOL    HW222302   3.095   3.834   0.156 -1.4879 -0.9170  0.1405
 3557SOL     OW22303   1.993   1.784   2.796  0.4140 -0.1483  0.3240
 3557SOL    HW122304   2.027   1.742   2.875 -0.4193 -1.1715  0.1354
 3557SOL    HW222305   1.911   1.821   2.829 -0.7845 -2.1366 -0.4667
 3558SOL     OW22306   3.846   2.252   7.803 -0.1194  0.1676  0.0326
 3558SOL    HW122307   3.830   2.268   7.896 -0.9438 -0.4218 -0.0039
 3558SOL    HW222308   3.815   2.161   7.799  2.6108 -0.6612 -2.2807
 3559SOL     OW22309   2.612   1.899   1.048 -0.2816  0.0098 -0.0331
 3559SOL    HW122310   2.685   1.956   1.072 -0.4700  0.3338 -0.2408
 3559SOL    HW222311   2.545   1.949   1.094 -1.5766  0.1285 -2.0836
 3560SOL     OW22312   2.532   2.667   5.404 -0.4886 -0.1716 -0.0277
 3560SOL    HW122313   2.598   2.632   5.345 -0.0469 -0.2051  0.4807
 3560SOL    HW222314   2.478   2.723   5.348  1.4627  1.5126 -0.2415
 3561SOL     OW22315   3.370   4.700   6.233 -0.3006  0.4769 -0.1601
 3561SOL    HW122316   3.329   4.615   6.245  2.1802 -0.5759  0.8720
 3561SOL    HW222317   3.285   0.006   6.226 -1.0189 -0.6356  1.9572
 3562SOL     OW22318   4.215   3.913  17.580  0.2942 -0.5052  0.0709
 3562SOL    HW122319   4.275   3.936  17.509  0.7576 -1.4216  0.1670
 3562SOL    HW222320   4.167   3.994  17.598  0.0712 -0.8619  1.0866
 3563SOL     OW22321   3.962   0.965   1.993 -0.4357  0.0309  0.0462
 3563SOL    HW122322   4.046   0.961   2.039 -0.8309 -1.8844  0.5904
 3563SOL    HW222323   3.920   0.898   2.046  0.2242  0.1960  0.7821
 3564SOL     OW22324   0.708   1.724   8.877 -0.2619 -0.2217 -0.4632
 3564SOL    HW122325   0.634   1.748   8.822 -1.6904 -0.1504  1.5016
 3564SOL    HW222326   0.700   1.629   8.881  0.1121 -0.1437  2.5183
 3565SOL     OW22327   3.031   1.481   2.433  0.9045 -0.4732 -0.2262
 3565SOL    HW122328   2.948   1.524   2.410  2.5658  1.8030 -1.9139
 3565SOL    HW222329   3.081   1.562   2.446 -2.6169  1.6822 -0.1084
 3566SOL     OW22330   1.629   4.060   5.214  0.1791 -0.0046  0.0789
 3566SOL    HW122331   1.689   4.062   5.289  1.2633  1.2467 -0.7963
 3566SOL    HW222332   1.626   3.972   5.178 -1.6665 -0.9384  2.5412
 3567SOL     OW22333   0.418   0.475   4.543  0.0686 -0.1235  0.2302
 3567SOL    HW122334   0.388   0.545   4.485 -1.6251 -1.0097  0.0340
 3567SOL    HW222335   0.508   0.494   4.569  0.2252 -0.8959  0.2434
 3568SOL     OW22336   2.107   1.410   4.587  0.1343 -0.5426 -0.1047
 3568SOL    HW122337   2.153   1.340   4.633 -1.0112 -0.5906  0.9763
 3568SOL    HW222338   2.035   1.432   4.646 -0.1082  0.0474 -0.6132
 3569SOL     OW22339   1.311   1.198   4.905  0.8276  0.0683 -0.4163
 3569SOL    HW122340   1.374   1.150   4.959  0.3185  1.8261  1.7046
 3569SOL    HW222341   1.240   1.135   4.892  1.3659 -0.4408 -0.8854
 3570SOL     OW22342   2.833   2.019   3.391 -0.4017  0.2856  0.2532
 3570SOL    HW122343   2.811   2.108   3.418  0.4329  0.6468 -0.2444
 3570SOL    HW222344   2.910   2.002   3.445 -0.1201  0.8996  0.0490
 3571SOL     OW22345   1.805   3.300   6.580  0.3999  0.0288  0.4908
 3571SOL    HW122346   1.760   3.298   6.664  0.8172 -0.9176  0.6880
 3571SOL    HW222347   1.768   3.371   6.527  1.5209 -0.0076 -0.3557
 3572SOL     OW22348   1.474   3.299   5.115  0.2093 -0.3306 -0.2176
 3572SOL    HW122349   1.491   3.213   5.075 -0.9827  0.1070 -1.6810
 3572SOL    HW222350   1.503   3.350   5.040 -2.9443 -0.4718 -1.5746
 3573SOL     OW22351   4.613   4.661   8.870 -0.3782 -0.1387 -0.0539
 3573SOL    HW122352   4.522   4.670   8.840 -0.3617 -1.2132 -0.4049
 3573SOL    HW222353   4.613   4.695   8.960 -2.0358  1.0905 -0.5217
 3574SOL     OW22354   1.621   4.400   2.476 -0.6510  0.0200  0.2525
 3574SOL    HW122355   1.551   4.336   2.479 -0.0448 -0.6920 -0.8822
 3574SOL    HW222356   1.573   4.474   2.439 -2.4535 -1.8673 -1.1851
 3575SOL     OW22357   0.894   0.899   5.886  0.0750  0.1023  0.3186
 3575SOL    HW122358   0.900   0.837   5.958 -0.0926  2.6094  2.4781
 3575SOL    HW222359   0.977   0.945   5.893  0.0896  0.5666 -2.9640
 3576SOL     OW22360   2.712   2.265   2.618 -0.0629 -0.1604  0.1935
 3576SOL    HW122361   2.737   2.265   2.526 -4.6590  0.7060 -1.0378
 3576SOL    HW222362   2.617   2.257   2.620 -0.2375  1.6419 -1.3727
 3577SOL     OW22363   3.112   1.185   5.538  0.1354 -0.2910 -0.2200
 3577SOL    HW122364   3.030   1.154   5.577 -1.7797  4.1998 -0.7529
 3577SOL    HW222365   3.144   1.251   5.599  1.2263 -0.4468 -0.6254
 3578SOL     OW22366   4.382   1.871   7.945  0.5100  0.4054  0.2797
 3578SOL    HW122367   4.317   1.858   7.876 -0.5779 -0.9092  1.5395
 3578SOL    HW222368   4.467   1.876   7.902  1.3643 -2.6788  1.5605
 3579SOL     OW22369   2.251   3.747   6.428  0.3406 -0.1457 -0.4213
 3579SOL    HW122370   2.176   3.749   6.369  0.3842  3.4327 -0.3730
 3579SOL    HW222371   2.318   3.774   6.364  2.2479 -0.3075  1.5014
 3580SOL     OW22372   1.905   0.124   4.665 -0.2388  0.4617 -0.1667
 3580SOL    HW122373   1.853   0.188   4.715  0.6366  0.8254  0.2712
 3580SOL    HW222374   1.986   0.169   4.642 -0.6365  0.9221 -0.6612
 3581SOL     OW22375   3.401   3.198  14.226  0.5662  0.1385  0.1123
 3581SOL    HW122376   3.413   3.274  14.169 -0.8416  0.6017  0.4552
 3581SOL    HW222377   3.491   3.169  14.242  0.1283 -1.0712  0.3857
 3582SOL     OW22378   2.208   3.161   8.520 -0.2396  0.2549 -0.2172
 3582SOL    HW122379   2.126   3.127   8.484 -1.2461  2.0242  0.4567
 3582SOL    HW222380   2.221   3.237   8.463 -0.6678  0.5022  0.0168
 3583SOL     OW22381   2.391   0.851  14.484 -1.0754  0.4191 -0.4061
 3583SOL    HW122382   2.348   0.790  14.424  0.2725 -0.3967 -0.5640
 3583SOL    HW222383   2.418   0.922  14.426 -0.6776 -1.1096 -2.1016
 3584SOL     OW22384   4.374   4.421   9.107  0.2899 -0.5921 -1.2624
 3584SOL    HW122385   4.435   4.398   9.177 -0.0868 -0.6412 -0.9440
 3584SOL    HW222386   4.295   4.373   9.134  0.2743 -0.5797 -1.2855
 3585SOL     OW22387   2.555   0.633  12.544 -0.9579 -0.1866 -0.4650
 3585SOL    HW122388   2.594   0.717  12.570  0.2163 -0.5611 -1.0655
 3585SOL    HW222389   2.578   0.575  12.616 -1.0958  0.6683  0.2732
 3586SOL     OW22390   3.610   2.952   7.585  0.1828 -0.5780 -0.3635
 3586SOL    HW122391   3.643   2.862   7.585 -0.5526 -0.8583  1.9103
 3586SOL    HW222392   3.569   2.955   7.672 -0.8441  1.3023 -0.9380
 3587SOL     OW22393   3.952   2.540   9.494  0.5706  0.4800 -0.5177
 3587SOL    HW122394   4.022   2.480   9.523  0.9217  1.8852  1.5401
 3587SOL    HW222395   3.887   2.480   9.457  1.3460 -0.7927  0.1778
 3588SOL     OW22396   0.294   1.097   4.061 -0.1535 -0.1824 -0.1607
 3588SOL    HW122397   0.284   1.191   4.072  1.8452 -0.0346  0.2971
 3588SOL    HW222398   0.204   1.075   4.036 -0.6230 -0.1300  1.4970
 3589SOL     OW22399   3.026   0.339  11.640 -0.1700 -0.0266  0.1087
 3589SOL    HW122400   2.970   0.361  11.714  0.9259  0.9644  0.6292
 3589SOL    HW222401   2.996   0.410  11.584  1.6923  0.3930 -0.3278
 3590SOL     OW22402   3.869   1.484  12.899  0.1425  0.1037  0.4358
 3590SOL    HW122403   3.821   1.401  12.908 -0.4643  0.3882 -0.1295
 3590SOL    HW222404   3.950   1.449  12.864  0.4715  0.9844  0.3284
 3591SOL     OW22405   3.063   1.799  10.672  0.2232 -0.2204 -0.2061
 3591SOL    HW122406   3.076   1.884  10.715  4.8152 -1.4090  0.8178
 3591SOL    HW222407   2.968   1.787  10.667  0.4577 -0.5282 -3.7218
 3592SOL     OW22408   4.700   0.801   7.209 -0.0567  0.4266 -0.1083
 3592SOL    HW122409   4.690   0.822   7.302  0.8025 -3.2994  0.8062
 3592SOL    HW222410   0.009   0.719   7.222 -0.4455  0.1363 -0.5703
 3593SOL     OW22411   3.742   0.317  16.309  0.7192 -0.0140 -0.6978
 3593SOL    HW122412   3.748   0.376  16.234  1.1653 -0.7591 -1.2514
 3593SOL    HW222413   3.769   0.230  16.280  0.6327  0.1890 -1.3903
 3594SOL     OW22414   3.503   3.925   4.842  0.1840  0.0326 -0.4503
 3594SOL    HW122415   3.436   3.860   4.820  0.1903  0.1116 -0.6945
 3594SOL    HW222416   3.520   3.912   4.936 -3.1781 -2.4898 -0.2029
 3595SOL     OW22417   2.378   0.964  16.566 -0.2489  0.0776  0.2096
 3595SOL    HW122418   2.360   1.046  16.612 -0.6246 -0.0387  0.2679
 3595SOL    HW222419   2.464   0.953  16.607 -0.9056  0.2112  1.6329
 3596SOL     OW22420   1.781   2.080   4.253  0.0742 -0.3438  0.0820
 3596SOL    HW122421   1.690   2.107   4.244  0.9638  1.2696 -4.3062
 3596SOL    HW222422   1.787   1.990   4.221  0.8198 -0.2859  0.0449
 3597SOL     OW22423   2.881   3.359   4.033  0.3257 -0.0384 -0.0030
 3597SOL    HW122424   2.905   3.449   4.056  0.2929 -0.3037  1.0593
 3597SOL    HW222425   2.967   3.331   4.001 -0.2890 -0.6181 -1.1279
 3598SOL     OW22426   0.421   2.100   5.622  0.5054 -0.0851  0.0512
 3598SOL    HW122427   0.378   2.021   5.590  0.6853  0.4025 -1.4050
 3598SOL    HW222428   0.400   2.163   5.553 -4.7536 -2.4068 -0.4751
 3599SOL     OW22429   0.468   4.307   1.523 -0.5710 -0.0916 -0.5293
 3599SOL    HW122430   0.458   4.324   1.430  0.0492 -2.2394 -0.9765
 3599SOL    HW222431   0.463   4.394   1.564 -2.0062  0.3301 -1.6261
 3600SOL     OW22432   4.650   3.787   3.892 -0.6980  0.1564  0.3086
 3600SOL    HW122433   4.571   3.813   3.844  1.8712  2.8148 -2.4893
 3600SOL    HW222434   4.713   3.852   3.859 -0.8165  1.2531  2.2073
 3601SOL     OW22435   3.109   2.811   6.418 -0.3122  0.6002 -0.1185
 3601SOL    HW122436   3.176   2.792   6.483  0.4936 -1.0096 -1.4298
 3601SOL    HW222437   3.105   2.726   6.374  0.7345  0.3728  0.2370
 3602SOL     OW22438   1.530   4.097   3.618  0.2147  0.3416 -0.4606
 3602SOL    HW122439   1.529   4.190   3.599 -2.7483  0.0491 -1.8216
 3602SOL    HW222440   1.439   4.070   3.627 -0.0454  1.6629  0.8579
 3603SOL     OW22441   0.372   3.928   5.000 -0.7061 -0.2910  0.0529
 3603SOL    HW122442   0.433   3.995   4.969 -2.0155  0.2136 -1.4229
 3603SOL    HW222443   0.404   3.842   4.973  1.0112  0.4180 -0.1179
 3604SOL     OW22444   2.354   0.501   1.864 -0.2199  0.0723 -0.0448
 3604SOL    HW122445   2.375   0.503   1.770  3.2401 -0.3112  0.7401
 3604SOL    HW222446   2.413   0.571   1.890  0.1453  0.2519 -1.3289
 3605SOL     OW22447   1.615   0.065   3.197  0.4370 -0.6959 -0.2816
 3605SOL    HW122448   1.551   0.041   3.130 -1.1009  0.9744  0.5979
 3605SOL    HW222449   1.647   0.148   3.163 -0.3947 -0.4935 -0.5834
 3606SOL     OW22450   4.707   0.336   2.537 -0.0417 -0.0443  0.0457
 3606SOL    HW122451   4.613   0.320   2.544 -0.1602 -0.3684 -2.2861
 3606SOL    HW222452   0.001   0.340   2.627  0.6622  0.1306 -0.2133
 3607SOL     OW22453   1.167   1.044   7.576 -0.6722 -0.3537 -0.3092
 3607SOL    HW122454   1.176   1.129   7.533 -0.0049 -1.5878 -2.6484
 3607SOL    HW222455   1.149   0.994   7.496 -0.4811 -0.3855 -0.3327
 3608SOL     OW22456   2.285   0.187   1.574 -0.0217  0.9883  0.1335
 3608SOL    HW122457   2.245   0.172   1.660  0.1005 -2.0161 -0.3364
 3608SOL    HW222458   2.215   0.188   1.509  0.9575  2.1907 -0.8924
 3609SOL     OW22459   3.079   0.037   4.408  0.0964  0.7549 -0.5943
 3609SOL    HW122460   3.155   0.095   4.411  0.0187  0.8743 -0.8796
 3609SOL    HW222461   3.106   4.722   4.482  0.9480 -0.1165 -1.5209
 3610SOL     OW22462   1.223   4.704   4.891 -0.1261 -0.2466  0.0750
 3610SOL    HW122463   1.226   4.629   4.831  0.9642  0.6447 -0.9821
 3610SOL    HW222464   1.309   4.701   4.932 -0.8072 -2.2816  1.3913
 3611SOL     OW22465   2.683   0.148   5.151  0.2715 -0.4208  0.3351
 3611SOL    HW122466   2.608   0.178   5.201  1.4840  0.2416  1.7761
 3611SOL    HW222467   2.752   0.215   5.156 -0.5401  0.2542  2.4693
 3612SOL     OW22468   2.223   1.365   2.188 -0.0012 -0.2902  0.2092
 3612SOL    HW122469   2.307   1.344   2.228 -1.1170  0.5042  2.9265
 3612SOL    HW222470   2.237   1.325   2.102  0.0971  1.0920 -0.4212
 3613SOL     OW22471   2.310   2.390   7.125  0.7602  0.1539 -0.5191
 3613SOL    HW122472   2.268   2.344   7.198 -0.5703  0.7578 -0.9071
 3613SOL    HW222473   2.252   2.466   7.115 -1.7540 -1.8753 -1.0609
 3614SOL     OW22474   3.400   4.111   3.864 -0.0514 -0.2817  0.1591
 3614SOL    HW122475   3.307   4.095   3.883 -0.7123  4.1293  0.7861
 3614SOL    HW222476   3.435   4.025   3.842  3.6047  1.1257  0.5643
 3615SOL     OW22477   0.482   2.592   3.121  0.0473 -0.2084 -0.2928
 3615SOL    HW122478   0.518   2.677   3.146  1.1271 -0.4861 -0.9181
 3615SOL    HW222479   0.514   2.580   3.032  1.6903  1.2977  0.0883
 3616SOL     OW22480   4.477   2.004   8.155  0.8298  0.1909  0.4436
 3616SOL    HW122481   4.484   1.956   8.237 -0.2763 -1.4044 -0.3886
 3616SOL    HW222482   4.445   1.932   8.100 -1.7600  0.0435  2.1594
 3617SOL     OW22483   3.137   4.422  14.772 -0.9455 -0.6552  0.2376
 3617SOL    HW122484   3.110   4.421  14.864  0.6728 -0.6090  0.7273
 3617SOL    HW222485   3.101   4.343  14.732 -0.8947  0.7088 -2.4580
 3618SOL     OW22486   2.123   4.377  15.710  0.5758  0.3304 -1.1460
 3618SOL    HW122487   2.068   4.388  15.788  0.9474 -3.9962 -0.3033
 3618SOL    HW222488   2.134   4.469  15.684  0.8249  0.6322  0.0228
 3619SOL     OW22489   2.997   0.505   6.566 -0.3022 -0.6673 -0.0249
 3619SOL    HW122490   3.042   0.430   6.603 -0.4794 -0.4574  0.6131
 3619SOL    HW222491   3.079   0.534   6.525  0.7611 -0.4926  2.2331
 3620SOL     OW22492   3.999   2.741   5.282  0.5550 -0.0787 -0.5652
 3620SOL    HW122493   3.973   2.801   5.352  0.0347 -0.5113 -0.3877
 3620SOL    HW222494   4.093   2.732   5.302  0.4453  1.0911  0.5208
 3621SOL     OW22495   4.518   2.788   3.377  0.6851 -0.3198  0.0281
 3621SOL    HW122496   4.591   2.806   3.318 -0.2712 -0.5797 -1.2332
 3621SOL    HW222497   4.514   2.874   3.419  1.2149 -0.6284  0.7200
 3622SOL     OW22498   4.513   1.432   6.505 -0.7272 -0.0578 -0.2620
 3622SOL    HW122499   4.577   1.394   6.565 -0.7684  1.9050  1.0253
 3622SOL    HW222500   4.434   1.427   6.560 -0.0140  0.4528  0.7982
 3623SOL     OW22501   4.488   3.102   0.665  0.2745  0.3295 -0.7112
 3623SOL    HW122502   4.501   3.196   0.654  0.1884  0.2530 -1.4955
 3623SOL    HW222503   4.506   3.078   0.574  0.8323  1.2599 -0.8424
 3624SOL     OW22504   1.445   3.392  17.326  0.4697 -0.4182 -0.0384
 3624SOL    HW122505   1.468   3.355  17.241  1.3090  1.2446 -0.5238
 3624SOL    HW222506   1.371   3.340  17.358 -0.9659  2.9030  1.9862
 3625SOL     OW22507   2.321   4.414   2.346 -0.2085  0.2748 -0.8155
 3625SOL    HW122508   2.355   4.497   2.381 -0.5272 -0.0570  0.2966
 3625SOL    HW222509   2.249   4.401   2.408  0.3187 -0.0611 -0.2767
 3626SOL     OW22510   3.306   3.612   0.955  0.1876 -0.1012 -0.1753
 3626SOL    HW122511   3.373   3.627   0.888 -0.2973  1.0338 -0.4152
 3626SOL    HW222512   3.352   3.553   1.014  0.5131  2.5066  2.1618
 3627SOL     OW22513   3.528   3.212  10.993  0.0303  0.7093 -0.4498
 3627SOL    HW122514   3.586   3.144  10.959  0.1912  0.1746  0.9155
 3627SOL    HW222515   3.530   3.274  10.920  0.5764  0.8294 -0.3368
 3628SOL     OW22516   2.134   0.296   4.678 -0.2506  0.5003 -0.0932
 3628SOL    HW122517   2.096   0.350   4.608 -1.5755 -0.5338 -0.1693
 3628SOL    HW222518   2.124   0.361   4.748 -1.6048  0.5311 -0.3131
 3629SOL     OW22519   4.655   1.216   3.810  0.1106  0.3635  0.2444
 3629SOL    HW122520   4.609   1.142   3.850  0.5274  0.1354  0.3005
 3629SOL    HW222521   0.005   1.180   3.820 -1.0402 -2.8046 -1.0578
 3630SOL     OW22522   0.301   3.846  17.433 -0.2587  0.5406  0.2401
 3630SOL    HW122523   0.377   3.886  17.391  0.0488 -1.4636 -1.1347
 3630SOL    HW222524   0.258   3.929  17.453  1.8825  2.0472 -1.3658
 3631SOL     OW22525   1.469   0.157   3.401  0.1247 -0.2699 -0.4137
 3631SOL    HW122526   1.535   0.132   3.336  1.5711 -0.6480  1.1885
 3631SOL    HW222527   1.520   0.222   3.450 -0.0390 -0.1459 -0.4116
 3632SOL     OW22528   3.944   3.997   2.181 -0.1576 -0.6101  0.4678
 3632SOL    HW122529   3.876   4.024   2.243  1.6870 -0.3760  2.4039
 3632SOL    HW222530   3.899   4.037   2.107  0.1655 -1.6298 -0.2720
 3633SOL     OW22531   2.375   1.696   4.436  0.9660  0.3446 -0.1978
 3633SOL    HW122532   2.401   1.656   4.353  0.6305 -1.8410  0.7230
 3633SOL    HW222533   2.444   1.762   4.434  0.6628  0.6191 -1.2809
 3634SOL     OW22534   2.195   3.665   8.508 -0.5221 -0.2029 -0.1501
 3634SOL    HW122535   2.157   3.630   8.428  0.9593 -0.9689 -0.5216
 3634SOL    HW222536   2.139   3.634   8.579 -2.0838  0.6167 -1.0420
 3635SOL     OW22537   0.694   2.925   7.576 -0.4635  0.3820  0.7162
 3635SOL    HW122538   0.690   3.020   7.575 -0.2748  0.3750 -0.7482
 3635SOL    HW222539   0.768   2.915   7.516 -1.7525 -1.8434 -0.4968
 3636SOL     OW22540   0.806   2.094   9.703  0.0299  0.0526 -0.7346
 3636SOL    HW122541   0.805   2.028   9.635 -0.8564  0.0752 -0.7451
 3636SOL    HW222542   0.743   2.153   9.661  1.7068  1.9328 -0.6039
 3637SOL     OW22543   1.953   2.430   2.609 -0.3903 -0.3071 -0.4544
 3637SOL    HW122544   1.892   2.480   2.663 -1.5216 -1.3912 -0.7341
 3637SOL    HW222545   2.020   2.498   2.602 -0.1657 -0.1438  3.0898
 3638SOL     OW22546   2.015   2.958   4.904  0.1626 -0.4573 -0.1781
 3638SOL    HW122547   1.958   2.988   4.833  0.5563  0.2128 -0.2132
 3638SOL    HW222548   2.096   2.945   4.854  1.0314 -0.4332  1.2335
 3639SOL     OW22549   1.431   4.613   6.499  0.3644 -0.4467 -0.4776
 3639SOL    HW122550   1.355   4.668   6.478  0.0833  0.1365  2.0057
 3639SOL    HW222551   1.386   4.541   6.543 -1.5031  2.2032  1.9765
 3640SOL     OW22552   1.331   4.043   5.789  0.1017  0.4165  0.1275
 3640SOL    HW122553   1.258   4.104   5.798 -1.6889 -1.6939 -0.0454
 3640SOL    HW222554   1.331   4.012   5.880  2.7369 -1.5627 -0.5402
 3641SOL     OW22555   2.234   0.292  12.455  0.1626 -0.4035 -0.1123
 3641SOL    HW122556   2.159   0.272  12.398 -0.4928 -0.7875  0.8734
 3641SOL    HW222557   2.303   0.265  12.395 -0.5176 -0.8678 -0.6961
 3642SOL     OW22558   2.309   2.715   3.127 -0.1260  0.3281 -0.4172
 3642SOL    HW122559   2.319   2.765   3.208  3.2191  0.9123 -1.1827
 3642SOL    HW222560   2.228   2.669   3.147 -1.1347  3.4644  2.5865
 3643SOL     OW22561   4.144   2.186   4.420  0.3136 -0.4021  1.0721
 3643SOL    HW122562   4.075   2.125   4.445  0.2306 -0.9764 -0.5703
 3643SOL    HW222563   4.203   2.181   4.496  0.4302  0.7197  1.0557
 3644SOL     OW22564   0.908   0.406   7.808  0.1687 -0.3346  0.0354
 3644SOL    HW122565   0.837   0.467   7.789 -0.1557 -1.1030 -1.2243
 3644SOL    HW222566   0.987   0.460   7.813 -0.4923  0.7270 -0.8965
 3645SOL     OW22567   1.256   4.679  16.333  0.5828  0.4844 -0.4797
 3645SOL    HW122568   1.193   4.612  16.361  0.4258  1.1550  0.7771
 3645SOL    HW222569   1.200   0.006  16.290 -0.1062 -1.7125 -2.8767
 3646SOL     OW22570   2.908   3.483   7.622  0.3804  0.4710 -0.2145
 3646SOL    HW122571   2.982   3.432   7.656 -0.3615 -0.2111  0.3803
 3646SOL    HW222572   2.853   3.505   7.697 -1.7340  0.0520 -1.6313
 3647SOL     OW22573   2.444   2.880   1.351  0.1429  0.1900  0.0522
 3647SOL    HW122574   2.497   2.870   1.430  1.7168 -0.3390 -1.0761
 3647SOL    HW222575   2.456   2.791   1.318 -0.5611  0.3302 -0.5864
 3648SOL     OW22576   1.910   2.411   5.046  0.0512  0.1950  0.2330
 3648SOL    HW122577   1.965   2.338   5.019 -1.8511 -1.0892 -0.2070
 3648SOL    HW222578   1.967   2.482   5.015 -0.4250  0.4368 -0.1006
 3649SOL     OW22579   0.762   2.829  12.532  1.0903 -0.3015  0.5181
 3649SOL    HW122580   0.723   2.748  12.567  0.2716  0.2882  0.9587
 3649SOL    HW222581   0.706   2.894  12.575 -0.7942 -2.6343  1.6237
 3650SOL     OW22582   2.704   4.188   5.627 -0.0492  0.4663 -0.0213
 3650SOL    HW122583   2.757   4.162   5.552 -0.2196  0.7505 -0.2360
 3650SOL    HW222584   2.675   4.273   5.593  1.9002  0.4406 -1.6941
 3651SOL     OW22585   0.511   2.058   3.907  0.2888 -0.4158 -0.3566
 3651SOL    HW122586   0.520   2.041   3.813 -1.7506  0.7590 -0.7762
 3651SOL    HW222587   0.433   2.114   3.906 -0.9276 -2.1045 -0.1816
 3652SOL     OW22588   4.350   3.344   2.288 -0.0793 -0.2892 -0.2376
 3652SOL    HW122589   4.282   3.401   2.324  1.2815 -0.5581  2.7600
 3652SOL    HW222590   4.427   3.400   2.279  0.2652 -0.4549  1.8018
 3653SOL     OW22591   0.400   0.658  12.385  0.0101  0.2128  0.2048
 3653SOL    HW122592   0.413   0.627  12.475  0.7666 -0.7332 -0.2267
 3653SOL    HW222593   0.319   0.607  12.380 -0.7610  1.3056  1.7990
 3654SOL     OW22594   3.527   1.523   3.855  0.3102 -0.1069 -0.6621
 3654SOL    HW122595   3.451   1.580   3.855  0.4120  0.0338 -1.3756
 3654SOL    HW222596   3.490   1.436   3.866 -4.1110  2.1474  2.0916
 3655SOL     OW22597   2.271   1.114   7.029 -0.5876 -0.5586  0.3406
 3655SOL    HW122598   2.248   1.207   7.024 -0.7773 -0.5451  1.4062
 3655SOL    HW222599   2.360   1.135   7.002 -1.0670 -0.6336 -1.3035
 3656SOL     OW22600   0.795   2.624  12.162  0.0008  0.0665 -0.2437
 3656SOL    HW122601   0.744   2.543  12.164 -1.7464  1.2467  2.7212
 3656SOL    HW222602   0.842   2.625  12.079 -0.1558 -1.4198 -0.3390
 3657SOL     OW22603   3.649   2.376  12.961  0.1740 -0.1609 -0.5566
 3657SOL    HW122604   3.628   2.437  13.031  0.4812  0.8787 -1.3632
 3657SOL    HW222605   3.710   2.319  13.008 -2.2318 -2.1603  0.1357
 3658SOL     OW22606   3.731   2.144   8.268 -0.5867 -0.5621  0.2927
 3658SOL    HW122607   3.645   2.106   8.284 -1.2283  0.6652 -0.2977
 3658SOL    HW222608   3.786   2.066   8.278  0.4500  0.2220  0.8278
 3659SOL     OW22609   0.267   2.210   6.018  0.1804  0.6144  0.4554
 3659SOL    HW122610   0.185   2.253   6.042  0.3088  0.6891  0.7572
 3659SOL    HW222611   0.312   2.281   5.972  0.1596  1.4117  1.6868
 3660SOL     OW22612   2.831   2.436   4.658  0.1103 -0.5964 -0.0400
 3660SOL    HW122613   2.874   2.522   4.660 -1.1199  0.0322 -0.5266
 3660SOL    HW222614   2.793   2.448   4.571  2.0969  0.3028 -0.7910
 3661SOL     OW22615   1.223   3.594   0.672  0.3962 -0.0746 -0.2638
 3661SOL    HW122616   1.143   3.568   0.717  0.1251 -0.0212 -0.7069
 3661SOL    HW222617   1.179   3.643   0.603  1.7939  2.0637  0.3668
 3662SOL     OW22618   0.817   3.731   8.619 -0.1575  0.3745 -0.4309
 3662SOL    HW122619   0.902   3.752   8.581 -0.3062  1.4634 -0.1657
 3662SOL    HW222620   0.847   3.714   8.708 -2.9241 -1.8758  0.0649
 3663SOL     OW22621   1.810   2.520   2.270  0.8493  0.2623 -0.3305
 3663SOL    HW122622   1.870   2.560   2.207 -0.5356 -0.4104 -2.0891
 3663SOL    HW222623   1.843   2.548   2.355  1.5596  1.8686 -1.1499
 3664SOL     OW22624   1.297   0.882  14.126  0.7423  0.1131  0.3354
 3664SOL    HW122625   1.385   0.917  14.136 -0.1282  2.2149  0.6294
 3664SOL    HW222626   1.294   0.810  14.188 -0.6696  0.6325  0.8807
 3665SOL     OW22627   4.022   1.776   4.711  0.2105  1.0105  0.2558
 3665SOL    HW122628   4.002   1.803   4.800  2.0196 -0.0961  0.9980
 3665SOL    HW222629   4.058   1.855   4.670 -0.3428  1.5580  0.8365
 3666SOL     OW22630   1.500   1.712   4.856  0.2468  0.4293 -0.1492
 3666SOL    HW122631   1.422   1.718   4.912 -0.3189  1.8650 -1.0891
 3666SOL    HW222632   1.527   1.803   4.862  1.4063 -0.0098  1.2374
 3667SOL     OW22633   3.771   0.825   4.381 -0.0163  0.4589  0.3874
 3667SOL    HW122634   3.692   0.879   4.382  0.0196  0.4836  1.5255
 3667SOL    HW222635   3.832   0.871   4.439  0.9946 -2.4635  1.6337
 3668SOL     OW22636   2.356   1.793   6.356  0.3029 -0.1722 -0.3884
 3668SOL    HW122637   2.370   1.766   6.446  1.3319  0.6821 -0.3001
 3668SOL    HW222638   2.321   1.879   6.377 -0.3457 -0.4646 -0.2615
 3669SOL     OW22639   2.274   0.429   7.017  0.1845 -0.4764 -0.0370
 3669SOL    HW122640   2.203   0.388   6.968  0.1692 -1.7078  1.0086
 3669SOL    HW222641   2.225   0.488   7.075  1.1972  0.4946 -0.1619
 3670SOL     OW22642   4.327   3.086  11.676 -0.1268 -0.4380 -0.0158
 3670SOL    HW122643   4.371   3.120  11.754 -1.0172 -0.7023  0.6051
 3670SOL    HW222644   4.270   3.025  11.722 -2.7183  1.9967  0.0008
 3671SOL     OW22645   0.546   1.853   8.565  0.2817  0.8524 -0.1144
 3671SOL    HW122646   0.594   1.773   8.545 -1.1245  0.3880 -1.6225
 3671SOL    HW222647   0.618   1.916   8.554  0.4204  0.3548 -2.0092
 3672SOL     OW22648   3.186   2.334  14.742 -0.3387 -0.0475  0.2692
 3672SOL    HW122649   3.117   2.361  14.802  2.3918  0.3325  3.2184
 3672SOL    HW222650   3.251   2.310  14.808  0.4372 -0.4440 -0.6444
 3673SOL     OW22651   2.057   1.683  14.658  0.2998 -0.1689 -0.5322
 3673SOL    HW122652   2.082   1.758  14.604  0.4540  0.5314  0.5145
 3673SOL    HW222653   2.066   1.608  14.599  1.5069 -0.9734  0.6890
 3674SOL     OW22654   3.554   0.720   6.989  0.4780  0.0168 -0.2064
 3674SOL    HW122655   3.462   0.700   6.975  0.7047 -2.5870  1.9744
 3674SOL    HW222656   3.550   0.816   6.988 -0.4394 -0.0144  0.1466
 3675SOL     OW22657   3.522   4.034   0.757  0.1862 -0.2303 -0.3698
 3675SOL    HW122658   3.531   4.093   0.831 -1.0157 -0.0266 -0.3959
 3675SOL    HW222659   3.443   4.058   0.709 -0.1385 -0.4364  0.0687
 3676SOL     OW22660   1.123   0.672  17.213  0.3243 -0.0205 -0.0566
 3676SOL    HW122661   1.057   0.738  17.191  1.3215  0.9330 -0.1941
 3676SOL    HW222662   1.086   0.634  17.292  3.1316  1.2343  1.8348
 3677SOL     OW22663   2.337   4.472  12.200  0.1696  0.1333  0.4690
 3677SOL    HW122664   2.264   4.410  12.207 -1.2249  1.6747 -0.3555
 3677SOL    HW222665   2.358   4.459  12.107  1.9038 -0.6227  0.9675
 3678SOL     OW22666   3.963   4.128   4.235  0.2173 -0.1133  0.4591
 3678SOL    HW122667   4.024   4.081   4.293  0.2986 -0.2553  0.2592
 3678SOL    HW222668   4.006   4.212   4.250 -0.8284  0.2195  1.6070
 3679SOL     OW22669   2.253   4.470  13.408  0.1945  0.4350  0.1662
 3679SOL    HW122670   2.340   4.442  13.432 -0.2357 -0.5173  0.5893
 3679SOL    HW222671   2.264   4.496  13.316 -2.0497 -0.5711 -0.3933
 3680SOL     OW22672   4.576   4.229   1.400 -0.0502  0.2358  0.0287
 3680SOL    HW122673   4.520   4.211   1.325 -1.1410 -0.7192  1.0635
 3680SOL    HW222674   4.525   4.206   1.478 -0.4396  1.3556  0.1094
 3681SOL     OW22675   2.208   3.857   6.721  0.1314  0.6741  0.1871
 3681SOL    HW122676   2.145   3.917   6.682 -0.0203  0.5681  0.2704
 3681SOL    HW222677   2.223   3.798   6.647 -0.7586 -0.2626  0.7573
 3682SOL     OW22678   2.639   4.077   9.784  0.0858  0.0838  0.6699
 3682SOL    HW122679   2.559   4.122   9.756  0.3202 -0.3359 -0.6786
 3682SOL    HW222680   2.608   3.987   9.793  2.0428 -1.1108 -4.6512
 3683SOL     OW22681   0.515   4.618  16.905  0.0008  0.0206  0.2881
 3683SOL    HW122682   0.562   4.586  16.982  1.0588  0.9127  0.0251
 3683SOL    HW222683   0.426   4.590  16.925 -0.0726 -0.3663 -0.5494
 3684SOL     OW22684   1.132   3.251   8.856  0.4600 -0.1788 -0.1679
 3684SOL    HW122685   1.071   3.277   8.786  0.9586  0.5128 -0.3461
 3684SOL    HW222686   1.214   3.289   8.825  2.0728  0.0857  4.4637
 3685SOL     OW22687   1.493   1.652   8.380 -0.1469  0.3071 -0.0230
 3685SOL    HW122688   1.485   1.739   8.420  0.9985  0.2012  0.4610
 3685SOL    HW222689   1.522   1.672   8.291 -0.8267  0.1464 -0.2748
 3686SOL     OW22690   0.959   0.272   1.536 -0.1247  0.1201  0.1486
 3686SOL    HW122691   0.935   0.335   1.605  0.5330  0.0367  0.4572
 3686SOL    HW222692   1.052   0.295   1.531 -0.3811  0.7015 -1.8798
 3687SOL     OW22693   4.378   1.246   4.147  0.0533 -0.0225  0.3380
 3687SOL    HW122694   4.324   1.306   4.198 -2.8846 -1.1393 -1.5177
 3687SOL    HW222695   4.368   1.166   4.198  0.2669 -1.3812 -1.7602
 3688SOL     OW22696   4.224   2.593   3.951 -0.1873  0.0196  0.0643
 3688SOL    HW122697   4.159   2.662   3.954  1.3771  1.5033 -0.0563
 3688SOL    HW222698   4.301   2.649   3.957 -0.1178 -0.2293  1.6032
 3689SOL     OW22699   2.218   0.430  15.345 -0.5172  0.2354 -0.3409
 3689SOL    HW122700   2.262   0.452  15.426  1.3484  1.1007 -1.5934
 3689SOL    HW222701   2.148   0.495  15.341  0.0612  0.8634 -0.0978
 3690SOL     OW22702   0.498   1.051  15.179 -0.4931 -0.3763 -0.4059
 3690SOL    HW122703   0.457   1.137  15.171  0.7487  0.3543  1.2104
 3690SOL    HW222704   0.588   1.070  15.204  0.1113 -2.4648 -0.9864
 3691SOL     OW22705   4.228   3.926  14.932 -0.0361 -0.8053  0.2020
 3691SOL    HW122706   4.134   3.937  14.924  0.4713  1.0012 -3.3230
 3691SOL    HW222707   4.253   3.932  15.025  0.2199 -2.2475  0.2312
 3692SOL     OW22708   2.982   2.667   8.076 -0.2316  0.1792  0.0227
 3692SOL    HW122709   3.073   2.693   8.089 -0.6080  0.7614  1.4734
 3692SOL    HW222710   2.986   2.612   7.998  0.3022  1.2205 -0.6935
 3693SOL     OW22711   1.522   4.091   1.528 -0.3497 -0.3740 -0.3024
 3693SOL    HW122712   1.569   4.053   1.453  1.0601 -0.5152  0.6363
 3693SOL    HW222713   1.596   4.139   1.566 -1.6437  0.5945  0.9759
 3694SOL     OW22714   3.479   2.971   7.830  1.1631 -0.9052 -0.0386
 3694SOL    HW122715   3.386   2.962   7.809  0.7033 -1.4870  2.2192
 3694SOL    HW222716   3.482   2.997   7.922 -0.3651 -1.2298  0.1053
 3695SOL     OW22717   3.919   2.423   5.459 -0.0104  0.1537  0.5137
 3695SOL    HW122718   3.912   2.328   5.458  1.8166  0.0261  0.1874
 3695SOL    HW222719   4.010   2.447   5.441  0.4627 -1.3477  0.9848
 3696SOL     OW22720   3.539   4.599   0.206  0.0172  0.0605  0.6456
 3696SOL    HW122721   3.506   4.645   0.128  2.2343 -0.2147 -0.4641
 3696SOL    HW222722   3.506   4.652   0.279 -0.7096  0.6294 -0.1006
 3697SOL     OW22723   3.216   1.166   6.660 -0.4721  0.4203  0.0373
 3697SOL    HW122724   3.183   1.223   6.591  1.0110 -0.1678 -1.1396
 3697SOL    HW222725   3.197   1.079   6.626 -1.3420  0.5254  0.2395
 3698SOL     OW22726   1.050   0.042   2.682 -0.3764 -0.0181  0.2087
 3698SOL    HW122727   1.133   0.040   2.635 -1.9805 -1.6551 -2.5112
 3698SOL    HW222728   1.026   0.135   2.681 -0.2199  0.0082 -0.6152
 3699SOL     OW22729   3.597   2.104   0.822  0.6370 -0.0582 -0.3614
 3699SOL    HW122730   3.616   2.033   0.760  0.8770 -0.5360  0.2552
 3699SOL    HW222731   3.681   2.131   0.860  1.4390 -1.1850 -1.3154
 3700SOL     OW22732   0.048   4.014  14.308 -0.8764 -0.0414 -0.3358
 3700SOL    HW122733   0.035   4.104  14.339  0.3666 -0.8781  2.6022
 3700SOL    HW222734   0.139   3.999  14.332 -1.6301 -0.8914  1.9360
 3701SOL     OW22735   0.940   2.323   2.385  0.3343  1.3042  0.2434
 3701SOL    HW122736   0.993   2.243   2.390 -1.3027  0.0599 -2.0460
 3701SOL    HW222737   0.924   2.330   2.291 -1.0257  0.3666  0.4016
 3702SOL     OW22738   2.285   0.445   9.260  0.4604  0.0902  0.3124
 3702SOL    HW122739   2.209   0.404   9.218  0.6262  0.4998 -0.3946
 3702SOL    HW222740   2.328   0.365   9.288 -0.1291 -0.1111  0.6406
 3703SOL     OW22741   2.816   2.876   8.698 -0.4550  0.3454 -0.2625
 3703SOL    HW122742   2.726   2.898   8.674 -0.1283  1.8819 -0.0893
 3703SOL    HW222743   2.793   2.815   8.768 -0.1904  0.1602 -0.3366
 3704SOL     OW22744   0.024   3.591   8.375 -0.6318  0.1723  0.1515
 3704SOL    HW122745   4.711   3.511   8.381 -1.9308  1.0313  0.5155
 3704SOL    HW222746   0.097   3.558   8.323 -2.0228 -0.5290 -1.3544
 3705SOL     OW22747   0.004   3.265   7.721  0.0403  0.6638  0.4970
 3705SOL    HW122748   4.662   3.213   7.720  0.3116  0.2612 -0.4110
 3705SOL    HW222749   0.018   3.271   7.626 -0.0561  3.1160  0.6395
 3706SOL     OW22750   0.758   3.854   4.678  0.2290  0.5743 -0.3706
 3706SOL    HW122751   0.757   3.778   4.736  1.4526  1.6258  1.0133
 3706SOL    HW222752   0.677   3.903   4.695  0.5856  0.9968  0.1113
 3707SOL     OW22753   1.675   4.666   6.908 -0.4879  0.2445  0.7676
 3707SOL    HW122754   1.704   4.578   6.884 -0.2502  0.3231  0.7718
 3707SOL    HW222755   1.734   4.724   6.861  0.0808  0.6603  1.9986
 3708SOL     OW22756   2.335   2.090   5.797  0.3482  0.0621 -0.2080
 3708SOL    HW122757   2.327   2.186   5.796 -2.3487 -0.1372  0.4894
 3708SOL    HW222758   2.320   2.077   5.891  0.1096  0.5655 -0.1751
 3709SOL     OW22759   1.968   4.004  13.922 -0.1840 -0.1402  0.0771
 3709SOL    HW122760   2.062   4.015  13.935 -0.2293 -1.0721  1.2007
 3709SOL    HW222761   1.934   4.050  13.999  0.3627  1.7905 -0.8330
 3710SOL     OW22762   2.580   4.625   5.110  0.1659  0.4948  0.0948
 3710SOL    HW122763   2.599   4.592   5.022  0.8309  2.5213 -0.5283
 3710SOL    HW222764   2.611   4.715   5.100 -0.0647  0.6830  1.0839
 3711SOL     OW22765   0.490   4.164   3.651 -0.3199 -0.0168  0.4670
 3711SOL    HW122766   0.571   4.215   3.646 -0.3837  0.0975  0.6289
 3711SOL    HW222767   0.509   4.112   3.729 -1.3073  0.0150  0.7205
 3712SOL     OW22768   2.601   2.538   0.005 -0.8029  0.1581  0.1585
 3712SOL    HW122769   2.619   2.514  17.664 -0.1798 -2.1774  0.8919
 3712SOL    HW222770   2.683   2.521   0.051 -0.8695 -1.2415 -0.2281
 3713SOL     OW22771   1.904   1.229   9.855  0.1088 -0.5034  0.2956
 3713SOL    HW122772   1.836   1.277   9.903 -0.8100 -2.0614  0.5349
 3713SOL    HW222773   1.971   1.298   9.856  0.6132 -0.9749 -1.3139
 3714SOL     OW22774   4.585   1.861  17.551 -0.1312  0.0272 -0.3429
 3714SOL    HW122775   4.515   1.811  17.508 -0.2102  2.3243 -2.8728
 3714SOL    HW222776   4.534   1.929  17.595  1.8786  0.9029  0.6200
 3715SOL     OW22777   4.614   1.442  16.305  0.1070  0.7929  0.2111
 3715SOL    HW122778   4.616   1.452  16.401 -0.1227  0.4919  0.2448
 3715SOL    HW222779   4.675   1.512  16.282  1.1526 -0.5782 -1.1496
 3716SOL     OW22780   1.988   4.451   8.396  0.1152  0.0687  0.2989
 3716SOL    HW122781   1.991   4.434   8.490  0.8256 -0.5761  0.1537
 3716SOL    HW222782   2.010   4.363   8.367 -2.4092 -0.0337 -1.4083
 3717SOL     OW22783   1.928   2.171   4.444  0.6073 -0.5555  0.3553
 3717SOL    HW122784   1.878   2.252   4.431 -0.4556 -1.4498 -1.1431
 3717SOL    HW222785   1.872   2.125   4.382 -0.8197  1.4826  0.1125
 3718SOL     OW22786   0.542   4.002   4.729 -0.3613  0.0738 -0.2188
 3718SOL    HW122787   0.552   4.096   4.742 -2.7004  0.2083  0.5976
 3718SOL    HW222788   0.449   3.993   4.710 -0.3097 -2.2800  0.5947
 3719SOL     OW22789   2.840   0.769   2.725  0.1633  0.2331  0.2402
 3719SOL    HW122790   2.908   0.800   2.784  1.5010 -4.1688  0.9867
 3719SOL    HW222791   2.887   0.787   2.643 -1.8793  1.4513 -0.6719
 3720SOL     OW22792   2.003   2.251   2.891  0.0384 -0.2583 -0.3577
 3720SOL    HW122793   2.070   2.198   2.850 -0.3469 -2.0783  1.3857
 3720SOL    HW222794   2.048   2.336   2.888  0.0306 -0.1925  1.3446
 3721SOL     OW22795   1.106   3.301   4.841  0.8568  0.3100 -0.3253
 3721SOL    HW122796   1.127   3.395   4.838  0.2670  0.3222 -3.2377
 3721SOL    HW222797   1.120   3.270   4.752  0.1641 -0.0119 -0.3178
 3722SOL     OW22798   1.855   0.854   7.705 -0.2730  0.0380  0.7340
 3722SOL    HW122799   1.933   0.906   7.687 -0.1028 -0.1324  0.9803
 3722SOL    HW222800   1.838   0.864   7.799 -3.0482  3.1211 -0.1006
 3723SOL     OW22801   3.690   2.988   8.482  0.0904  0.2901  0.2537
 3723SOL    HW122802   3.619   2.949   8.431 -0.0318  1.7086 -0.6549
 3723SOL    HW222803   3.638   3.054   8.527 -0.3996  1.3473 -1.8753
 3724SOL     OW22804   2.071   1.754  13.517  0.1131 -0.2664  0.0702
 3724SOL    HW122805   2.111   1.826  13.565  0.6490  0.9742 -2.2024
 3724SOL    HW222806   2.127   1.678  13.532  0.1550  0.2118  2.3129
 3725SOL     OW22807   1.045   3.906   5.046 -0.5557  0.1719  0.3896
 3725SOL    HW122808   1.010   3.834   5.100  0.9501 -0.0833  1.0105
 3725SOL    HW222809   1.007   3.972   5.104  2.6139  0.2686  2.3451
 3726SOL     OW22810   4.094   3.357   0.574 -0.0585  1.0697  0.4388
 3726SOL    HW122811   4.068   3.294   0.641  0.7395 -1.3672 -1.5507
 3726SOL    HW222812   4.109   3.435   0.628  1.4069  1.0711  0.0380
 3727SOL     OW22813   2.937   3.890  11.259 -0.4559 -0.2906 -0.2913
 3727SOL    HW122814   2.997   3.937  11.201 -0.3249 -2.8383 -2.1958
 3727SOL    HW222815   2.986   3.882  11.341 -0.8318  0.9577  0.0606
 3728SOL     OW22816   3.442   3.820  14.405  0.5859 -0.5327 -0.5550
 3728SOL    HW122817   3.428   3.911  14.380 -0.5353  0.2108  2.7547
 3728SOL    HW222818   3.365   3.795  14.456  2.1252  1.6431  2.8740
 3729SOL     OW22819   0.302   4.541  11.363  0.3489  0.1860  0.6327
 3729SOL    HW122820   0.247   4.581  11.296  2.6415  1.5825 -0.4087
 3729SOL    HW222821   0.281   4.447  11.364 -0.1088  0.2636 -1.3042
 3730SOL     OW22822   2.641   4.204  17.561 -0.1796 -0.3485  0.2374
 3730SOL    HW122823   2.585   4.277  17.532 -1.3683 -0.9555  0.9744
 3730SOL    HW222824   2.697   4.204  17.484 -2.1690  1.1013 -1.2258
 3731SOL     OW22825   3.337   3.626   8.861 -0.2209 -0.3765 -0.0681
 3731SOL    HW122826   3.393   3.551   8.878 -0.1292 -0.5170 -1.0475
 3731SOL    HW222827   3.341   3.667   8.948  0.0517  0.7314 -0.6062
 3732SOL     OW22828   3.258   4.074   0.677  0.0125 -0.3575 -0.8747
 3732SOL    HW122829   3.211   4.153   0.650 -1.3978 -0.3434  1.6268
 3732SOL    HW222830   3.191   4.020   0.718  1.4515 -2.0691 -0.7599
 3733SOL     OW22831   3.714   2.469  10.599  0.0679 -0.1029 -0.0791
 3733SOL    HW122832   3.759   2.474  10.683 -1.3519  0.3056  0.6495
 3733SOL    HW222833   3.790   2.446  10.546  0.3298 -1.5551  0.9291
 3734SOL     OW22834   4.103   3.647   5.703  0.4549 -0.3184  0.2828
 3734SOL    HW122835   4.136   3.580   5.644  2.1131  0.9019 -0.1828
 3734SOL    HW222836   4.021   3.655   5.656  0.8442  0.0741 -0.3262
 3735SOL     OW22837   3.046   0.813   0.427  0.1262 -0.1110  0.0691
 3735SOL    HW122838   2.975   0.873   0.402 -0.2134 -0.3752  0.3932
 3735SOL    HW222839   3.068   0.765   0.347 -2.8873 -4.9731  2.1789
 3736SOL     OW22840   4.696   2.033   9.779  0.0369  0.0389  0.6321
 3736SOL    HW122841   4.735   2.097   9.720  1.1695 -0.6672  0.6139
 3736SOL    HW222842   0.029   1.979   9.813  0.2786  0.2342  0.4341
 3737SOL     OW22843   0.979   1.479   8.783 -0.4193 -0.3924 -0.5748
 3737SOL    HW122844   0.973   1.565   8.825 -0.1695 -1.3129  1.3418
 3737SOL    HW222845   0.925   1.428   8.844 -0.4872  0.6426  0.2291
 3738SOL     OW22846   0.201   2.321   4.290  0.5230  0.2495  0.2218
 3738SOL    HW122847   0.199   2.333   4.195 -1.0558  1.2151  0.3875
 3738SOL    HW222848   0.270   2.383   4.309 -0.5482  2.0107 -1.5793
 3739SOL     OW22849   3.948   1.180   4.759 -0.5411  0.3655  0.1242
 3739SOL    HW122850   3.864   1.227   4.764 -0.6305  0.2429 -0.2380
 3739SOL    HW222851   3.958   1.156   4.851 -1.6589 -2.1504 -0.4085
 3740SOL     OW22852   1.396   2.102   1.605 -0.5251 -0.1512  0.0832
 3740SOL    HW122853   1.486   2.129   1.626  0.3502 -1.4039 -2.1569
 3740SOL    HW222854   1.385   2.020   1.653  0.4294  0.1734  0.8538
 3741SOL     OW22855   0.741   2.383   7.839 -0.2099 -0.4332 -0.1153
 3741SOL    HW122856   0.730   2.304   7.786 -1.4866 -1.5139  1.7624
 3741SOL    HW222857   0.811   2.423   7.787 -0.1200 -2.2493 -1.3656
 3742SOL     OW22858   1.455   4.293   5.207  0.3054  0.4587  0.0327
 3742SOL    HW122859   1.499   4.378   5.207  3.3739 -1.1251  0.2665
 3742SOL    HW222860   1.526   4.229   5.216  0.7144  1.0086  0.7158
 3743SOL     OW22861   0.355   1.036   0.552  0.2057  0.4034 -0.2876
 3743SOL    HW122862   0.290   1.018   0.620  0.0370 -0.2065 -0.6073
 3743SOL    HW222863   0.340   0.960   0.495 -1.2862  2.8500 -3.1278
 3744SOL     OW22864   1.131   4.657   2.081  0.1607  0.1951  0.3227
 3744SOL    HW122865   1.138   4.725   2.013  0.9898 -0.3285 -0.1154
 3744SOL    HW222866   1.094   4.588   2.026  1.0495  1.1425 -1.4801
 3745SOL     OW22867   3.737   4.737   3.740  0.1373 -0.9805 -0.0377
 3745SOL    HW122868   3.817   4.707   3.783 -0.8174 -0.8322  1.8408
 3745SOL    HW222869   3.672   4.681   3.782 -1.0495  1.2654  1.1457
 3746SOL     OW22870   0.729   0.888   6.660  0.2434  0.3909 -0.1528
 3746SOL    HW122871   0.773   0.824   6.717 -0.8267 -1.0195 -0.9051
 3746SOL    HW222872   0.693   0.834   6.590  2.2406  0.3770 -1.1861
 3747SOL     OW22873   3.324   4.164   8.853 -0.0717 -0.1886 -0.0751
 3747SOL    HW122874   3.393   4.203   8.799 -1.6801  0.9227 -1.3144
 3747SOL    HW222875   3.247   4.151   8.798  1.2490 -1.5140 -1.6272
 3748SOL     OW22876   4.455   2.758   7.738  0.0736  0.0485  0.2681
 3748SOL    HW122877   4.440   2.688   7.674  0.7456 -0.4407  0.6350
 3748SOL    HW222878   4.409   2.722   7.813  0.6981 -1.0983  0.1102
 3749SOL     OW22879   0.048   2.297   2.870  0.2531 -0.2328  0.5992
 3749SOL    HW122880   4.695   2.278   2.844  0.7353 -2.8325  0.8232
 3749SOL    HW222881   0.084   2.243   2.799 -2.3368 -2.1191  0.7057
 3750SOL     OW22882   3.190   4.140   6.354 -0.0820  0.4117  0.1604
 3750SOL    HW122883   3.150   4.197   6.288  1.2402  1.7948  0.5536
 3750SOL    HW222884   3.275   4.172   6.385 -1.1402  4.3888 -0.9428
 3751SOL     OW22885   2.601   1.409   5.392  0.7458  0.1294 -0.4980
 3751SOL    HW122886   2.631   1.428   5.303  0.9860  0.5275 -0.3321
 3751SOL    HW222887   2.674   1.449   5.439 -0.5813  2.1931 -0.1840
 3752SOL     OW22888   2.893   4.118  13.498  0.3737 -0.0608  0.0395
 3752SOL    HW122889   2.839   4.131  13.420  0.8547  0.2212 -0.2498
 3752SOL    HW222890   2.966   4.176  13.477 -0.6980  0.5720 -1.9161
 3753SOL     OW22891   3.597   4.073  10.993 -0.1535  0.7846  0.2323
 3753SOL    HW122892   3.633   4.028  10.916  1.2051 -1.0065  1.9293
 3753SOL    HW222893   3.652   4.036  11.061 -1.6106 -1.6638  0.0981
 3754SOL     OW22894   1.337   0.577   7.959 -0.8177  0.2233 -0.6399
 3754SOL    HW122895   1.360   0.503   7.902 -1.1051  0.0651 -0.5470
 3754SOL    HW222896   1.391   0.648   7.923  1.3360 -1.6331 -1.1135
 3755SOL     OW22897   4.543   2.496   9.501  0.0089  0.1139 -0.3250
 3755SOL    HW122898   4.532   2.404   9.524 -1.7703  0.5209  0.4415
 3755SOL    HW222899   4.623   2.524   9.547 -1.6346  1.6038  1.6389
 3756SOL     OW22900   2.771   4.726  16.492  0.1727 -0.7418  0.1628
 3756SOL    HW122901   2.677   4.711  16.485 -0.0877  0.9666 -0.0093
 3756SOL    HW222902   2.799   4.703  16.403 -0.0715 -1.0640  0.1695
 3757SOL     OW22903   0.996   2.780  13.785  0.1999 -0.0067  0.3925
 3757SOL    HW122904   1.089   2.764  13.769  0.4208  2.4237 -0.6711
 3757SOL    HW222905   1.000   2.760  13.879 -0.2091  1.7662  0.7902
 3758SOL     OW22906   0.217   0.536   3.506  0.3432  0.4430  0.0666
 3758SOL    HW122907   0.162   0.460   3.522 -2.7967  2.2101 -2.2371
 3758SOL    HW222908   0.154   0.605   3.488  0.7223  1.5595  2.9972
 3759SOL     OW22909   0.773   0.686   5.249  0.1109  0.0183 -0.0160
 3759SOL    HW122910   0.769   0.591   5.261  0.3131  0.5703  4.4007
 3759SOL    HW222911   0.742   0.691   5.159 -0.6936 -0.4693  0.2320
 3760SOL     OW22912   2.427   1.164  12.073 -0.2089 -0.2174  0.0766
 3760SOL    HW122913   2.437   1.071  12.094 -0.6910 -0.7653 -2.0856
 3760SOL    HW222914   2.514   1.195  12.048 -0.2497  0.8876  1.3335
 3761SOL     OW22915   0.237   2.431  11.391 -0.2801  0.2587  0.0663
 3761SOL    HW122916   0.313   2.422  11.448  1.1002 -2.2538 -2.1808
 3761SOL    HW222917   0.207   2.514  11.428  2.0421  1.2331 -0.2358
 3762SOL     OW22918   0.953   1.206   2.468 -0.2408 -0.5493  0.1909
 3762SOL    HW122919   0.872   1.220   2.419  1.4080 -1.2597 -2.7556
 3762SOL    HW222920   1.015   1.270   2.433 -1.0848  0.2863  0.2217
 3763SOL     OW22921   1.422   2.157  12.903  0.0123 -0.1578 -0.3280
 3763SOL    HW122922   1.402   2.111  12.984  0.7088 -2.1559 -1.2926
 3763SOL    HW222923   1.332   2.170  12.873 -0.0191  0.2143 -0.0805
 3764SOL     OW22924   0.880   2.676   6.223  0.4647 -0.8144  0.6884
 3764SOL    HW122925   0.798   2.652   6.265  0.2845 -0.1564  0.7186
 3764SOL    HW222926   0.918   2.593   6.195 -0.9730 -1.7902  1.6254
 3765SOL     OW22927   1.922   1.827   0.475 -0.0915 -0.0764  0.0305
 3765SOL    HW122928   1.870   1.898   0.512 -3.8845 -1.2259 -3.0916
 3765SOL    HW222929   1.859   1.755   0.468 -1.2325  0.8523  0.7764
 3766SOL     OW22930   0.079   4.506   9.072  0.2137  0.2565  0.1705
 3766SOL    HW122931   0.015   4.566   9.110 -1.3375 -0.6671 -0.9736
 3766SOL    HW222932   0.068   4.427   9.125  2.0619  1.1956  1.9612
 3767SOL     OW22933   3.471   2.227   3.669  0.3809  0.1841  0.4129
 3767SOL    HW122934   3.505   2.157   3.613 -0.1989 -1.3151  1.9762
 3767SOL    HW222935   3.419   2.176   3.730  1.0911 -0.5923  0.3754
 3768SOL     OW22936   4.675   2.200   6.302  0.2823  0.6935  0.2246
 3768SOL    HW122937   4.599   2.167   6.351  1.4500 -0.4237  1.2795
 3768SOL    HW222938   4.729   2.122   6.290  0.7967  1.1153 -0.1868
 3769SOL     OW22939   2.232   3.538  11.685 -0.4056  0.6266 -0.4209
 3769SOL    HW122940   2.275   3.457  11.659  1.6708  0.6401  3.0196
 3769SOL    HW222941   2.301   3.600  11.660 -2.4643  2.0167 -2.6820
 3770SOL     OW22942   2.397   2.660  17.004 -0.6992  0.0076  0.4703
 3770SOL    HW122943   2.375   2.616  16.922  1.8376 -0.6205  0.1060
 3770SOL    HW222944   2.426   2.586  17.058 -0.7678 -0.8754 -0.6900
 3771SOL     OW22945   2.898   2.327   8.017  0.3245  0.0757 -0.0814
 3771SOL    HW122946   2.940   2.260   8.070  2.2679  0.0174 -1.6696
 3771SOL    HW222947   2.870   2.382   8.090  1.8321 -0.2044  0.6973
 3772SOL     OW22948   0.063   2.545   9.582 -0.0964 -0.1005 -0.4356
 3772SOL    HW122949   0.094   2.583   9.499  1.7014  0.3005  0.4179
 3772SOL    HW222950   0.094   2.608   9.647 -0.0814  0.7203 -1.2183
 3773SOL     OW22951   4.401   4.243  15.172 -0.0869 -0.1267 -0.0887
 3773SOL    HW122952   4.348   4.163  15.171  0.5770 -0.5926  1.0547
 3773SOL    HW222953   4.491   4.212  15.179  0.5097  1.0415 -2.8521
 3774SOL     OW22954   0.997   4.444   8.420 -0.2184  0.0975  0.0671
 3774SOL    HW122955   0.937   4.441   8.494 -0.0460  0.2315  0.2131
 3774SOL    HW222956   0.973   4.362   8.375  1.8011 -1.4722  1.8611
 3775SOL     OW22957   1.489   0.220   5.781  0.5784  0.2340  0.2112
 3775SOL    HW122958   1.454   0.143   5.735 -0.4196  1.0184 -0.3359
 3775SOL    HW222959   1.540   0.253   5.707  1.8244 -1.3575  0.3477
 3776SOL     OW22960   4.484   3.182   3.832 -0.1022 -0.1774  0.3742
 3776SOL    HW122961   4.563   3.136   3.805 -0.3783 -0.2262 -0.3506
 3776SOL    HW222962   4.415   3.140   3.781 -0.1899 -0.4551  0.7248
 3777SOL     OW22963   2.423   4.349   8.947 -0.4534 -0.0374 -0.2875
 3777SOL    HW122964   2.347   4.318   8.997  0.0079 -0.3493  0.2225
 3777SOL    HW222965   2.451   4.265   8.911 -1.0338 -0.5192  0.3711
 3778SOL     OW22966   1.393   3.173   6.892 -0.4510 -0.2773  0.5948
 3778SOL    HW122967   1.451   3.177   6.969 -2.2852  0.9232  1.9115
 3778SOL    HW222968   1.367   3.265   6.889 -1.6022 -0.5678  1.5793
 3779SOL     OW22969   1.615   0.530   1.480  0.2464 -0.4923  0.4373
 3779SOL    HW122970   1.616   0.518   1.575  2.2436 -0.2353  0.4552
 3779SOL    HW222971   1.522   0.522   1.457  0.3615 -1.5135  0.3267
 3780SOL     OW22972   2.693   0.541   5.992 -0.3959  0.2458  0.3922
 3780SOL    HW122973   2.724   0.617   5.943 -0.9201 -0.7228 -1.4350
 3780SOL    HW222974   2.618   0.582   6.034  0.4632  1.7509  0.4573
 3781SOL     OW22975   1.131   1.978   5.035  0.3504  0.7234  0.0532
 3781SOL    HW122976   1.175   1.969   4.951  3.5490  1.1234  1.6480
 3781SOL    HW222977   1.088   2.063   5.022 -0.3879  0.6332  1.8417
 3782SOL     OW22978   3.997   1.340  16.753  0.0044 -0.1445  0.1630
 3782SOL    HW122979   4.016   1.434  16.749 -0.4927  0.0518  2.0855
 3782SOL    HW222980   4.035   1.302  16.674 -1.0811  0.4030 -0.6223
 3783SOL     OW22981   2.670   1.791   1.625  0.1007  0.0340 -0.0202
 3783SOL    HW122982   2.687   1.827   1.538  1.1048  0.0845  0.1990
 3783SOL    HW222983   2.744   1.827   1.674  0.1338  0.4165 -0.3499
 3784SOL     OW22984   2.373   0.357   6.559 -0.3082 -0.2847  0.2579
 3784SOL    HW122985   2.464   0.331   6.543 -0.0275  0.4161  0.7126
 3784SOL    HW222986   2.320   0.288   6.518  0.3066  0.6892 -2.1940
 3785SOL     OW22987   3.504   0.075  16.826 -0.0219  0.2791 -0.5531
 3785SOL    HW122988   3.598   0.057  16.816  0.2034  2.0779 -1.6323
 3785SOL    HW222989   3.503   0.171  16.824  1.3249  0.2960 -0.8970
 3786SOL     OW22990   0.677   2.126   4.233  0.0634 -0.4022 -0.0247
 3786SOL    HW122991   0.712   2.087   4.152  1.5869 -1.8245  1.3137
 3786SOL    HW222992   0.677   2.218   4.207  0.5775  0.1132  1.7850
 3787SOL     OW22993   1.918   1.193   4.369  0.7171  0.1678 -0.3059
 3787SOL    HW122994   1.962   1.277   4.357  2.9706 -0.6666  2.0829
 3787SOL    HW222995   1.838   1.201   4.316  0.6020 -0.8228 -0.2796
 3788SOL     OW22996   1.126   2.222   6.056  0.1176 -0.0149 -0.3067
 3788SOL    HW122997   1.154   2.268   5.977 -0.2100  0.5111 -0.1098
 3788SOL    HW222998   1.081   2.149   6.013  1.2683 -1.8447  1.5362
 3789SOL     OW22999   0.833   2.462   5.104  0.4835  0.3087  0.1789
 3789SOL    HW123000   0.779   2.538   5.081  0.9315  0.1108 -1.5405
 3789SOL    HW223001   0.869   2.430   5.021  2.1023 -0.0143  1.0089
 3790SOL     OW23002   1.734   2.206   2.889 -0.5480 -0.7261  0.2681
 3790SOL    HW123003   1.699   2.267   2.823  2.6627 -1.4617 -2.1411
 3790SOL    HW223004   1.829   2.214   2.877 -0.1172 -3.5597  1.9045
 3791SOL     OW23005   1.628   4.492   3.110  0.2553  0.7147 -0.7518
 3791SOL    HW123006   1.630   4.412   3.057 -1.5638  0.0553  0.1875
 3791SOL    HW223007   1.626   4.567   3.051  0.7523 -2.2963 -4.6348
 3792SOL     OW23008   3.425   1.387   5.465  0.3613  0.2445  0.8632
 3792SOL    HW123009   3.433   1.303   5.421  1.1978 -0.2769  2.0062
 3792SOL    HW223010   3.459   1.448   5.399  0.5761 -2.6235 -1.6943
 3793SOL     OW23011   0.883   1.085   9.004 -0.1765 -0.2412  0.6178
 3793SOL    HW123012   0.949   1.090   8.935  2.1002  1.1408  2.8969
 3793SOL    HW223013   0.806   1.121   8.961  1.8230  1.2446 -1.7459
 3794SOL     OW23014   0.516   0.679   2.920 -0.3898 -0.4044 -0.1342
 3794SOL    HW123015   0.467   0.600   2.945 -0.3255 -0.3713  0.0938
 3794SOL    HW223016   0.466   0.753   2.953  0.3939 -0.2945  0.7901
 3795SOL     OW23017   2.689   3.727  11.518  0.7625 -0.0871  0.3687
 3795SOL    HW123018   2.758   3.779  11.559  0.0921  1.3250 -0.2923
 3795SOL    HW223019   2.699   3.756  11.428 -0.1369  2.0594  0.9386
 3796SOL     OW23020   1.076   3.073   0.812  0.1252 -0.1160 -0.2869
 3796SOL    HW123021   1.166   3.054   0.841 -0.4233 -1.3669  0.6459
 3796SOL    HW223022   1.024   3.021   0.874  0.8985 -1.9515 -1.1611
 3797SOL     OW23023   4.421   1.044   6.638 -0.3254 -0.5516  0.3390
 3797SOL    HW123024   4.360   1.069   6.707 -0.1927 -1.8428  0.9177
 3797SOL    HW223025   4.489   0.987   6.674 -1.4972 -0.7321  2.2609
 3798SOL     OW23026   2.873   3.995   3.753  0.0671  0.3049  0.2680
 3798SOL    HW123027   2.816   3.929   3.714 -0.2940  0.0938  1.1534
 3798SOL    HW223028   2.857   3.988   3.847  3.4587  2.5600  1.0039
 3799SOL     OW23029   1.390   3.746   4.647  0.2864 -0.0949 -0.0183
 3799SOL    HW123030   1.366   3.794   4.726 -0.1104  0.6101 -0.5631
 3799SOL    HW223031   1.423   3.820   4.596 -1.6064  2.0863  1.9225
 3800SOL     OW23032   0.465   1.969  15.232 -0.1828 -0.1297  0.1225
 3800SOL    HW123033   0.392   1.955  15.172 -0.2115  1.7171 -0.2744
 3800SOL    HW223034   0.533   1.999  15.172  0.8196 -2.4262  0.1113
 3801SOL     OW23035   1.363   3.482   8.472  0.7923 -0.2612 -0.1369
 3801SOL    HW123036   1.311   3.505   8.549 -0.7039 -0.0897 -1.2136
 3801SOL    HW223037   1.314   3.404   8.446 -1.7341  0.9650  0.9235
 3802SOL     OW23038   1.219   4.468   4.753  0.0799  0.1507  0.8907
 3802SOL    HW123039   1.258   4.438   4.671 -0.8457  0.8263  0.2066
 3802SOL    HW223040   1.272   4.420   4.817  0.5886 -0.3541  0.0890
 3803SOL     OW23041   2.593   0.492   4.965 -0.1515  0.2610 -0.0316
 3803SOL    HW123042   2.531   0.526   4.900 -0.7220 -0.8279 -0.0523
 3803SOL    HW223043   2.526   0.465   5.028  0.6562  0.2288  0.8110
 3804SOL     OW23044   0.964   3.888   5.562 -0.5567  0.0182 -0.6925
 3804SOL    HW123045   0.991   3.915   5.650  1.4054  0.1739 -1.3310
 3804SOL    HW223046   1.051   3.863   5.531 -1.0957 -0.9958 -1.3818
 3805SOL     OW23047   0.612   4.185   3.251  0.0455 -0.0119  0.3161
 3805SOL    HW123048   0.561   4.151   3.324 -2.0473  0.9509 -0.6916
 3805SOL    HW223049   0.690   4.129   3.250  1.6015  2.1958 -0.9349
 3806SOL     OW23050   2.548   2.310   0.196  0.0440  0.1078  0.0448
 3806SOL    HW123051   2.560   2.386   0.140  1.3830  0.1750  0.4090
 3806SOL    HW223052   2.633   2.266   0.190  1.0259  2.1082 -0.4553
 3807SOL     OW23053   1.571   1.219   4.589  0.4489  0.3487  0.5435
 3807SOL    HW123054   1.489   1.218   4.638  1.3139  0.7461  2.0102
 3807SOL    HW223055   1.637   1.242   4.654  1.1399  3.7344 -1.3489
 3808SOL     OW23056   1.371   4.015   7.630 -0.2283  0.1860  0.6671
 3808SOL    HW123057   1.428   4.082   7.668  1.0137 -0.0533 -0.7782
 3808SOL    HW223058   1.286   4.048   7.659  0.3039  2.7150 -0.6430
 3809SOL     OW23059   0.534   1.665   6.984  0.3947 -0.1605  0.3255
 3809SOL    HW123060   0.600   1.729   7.006  0.6023  0.0486 -0.9278
 3809SOL    HW223061   0.557   1.595   7.045 -1.3681 -1.0618 -0.0126
 3810SOL     OW23062   3.780   0.004   2.520 -0.0164 -0.5784  0.1581
 3810SOL    HW123063   3.825   0.085   2.495 -0.5171 -1.5640 -3.9350
 3810SOL    HW223064   3.855   4.697   2.560 -0.2332 -0.6255  0.5156
 3811SOL     OW23065   4.360   1.105   6.378  0.0640  0.4267 -0.2192
 3811SOL    HW123066   4.375   1.094   6.472  0.4482 -0.1486 -0.3462
 3811SOL    HW223067   4.409   1.038   6.331  0.3253  0.1153  0.5144
 3812SOL     OW23068   1.611   1.017   2.151  0.3209 -0.0026 -0.0117
 3812SOL    HW123069   1.584   1.079   2.083 -1.1292  1.4577  1.8904
 3812SOL    HW223070   1.682   1.058   2.200 -0.0414  1.0888 -0.4000
 3813SOL     OW23071   3.599   1.794   1.600  0.2607  0.2287 -0.3183
 3813SOL    HW123072   3.632   1.811   1.512 -0.8020  0.9782 -0.5707
 3813SOL    HW223073   3.583   1.700   1.600 -1.5921  0.5575 -2.6074
 3814SOL     OW23074   4.158   3.687   3.514 -0.4278  0.5445  0.4635
 3814SOL    HW123075   4.121   3.607   3.551 -1.2695  0.3385 -0.8279
 3814SOL    HW223076   4.119   3.760   3.562  1.7745  1.3642  1.0320
 3815SOL     OW23077   2.564   4.212   3.242 -0.2885  0.7756 -0.2293
 3815SOL    HW123078   2.655   4.238   3.249  0.1059 -0.1115 -1.9393
 3815SOL    HW223079   2.535   4.291   3.195 -0.3875  0.2002 -1.1431
 3816SOL     OW23080   1.356   4.554  14.311  0.0099 -0.2413 -0.3395
 3816SOL    HW123081   1.280   4.609  14.328 -1.2164 -1.9763 -0.1956
 3816SOL    HW223082   1.412   4.610  14.257 -1.2214  0.3035 -1.0410
 3817SOL     OW23083   2.739   1.523   5.617 -0.8124  0.4429  0.5064
 3817SOL    HW123084   2.834   1.533   5.619 -0.8415  0.3516  2.6425
 3817SOL    HW223085   2.717   1.616   5.624  0.6741  0.6976  1.9001
 3818SOL     OW23086   3.980   2.045  12.859 -0.5307 -0.1413 -0.0316
 3818SOL    HW123087   3.892   2.038  12.896 -0.2440 -0.4309  0.5950
 3818SOL    HW223088   3.973   2.114  12.793 -0.8912  2.7532  3.0030
 3819SOL     OW23089   2.103   4.501   1.339 -0.2830 -0.0311  0.6521
 3819SOL    HW123090   2.057   4.448   1.404 -1.8636 -0.7322 -1.0471
 3819SOL    HW223091   2.118   4.589   1.374  0.0140 -0.3768  1.3873
 3820SOL     OW23092   0.308   0.900   9.248 -0.3075 -0.9122  0.5100
 3820SOL    HW123093   0.252   0.837   9.295 -3.7779  1.6078 -0.2659
 3820SOL    HW223094   0.358   0.939   9.319 -0.6300 -1.1066  0.8475
 3821SOL     OW23095   3.386   2.404   1.300  0.3958 -0.2219 -0.3846
 3821SOL    HW123096   3.384   2.462   1.224 -2.6928  0.2740  0.0582
 3821SOL    HW223097   3.402   2.322   1.254  0.4140  1.4460 -3.3365
 3822SOL     OW23098   4.466   3.272   7.422  0.2293  0.2414 -0.3137
 3822SOL    HW123099   4.432   3.342   7.367 -1.7536 -2.6602 -2.8162
 3822SOL    HW223100   4.516   3.224   7.357 -0.4780 -0.9283 -0.0045
 3823SOL     OW23101   1.401   1.310   2.745  0.7011  0.3865 -0.2528
 3823SOL    HW123102   1.343   1.302   2.820  0.2046 -0.4434 -0.7263
 3823SOL    HW223103   1.449   1.392   2.756  0.7006  0.3996 -0.3467
 3824SOL     OW23104   1.153   2.179  11.459 -0.0232  0.1537  0.7018
 3824SOL    HW123105   1.141   2.106  11.520 -2.2580  0.7955  1.0376
 3824SOL    HW223106   1.124   2.243  11.523  1.5968  1.8631 -0.2818
 3825SOL     OW23107   0.945   1.554   3.256  0.0348 -0.0845 -0.5607
 3825SOL    HW123108   1.029   1.560   3.303 -0.0659 -3.1450 -0.0191
 3825SOL    HW223109   0.906   1.475   3.292 -1.2714 -0.0056 -1.8217
 3826SOL     OW23110   4.628   0.841   9.516 -0.3053 -0.3778 -0.5837
 3826SOL    HW123111   4.535   0.864   9.511 -0.7332 -1.9211  0.1862
 3826SOL    HW223112   4.660   0.856   9.427  1.8756  1.5661  0.5494
 3827SOL     OW23113   3.510   4.234   0.951 -0.6711  0.2514  0.1490
 3827SOL    HW123114   3.519   4.296   1.023 -0.4304  0.2496  0.1212
 3827SOL    HW223115   3.477   4.290   0.881  0.1730 -2.3589 -2.3477
 3828SOL     OW23116   3.161   3.663   5.572  0.6941  0.1042  0.1369
 3828SOL    HW123117   3.189   3.658   5.664  2.6567  1.3570 -0.3868
 3828SOL    HW223118   3.069   3.648   5.592  0.0036  1.0737 -2.3417
 3829SOL     OW23119   2.173   3.748   4.545  0.3094  0.0905 -0.7281
 3829SOL    HW123120   2.211   3.744   4.457  1.2238 -0.6370 -0.3049
 3829SOL    HW223121   2.237   3.707   4.603  0.6132  0.7914 -0.5673
 3830SOL     OW23122   4.331   2.574   9.711 -0.4856 -0.1661 -0.4029
 3830SOL    HW123123   4.361   2.589   9.800 -0.1916 -2.3316 -0.1528
 3830SOL    HW223124   4.413   2.551   9.668  0.7079 -1.3985  2.5743
 3831SOL     OW23125   3.378   1.405   1.396 -0.6760 -0.5345  0.7068
 3831SOL    HW123126   3.452   1.385   1.339 -0.7695  0.2785  0.3053
 3831SOL    HW223127   3.340   1.483   1.356 -1.2221 -1.5941 -0.8513
 3832SOL     OW23128   3.662   2.607   7.908  0.2634 -0.1550 -0.2527
 3832SOL    HW123129   3.616   2.561   7.978 -0.8564 -1.7461 -2.0707
 3832SOL    HW223130   3.727   2.658   7.957  0.3303 -0.3577 -0.1339
 3833SOL     OW23131   2.642   1.134   3.327 -0.1429 -0.2528 -0.1673
 3833SOL    HW123132   2.728   1.139   3.285 -1.0649 -0.7264 -2.0964
 3833SOL    HW223133   2.629   1.043   3.352  0.8039 -0.8187 -1.7072
 3834SOL     OW23134   0.424   2.542   5.478 -0.3026 -0.2144  0.1037
 3834SOL    HW123135   0.430   2.447   5.463  1.8417 -0.3616  1.8431
 3834SOL    HW223136   0.485   2.549   5.552  0.5762 -0.9231 -0.5498
 3835SOL     OW23137   2.882   1.066   4.805  0.1999  0.1653 -0.3277
 3835SOL    HW123138   2.803   1.121   4.806 -0.0985 -0.2477 -1.0870
 3835SOL    HW223139   2.899   1.049   4.897  0.9526 -0.2856 -0.5487
 3836SOL     OW23140   4.516   2.235   7.645 -0.7735 -0.6307  0.2159
 3836SOL    HW123141   4.561   2.194   7.571 -0.2813 -0.6542  0.5338
 3836SOL    HW223142   4.593   2.274   7.686 -0.9305 -0.7437  0.6169
 3837SOL     OW23143   2.576   3.549   8.690  0.4580  0.2878  0.2902
 3837SOL    HW123144   2.524   3.469   8.693 -2.1035  1.9526 -0.0453
 3837SOL    HW223145   2.552   3.587   8.605  0.1697 -2.5949 -0.9117
 3838SOL     OW23146   0.697   0.885   9.347  0.4090 -0.1165  0.0206
 3838SOL    HW123147   0.786   0.914   9.369 -0.1103  0.5181  1.2548
 3838SOL    HW223148   0.694   0.909   9.255  0.1836  1.0559  0.3331
 3839SOL     OW23149   1.509   2.781   6.690  0.5567 -0.2011 -0.5275
 3839SOL    HW123150   1.526   2.870   6.661 -2.2541  0.3759 -0.4605
 3839SOL    HW223151   1.468   2.814   6.770 -1.0436 -0.8881 -1.0563
 3840SOL     OW23152   4.234   3.719   6.669  0.5477 -0.4596  0.4593
 3840SOL    HW123153   4.182   3.795   6.643 -0.4252 -1.0947  0.5514
 3840SOL    HW223154   4.234   3.735   6.763  0.0584 -0.1085  0.4050
 3841SOL     OW23155   0.648   2.881   9.769 -0.0631 -0.2612  0.1031
 3841SOL    HW123156   0.623   2.790   9.780  0.2514  0.0083  3.0560
 3841SOL    HW223157   0.646   2.884   9.674 -0.6937  0.7162  0.1348
 3842SOL     OW23158   0.217   4.384  15.492  0.3697  0.0693 -0.3718
 3842SOL    HW123159   0.145   4.401  15.431  0.1636 -0.8467 -0.3757
 3842SOL    HW223160   0.210   4.289  15.489  0.6831 -0.0271  1.6956
 3843SOL     OW23161   2.894   3.048  17.674 -0.5232 -0.3643 -0.3509
 3843SOL    HW123162   2.966   3.087  17.624 -0.5827 -1.3924 -1.2397
 3843SOL    HW223163   2.825   3.094  17.626 -2.6512 -1.0668  2.0320
 3844SOL     OW23164   3.843   3.584   0.601  0.2774  0.2029  0.6961
 3844SOL    HW123165   3.933   3.575   0.632 -0.0012 -0.6690  1.2515
 3844SOL    HW223166   3.793   3.603   0.681 -2.4018  2.7837 -1.6071
 3845SOL     OW23167   3.488   3.733   0.805  0.4973 -0.1756 -0.7457
 3845SOL    HW123168   3.554   3.692   0.860 -1.6235  0.0616  1.9581
 3845SOL    HW223169   3.527   3.815   0.776  0.1641  0.9622  2.0987
 3846SOL     OW23170   4.550   1.628   7.813 -0.2764  0.0368  0.3797
 3846SOL    HW123171   4.545   1.724   7.807  2.2414  0.2087  1.1089
 3846SOL    HW223172   4.644   1.613   7.813 -0.2328  0.3179  2.3865
 3847SOL     OW23173   1.256   0.473  10.350  0.0399  0.0741 -0.5188
 3847SOL    HW123174   1.297   0.482  10.436 -0.4346 -1.4692 -0.1379
 3847SOL    HW223175   1.315   0.530  10.300 -1.2373 -0.8312 -3.0605
 3848SOL     OW23176   1.079   3.252  17.315 -0.2506  0.4952 -0.1933
 3848SOL    HW123177   1.056   3.195  17.389  0.0487 -0.7420 -1.0569
 3848SOL    HW223178   1.033   3.203  17.247 -0.3729 -2.6446  2.1626
 3849SOL     OW23179   4.563   3.731   7.092  0.1903 -0.1632 -0.1694
 3849SOL    HW123180   4.518   3.647   7.101 -1.0174  0.1639 -3.2349
 3849SOL    HW223181   4.623   3.732   7.017  1.3958  0.0894  0.7986
 3850SOL     OW23182   2.750   2.419  16.733 -0.2946 -0.2804  0.1016
 3850SOL    HW123183   2.690   2.407  16.807 -0.8966  0.1356 -0.3148
 3850SOL    HW223184   2.815   2.477  16.773 -0.2317 -1.3936  1.5952
 3851SOL     OW23185   0.225   3.861   5.326 -0.3126  0.1829  0.6839
 3851SOL    HW123186   0.286   3.931   5.304  0.2691 -0.3340  0.6535
 3851SOL    HW223187   0.264   3.813   5.399 -1.2477 -0.2280  0.9131
 3852SOL     OW23188   1.267   4.525   7.035 -0.6027  0.5342  0.0197
 3852SOL    HW123189   1.223   4.533   6.950 -0.1069  1.9332 -0.0926
 3852SOL    HW223190   1.193   4.520   7.095 -0.0299  2.2541  0.8455
 3853SOL     OW23191   0.681   3.470   3.936  0.1924  0.3402  0.5754
 3853SOL    HW123192   0.684   3.481   4.031 -1.1685  0.4918  0.6012
 3853SOL    HW223193   0.607   3.411   3.927 -0.0311  0.6027  0.7041
 3854SOL     OW23194   4.045   2.116   1.921 -0.5980  0.4770  0.2826
 3854SOL    HW123195   4.104   2.147   1.989 -0.6927  0.7021  0.2621
 3854SOL    HW223196   4.094   2.038   1.894  1.4064  1.9443 -0.3394
 3855SOL     OW23197   4.390   1.868   6.550  0.1997 -0.1848 -0.2567
 3855SOL    HW123198   4.317   1.811   6.575 -1.3424  1.7147 -0.4481
 3855SOL    HW223199   4.397   1.926   6.626  1.6439 -0.3642 -0.2491
 3856SOL     OW23200   2.328   3.167   5.748  0.1223  0.0329 -0.2224
 3856SOL    HW123201   2.338   3.106   5.821 -0.6487 -0.9960 -0.9746
 3856SOL    HW223202   2.410   3.160   5.699  0.6149 -2.0468  0.9358
 3857SOL     OW23203   2.116   3.481   1.127 -0.4883 -0.2983  0.1171
 3857SOL    HW123204   2.035   3.528   1.108 -0.1875  0.1817  0.0361
 3857SOL    HW223205   2.165   3.475   1.046  3.1185  1.4143  2.1755
 3858SOL     OW23206   0.761   4.703   6.602 -0.1037  0.1174  0.0699
 3858SOL    HW123207   0.829   0.031   6.592 -1.4476  1.2323 -1.7183
 3858SOL    HW223208   0.782   4.691   6.694 -1.4494 -2.5590  0.0406
 3859SOL     OW23209   0.597   1.429   2.302 -0.0085 -0.2934 -0.0368
 3859SOL    HW123210   0.560   1.509   2.264 -1.1272 -1.4289 -1.3134
 3859SOL    HW223211   0.651   1.463   2.373 -1.2177  1.1860  0.1591
 3860SOL     OW23212   0.367   3.698   9.274  0.1488 -0.1792 -0.2626
 3860SOL    HW123213   0.294   3.740   9.320 -0.9599  0.8579 -2.9980
 3860SOL    HW223214   0.317   3.636   9.222  0.2021 -0.3031 -0.1660
 3861SOL     OW23215   2.679   3.105   7.950  0.0822  0.1593 -0.1823
 3861SOL    HW123216   2.615   3.036   7.968 -1.1719  0.9172 -1.7530
 3861SOL    HW223217   2.631   3.185   7.970 -1.1320 -0.9365  1.2923
 3862SOL     OW23218   1.824   1.500   1.596  0.4118 -0.4834  0.3544
 3862SOL    HW123219   1.918   1.513   1.611  0.1378  1.0951  0.6145
 3862SOL    HW223220   1.820   1.549   1.514  0.7748 -1.3661 -0.1975
 3863SOL     OW23221   3.087   2.406   9.188 -0.9682 -0.2265 -0.4100
 3863SOL    HW123222   3.057   2.337   9.129 -1.3735 -2.4761  2.4435
 3863SOL    HW223223   3.174   2.417   9.149 -0.8514  2.8635  0.7737
 3864SOL     OW23224   0.243   2.829   7.693  0.0694 -0.1195 -0.3992
 3864SOL    HW123225   0.329   2.798   7.666  0.9680  1.9024  0.1707
 3864SOL    HW223226   0.197   2.779   7.625 -0.4550 -0.6377  0.3281
 3865SOL     OW23227   3.809   2.715  14.325 -0.5474 -0.6031 -0.0013
 3865SOL    HW123228   3.853   2.655  14.385  1.3630  0.9872  0.1698
 3865SOL    HW223229   3.722   2.674  14.324 -0.3271 -1.1092  1.5412
 3866SOL     OW23230   1.512   0.713  17.447 -0.3645  0.7934  0.1244
 3866SOL    HW123231   1.551   0.797  17.422  1.3073  0.5915  2.0321
 3866SOL    HW223232   1.530   0.669  17.364 -0.8223  2.0614 -0.6457
 3867SOL     OW23233   2.241   2.637   3.945 -0.0140 -0.4697 -0.0094
 3867SOL    HW123234   2.232   2.560   3.888 -0.6112  0.1450 -0.7533
 3867SOL    HW223235   2.226   2.603   4.034  1.3981 -0.1689  0.3294
 3868SOL     OW23236   4.286   2.420   3.321 -0.0994 -0.6512 -0.0613
 3868SOL    HW123237   4.361   2.421   3.381  0.3564 -0.5243 -0.6444
 3868SOL    HW223238   4.231   2.493   3.350  2.3930  0.3290  2.1602
 3869SOL     OW23239   0.097   3.452  13.203  0.2923 -0.2240 -0.2786
 3869SOL    HW123240   0.152   3.396  13.258 -0.4157  1.3411  2.0249
 3869SOL    HW223241   0.149   3.532  13.202 -0.0955  0.0270 -0.7859
 3870SOL     OW23242   2.798   0.919  13.263  0.3342 -0.1262  0.1368
 3870SOL    HW123243   2.768   0.988  13.323  0.4909  0.4209 -0.4099
 3870SOL    HW223244   2.721   0.867  13.242 -0.3230  1.3055 -0.9476
 3871SOL     OW23245   0.951   2.992   2.923  0.1264 -0.0083  0.4464
 3871SOL    HW123246   1.023   2.989   2.860 -1.1090 -0.8881 -0.9252
 3871SOL    HW223247   0.968   2.919   2.983 -0.7856  0.7963  1.6941
 3872SOL     OW23248   1.757   4.420   6.851 -1.0123 -0.5932  0.1873
 3872SOL    HW123249   1.770   4.375   6.935 -0.5962 -0.9025 -0.0473
 3872SOL    HW223250   1.841   4.460   6.829 -0.1278 -0.9014  3.0462
 3873SOL     OW23251   4.089   1.636  14.504  0.6078 -0.1343  0.3877
 3873SOL    HW123252   4.097   1.682  14.421 -2.4345 -0.1977  0.0411
 3873SOL    HW223253   4.090   1.543  14.480  0.4355  0.4062 -1.6638
 3874SOL     OW23254   3.732   4.428   5.741  0.3291 -0.0961  0.1533
 3874SOL    HW123255   3.682   4.379   5.675  1.1798 -0.9820  0.1618
 3874SOL    HW223256   3.679   4.401   5.815 -0.4593 -2.6655 -1.3367
 3875SOL     OW23257   1.533   3.898   8.014  0.2107 -0.3173  0.0606
 3875SOL    HW123258   1.606   3.900   8.076  0.3136  3.1119 -0.1504
 3875SOL    HW223259   1.480   3.975   8.034 -0.4127 -1.0809  1.4095
 3876SOL     OW23260   4.368   1.856  13.052 -0.5406 -0.3441  0.1666
 3876SOL    HW123261   4.282   1.828  13.023 -0.2676  0.0558 -1.0038
 3876SOL    HW223262   4.356   1.945  13.085  0.6630  1.1887 -3.5655
 3877SOL     OW23263   2.338   1.122   9.152 -0.0598 -0.0533 -0.0854
 3877SOL    HW123264   2.416   1.128   9.097  1.0077 -1.6024  1.2783
 3877SOL    HW223265   2.356   1.192   9.214  0.9921  0.4894 -1.0003
 3878SOL     OW23266   1.636   3.614   3.298 -0.0271  0.7167  0.1398
 3878SOL    HW123267   1.657   3.622   3.205  0.7930  0.2261  0.2836
 3878SOL    HW223268   1.679   3.688   3.341  0.8294  1.3188 -1.7596
 3879SOL     OW23269   3.864   2.949   5.429 -0.1451  0.0393  0.1715
 3879SOL    HW123270   3.791   2.966   5.488  0.6316  0.7341  0.9417
 3879SOL    HW223271   3.873   3.029   5.377 -0.6371  0.4198  0.6761
 3880SOL     OW23272   1.054   1.149   6.459 -0.4995  0.0235 -0.2685
 3880SOL    HW123273   1.052   1.240   6.430  1.6743 -0.7898 -2.9403
 3880SOL    HW223274   0.985   1.123   6.397 -1.1060  1.9559 -0.4021
 3881SOL     OW23275   2.959   2.846  13.612  0.1280 -0.2955 -0.1401
 3881SOL    HW123276   2.969   2.761  13.568  0.7746 -0.9753  1.3069
 3881SOL    HW223277   3.022   2.831  13.683  1.2720 -0.6143 -1.2163
 3882SOL     OW23278   4.369   2.418   8.285  0.2338 -0.0716  0.3754
 3882SOL    HW123279   4.445   2.454   8.240 -0.2138 -0.8851 -1.0207
 3882SOL    HW223280   4.367   2.335   8.237 -2.0269  1.1357 -1.6587
 3883SOL     OW23281   4.118   3.318   4.047 -0.6066 -0.4801 -0.5820
 3883SOL    HW123282   4.031   3.290   4.075 -1.0021  0.0557 -1.2902
 3883SOL    HW223283   4.107   3.390   3.985 -2.4035  1.3110  1.8203
 3884SOL     OW23284   4.127   3.715   7.464  0.7069 -0.2621 -0.4129
 3884SOL    HW123285   4.057   3.779   7.471  1.9689  1.0984 -0.1152
 3884SOL    HW223286   4.118   3.678   7.376  0.2208 -0.3861 -0.3088
 3885SOL     OW23287   4.107   2.759   2.292  0.1550 -0.6087  0.9737
 3885SOL    HW123288   4.200   2.767   2.314  0.0558 -0.3503  1.3064
 3885SOL    HW223289   4.114   2.673   2.252  1.7228 -0.4423  0.9064
 3886SOL     OW23290   3.781   2.835  12.722  0.3087 -0.1931  0.2526
 3886SOL    HW123291   3.807   2.877  12.640 -1.5669  0.3427 -0.0683
 3886SOL    HW223292   3.772   2.745  12.690 -0.7119  0.3257 -0.9510
 3887SOL     OW23293   3.019   0.162   9.248  0.5040  0.1923 -0.4307
 3887SOL    HW123294   3.028   0.071   9.274 -1.8614 -0.1875 -0.9649
 3887SOL    HW223295   2.926   0.170   9.228 -0.0856 -2.0252  1.4732
 3888SOL     OW23296   3.465   4.088   1.410  0.0575  0.8722 -0.4241
 3888SOL    HW123297   3.376   4.118   1.393  0.4477  2.5947  0.5417
 3888SOL    HW223298   3.453   3.994   1.423 -0.9121  1.2647  1.5080
 3889SOL     OW23299   0.637   3.982   6.692  0.0655  0.3258 -0.2133
 3889SOL    HW123300   0.708   3.955   6.634 -2.4820  0.1758 -3.2907
 3889SOL    HW223301   0.578   3.910   6.674 -1.3811  0.9193  2.1799
 3890SOL     OW23302   0.285   4.477   5.691  0.0557  0.2481 -0.0399
 3890SOL    HW123303   0.356   4.524   5.648  1.1317  1.4883  3.0629
 3890SOL    HW223304   0.239   4.546   5.739  0.0536  0.8617 -0.9269
 3891SOL     OW23305   0.102   0.691  13.450  0.1131  0.2652  0.0723
 3891SOL    HW123306   0.013   0.681  13.484 -0.4407  2.1313 -0.7954
 3891SOL    HW223307   0.090   0.715  13.358  1.2170  0.6536  0.0242
 3892SOL     OW23308   0.863   0.410   2.125 -0.1363  0.3159 -0.5302
 3892SOL    HW123309   0.771   0.422   2.149 -0.0570  1.1755 -0.6579
 3892SOL    HW223310   0.898   0.434   2.211 -0.7793 -0.7477  0.0344
 3893SOL     OW23311   2.570   3.519   4.831  0.4465 -0.5273 -0.4723
 3893SOL    HW123312   2.567   3.523   4.926  0.3766 -1.6545 -0.4289
 3893SOL    HW223313   2.509   3.591   4.813 -1.1743 -1.2508  2.1861
 3894SOL     OW23314   3.137   4.034   3.778 -0.0482  0.6777  0.7452
 3894SOL    HW123315   3.065   4.034   3.841 -0.1462  0.0116  0.6304
 3894SOL    HW223316   3.094   4.036   3.693  1.5222 -1.0838 -0.0867
 3895SOL     OW23317   3.112   3.247   6.940 -0.2461  0.1414  0.0593
 3895SOL    HW123318   3.112   3.158   6.905  1.9522 -0.0787  0.5832
 3895SOL    HW223319   3.119   3.258   7.035  0.2443 -3.6973  0.4946
 3896SOL     OW23320   1.574   2.906   2.829  0.8564 -0.1645  0.0748
 3896SOL    HW123321   1.486   2.868   2.823 -0.2239  2.0494  1.7997
 3896SOL    HW223322   1.577   2.933   2.921 -2.2276  0.0118  0.1154
 3897SOL     OW23323   1.584   3.952   8.585  0.0148  0.1929 -0.2351
 3897SOL    HW123324   1.496   3.915   8.593 -0.4228  1.7245  2.0446
 3897SOL    HW223325   1.560   4.019   8.521  0.5972  2.1292  1.5816
 3898SOL     OW23326   1.958   3.841   4.706  0.0994  0.0043  0.6734
 3898SOL    HW123327   1.899   3.795   4.645  1.2613  0.7156 -0.9972
 3898SOL    HW223328   2.047   3.829   4.674  0.7109  2.5306  1.4005
 3899SOL     OW23329   1.818   0.583  13.172 -0.3722 -0.2722 -0.0858
 3899SOL    HW123330   1.734   0.547  13.144  0.0228 -0.0637 -1.5130
 3899SOL    HW223331   1.842   0.621  13.088 -1.8809  0.9557  0.0490
 3900SOL     OW23332   0.379   1.621   4.739  0.1325  0.3470  0.3414
 3900SOL    HW123333   0.356   1.703   4.697  2.0950  1.1916  0.9072
 3900SOL    HW223334   0.474   1.616   4.749  0.1753 -0.4238 -0.4404
 3901SOL     OW23335   3.595   0.014  14.885 -0.0264  0.4344  0.0794
 3901SOL    HW123336   3.531   0.065  14.835 -1.7667 -1.8887 -0.0152
 3901SOL    HW223337   3.553   4.667  14.893 -3.0952  2.0880  1.5364
 3902SOL     OW23338   0.087   2.480   7.394 -0.1298 -0.0696  0.4189
 3902SOL    HW123339   0.097   2.386   7.378 -0.7813 -0.2309  0.9428
 3902SOL    HW223340   0.042   2.477   7.479 -2.9874  1.3388 -1.0752
 3903SOL     OW23341   4.163   1.289   4.591  0.7808  0.0123 -0.1532
 3903SOL    HW123342   4.104   1.230   4.638 -0.3296  1.1952 -0.0635
 3903SOL    HW223343   4.164   1.370   4.643  2.6774 -1.4214  2.0730
 3904SOL     OW23344   2.534   2.767   1.033  0.5713 -0.1783 -0.5532
 3904SOL    HW123345   2.597   2.837   1.018  1.7415 -0.6567  2.2059
 3904SOL    HW223346   2.451   2.815   1.031  0.8204  0.3120  1.0731
 3905SOL     OW23347   0.403   0.677   8.704  0.7879  0.0496 -0.1264
 3905SOL    HW123348   0.475   0.643   8.757 -0.9143 -0.1275  2.0645
 3905SOL    HW223349   0.360   0.733   8.769  2.4166  0.0158  0.9862
 3906SOL     OW23350   2.738   1.716  12.310  0.4893 -0.0186  0.2799
 3906SOL    HW123351   2.749   1.642  12.370 -1.3472  0.8033  1.6066
 3906SOL    HW223352   2.821   1.763  12.304  0.4034 -0.1673 -2.1358
 3907SOL     OW23353   3.985   4.674  13.241 -0.0655  0.5277  0.3945
 3907SOL    HW123354   4.073   4.695  13.272 -0.4671  0.5222  1.5179
 3907SOL    HW223355   3.985   4.701  13.149 -0.9269 -1.9866 -0.3317
 3908SOL     OW23356   3.393   1.978   5.353 -0.3431  0.0330 -0.0844
 3908SOL    HW123357   3.463   1.975   5.288 -0.2637  0.5956 -0.0268
 3908SOL    HW223358   3.363   2.067   5.332 -0.3458  0.8836  3.5715
 3909SOL     OW23359   0.990   0.218  15.441  0.1300 -0.2963  0.2946
 3909SOL    HW123360   0.949   0.210  15.355 -1.2072 -2.3845  1.1263
 3909SOL    HW223361   0.916   0.254  15.491  0.2043 -0.0416  0.2233
 3910SOL     OW23362   0.968   0.579   0.632  0.4164 -0.0931 -0.2394
 3910SOL    HW123363   1.000   0.640   0.565 -1.0436  3.8197  2.6481
 3910SOL    HW223364   0.917   0.643   0.682  1.7914  0.8912 -0.0872
 3911SOL     OW23365   0.830   1.508   7.429  0.0206 -0.2942  0.4478
 3911SOL    HW123366   0.905   1.503   7.369 -0.8719 -0.5731 -0.6550
 3911SOL    HW223367   0.860   1.574   7.491  0.8042  0.1435 -0.4080
 3912SOL     OW23368   4.115   0.285   8.712  0.3613  0.1912 -0.6705
 3912SOL    HW123369   4.092   0.209   8.658  1.1187 -0.9780  0.6482
 3912SOL    HW223370   4.043   0.281   8.775  0.6996  0.4737 -0.2585
 3913SOL     OW23371   2.261   4.407   5.522  0.6726  0.1352  0.3813
 3913SOL    HW123372   2.245   4.485   5.469 -0.3666 -1.0848 -1.0799
 3913SOL    HW223373   2.173   4.390   5.556 -0.3980  1.0517 -1.9416
 3914SOL     OW23374   3.463   3.089   6.237  0.3134 -0.0375 -0.2591
 3914SOL    HW123375   3.471   2.995   6.250 -1.0133  0.4081  3.6506
 3914SOL    HW223376   3.427   3.099   6.149  0.2874 -0.4421 -0.2951
 3915SOL     OW23377   3.427   0.085   0.093  0.5530 -0.5054  0.6468
 3915SOL    HW123378   3.504   0.134   0.065 -0.7331  0.6531 -0.7810
 3915SOL    HW223379   3.364   0.144   0.134  0.8137  0.4071 -0.2817
 3916SOL     OW23380   1.166   1.377   2.261 -0.6758  0.1382  0.0094
 3916SOL    HW123381   1.217   1.341   2.334 -1.0087 -1.3071 -0.4694
 3916SOL    HW223382   1.167   1.297   2.208  1.1927 -0.5117  1.0173
 3917SOL     OW23383   3.631   2.374   4.446 -0.2283  0.4698 -0.3617
 3917SOL    HW123384   3.705   2.316   4.431  0.1494  0.9310 -0.2677
 3917SOL    HW223385   3.649   2.425   4.525  1.7127 -0.5721 -0.1532
 3918SOL     OW23386   2.016   3.795   7.227 -0.5459 -1.5799 -0.6988
 3918SOL    HW123387   2.000   3.889   7.227 -2.8484 -1.9595  1.9750
 3918SOL    HW223388   2.095   3.792   7.281 -1.6692 -2.8354  0.8885
 3919SOL     OW23389   1.073   2.982  15.240  0.3989 -0.0956  0.5966
 3919SOL    HW123390   1.132   2.969  15.166 -0.3288  1.5557 -0.2720
 3919SOL    HW223391   1.079   3.077  15.245 -0.3746  0.0232 -0.5496
 3920SOL     OW23392   4.644   2.659  17.695  0.3865  0.1927 -0.0033
 3920SOL    HW123393   4.662   2.699   0.030  1.3475 -0.4714  0.0977
 3920SOL    HW223394   4.616   2.570  17.716 -1.3672  0.9337  0.8587
 3921SOL     OW23395   2.681   2.987   0.752 -0.4220  0.0803  0.0978
 3921SOL    HW123396   2.701   2.960   0.841 -2.0922  1.0970  0.7736
 3921SOL    HW223397   2.715   2.915   0.698  0.8273 -0.2249  1.2882
 3922SOL     OW23398   2.564   1.008   2.067 -0.7009 -0.1100 -0.4692
 3922SOL    HW123399   2.581   0.956   1.989 -0.3395 -1.6817  0.6571
 3922SOL    HW223400   2.478   0.982   2.100 -1.1259  1.6006 -0.2282
 3923SOL     OW23401   3.860   1.955   0.737 -0.5018 -0.3912  0.4966
 3923SOL    HW123402   3.882   1.915   0.653  0.2417 -1.0900  1.0156
 3923SOL    HW223403   3.853   1.873   0.787  0.0234 -0.2760  0.7670
 3924SOL     OW23404   2.858   4.306   2.541  0.5341  0.0650  0.0420
 3924SOL    HW123405   2.832   4.219   2.513  1.0218 -0.4144  1.0811
 3924SOL    HW223406   2.941   4.283   2.582 -0.3189 -2.1797  0.4794
 3925SOL     OW23407   4.124   1.912   7.432  0.1346  0.2175 -0.0452
 3925SOL    HW123408   4.196   1.890   7.372  0.6681  0.6838  0.4240
 3925SOL    HW223409   4.067   1.843   7.400  0.5786 -0.7417  1.2689
 3926SOL     OW23410   0.630   0.366   2.261 -0.0534 -0.3841  0.2226
 3926SOL    HW123411   0.574   0.319   2.323 -0.0556 -0.0801  0.4527
 3926SOL    HW223412   0.600   0.456   2.273 -2.2562 -0.8685 -1.5891
 3927SOL     OW23413   3.997   3.052   8.491  0.3784 -0.2271 -0.6572
 3927SOL    HW123414   4.001   3.132   8.543  1.5731  0.1073 -1.2526
 3927SOL    HW223415   3.966   2.989   8.556 -0.6482 -0.1208 -1.0388
 3928SOL     OW23416   1.820   1.514   2.700 -0.1398  0.0066 -0.6108
 3928SOL    HW123417   1.816   1.558   2.615  0.9988  0.1996 -0.5610
 3928SOL    HW223418   1.726   1.513   2.717 -0.5472  1.8604 -2.6631
 3929SOL     OW23419   2.895   3.345   0.841 -0.3895 -0.0610 -0.0017
 3929SOL    HW123420   2.944   3.422   0.810 -0.4893  0.6264  1.5705
 3929SOL    HW223421   2.841   3.323   0.766 -2.5395  1.8431  1.0026
 3930SOL     OW23422   0.843   0.483   5.884  0.2765 -0.1639 -0.1668
 3930SOL    HW123423   0.801   0.473   5.970  2.2618  1.5528  0.9904
 3930SOL    HW223424   0.897   0.560   5.899 -1.3071  0.6855  1.1328
 3931SOL     OW23425   2.518   0.577   9.115 -0.3013 -0.3205 -0.0186
 3931SOL    HW123426   2.602   0.594   9.074  0.6169  0.3357  2.1161
 3931SOL    HW223427   2.506   0.482   9.112 -0.2698 -0.3109 -0.3875
 3932SOL     OW23428   3.494   0.547   5.766 -0.2251 -0.1053 -0.0315
 3932SOL    HW123429   3.493   0.459   5.806 -1.8262  0.4056  1.0308
 3932SOL    HW223430   3.477   0.520   5.676 -0.6282  2.5607 -0.7391
 3933SOL     OW23431   2.405   0.384   2.415  0.1626 -0.6810 -0.1210
 3933SOL    HW123432   2.314   0.358   2.407 -0.4059  1.5829 -1.1261
 3933SOL    HW223433   2.415   0.450   2.346 -1.1837 -0.2992  0.0653
 3934SOL     OW23434   1.576   2.795   7.349  0.1994  0.0739 -0.0948
 3934SOL    HW123435   1.522   2.767   7.276 -0.9856 -0.5003  0.9997
 3934SOL    HW223436   1.588   2.889   7.338 -0.8986  0.0966 -1.0547
 3935SOL     OW23437   0.606   4.449   4.234  0.1339  0.2623 -0.1324
 3935SOL    HW123438   0.570   4.363   4.213  2.7478 -1.5567  2.8476
 3935SOL    HW223439   0.700   4.430   4.230  0.1314  0.2894 -0.3389
 3936SOL     OW23440   1.883   1.779   3.286  0.0317 -0.2541 -0.3582
 3936SOL    HW123441   1.802   1.797   3.335 -0.8069 -0.2800 -1.7321
 3936SOL    HW223442   1.888   1.862   3.238 -0.1022 -1.5650 -2.6535
 3937SOL     OW23443   1.706   0.441  12.810  1.3644  0.4454 -0.1224
 3937SOL    HW123444   1.789   0.484  12.832  1.3793  0.3296  0.0458
 3937SOL    HW223445   1.662   0.490  12.741  0.4342 -0.8380 -0.4173
 3938SOL     OW23446   1.313   3.812   7.109 -0.1724 -0.7179 -0.1246
 3938SOL    HW123447   1.319   3.765   7.192 -3.9170 -0.6228  0.1640
 3938SOL    HW223448   1.220   3.808   7.089 -0.1896 -4.1400  0.5193
 3939SOL     OW23449   2.871   1.671   6.202 -0.2505 -0.0254 -0.5784
 3939SOL    HW123450   2.941   1.628   6.152 -0.1623  0.2326 -0.6776
 3939SOL    HW223451   2.821   1.698   6.125 -1.2298 -1.6094 -0.5090
 3940SOL     OW23452   3.819   3.378   0.908 -0.1774 -0.8303 -0.5233
 3940SOL    HW123453   3.786   3.302   0.955 -0.4266  0.0368  0.6906
 3940SOL    HW223454   3.883   3.335   0.851  1.5570  2.5745 -1.1768
 3941SOL     OW23455   1.047   3.892   4.749 -0.1880 -0.0410  0.3373
 3941SOL    HW123456   1.013   3.867   4.835 -0.5039  0.2725  0.3077
 3941SOL    HW223457   1.091   3.974   4.774 -1.4007  1.2617 -1.7243
 3942SOL     OW23458   0.121   0.015   0.452  0.7231  0.3459 -0.3875
 3942SOL    HW123459   0.054   4.711   0.506 -0.7555  1.8366 -1.0605
 3942SOL    HW223460   0.184   4.689   0.483  1.0912  1.4972  1.2205
 3943SOL     OW23461   0.341   4.387  13.833  0.6170 -0.7081 -0.0624
 3943SOL    HW123462   0.249   4.380  13.859  1.1284  2.6984  2.7308
 3943SOL    HW223463   0.335   4.378  13.738  0.7697 -0.4427 -0.0973
 3944SOL     OW23464   3.274   1.360   5.689 -0.0037 -0.1367  0.1503
 3944SOL    HW123465   3.324   1.377   5.609  2.2100 -0.2695  1.5174
 3944SOL    HW223466   3.328   1.394   5.760  0.4554 -0.1561 -0.1934
 3945SOL     OW23467   1.422   4.017   7.327  0.1466  0.2021  0.2564
 3945SOL    HW123468   1.397   3.977   7.411 -2.4976  3.1786  0.9006
 3945SOL    HW223469   1.449   3.940   7.279  1.0381 -0.2231  1.4389
 3946SOL     OW23470   0.688   2.159  14.994 -0.1084  0.1323  0.6398
 3946SOL    HW123471   0.686   2.063  14.994  0.0269  0.1264 -0.1551
 3946SOL    HW223472   0.772   2.176  14.950 -0.6602 -2.8053 -1.5301
 3947SOL     OW23473   2.029   4.053  12.848 -0.5880 -0.4074 -0.5917
 3947SOL    HW123474   1.987   3.982  12.896 -0.5475 -0.3316 -0.4453
 3947SOL    HW223475   2.112   4.070  12.892 -1.9205  0.3206  1.6065
 3948SOL     OW23476   2.346   0.682   9.556 -0.1329  0.6180  1.3509
 3948SOL    HW123477   2.390   0.761   9.587  2.0409  1.1017 -2.9636
 3948SOL    HW223478   2.271   0.678   9.616 -0.7425  0.3317  0.5726
 3949SOL     OW23479   3.146   1.722   7.152  1.0037 -0.4364 -0.2712
 3949SOL    HW123480   3.104   1.808   7.153  2.1987  0.1556 -1.0942
 3949SOL    HW223481   3.238   1.741   7.135  1.6982 -3.6634 -0.2081
 3950SOL     OW23482   1.829   3.397  16.711 -0.3161 -0.4552  0.1759
 3950SOL    HW123483   1.764   3.447  16.661  1.9024  1.1773 -1.0866
 3950SOL    HW223484   1.888   3.462  16.750 -0.1233 -0.3272 -0.3375
 3951SOL     OW23485   4.651   3.394   9.677  0.9032  0.2014 -0.1339
 3951SOL    HW123486   4.686   3.326   9.734  2.3793  0.5335 -0.6416
 3951SOL    HW223487   4.637   3.348   9.594  0.0724 -1.9148  1.1905
 3952SOL     OW23488   3.154   2.163   3.785 -0.1749  0.2515  0.3817
 3952SOL    HW123489   3.145   2.116   3.867  0.9915 -2.9829 -1.3606
 3952SOL    HW223490   3.099   2.240   3.802  1.6953  1.5962  0.3789
 3953SOL     OW23491   0.751   0.460   6.137  0.2861 -0.1879 -0.7194
 3953SOL    HW123492   0.664   0.478   6.172  0.8904  0.1096  0.6811
 3953SOL    HW223493   0.801   0.437   6.216 -3.0604 -0.2547  1.3454
 3954SOL     OW23494   1.132   2.917   3.607  0.9410  0.0511 -0.1960
 3954SOL    HW123495   1.223   2.901   3.582  1.5645 -0.4665  2.3445
 3954SOL    HW223496   1.078   2.921   3.529  0.4315  2.3372  0.2715
 3955SOL     OW23497   2.851   0.660   5.312 -0.2712 -0.3049  0.0980
 3955SOL    HW123498   2.802   0.684   5.233  0.0652 -0.9664 -0.3175
 3955SOL    HW223499   2.782   0.660   5.377 -0.6587 -2.1098 -0.3200
 3956SOL     OW23500   2.088   1.027  16.199 -0.4701 -0.0206 -0.4594
 3956SOL    HW123501   2.114   0.981  16.279 -1.5617  0.0037 -0.1001
 3956SOL    HW223502   2.118   1.114  16.224  0.9261 -0.6740  0.1413
 3957SOL     OW23503   3.233   0.993   3.521  0.7197 -0.2989  0.5043
 3957SOL    HW123504   3.318   0.969   3.559 -0.1216 -2.0671  1.3308
 3957SOL    HW223505   3.246   0.955   3.434  1.3454  1.2942 -0.0849
 3958SOL     OW23506   1.326   3.736   2.000  0.3205  0.7326  0.4405
 3958SOL    HW123507   1.246   3.688   2.023  1.4349 -1.4170 -0.1068
 3958SOL    HW223508   1.285   3.819   1.978 -1.4202  0.3611  2.2325
 3959SOL     OW23509   2.816   3.378   3.236 -0.6219 -0.0377 -0.1993
 3959SOL    HW123510   2.761   3.325   3.179 -0.9666  0.5624 -0.4241
 3959SOL    HW223511   2.788   3.462   3.200 -0.0321 -0.3998 -1.5163
 3960SOL     OW23512   3.601   4.100  14.080  0.0736 -0.1238 -0.2220
 3960SOL    HW123513   3.602   4.176  14.021  0.0727  0.3509  0.3938
 3960SOL    HW223514   3.597   4.145  14.164 -2.3682 -0.8574  0.0763
 3961SOL     OW23515   0.089   2.262   6.737 -0.4365  0.3864 -0.0680
 3961SOL    HW123516   0.006   2.288   6.695 -0.2684  1.0380  0.0008
 3961SOL    HW223517   0.099   2.173   6.703  1.7572  0.2726  0.9447
 3962SOL     OW23518   3.115   3.911   1.163  0.5500 -0.2333  0.3737
 3962SOL    HW123519   3.165   3.879   1.088  0.9452 -2.0229  1.3735
 3962SOL    HW223520   3.157   3.995   1.182  1.2485 -0.3563 -0.6526
 3963SOL     OW23521   4.679   2.433  10.214 -0.2769  0.0050 -0.3262
 3963SOL    HW123522   4.607   2.464  10.159  0.7791 -0.0230 -1.7241
 3963SOL    HW223523   0.009   2.499  10.197  0.4978 -0.3336  1.5560
 3964SOL     OW23524   3.546   1.030  10.517 -0.8062  0.0515  0.0303
 3964SOL    HW123525   3.497   0.956  10.553  1.1344  0.2835  3.1977
 3964SOL    HW223526   3.634   0.995  10.529 -0.7447 -0.1282 -1.0133
 3965SOL     OW23527   1.788   2.261  10.251  0.1721  0.6206 -0.0481
 3965SOL    HW123528   1.837   2.308  10.320  0.4588 -0.8337  0.7295
 3965SOL    HW223529   1.864   2.220  10.209 -0.0795 -1.5748  1.6956
 3966SOL     OW23530   3.508   3.047   9.022  0.0030  0.6350  0.0051
 3966SOL    HW123531   3.555   3.052   9.105 -1.4977 -1.2733  0.9739
 3966SOL    HW223532   3.417   3.056   9.051 -0.0315  0.3053  0.0016
 3967SOL     OW23533   2.557   4.371   7.695  0.1308 -0.3105  0.5647
 3967SOL    HW123534   2.619   4.301   7.679 -2.9654 -2.5656 -1.4919
 3967SOL    HW223535   2.583   4.441   7.636  2.9858 -1.9044 -0.0337
 3968SOL     OW23536   1.760   2.729  15.499  0.3743 -0.5424  0.3458
 3968SOL    HW123537   1.794   2.807  15.455 -0.7088 -0.4406 -0.3213
 3968SOL    HW223538   1.669   2.756  15.514  0.6833  1.2997 -1.1538
 3969SOL     OW23539   4.003   0.950   4.503  0.9535 -0.1798  0.3240
 3969SOL    HW123540   4.080   0.894   4.496 -1.6232 -3.6410 -0.6121
 3969SOL    HW223541   4.041   1.026   4.458 -0.4241  1.6634  2.2830
 3970SOL     OW23542   1.598   3.134  16.434 -0.1095 -0.4576  0.1384
 3970SOL    HW123543   1.542   3.119  16.357 -0.8574 -0.2035  0.6372
 3970SOL    HW223544   1.669   3.166  16.379  0.7387  0.0699  1.5515
 3971SOL     OW23545   0.794   4.028   1.501 -1.0295 -0.2368  0.1963
 3971SOL    HW123546   0.888   4.016   1.489 -1.1833 -0.8756 -0.3544
 3971SOL    HW223547   0.778   4.118   1.527 -0.0903  0.2641 -1.0020
 3972SOL     OW23548   1.923   0.157   9.325 -0.0315  0.1956  0.4601
 3972SOL    HW123549   1.849   0.189   9.377 -1.2540 -1.2642 -0.3689
 3972SOL    HW223550   1.986   0.228   9.333  0.3801 -0.0075 -0.9768
 3973SOL     OW23551   1.138   4.133   4.820 -0.1817  0.1359  0.0370
 3973SOL    HW123552   1.108   4.220   4.795 -2.0331 -0.0880  1.4604
 3973SOL    HW223553   1.213   4.153   4.876 -0.2509 -0.6638  0.4198
 3974SOL     OW23554   2.441   1.510   8.291  0.1774 -0.4940 -0.2449
 3974SOL    HW123555   2.528   1.509   8.251 -0.5495  2.8184 -1.8933
 3974SOL    HW223556   2.413   1.429   8.248 -0.5518 -1.1875  1.5423
 3975SOL     OW23557   4.266   2.043   5.843  0.2571  0.3299  0.3234
 3975SOL    HW123558   4.260   1.954   5.810 -0.2295  0.6926 -0.5498
 3975SOL    HW223559   4.344   2.029   5.897  3.3203  1.4324 -3.7979
 3976SOL     OW23560   0.856   3.871  10.839  0.2146 -0.1246  0.0131
 3976SOL    HW123561   0.803   3.881  10.919 -0.4765 -2.4215 -0.1573
 3976SOL    HW223562   0.933   3.924  10.861  0.7990 -0.7786 -0.4624
 3977SOL     OW23563   1.431   4.055  14.274  0.5385  0.8828 -0.4164
 3977SOL    HW123564   1.385   4.120  14.327  0.6559 -0.3485  1.1841
 3977SOL    HW223565   1.510   4.107  14.257  0.6726  0.2425 -1.7665
 3978SOL     OW23566   0.482   2.220   1.954 -0.4689 -0.0114 -0.1120
 3978SOL    HW123567   0.397   2.228   1.909 -0.6685  0.6670  0.3918
 3978SOL    HW223568   0.547   2.240   1.887 -1.3573  0.2941 -0.8960
 3979SOL     OW23569   0.105   3.187   2.561 -0.3076 -0.1824  0.5508
 3979SOL    HW123570   0.012   3.187   2.585 -0.0606  2.3559  1.4765
 3979SOL    HW223571   0.147   3.247   2.622  1.1368 -1.6567  1.0027
 3980SOL     OW23572   4.061   1.034   2.796  0.6988 -0.0339  0.5739
 3980SOL    HW123573   4.109   1.115   2.812  0.3095  0.7040 -1.9446
 3980SOL    HW223574   3.976   1.042   2.839 -0.9124  2.2084 -3.0482
 3981SOL     OW23575   2.618   2.478   2.283  0.0090  0.1141  1.4425
 3981SOL    HW123576   2.538   2.511   2.324  0.8508  1.7664  1.7800
 3981SOL    HW223577   2.631   2.393   2.325 -0.5779  0.1720  1.7429
 3982SOL     OW23578   0.356   1.261  11.046 -0.1542 -0.0832 -0.0607
 3982SOL    HW123579   0.360   1.186  10.987 -0.3220 -0.6463  0.6512
 3982SOL    HW223580   0.273   1.294  11.011 -0.5777 -1.1700 -0.0935
 3983SOL     OW23581   2.252   0.708   3.044  0.0364  0.1847 -0.4320
 3983SOL    HW123582   2.213   0.791   3.016  2.5397  1.1957 -0.8355
 3983SOL    HW223583   2.287   0.679   2.960 -0.7011  2.9474 -1.6687
 3984SOL     OW23584   2.115   1.431  13.245 -0.0326  0.2336  0.2254
 3984SOL    HW123585   2.093   1.515  13.205 -3.5708 -0.6867  0.2509
 3984SOL    HW223586   2.056   1.424  13.320  0.7388  1.0711  0.9048
 3985SOL     OW23587   0.765   3.781   6.079 -0.7566  0.4664  0.0092
 3985SOL    HW123588   0.677   3.763   6.112 -1.0268  1.0209 -0.4114
 3985SOL    HW223589   0.784   3.868   6.114 -0.4288  0.2742  0.3071
 3986SOL     OW23590   1.969   4.291   6.458 -0.4079  0.1014 -0.4453
 3986SOL    HW123591   1.897   4.354   6.459 -2.1319 -1.9117  0.0867
 3986SOL    HW223592   2.009   4.294   6.371  0.8010  1.1929  0.1423
 3987SOL     OW23593   4.396   0.540   7.545 -0.0298 -0.3210  0.3104
 3987SOL    HW123594   4.319   0.506   7.500 -0.5343  1.0849  0.1054
 3987SOL    HW223595   4.453   0.463   7.552 -1.4419 -1.6407 -2.6598
 3988SOL     OW23596   4.026   2.906   7.593  0.1240 -0.1827  0.0026
 3988SOL    HW123597   4.022   2.856   7.675  0.4252  1.3081  0.9238
 3988SOL    HW223598   4.014   2.839   7.525 -0.3512 -0.1947  0.0948
 3989SOL     OW23599   4.526   3.973   4.650  0.3761 -0.3581  0.3144
 3989SOL    HW123600   4.544   4.059   4.612 -1.0251 -1.3680 -2.6242
 3989SOL    HW223601   4.611   3.967   4.693  0.4031 -0.4421  0.2499
 3990SOL     OW23602   0.877   3.861   7.838  0.4251  0.2880  0.4602
 3990SOL    HW123603   0.790   3.900   7.834 -0.0274 -0.7471  0.1524
 3990SOL    HW223604   0.904   3.893   7.923  3.4808 -1.5193  0.1673
 3991SOL     OW23605   4.308   3.988  13.190 -0.0961 -0.0107 -0.0629
 3991SOL    HW123606   4.326   3.895  13.180 -1.6530 -0.2403 -0.7262
 3991SOL    HW223607   4.219   3.982  13.225 -0.9255  4.6511 -1.3757
 3992SOL     OW23608   1.434   4.304   8.150  0.4211 -0.0947  0.2989
 3992SOL    HW123609   1.381   4.238   8.105  0.1960 -1.1904  2.1519
 3992SOL    HW223610   1.443   4.373   8.084 -1.9436  0.6214  0.7411
 3993SOL     OW23611   3.247   0.910  17.468  0.2411 -0.0295 -0.0556
 3993SOL    HW123612   3.221   0.882  17.381  2.6502 -0.5695 -0.5919
 3993SOL    HW223613   3.335   0.873  17.475  0.3107 -0.0138 -0.9345
 3994SOL     OW23614   3.943   0.662   6.559 -0.5328 -0.0544  0.1676
 3994SOL    HW123615   3.891   0.710   6.623  0.6174  1.6266 -0.1489
 3994SOL    HW223616   4.031   0.697   6.574 -1.0158  1.1528  0.2036
 3995SOL     OW23617   1.467   2.822   7.720 -0.1246  0.2547  0.1898
 3995SOL    HW123618   1.538   2.878   7.690 -0.4215  0.6072  0.1437
 3995SOL    HW223619   1.432   2.866   7.798 -3.0662  0.2188 -1.1267
 3996SOL     OW23620   4.062   2.962   0.036 -0.0436 -0.2181 -0.1757
 3996SOL    HW123621   4.093   2.878   0.071  0.0120  1.2152  3.2185
 3996SOL    HW223622   4.035   3.009   0.115  2.1476  1.4159 -0.3949
 3997SOL     OW23623   1.733   3.731   6.363  0.7540 -0.5521  0.1269
 3997SOL    HW123624   1.647   3.721   6.403  2.0716  0.8007  3.3035
 3997SOL    HW223625   1.698   3.688   6.285 -0.6629  1.9704 -0.6411
 3998SOL     OW23626   2.619   1.747  16.958  0.4818 -0.0930 -0.8979
 3998SOL    HW123627   2.628   1.782  16.869 -2.1485 -0.8647 -1.4599
 3998SOL    HW223628   2.528   1.718  16.953  0.2617  0.3155  0.7581
 3999SOL     OW23629   3.402   1.241  10.219 -0.6049 -0.5073  0.1419
 3999SOL    HW123630   3.357   1.322  10.243 -1.2699 -0.9962  0.5600
 3999SOL    HW223631   3.343   1.203  10.153 -1.9195 -0.2581  1.1678
 4000SOL     OW23632   1.110   4.201   5.787  0.6629  0.0887 -0.2469
 4000SOL    HW123633   1.070   4.260   5.850  0.7574  0.0691 -0.1690
 4000SOL    HW223634   1.041   4.183   5.722  1.3654  0.4344 -1.0843
 4001SOL     OW23635   1.709   2.536   2.723  0.3987 -0.0769  0.0787
 4001SOL    HW123636   1.683   2.593   2.796  0.3400  2.0036 -1.5704
 4001SOL    HW223637   1.709   2.595   2.647 -0.7735 -1.2078 -0.7946
 4002SOL     OW23638   1.394   1.309   1.532  0.1640 -0.1483  0.0441
 4002SOL    HW123639   1.343   1.241   1.576  0.7405 -1.4860 -1.3660
 4002SOL    HW223640   1.476   1.302   1.581  1.0473  0.0640 -1.3919
 4003SOL     OW23641   0.887   4.505   5.503 -0.2157 -0.6731  0.2167
 4003SOL    HW123642   0.873   4.533   5.412  2.4189 -0.4101 -0.0929
 4003SOL    HW223643   0.972   4.466   5.485 -0.3853 -1.5356  1.2862
 4004SOL     OW23644   2.670   1.282   7.231  0.2134 -0.2940 -0.3065
 4004SOL    HW123645   2.693   1.196   7.195  0.4014 -1.2692  2.1493
 4004SOL    HW223646   2.618   1.320   7.160  0.3294 -0.1914 -0.3357
 4005SOL     OW23647   4.361   0.130  11.674 -0.1567 -0.2618 -0.2903
 4005SOL    HW123648   4.360   0.081  11.757 -0.2541  1.4295  0.7161
 4005SOL    HW223649   4.404   0.212  11.698 -0.7328  0.3070 -1.2296
 4006SOL     OW23650   4.352   3.561   0.139  0.2412 -0.0146 -0.0610
 4006SOL    HW123651   4.304   3.630   0.183 -1.6318 -0.1232 -1.9013
 4006SOL    HW223652   4.385   3.619   0.070  0.5445  0.2266  0.2908
 4007SOL     OW23653   1.395   3.027   1.874 -0.8856  0.5304  0.9060
 4007SOL    HW123654   1.459   2.960   1.897 -1.9815 -0.2932  1.5796
 4007SOL    HW223655   1.327   2.963   1.851 -0.2206  0.0114  0.4034
 4008SOL     OW23656   0.638   4.464   3.307  0.4138 -0.3020 -0.1095
 4008SOL    HW123657   0.730   4.487   3.304  0.0843  1.0079 -0.1720
 4008SOL    HW223658   0.646   4.369   3.299 -0.1747 -0.2456 -1.4517
 4009SOL     OW23659   1.686   3.883   9.295 -0.3344 -0.7961  0.0103
 4009SOL    HW123660   1.639   3.965   9.312 -1.3536 -1.1058 -1.2964
 4009SOL    HW223661   1.706   3.858   9.385 -1.2957 -0.8955  0.1991
 4010SOL     OW23662   1.246   0.813   3.447  0.0999 -0.1515  0.0093
 4010SOL    HW123663   1.262   0.907   3.442  0.6912 -0.4911 -4.1193
 4010SOL    HW223664   1.276   0.782   3.362 -1.3010  0.3675 -0.6707
 4011SOL     OW23665   1.609   0.384  13.051  0.1752 -0.2718 -0.1185
 4011SOL    HW123666   1.518   0.408  13.032  1.1920  1.6517 -2.4114
 4011SOL    HW223667   1.650   0.382  12.965 -2.4258 -0.0477 -1.3651
 4012SOL     OW23668   0.389   1.531  15.753  0.2463 -0.3769 -0.2060
 4012SOL    HW123669   0.480   1.560  15.749  0.2495 -0.1368  1.3816
 4012SOL    HW223670   0.397   1.437  15.737  2.3668 -0.6070  2.2263
 4013SOL     OW23671   2.512   0.068   3.598  0.2445 -0.2661  0.3227
 4013SOL    HW123672   2.587   0.011   3.614  0.0093 -0.3815  0.9990
 4013SOL    HW223673   2.486   0.035   3.512 -0.7863  1.1342  0.1021
 4014SOL     OW23674   4.729   2.821   5.419  0.5345 -0.7173 -0.0649
 4014SOL    HW123675   0.045   2.866   5.484 -1.3240 -1.8902  2.2730
 4014SOL    HW223676   0.047   2.746   5.400  0.4353 -0.0371 -3.1582
 4015SOL     OW23677   2.712   2.083  12.951  0.3201 -0.2435  0.4429
 4015SOL    HW123678   2.621   2.051  12.948  0.4179 -0.4563 -0.1986
 4015SOL    HW223679   2.732   2.084  12.858 -1.1921  0.8139  0.1242
 4016SOL     OW23680   3.287   0.679   7.619 -0.3409 -0.0284 -0.0939
 4016SOL    HW123681   3.263   0.647   7.707 -1.9354  0.2425 -0.4406
 4016SOL    HW223682   3.295   0.773   7.635 -0.1376 -0.3040  1.4290
 4017SOL     OW23683   4.218   3.372   2.890  0.5345  0.3859 -0.0079
 4017SOL    HW123684   4.158   3.377   2.965 -1.2205 -3.0884 -1.1519
 4017SOL    HW223685   4.296   3.421   2.914  1.2863 -1.1442  0.6778
 4018SOL     OW23686   0.509   2.850   8.049  0.0448  0.0243  0.4154
 4018SOL    HW123687   0.494   2.761   8.018 -0.7532  0.9497 -1.8531
 4018SOL    HW223688   0.574   2.885   7.987 -1.0929  1.9554  0.3289
 4019SOL     OW23689   4.663   0.395   2.251 -0.8363 -0.4683  0.4279
 4019SOL    HW123690   4.571   0.377   2.234 -0.8726  1.0229 -0.9173
 4019SOL    HW223691   4.660   0.455   2.326  1.2999 -2.9023  2.4852
 4020SOL     OW23692   3.819   2.124   9.055 -0.0558  0.1342 -0.0702
 4020SOL    HW123693   3.898   2.069   9.057  1.8314  2.8291  0.0531
 4020SOL    HW223694   3.856   2.199   9.102  1.8019 -1.2909  0.7724
 4021SOL     OW23695   4.510   4.273   3.261  0.2052  0.1452 -0.4775
 4021SOL    HW123696   4.442   4.327   3.301  2.0224  1.3643  0.9830
 4021SOL    HW223697   4.577   4.319   3.311 -1.2996  1.1001  0.6684
 4022SOL     OW23698   2.221   4.337   4.248 -0.6527 -0.3637 -0.5878
 4022SOL    HW123699   2.163   4.386   4.305 -3.0599 -1.0218 -2.4940
 4022SOL    HW223700   2.158   4.313   4.180  0.1874 -1.8276 -0.8536
 4023SOL     OW23701   1.262   1.281  14.308  0.1270  0.2624  0.3421
 4023SOL    HW123702   1.202   1.298  14.381 -0.1177  0.3471  0.1186
 4023SOL    HW223703   1.210   1.211  14.269 -0.1539  0.4511  0.3793
 4024SOL     OW23704   2.831   0.073   7.255 -0.0876  0.0494  0.1647
 4024SOL    HW123705   2.749   0.094   7.301 -0.2927 -0.3938  0.0051
 4024SOL    HW223706   2.811   0.110   7.169  2.3859 -0.0787 -0.4492
 4025SOL     OW23707   3.485   1.809   3.557  0.3549 -0.0885 -0.0563
 4025SOL    HW123708   3.398   1.771   3.543 -0.2191  1.5179 -0.7527
 4025SOL    HW223709   3.544   1.741   3.522  2.2211  0.6923  1.5802
 4026SOL     OW23710   1.270   4.060   6.540 -0.2905 -0.7852 -0.0794
 4026SOL    HW123711   1.250   4.083   6.630  0.6136 -1.3340  0.2613
 4026SOL    HW223712   1.365   4.054   6.550  0.0830 -0.5256 -3.3599
 4027SOL     OW23713   3.966   2.684   2.988 -0.5651  0.5915  0.4129
 4027SOL    HW123714   3.941   2.592   2.976  1.4392  0.1518 -0.2927
 4027SOL    HW223715   3.997   2.706   2.900 -1.9485 -0.7576 -0.4260
 4028SOL     OW23716   1.821   3.820   3.388 -0.1109  0.6529  0.5888
 4028SOL    HW123717   1.871   3.844   3.466 -2.2954  2.8369  1.3438
 4028SOL    HW223718   1.885   3.821   3.317 -2.2778 -0.9082 -1.4303
 4029SOL     OW23719   3.280   3.907   0.962 -0.1211  0.2764 -0.0699
 4029SOL    HW123720   3.292   3.822   0.919  0.2534  0.5837 -0.5756
 4029SOL    HW223721   3.368   3.936   0.986  0.5787 -0.4142 -1.7354
 4030SOL     OW23722   1.221   4.422  11.933  0.1472 -0.1878 -0.8088
 4030SOL    HW123723   1.199   4.432  12.026 -2.2272  3.7075 -1.7949
 4030SOL    HW223724   1.244   4.513  11.917 -0.6773  0.1975  0.1714
 4031SOL     OW23725   1.605   4.540  10.023  0.1778 -0.8223  0.5575
 4031SOL    HW123726   1.529   4.508  10.072 -0.2049 -0.0787  0.4430
 4031SOL    HW223727   1.658   4.461  10.009  1.5025  0.4846 -1.7212
 4032SOL     OW23728   3.493   3.608   9.440 -0.5645 -0.0130 -0.2526
 4032SOL    HW123729   3.552   3.533   9.434 -2.2247 -1.0390 -3.4135
 4032SOL    HW223730   3.493   3.628   9.534 -1.7322  0.8675 -0.4404
 4033SOL     OW23731   3.017   4.722  16.823  0.0697 -0.2856 -0.0660
 4033SOL    HW123732   2.980   4.637  16.799  0.3806 -0.3670 -0.2643
 4033SOL    HW223733   3.106   4.716  16.786  0.5609 -2.7222  1.5182
 4034SOL     OW23734   4.363   2.483   1.093 -0.5299 -0.2800  0.4722
 4034SOL    HW123735   4.414   2.431   1.031 -1.4238 -1.0190  0.3615
 4034SOL    HW223736   4.436   2.536   1.123  0.4064 -0.9024 -0.7143
 4035SOL     OW23737   0.745   0.248  17.077 -0.4943 -0.6597 -0.0024
 4035SOL    HW123738   0.793   0.175  17.040 -1.6989 -1.7111  0.4969
 4035SOL    HW223739   0.659   0.238  17.036  0.3053  1.3096 -2.1183
 4036SOL     OW23740   3.915   2.879   7.191 -0.3407  0.0857  0.4571
 4036SOL    HW123741   3.825   2.852   7.210 -0.5344  0.7176  0.4262
 4036SOL    HW223742   3.890   2.933   7.115  0.8265  2.6199  1.8703
 4037SOL     OW23743   4.411   1.169  15.621 -0.3395 -0.0862 -0.6223
 4037SOL    HW123744   4.477   1.206  15.680 -1.6568  1.8786 -0.4003
 4037SOL    HW223745   4.440   1.077  15.628 -0.1477 -0.0331 -0.7121
 4038SOL     OW23746   4.106   0.688   7.928 -0.5640 -0.5363 -0.8012
 4038SOL    HW123747   4.123   0.781   7.944 -0.4874 -1.0498  2.1088
 4038SOL    HW223748   4.119   0.659   8.018  2.1934  0.6532 -0.8275
 4039SOL     OW23749   3.409   0.967   2.502  0.4848  0.2489  0.6145
 4039SOL    HW123750   3.489   1.018   2.489 -0.2941  0.4996 -3.3667
 4039SOL    HW223751   3.351   1.043   2.504  0.6415  0.3978 -0.1737
 4040SOL     OW23752   0.991   2.538   4.340  0.1403  0.3706  0.2085
 4040SOL    HW123753   0.999   2.464   4.279  0.5805 -1.2383  2.2142
 4040SOL    HW223754   1.044   2.603   4.294 -1.3747  1.4893  0.0768
 4041SOL     OW23755   4.171   4.699   7.493  0.0642 -0.2152 -0.2236
 4041SOL    HW123756   4.092   4.731   7.450 -0.2968 -1.5651 -0.5334
 4041SOL    HW223757   4.133   4.623   7.536  0.5036 -0.1231  0.3309
 4042SOL     OW23758   3.316   3.919   6.390 -0.1816 -0.3097  1.0118
 4042SOL    HW123759   3.245   3.858   6.411 -1.5768  0.8682 -0.3126
 4042SOL    HW223760   3.273   4.004   6.395  0.2527 -0.0299 -0.1547
 4043SOL     OW23761   2.985   2.256   1.111  0.1536  0.0126  0.1120
 4043SOL    HW123762   2.895   2.252   1.080 -0.1905  2.3516  0.8656
 4043SOL    HW223763   3.037   2.232   1.033 -0.1033  0.3130 -0.1490
 4044SOL     OW23764   4.291   0.243   3.656 -0.4228 -0.3618 -0.1447
 4044SOL    HW123765   4.202   0.261   3.688  0.1029  0.0122  1.0933
 4044SOL    HW223766   4.322   0.162   3.695 -3.2498 -1.5218 -0.3190
 4045SOL     OW23767   0.446   3.680   7.437  0.2025 -0.2467  0.5039
 4045SOL    HW123768   0.437   3.717   7.349  3.0049 -3.0824 -0.9791
 4045SOL    HW223769   0.444   3.763   7.485  3.1944 -0.3143  0.7749
 4046SOL     OW23770   3.970   3.252   7.502 -0.2123 -0.2394  0.4485
 4046SOL    HW123771   4.051   3.291   7.535 -0.1131  1.2456 -1.5425
 4046SOL    HW223772   4.002   3.164   7.481  0.3881  0.4939 -1.7491
 4047SOL     OW23773   0.999   0.484   7.468 -0.3813 -0.8266 -0.1513
 4047SOL    HW123774   1.014   0.516   7.557  1.5809 -0.7626 -0.4962
 4047SOL    HW223775   1.079   0.435   7.450 -1.6468 -1.5214 -3.7755
 4048SOL     OW23776   2.939   1.195   9.754  0.1420 -0.3191 -0.1632
 4048SOL    HW123777   2.917   1.286   9.772 -1.8505 -1.5775  3.7378
 4048SOL    HW223778   3.029   1.204   9.721  0.4842 -2.7749  0.0674
 4049SOL     OW23779   4.250   0.182  13.724  0.3699 -0.3406 -0.2331
 4049SOL    HW123780   4.278   0.218  13.639 -0.3180  0.5827 -0.0673
 4049SOL    HW223781   4.290   0.244  13.784  1.7181 -2.0193  0.5894
 4050SOL     OW23782   3.079   1.943   2.600 -0.5495 -0.3856 -0.0169
 4050SOL    HW123783   3.014   1.987   2.654 -1.5937 -1.3290 -0.5052
 4050SOL    HW223784   3.122   2.024   2.573  1.0173 -0.0862  3.3820
 4051SOL     OW23785   1.104   0.948  10.948  0.7309 -0.4519  0.1014
 4051SOL    HW123786   1.042   0.919  11.015 -1.1348  3.1434 -0.1090
 4051SOL    HW223787   1.146   0.864  10.927  1.0168 -0.5681  1.1627
 4052SOL     OW23788   0.871   0.790   4.976 -0.1017 -0.2230 -0.6629
 4052SOL    HW123789   0.779   0.777   4.998  0.0370  3.0440  1.8821
 4052SOL    HW223790   0.868   0.747   4.890  0.2004  0.5739 -1.0668
 4053SOL     OW23791   3.881   4.644   4.713  0.0090 -0.2603 -0.4749
 4053SOL    HW123792   3.927   4.565   4.743  0.0897 -0.0268 -0.0009
 4053SOL    HW223793   3.873   4.695   4.793  2.7585 -0.4384 -0.0771
 4054SOL     OW23794   1.701   2.520  10.885  0.4383 -0.2426 -0.2193
 4054SOL    HW123795   1.676   2.481  10.969 -2.3977 -1.7340 -1.7642
 4054SOL    HW223796   1.789   2.553  10.899  0.2462 -0.6042  1.8511
 4055SOL     OW23797   3.964   3.634   4.181 -0.2249  0.2923 -0.3125
 4055SOL    HW123798   4.027   3.648   4.110 -0.2609  2.9892  0.2061
 4055SOL    HW223799   3.889   3.597   4.134  0.1723 -2.4724  1.1788
 4056SOL     OW23800   1.144   3.404   2.837  0.5573  0.2825  0.1574
 4056SOL    HW123801   1.088   3.330   2.862  0.5921 -0.0946 -0.8761
 4056SOL    HW223802   1.088   3.431   2.764 -0.8889 -3.2971 -0.0544
 4057SOL     OW23803   1.313   4.462   3.908 -0.2007 -0.2816 -0.0569
 4057SOL    HW123804   1.388   4.407   3.886 -1.8135 -1.7770 -1.7790
 4057SOL    HW223805   1.343   4.540   3.863  1.3535  0.5351  2.3857
 4058SOL     OW23806   2.353   0.535   1.358  0.2033 -0.3648 -0.0211
 4058SOL    HW123807   2.442   0.537   1.393 -0.2109  1.4176  0.9107
 4058SOL    HW223808   2.306   0.482   1.422 -0.1572  1.3668  1.1632
 4059SOL     OW23809   0.438   3.688   8.917 -0.3042  0.0972 -0.1942
 4059SOL    HW123810   0.429   3.749   8.844 -1.1922  0.1561 -0.0279
 4059SOL    HW223811   0.513   3.734   8.956  0.6206  0.0693 -1.9412
 4060SOL     OW23812   0.627   1.088   7.426  0.3633 -0.1208  0.4454
 4060SOL    HW123813   0.569   1.013   7.434 -1.9626  1.4261 -2.0951
 4060SOL    HW223814   0.569   1.161   7.407  0.3708  0.3760  2.3379
 4061SOL     OW23815   2.938   2.774  17.731 -0.0020 -0.4956 -0.0863
 4061SOL    HW123816   2.890   2.726  17.664  2.1208 -0.3600 -1.7136
 4061SOL    HW223817   2.895   2.858  17.718  0.0262 -0.5684 -0.6197
 4062SOL     OW23818   2.144   1.731   6.666 -0.1852  0.1322  0.4368
 4062SOL    HW123819   2.236   1.721   6.642  0.0968 -0.7828  1.9028
 4062SOL    HW223820   2.100   1.648   6.648  0.0703  0.0802  0.0486
 4063SOL     OW23821   0.500   0.289  12.488 -0.2657 -0.0074 -0.5423
 4063SOL    HW123822   0.580   0.275  12.436  0.3301  0.6675  0.1852
 4063SOL    HW223823   0.461   0.203  12.477  0.6605 -0.4157 -0.6762
 4064SOL     OW23824   4.027   4.230   6.421 -0.1639  0.0327  0.0041
 4064SOL    HW123825   4.047   4.286   6.346  0.3625  1.0432  0.8798
 4064SOL    HW223826   4.111   4.204   6.458  0.0225  1.9681  0.9474
 4065SOL     OW23827   2.405   4.414   0.728 -0.2297  0.3709  0.3545
 4065SOL    HW123828   2.447   4.490   0.687  1.5439 -0.3389  0.8480
 4065SOL    HW223829   2.372   4.461   0.805  0.0236  0.2867  0.5137
 4066SOL     OW23830   2.515   1.765   3.239 -0.1488  0.6292  0.4028
 4066SOL    HW123831   2.547   1.675   3.242 -3.1266 -0.4803 -0.6717
 4066SOL    HW223832   2.572   1.809   3.302  0.9379  1.6409 -1.3115
 4067SOL     OW23833   2.232   1.416   4.351 -0.2919 -0.3360  0.3339
 4067SOL    HW123834   2.186   1.452   4.427  1.4945 -0.3791  1.4386
 4067SOL    HW223835   2.231   1.323   4.374  1.0666 -0.6051 -0.7022
 4068SOL     OW23836   0.679   3.197   0.657 -0.3159  0.5911  0.6688
 4068SOL    HW123837   0.711   3.115   0.618  0.0470  1.6574 -1.2749
 4068SOL    HW223838   0.745   3.216   0.724  0.9656  2.6675 -1.1413
 4069SOL     OW23839   0.514   2.220   8.894  0.7903 -0.0278  0.3378
 4069SOL    HW123840   0.493   2.144   8.949 -0.7517  0.3649  0.2878
 4069SOL    HW223841   0.609   2.211   8.891  0.7256 -0.4697 -0.2735
 4070SOL     OW23842   3.965   1.834   1.880 -0.1692  0.3406  0.2122
 4070SOL    HW123843   3.890   1.786   1.845  2.0087 -1.3027 -2.2357
 4070SOL    HW223844   3.917   1.910   1.911 -0.9972  0.4176 -1.2652
 4071SOL     OW23845   4.129   0.523  16.180  0.4103  0.3209  0.0631
 4071SOL    HW123846   4.139   0.458  16.249  2.3309  1.9258  1.3129
 4071SOL    HW223847   4.200   0.507  16.117  1.5255 -3.1668  2.1930
 4072SOL     OW23848   1.387   4.463   0.218 -0.0490 -0.5819  0.0452
 4072SOL    HW123849   1.381   4.378   0.174  0.7644  0.3752 -1.9021
 4072SOL    HW223850   1.355   4.437   0.304 -1.4693 -1.8194 -0.8488
 4073SOL     OW23851   2.136   1.171   7.930  0.0770 -0.1735 -0.4152
 4073SOL    HW123852   2.207   1.236   7.930 -0.5856  0.5528 -0.4146
 4073SOL    HW223853   2.151   1.107   7.999 -0.1061  1.0189  0.7382
 4074SOL     OW23854   3.058   0.603   7.443 -0.4651 -0.0211 -0.1184
 4074SOL    HW123855   3.119   0.572   7.376 -0.8163  0.3321 -0.5947
 4074SOL    HW223856   3.117   0.615   7.517  1.5542 -1.6804 -1.4528
 4075SOL     OW23857   0.166   0.013  12.200 -0.9032 -0.9530  0.0249
 4075SOL    HW123858   0.124   0.033  12.284 -0.5780  1.4951 -0.3976
 4075SOL    HW223859   0.088   4.727  12.149  0.4101 -0.0451 -2.3660
 4076SOL     OW23860   4.138   4.045   6.996  0.1697 -0.6255 -0.1115
 4076SOL    HW123861   4.048   4.076   6.986  0.8468  1.1238 -0.8123
 4076SOL    HW223862   4.171   4.091   6.919  0.2747 -0.6585 -0.0865
 4077SOL     OW23863   3.818   0.385   1.949 -0.1597  0.0601 -0.1352
 4077SOL    HW123864   3.900   0.429   1.928  0.1121 -0.5620 -0.3779
 4077SOL    HW223865   3.779   0.381   1.862  2.0977  1.6959 -1.2200
 4078SOL     OW23866   2.718   2.031   8.501  0.0159 -0.1537  0.0021
 4078SOL    HW123867   2.651   2.001   8.439 -0.0976 -0.1422  0.1203
 4078SOL    HW223868   2.721   1.950   8.553 -1.4494 -0.1896  0.0170
 4079SOL     OW23869   3.930   3.636   6.971  0.2005 -0.1911  0.0909
 4079SOL    HW123870   3.928   3.640   6.875  0.3428  2.3180  0.2157
 4079SOL    HW223871   3.882   3.555   6.990  0.9491 -1.5738 -3.8104
 4080SOL     OW23872   3.675   3.850   6.581 -0.2591 -0.0274  0.4738
 4080SOL    HW123873   3.633   3.792   6.517  1.6432 -2.5650  1.4952
 4080SOL    HW223874   3.697   3.913   6.512 -0.6116  0.6797  1.0130
 4081SOL     OW23875   0.661   4.428   8.278 -0.3021  0.5153  0.2677
 4081SOL    HW123876   0.752   4.411   8.254  0.0658  0.3762  1.7725
 4081SOL    HW223877   0.627   4.338   8.279  2.6570 -0.6012 -1.6982
 4082SOL     OW23878   4.073   0.434   1.488  0.4329  0.4184 -0.8109
 4082SOL    HW123879   3.993   0.461   1.533  2.2219  1.9819  1.4295
 4082SOL    HW223880   4.045   0.465   1.402 -0.1642  3.8021  0.6248
 4083SOL     OW23881   0.618   3.896   9.061 -0.9550 -0.1477 -0.1232
 4083SOL    HW123882   0.581   3.962   9.002 -0.5744  0.6213  0.4920
 4083SOL    HW223883   0.676   3.947   9.119  1.3997 -1.7386 -1.0909
 4084SOL     OW23884   1.232   4.594  10.244 -0.2990  0.1618  0.2633
 4084SOL    HW123885   1.185   4.591  10.327  2.1886  1.4298  1.7404
 4084SOL    HW223886   1.280   4.676  10.260  0.3141  0.1895 -1.7007
 4085SOL     OW23887   2.431   4.714   0.078 -0.3778 -0.4694 -0.0792
 4085SOL    HW123888   2.388   4.629   0.076  0.2965 -0.7648 -2.3051
 4085SOL    HW223889   2.446   4.731  17.734  1.0985  0.7435  0.3660
 4086SOL     OW23890   1.885   0.148   1.227  0.4880 -0.2970 -0.0051
 4086SOL    HW123891   1.892   0.243   1.239 -1.2459 -0.3950  1.5977
 4086SOL    HW223892   1.885   0.139   1.131 -0.1656 -1.4006  0.1059
 4087SOL     OW23893   2.648   3.711   5.624  0.2470 -0.6678 -0.5541
 4087SOL    HW123894   2.671   3.762   5.546  0.8922  0.2229  0.2215
 4087SOL    HW223895   2.611   3.781   5.678  2.0897  0.6189 -0.9317
 4088SOL     OW23896   1.688   0.292   4.827  0.2785 -0.0112  0.3849
 4088SOL    HW123897   1.687   0.333   4.741 -0.5601  0.8746  0.8168
 4088SOL    HW223898   1.595   0.292   4.849 -0.0688  1.7810 -1.1333
 4089SOL     OW23899   3.126   0.502   5.883  0.3225  0.0920  0.1676
 4089SOL    HW123900   3.102   0.502   5.790  1.7228  1.3629 -0.1924
 4089SOL    HW223901   3.082   0.581   5.915 -0.2679 -1.0007  2.0504
 4090SOL     OW23902   0.433   4.668  12.160 -0.2418 -0.1813  0.2207
 4090SOL    HW123903   0.427   4.591  12.103  1.0274 -0.3652  0.3231
 4090SOL    HW223904   0.339   4.679  12.173  0.1286  0.4787  2.3855
 4091SOL     OW23905   4.600   0.592   8.689 -0.5971 -0.0227 -0.1173
 4091SOL    HW123906   4.648   0.574   8.769  2.1852 -2.0880 -2.2367
 4091SOL    HW223907   4.617   0.505   8.651  0.1257  0.6484 -1.3503
 4092SOL     OW23908   3.900   3.091  15.706  0.0310  0.6666 -0.1028
 4092SOL    HW123909   3.897   3.022  15.772  2.9206  0.7780  0.1674
 4092SOL    HW223910   3.977   3.063  15.656  1.0442  0.0265  1.7966
 4093SOL     OW23911   2.497   1.593   4.203  0.7314  0.0096  0.3529
 4093SOL    HW123912   2.568   1.647   4.167  0.5337  0.0185 -0.0264
 4093SOL    HW223913   2.470   1.550   4.122 -0.0861  0.1359  0.5654
 4094SOL     OW23914   3.986   2.148  11.630 -0.3108 -0.3550 -0.3866
 4094SOL    HW123915   3.961   2.114  11.544  1.3079  0.3279 -1.1362
 4094SOL    HW223916   3.983   2.241  11.609  1.4398  0.4040  2.7173
 4095SOL     OW23917   0.037   2.192   1.301  0.2083 -0.0265 -0.1348
 4095SOL    HW123918   0.022   2.140   1.222  0.6055  0.8987 -0.8130
 4095SOL    HW223919   4.688   2.228   1.318 -1.1111 -3.1807 -0.1422
 4096SOL     OW23920   2.191   2.030   8.585 -0.1333  0.0139 -0.3265
 4096SOL    HW123921   2.279   2.017   8.549 -0.4742 -0.2923 -1.0582
 4096SOL    HW223922   2.194   2.122   8.611  1.3625 -0.0556 -0.2541
 4097SOL     OW23923   3.512   2.699   5.149  0.0802  0.6882  0.0541
 4097SOL    HW123924   3.564   2.778   5.161  0.8913  0.3848 -1.5412
 4097SOL    HW223925   3.591   2.645   5.157 -0.4382  0.0193  0.7335
 4098SOL     OW23926   2.031   0.237   1.474  0.4034 -0.2926  1.0886
 4098SOL    HW123927   1.998   0.318   1.435 -0.4747 -0.6537  1.0802
 4098SOL    HW223928   1.974   0.244   1.551 -1.7240 -2.9943 -0.2522
 4099SOL     OW23929   2.544   1.307   1.130  0.3837  0.3559  0.3149
 4099SOL    HW123930   2.503   1.315   1.217 -1.8056  1.5581 -0.8183
 4099SOL    HW223931   2.638   1.304   1.148  0.5474  1.6373 -0.3875
 4100SOL     OW23932   3.183   3.791   0.346  0.3754  0.7726 -0.2505
 4100SOL    HW123933   3.246   3.733   0.388  1.0642  1.8027  0.1467
 4100SOL    HW223934   3.125   3.817   0.417 -0.2417 -0.4431 -0.3144
 4101SOL     OW23935   1.216   2.247   6.338 -0.3224 -0.5798  0.2094
 4101SOL    HW123936   1.199   2.262   6.245  2.0290  2.4042  0.2573
 4101SOL    HW223937   1.130   2.263   6.377 -1.2898  0.9304 -2.5463
 4102SOL     OW23938   4.093   0.765  13.782  0.1350 -0.1411 -0.1484
 4102SOL    HW123939   4.162   0.706  13.752  0.5386 -0.3506  1.1549
 4102SOL    HW223940   4.060   0.811  13.705  0.5836 -0.4339 -0.5159
 4103SOL     OW23941   0.628   4.639   8.546 -0.6110 -0.2282  0.2321
 4103SOL    HW123942   0.615   4.549   8.575 -0.1476 -0.4125 -0.1288
 4103SOL    HW223943   0.587   4.678   8.623  2.9615  0.9394  1.5317
 4104SOL     OW23944   3.904   2.282  10.235 -1.2458  0.6400 -0.1613
 4104SOL    HW123945   3.883   2.231  10.313 -2.3833  0.1922 -0.7605
 4104SOL    HW223946   3.999   2.292  10.242 -1.3096  3.0897 -2.5585
 4105SOL     OW23947   4.682   2.505   6.358  0.0089 -0.2721 -0.0177
 4105SOL    HW123948   4.607   2.523   6.414 -1.1510 -0.1651 -1.5872
 4105SOL    HW223949   4.657   2.419   6.324  0.9517  0.2516 -2.0863
 4106SOL     OW23950   3.107   0.812   2.154  0.2002  0.0922  0.1438
 4106SOL    HW123951   3.182   0.868   2.175  0.5890 -0.1936 -0.4946
 4106SOL    HW223952   3.049   0.837   2.226  0.3007 -1.1603  0.6537
 4107SOL     OW23953   3.325   2.597   4.587  0.1618 -0.1294  0.3707
 4107SOL    HW123954   3.386   2.607   4.514  1.3788  0.9194  1.5181
 4107SOL    HW223955   3.278   2.680   4.575 -2.2350 -1.4389  0.6173
 4108SOL     OW23956   2.204   3.386   3.816  0.1563 -0.3197  0.5646
 4108SOL    HW123957   2.195   3.294   3.791  0.6635 -0.8487  2.3942
 4108SOL    HW223958   2.293   3.402   3.786  0.1980 -0.8155  0.4115
 4109SOL     OW23959   1.028   2.764  17.579 -0.0365 -0.4281 -0.5346
 4109SOL    HW123960   1.121   2.753  17.598  0.3191 -1.1884 -2.6611
 4109SOL    HW223961   1.026   2.727  17.491 -2.3847  1.3479 -1.2184
 4110SOL     OW23962   4.618   2.969  16.536  0.6359  0.0627  0.0729
 4110SOL    HW123963   4.638   2.915  16.459 -1.9727  0.9762 -1.2207
 4110SOL    HW223964   4.683   2.932  16.597  0.2722 -0.1076  0.3564
 4111SOL     OW23965   2.278   3.135   5.113  0.1578 -0.2132 -0.0695
 4111SOL    HW123966   2.275   3.054   5.062  0.9542  1.1181 -2.2193
 4111SOL    HW223967   2.316   3.192   5.047 -1.1702  0.1306 -0.5334
 4112SOL     OW23968   3.066   4.647  17.165  0.3182 -0.1718 -0.1547
 4112SOL    HW123969   3.150   4.603  17.177  0.0494 -0.8973 -0.9701
 4112SOL    HW223970   3.086   4.696  17.086 -0.5589  1.1091  0.4143
 4113SOL     OW23971   2.358   1.124   3.350  0.5971 -0.3203  0.7589
 4113SOL    HW123972   2.446   1.154   3.324  0.7229 -0.5351  0.9441
 4113SOL    HW223973   2.303   1.202   3.353 -0.0987 -0.6778 -1.9943
 4114SOL     OW23974   2.900   1.676   4.638 -0.3438  0.1507  0.2694
 4114SOL    HW123975   2.909   1.658   4.545 -2.3804 -0.4039  0.1904
 4114SOL    HW223976   2.990   1.691   4.667  0.8391 -1.6463 -2.5707
 4115SOL     OW23977   0.961   4.532   4.968  0.2678 -0.2292  0.5232
 4115SOL    HW123978   1.024   4.604   4.964  0.6531 -0.6781 -1.2673
 4115SOL    HW223979   0.897   4.545   4.899  0.5000 -1.6820  0.0338
 4116SOL     OW23980   1.610   0.269   7.410 -0.6325  0.4555  1.1357
 4116SOL    HW123981   1.642   0.340   7.465 -0.9439  1.2858  0.2404
 4116SOL    HW223982   1.687   0.244   7.360 -1.8507  0.4885 -0.7541
 4117SOL     OW23983   2.630   0.812   0.376  0.2457  0.3223 -0.2779
 4117SOL    HW123984   2.682   0.861   0.440 -0.8775  0.4885  0.5051
 4117SOL    HW223985   2.552   0.867   0.383 -1.3669 -2.1369  1.0911
 4118SOL     OW23986   2.452   4.510   3.792 -0.3004 -0.1195  0.3630
 4118SOL    HW123987   2.504   4.451   3.737 -0.8344 -0.6679  0.4411
 4118SOL    HW223988   2.379   4.455   3.823 -0.4050 -0.2059 -0.0378
 4119SOL     OW23989   3.653   2.221   5.662  0.2994 -0.1036 -0.2547
 4119SOL    HW123990   3.610   2.199   5.745 -0.3520  1.3807 -0.1951
 4119SOL    HW223991   3.679   2.135   5.630  1.9877 -0.6931  2.6851
 4120SOL     OW23992   2.414   0.838   3.571  0.2149  0.3354 -0.0182
 4120SOL    HW123993   2.375   0.848   3.484  1.4907 -0.4942 -0.6776
 4120SOL    HW223994   2.468   0.761   3.555 -0.4436 -0.2686  0.6149
 4121SOL     OW23995   0.737   0.072   5.072  0.2264  0.4891  0.2054
 4121SOL    HW123996   0.706   0.161   5.091  0.9650  0.2980  2.3896
 4121SOL    HW223997   0.715   0.055   4.981 -0.0659 -2.2927  0.8109
 4122SOL     OW23998   2.061   3.605   3.393 -0.5148  0.2170 -0.2997
 4122SOL    HW123999   2.025   3.651   3.317  0.1707 -4.4428 -3.4500
 4122SOL    HW224000   1.981   3.573   3.436 -0.6680  0.3326 -0.4989
 4123SOL     OW24001   0.657   1.751  12.795 -0.2602 -0.4483 -0.0156
 4123SOL    HW124002   0.704   1.762  12.712 -0.5014  0.3007 -0.0544
 4123SOL    HW224003   0.684   1.834  12.832  0.1131  0.2354 -1.7953
 4124SOL     OW24004   2.335   3.147   0.853 -0.1484 -0.2533  0.4445
 4124SOL    HW124005   2.272   3.183   0.915 -1.9272 -0.3110 -1.3422
 4124SOL    HW224006   2.371   3.229   0.820  1.6091 -1.3666 -0.4101
 4125SOL     OW24007   3.008   4.036   2.985  0.0636  0.4171 -0.1891
 4125SOL    HW124008   3.002   3.974   2.913 -3.2365  1.3877 -0.7478
 4125SOL    HW224009   3.074   3.987   3.035  2.7509  1.9216 -2.2045
 4126SOL     OW24010   2.366   3.845   7.793  0.1778  0.1427  0.0314
 4126SOL    HW124011   2.341   3.766   7.746  2.1751 -1.6351  1.9854
 4126SOL    HW224012   2.387   3.897   7.715  3.5761 -0.2703  0.6890
 4127SOL     OW24013   0.508   2.206  12.008 -0.0262  0.4369  0.1930
 4127SOL    HW124014   0.577   2.258  12.050  1.6525 -1.1240 -0.6509
 4127SOL    HW224015   0.538   2.206  11.917 -1.2086  0.8341 -0.1984
 4128SOL     OW24016   4.594   3.652   9.342 -0.1531  0.1872 -0.5876
 4128SOL    HW124017   4.575   3.587   9.276 -1.9974 -1.3112  1.4401
 4128SOL    HW224018   4.629   3.731   9.299 -0.7683 -0.0575 -1.5216
 4129SOL     OW24019   2.616   4.643   9.224  0.8644  0.3334 -0.3014
 4129SOL    HW124020   2.552   4.700   9.182  3.4661  1.1975 -3.0862
 4129SOL    HW224021   2.648   4.594   9.148 -0.1243  1.8350 -1.6575
 4130SOL     OW24022   4.671   4.606   8.123  0.0587  0.3036 -0.1945
 4130SOL    HW124023   4.691   4.512   8.129  1.8980  0.6043 -1.8287
 4130SOL    HW224024   4.620   4.609   8.042 -0.2296 -3.0315 -0.1577
 4131SOL     OW24025   0.639   2.857  11.263 -0.6404 -0.1087 -0.2595
 4131SOL    HW124026   0.568   2.803  11.229  0.3059 -2.6392  1.7356
 4131SOL    HW224027   0.633   2.935  11.207 -0.1971 -1.5406 -2.3104
 4132SOL     OW24028   1.319   0.136   2.492 -0.0385 -0.0340  0.2616
 4132SOL    HW124029   1.328   0.231   2.501 -0.8413 -0.1024  1.8355
 4132SOL    HW224030   1.398   0.109   2.540 -0.8446 -2.6415  0.0688
 4133SOL     OW24031   4.398   0.175   9.504  0.6014  0.4417 -0.2436
 4133SOL    HW124032   4.457   0.160   9.578 -0.3214 -2.9508 -0.2037
 4133SOL    HW224033   4.317   0.132   9.531  1.9058 -2.6245 -1.2479
 4134SOL     OW24034   0.729   1.491   2.542  0.1989  0.8268  0.5166
 4134SOL    HW124035   0.822   1.491   2.562  0.4821 -0.7425 -0.7694
 4134SOL    HW224036   0.697   1.481   2.632 -0.2319 -0.3607  0.2309
 4135SOL     OW24037   2.256   3.004   6.340  0.1218  0.2321  0.0213
 4135SOL    HW124038   2.197   3.078   6.354 -0.1481 -0.0337  0.3118
 4135SOL    HW224039   2.220   2.983   6.254 -0.4093 -2.2458  0.8396
 4136SOL     OW24040   4.324   4.428  13.411  0.2759 -0.0148  0.1811
 4136SOL    HW124041   4.389   4.484  13.453  0.0352 -0.6155  1.3618
 4136SOL    HW224042   4.286   4.396  13.493  0.5015  0.7249  0.5730
 4137SOL     OW24043   3.401   0.808   6.310  0.0261 -0.6540 -0.0528
 4137SOL    HW124044   3.468   0.853   6.361 -0.6929 -0.9084  1.1041
 4137SOL    HW224045   3.342   0.883   6.308  0.1770 -0.5173  0.5317
 4138SOL     OW24046   0.702   2.230   8.062  0.3708 -0.7115  0.2696
 4138SOL    HW124047   0.744   2.296   8.006 -2.1147  1.8107  1.3272
 4138SOL    HW224048   0.677   2.175   7.988  1.3681 -3.1547  1.7847
 4139SOL     OW24049   0.169   0.190   4.182  0.7159 -0.1995 -0.4426
 4139SOL    HW124050   0.234   0.199   4.251 -0.1750 -0.0625  0.3780
 4139SOL    HW224051   0.230   0.159   4.115  1.6369  1.2637 -0.2837
 4140SOL     OW24052   1.182   2.524   2.812  0.6252  0.2321 -0.6790
 4140SOL    HW124053   1.237   2.517   2.890 -0.2462  1.4073  0.0191
 4140SOL    HW224054   1.219   2.447   2.768 -3.5846 -0.3246 -3.2176
 4141SOL     OW24055   4.372   3.373   8.861 -0.4157  0.3577 -0.2778
 4141SOL    HW124056   4.464   3.370   8.835 -0.9681 -0.2156 -2.1706
 4141SOL    HW224057   4.338   3.447   8.811 -0.1033  1.4304  1.1057
 4142SOL     OW24058   3.264   4.109  16.464  0.1844 -0.0897  0.0859
 4142SOL    HW124059   3.209   4.185  16.483 -0.1866 -0.7203  1.5299
 4142SOL    HW224060   3.199   4.043  16.440 -0.3785  1.9032 -3.7566
 4143SOL     OW24061   2.549   0.553   9.799 -0.0901 -0.3053 -0.2839
 4143SOL    HW124062   2.595   0.636   9.811  0.5222 -0.6544 -0.1849
 4143SOL    HW224063   2.560   0.536   9.706 -3.4460  1.1710 -0.9310
 4144SOL     OW24064   0.583   2.812  12.130 -0.1276  0.1417  1.0861
 4144SOL    HW124065   0.639   2.739  12.157 -1.6702 -1.4255  0.0815
 4144SOL    HW224066   0.518   2.797  12.199 -1.4513  0.3587 -0.1045
 4145SOL     OW24067   2.586   2.041   7.712 -0.8877 -0.3410 -0.3449
 4145SOL    HW124068   2.678   2.035   7.688 -1.0198  1.9040 -1.5210
 4145SOL    HW224069   2.592   2.088   7.795  0.5405  0.2530 -0.7827
 4146SOL     OW24070   0.472   0.388   8.562 -0.0326  0.6790 -0.0370
 4146SOL    HW124071   0.479   0.330   8.487 -1.4133  0.9567 -0.4007
 4146SOL    HW224072   0.403   0.444   8.526 -1.1009 -1.3028 -1.0595
 4147SOL     OW24073   0.334   2.794   4.713 -0.2242  0.2920  0.1428
 4147SOL    HW124074   0.341   2.759   4.802  0.0862  1.6852  0.6701
 4147SOL    HW224075   0.419   2.839   4.708 -0.7924  1.1310 -1.7931
 4148SOL     OW24076   3.844   1.682  12.240 -0.4580  0.5541 -0.5926
 4148SOL    HW124077   3.925   1.732  12.241 -0.9566  1.3703 -0.6603
 4148SOL    HW224078   3.767   1.739  12.250 -0.6763  0.0599  0.4726
 4149SOL     OW24079   3.912   1.440  15.218 -0.2826 -0.2757 -0.0662
 4149SOL    HW124080   3.846   1.403  15.276  1.6234 -0.0322  2.2625
 4149SOL    HW224081   3.916   1.533  15.238 -0.1770  0.1738 -2.1857
 4150SOL     OW24082   1.900   4.032   1.091  0.5195  0.4643 -0.2891
 4150SOL    HW124083   1.894   4.115   1.139 -1.3829 -0.0731  0.3829
 4150SOL    HW224084   1.964   3.983   1.142  0.3749 -0.5896 -1.1242
 4151SOL     OW24085   3.414   0.080   5.039  0.2073  0.0527 -0.2349
 4151SOL    HW124086   3.322   0.108   5.036  0.6024  1.5632  1.7713
 4151SOL    HW224087   3.452   0.159   5.000  0.0894  0.7778  1.0896
 4152SOL     OW24088   0.100   2.757   7.140  0.4676 -0.0167  0.0689
 4152SOL    HW124089   0.184   2.770   7.185  0.6409  0.3509 -0.3644
 4152SOL    HW224090   0.132   2.682   7.089  0.4119  0.3734 -0.5375
 4153SOL     OW24091   0.077   4.306  12.606 -0.0804 -0.0224 -0.0517
 4153SOL    HW124092   0.171   4.321  12.593 -0.0974 -0.7474 -0.9582
 4153SOL    HW224093   0.077   4.229  12.663  1.7285 -2.2157 -3.0575
 4154SOL     OW24094   0.765   2.083   8.613 -0.2257  0.1173 -0.4481
 4154SOL    HW124095   0.788   2.130   8.694 -0.7656 -0.9212  0.3107
 4154SOL    HW224096   0.836   2.117   8.558 -0.4076  0.0314 -0.7356
 4155SOL     OW24097   1.816   0.637   3.330  0.0324  0.2869  0.3013
 4155SOL    HW124098   1.734   0.661   3.288  1.5207 -0.2092 -2.8783
 4155SOL    HW224099   1.872   0.623   3.254  1.9381  0.8359  1.5884
 4156SOL     OW24100   3.957   2.395   1.079  0.1405  0.7020 -0.1715
 4156SOL    HW124101   3.997   2.451   1.145  1.1117  0.5875 -0.6653
 4156SOL    HW224102   4.005   2.433   1.005  0.9751  0.6222  0.3315
 4157SOL     OW24103   1.173   2.832   2.949 -0.2895  0.2336 -0.4238
 4157SOL    HW124104   1.236   2.895   2.984 -1.0098  0.3104  0.7176
 4157SOL    HW224105   1.201   2.839   2.858  0.0021  1.3499 -0.2456
 4158SOL     OW24106   2.494   3.636   4.555  0.4701  1.0147  0.4397
 4158SOL    HW124107   2.578   3.592   4.563  0.4726  0.8609 -0.4322
 4158SOL    HW224108   2.490   3.690   4.634  1.4249  1.0016  0.4946
 4159SOL     OW24109   0.256   1.722   8.760  0.8961 -0.2408  0.7282
 4159SOL    HW124110   0.277   1.810   8.728  0.7774  0.2958  2.1150
 4159SOL    HW224111   0.240   1.678   8.677  1.6235  0.0470  0.4403
 4160SOL     OW24112   2.922   4.052   6.432 -0.0485  0.4763  0.2140
 4160SOL    HW124113   2.953   4.065   6.522  2.7205 -1.7948 -0.4088
 4160SOL    HW224114   3.007   4.030   6.393 -0.2331  2.0081 -1.0441
 4161SOL     OW24115   3.054   0.294   7.584  0.3559  0.3014  0.1012
 4161SOL    HW124116   3.008   0.211   7.594 -1.2524  1.1292 -0.3975
 4161SOL    HW224117   3.039   0.315   7.491 -0.3516 -1.1540 -0.1076
 4162SOL     OW24118   3.053   1.818   6.326  0.1983  0.2839 -0.0492
 4162SOL    HW124119   3.016   1.737   6.292 -0.5222  0.4223  0.4068
 4162SOL    HW224120   3.025   1.878   6.256 -0.3960  0.6611  0.5110
 4163SOL     OW24121   0.867   3.607   1.189  0.0929 -0.6591 -0.2731
 4163SOL    HW124122   0.852   3.547   1.262  2.0144  0.1347  0.7700
 4163SOL    HW224123   0.777   3.626   1.163 -0.4678 -0.1180  2.0760
 4164SOL     OW24124   1.059   0.559   3.307 -0.3668 -0.1390 -0.1216
 4164SOL    HW124125   1.044   0.537   3.398 -2.0663  0.3388 -0.2842
 4164SOL    HW224126   0.983   0.616   3.297 -0.1939  0.0355 -0.4530
 4165SOL     OW24127   2.077   1.701   3.033  0.3646 -0.3846  0.4567
 4165SOL    HW124128   2.153   1.735   3.080 -0.0059  0.5531  0.3725
 4165SOL    HW224129   2.015   1.673   3.100 -1.4980  0.8640 -0.7570
 4166SOL     OW24130   1.290   1.323   8.857 -0.0194 -0.2025  0.1012
 4166SOL    HW124131   1.246   1.253   8.809  1.7000  0.2484 -2.1539
 4166SOL    HW224132   1.284   1.394   8.793 -0.2425 -1.6074 -1.4316
 4167SOL     OW24133   2.376   2.051   3.810  0.1727  0.3100 -0.2336
 4167SOL    HW124134   2.445   2.074   3.872 -0.0411  1.5932 -0.4669
 4167SOL    HW224135   2.308   2.051   3.878  1.5801 -1.0743  1.1959
 4168SOL     OW24136   1.293   1.522   5.510 -0.2133 -0.4285 -0.2133
 4168SOL    HW124137   1.269   1.588   5.444 -1.2033 -1.4878 -0.9094
 4168SOL    HW224138   1.370   1.482   5.471 -1.1662 -1.7011 -0.7724
 4169SOL     OW24139   1.795   4.255   2.293  0.2408 -0.5392 -0.1671
 4169SOL    HW124140   1.720   4.195   2.295 -0.4611  0.3550  0.1817
 4169SOL    HW224141   1.762   4.325   2.349  2.5217  1.6802 -1.6272
 4170SOL     OW24142   2.645   3.261   3.053  0.1152 -0.2693  0.1319
 4170SOL    HW124143   2.639   3.167   3.040  0.6986 -0.2402 -0.3072
 4170SOL    HW224144   2.557   3.280   3.021  0.1518  0.5552  0.5112
 4171SOL     OW24145   1.069   4.052   3.089 -0.4835 -0.6915  0.0866
 4171SOL    HW124146   1.119   4.047   3.171 -0.0002  2.1649 -0.0229
 4171SOL    HW224147   1.107   3.969   3.059  1.8918  0.1779  0.7014
 4172SOL     OW24148   1.286   1.474  13.316  0.1632 -0.2741  0.1437
 4172SOL    HW124149   1.373   1.480  13.355  0.4457  0.7423 -0.6670
 4172SOL    HW224150   1.301   1.542  13.251  2.5909 -0.4519  0.5460
 4173SOL     OW24151   4.190   4.312  13.624 -0.8635  0.2352  0.4099
 4173SOL    HW124152   4.199   4.223  13.657  3.4186 -0.2625 -2.1633
 4173SOL    HW224153   4.140   4.288  13.546 -0.5329 -1.2737  0.6737
 4174SOL     OW24154   2.489   1.562   4.648 -0.3753  0.2039  0.0430
 4174SOL    HW124155   2.543   1.635   4.676  0.7577 -0.4932 -0.3262
 4174SOL    HW224156   2.422   1.602   4.593  0.6459  0.0132 -1.3383
 4175SOL     OW24157   2.949   1.504   0.585 -0.1901 -0.0291  0.2938
 4175SOL    HW124158   2.857   1.492   0.607 -0.8248  0.9004 -1.9029
 4175SOL    HW224159   2.948   1.599   0.580 -1.7662 -0.1097 -0.7480
 4176SOL     OW24160   1.253   1.538   8.366 -0.2004 -0.3864  0.0548
 4176SOL    HW124161   1.243   1.530   8.461 -0.7924 -1.9251 -0.1353
 4176SOL    HW224162   1.343   1.570   8.361  0.3545 -2.1909 -1.3603
 4177SOL     OW24163   0.427   2.029  16.805  0.2014  0.3315 -0.1148
 4177SOL    HW124164   0.390   2.013  16.892  0.9430  0.8258  0.2897
 4177SOL    HW224165   0.504   1.974  16.814  0.1039  0.1206 -0.5633
 4178SOL     OW24166   2.115   2.652   2.649 -0.3385  0.0002  0.2994
 4178SOL    HW124167   2.114   2.745   2.627 -0.3829  0.1425  0.9040
 4178SOL    HW224168   2.132   2.659   2.743 -2.5801  0.2175  0.7043
 4179SOL     OW24169   1.232   4.226   6.791  0.0840 -0.1299  0.0856
 4179SOL    HW124170   1.175   4.176   6.849  0.7150  1.5312  2.1565
 4179SOL    HW224171   1.303   4.250   6.851 -0.0011  1.9810 -0.6296
 4180SOL     OW24172   0.255   3.619   6.980 -0.4025 -0.6869  0.1623
 4180SOL    HW124173   0.164   3.649   6.974 -1.2202 -2.9233  1.3000
 4180SOL    HW224174   0.310   3.697   6.989  0.4531 -1.1589 -0.9350
 4181SOL     OW24175   4.274   2.699   7.251 -0.6237  0.3038 -0.5875
 4181SOL    HW124176   4.203   2.687   7.188 -1.1224  0.5879 -0.0827
 4181SOL    HW224177   4.285   2.794   7.253 -0.9652  0.3601 -1.2216
 4182SOL     OW24178   0.987   0.001  16.646 -0.3006 -0.1532 -0.2501
 4182SOL    HW124179   1.049   4.691  16.591 -0.6585 -1.7842  0.7835
 4182SOL    HW224180   0.999   0.092  16.617  1.5910 -0.0919  0.6954
 4183SOL     OW24181   4.243   0.898   8.121 -0.3274  0.4741 -0.1992
 4183SOL    HW124182   4.160   0.931   8.087 -0.8370 -2.5317 -1.8980
 4183SOL    HW224183   4.271   0.972   8.174 -2.6107  2.4696 -1.7872
 4184SOL     OW24184   2.953   4.023   8.297 -0.7047 -0.2365  0.7612
 4184SOL    HW124185   2.973   4.006   8.205  0.9728 -0.9887  1.2673
 4184SOL    HW224186   3.009   3.964   8.348  1.0103 -0.1070 -0.9626
 4185SOL     OW24187   2.304   1.973   5.545 -0.1417  0.3649  0.3059
 4185SOL    HW124188   2.282   2.062   5.517 -0.8889 -1.0081 -3.3491
 4185SOL    HW224189   2.377   1.991   5.605  1.4791 -0.0612 -1.5577
 4186SOL     OW24190   1.965   3.327   2.187  0.4130 -0.1922 -0.1903
 4186SOL    HW124191   1.901   3.361   2.125  1.2658  0.5428 -0.6790
 4186SOL    HW224192   2.046   3.320   2.135  0.6293 -1.7042  0.3401
 4187SOL     OW24193   0.850   0.754   3.284  0.5559 -0.2208 -0.0084
 4187SOL    HW124194   0.756   0.769   3.286  0.3810 -1.4314  0.5039
 4187SOL    HW224195   0.876   0.803   3.362  0.1453  2.7040 -1.6987
 4188SOL     OW24196   4.439   4.565   4.459  0.1765  0.1530  0.4043
 4188SOL    HW124197   4.473   4.492   4.406  3.2766  2.0465 -0.2361
 4188SOL    HW224198   4.374   4.516   4.510  0.7516 -0.4153  0.5993
 4189SOL     OW24199   1.694   3.047  15.587  0.3649 -0.0101  0.1048
 4189SOL    HW124200   1.731   2.993  15.656  0.0894 -0.8376 -0.3910
 4189SOL    HW224201   1.675   3.125  15.638 -4.2595 -1.4322  0.5981
 4190SOL     OW24202   2.683   1.524   8.180  0.0828  0.2189  0.6284
 4190SOL    HW124203   2.714   1.450   8.128 -0.3180  0.4612  0.0348
 4190SOL    HW224204   2.676   1.585   8.106  0.6285  1.1441  1.3443
 4191SOL     OW24205   4.728   0.718   5.104 -0.1976 -0.2422 -0.0229
 4191SOL    HW124206   0.072   0.696   5.149 -0.3186  1.6162  1.1106
 4191SOL    HW224207   0.027   0.757   5.025 -0.7207  0.2227 -0.0388
 4192SOL     OW24208   1.853   2.911   4.275 -0.0352  0.3195 -0.2910
 4192SOL    HW124209   1.876   2.986   4.220  0.6568 -0.5686 -1.2305
 4192SOL    HW224210   1.765   2.899   4.238 -0.0344 -2.0179  0.4651
 4193SOL     OW24211   2.373   4.543  11.658 -0.4160  0.0690  0.6849
 4193SOL    HW124212   2.408   4.596  11.586 -0.0272 -0.9908  0.0914
 4193SOL    HW224213   2.319   4.606  11.705  0.7007  1.2068  0.4554
 4194SOL     OW24214   0.628   3.667   9.202  0.0216  0.1137 -0.5848
 4194SOL    HW124215   0.639   3.740   9.142 -1.5217  0.8924  0.0760
 4194SOL    HW224216   0.535   3.687   9.215 -0.1186 -1.0187  0.2738
 4195SOL     OW24217   0.428   2.487   4.267 -0.0898 -0.0972  0.1835
 4195SOL    HW124218   0.471   2.453   4.188 -0.5176  2.0044 -0.9326
 4195SOL    HW224219   0.378   2.560   4.232  5.1025  3.8821  1.0972
 4196SOL     OW24220   3.901   4.252   7.598  0.1971 -0.7125 -0.5473
 4196SOL    HW124221   3.857   4.260   7.514  1.4369  2.0253 -0.9345
 4196SOL    HW224222   3.849   4.196   7.657  1.1014 -0.7358  0.2400
 4197SOL     OW24223   4.615   3.548  13.363  0.6161  0.1400 -0.3902
 4197SOL    HW124224   4.667   3.511  13.435  2.0546  0.3697 -1.3057
 4197SOL    HW224225   4.666   3.522  13.286  0.7637  0.9882 -0.5835
 4198SOL     OW24226   4.078   4.065   3.477  0.1410  0.6762 -0.1794
 4198SOL    HW124227   4.134   4.123   3.529 -0.4558 -0.3730  1.6138
 4198SOL    HW224228   4.053   4.003   3.545  2.1249  0.8738  0.7273
 4199SOL     OW24229   2.741   1.014   2.983 -0.0654 -0.3534  0.0785
 4199SOL    HW124230   2.800   1.071   3.033 -1.3281  0.9988  0.0103
 4199SOL    HW224231   2.771   1.045   2.898 -4.1597 -2.5570 -2.1533
 4200SOL     OW24232   3.712   0.508   3.205  0.2296  0.1917 -0.2578
 4200SOL    HW124233   3.772   0.437   3.185 -1.4982 -1.3444  0.0973
 4200SOL    HW224234   3.758   0.585   3.241 -1.2213  0.1487  1.6939
 4201SOL     OW24235   1.774   1.667   4.832  0.4044  0.1982 -0.1286
 4201SOL    HW124236   1.759   1.759   4.851  1.6368 -0.0303  2.0023
 4201SOL    HW224237   1.699   1.648   4.774 -0.2510  0.7422  0.5378
 4202SOL     OW24238   2.602   1.959   5.809 -0.2340  0.0840  0.1732
 4202SOL    HW124239   2.625   1.978   5.718 -3.7794  0.2570 -0.6853
 4202SOL    HW224240   2.510   1.987   5.816 -0.2446  0.3713 -1.0384
 4203SOL     OW24241   3.787   2.946   1.961  0.4513 -0.1609  0.3325
 4203SOL    HW124242   3.700   2.918   1.932  0.3109 -2.3698  2.8288
 4203SOL    HW224243   3.840   2.922   1.885 -0.2541 -2.7273  0.6635
 4204SOL     OW24244   2.491   2.703   4.056 -0.4701  0.3387 -0.7090
 4204SOL    HW124245   2.529   2.770   4.000  1.7207  0.1990  0.6394
 4204SOL    HW224246   2.423   2.668   3.998 -0.1230  0.8141 -1.3985
 4205SOL     OW24247   2.982   3.062   9.160  0.1500 -0.4124  0.4560
 4205SOL    HW124248   2.906   3.117   9.141  0.1230 -0.9146 -0.9407
 4205SOL    HW224249   3.022   3.064   9.073 -0.1496 -1.1002  0.3023
 4206SOL     OW24250   2.829   4.075   1.007  0.6527  0.0794  0.3599
 4206SOL    HW124251   2.921   4.059   0.989  0.3719 -0.7750 -0.3302
 4206SOL    HW224252   2.801   4.119   0.926  1.6303 -0.3597 -0.2126
 4207SOL     OW24253   4.473   2.776  15.356  0.2804  0.0195 -0.7110
 4207SOL    HW124254   4.524   2.732  15.424  0.0043  0.2600 -0.3486
 4207SOL    HW224255   4.410   2.715  15.316 -0.5256 -0.3161  1.0705
 4208SOL     OW24256   1.280   1.655   6.586  0.5275  0.3197 -0.2478
 4208SOL    HW124257   1.202   1.629   6.635  1.3262 -1.6307  0.0061
 4208SOL    HW224258   1.241   1.705   6.515 -0.8597  1.3979  1.2894
 4209SOL     OW24259   3.201   2.290   7.716  0.6465  0.0791  0.0324
 4209SOL    HW124260   3.252   2.257   7.642 -0.7263  1.3513 -1.5158
 4209SOL    HW224261   3.256   2.360   7.749  1.7038 -0.9911  0.5130
 4210SOL     OW24262   4.535   2.268   1.336 -0.2657 -0.5548 -0.6161
 4210SOL    HW124263   4.465   2.272   1.401  2.0820  1.3874  1.7652
 4210SOL    HW224264   4.484   2.232   1.263 -0.7696  1.5777 -1.3176
 4211SOL     OW24265   0.490   0.941   6.384 -0.2110 -0.7264 -0.6313
 4211SOL    HW124266   0.511   1.021   6.336  1.1038  0.6310  2.2191
 4211SOL    HW224267   0.404   0.922   6.346 -0.1762  0.4436 -1.2948
 4212SOL     OW24268   4.310   3.542   2.030 -0.6234  0.2039  0.2205
 4212SOL    HW124269   4.304   3.447   2.041 -0.2433  0.4474  2.5929
 4212SOL    HW224270   4.338   3.580   2.114 -0.3563 -0.5707  0.4776
 4213SOL     OW24271   0.523   1.849   2.757 -0.3599 -0.1647  0.1581
 4213SOL    HW124272   0.570   1.851   2.841 -0.2510 -0.4798  0.1052
 4213SOL    HW224273   0.482   1.762   2.759 -0.2452 -0.2541 -1.7756
 4214SOL     OW24274   3.939   0.184   2.386 -0.1353  0.2022  0.4877
 4214SOL    HW124275   4.018   0.224   2.422  0.7961 -1.6376  0.4893
 4214SOL    HW224276   3.961   0.168   2.294  1.0840  0.5112  0.7173
 4215SOL     OW24277   2.068   1.098   9.319  0.2515 -0.2827 -0.1679
 4215SOL    HW124278   1.995   1.044   9.289 -0.1620 -0.6564  1.5549
 4215SOL    HW224279   2.114   1.119   9.237 -2.3249  0.7276 -1.3508
 4216SOL     OW24280   1.169   2.283   3.481  0.3575  0.2235  0.2071
 4216SOL    HW124281   1.208   2.363   3.515  1.4264 -0.7756  1.3276
 4216SOL    HW224282   1.249   2.230   3.478 -1.6295 -2.7679  0.0935
 4217SOL     OW24283   3.378   4.531   4.929  0.1434 -0.3792  0.1847
 4217SOL    HW124284   3.462   4.485   4.933  0.8724  1.1009  1.7203
 4217SOL    HW224285   3.405   4.614   4.967  0.7372 -0.2621 -0.4780
 4218SOL     OW24286   2.266   2.406   0.915  0.7665  0.0071 -0.0279
 4218SOL    HW124287   2.236   2.470   0.851 -0.8905 -0.5293  0.2161
 4218SOL    HW224288   2.188   2.353   0.929  1.0036 -0.5378 -0.7756
 4219SOL     OW24289   0.749   1.925   9.121 -0.5476  0.1598  0.0640
 4219SOL    HW124290   0.753   1.881   9.037 -0.2626  0.7959 -0.2562
 4219SOL    HW224291   0.778   1.859   9.185  2.8342  0.7928 -0.7849
 4220SOL     OW24292   2.553   1.675  16.538 -0.2374  0.7875  0.0520
 4220SOL    HW124293   2.572   1.665  16.445  1.1012 -2.7020  0.6937
 4220SOL    HW224294   2.643   1.670  16.568 -0.5963  0.1264  1.0073
 4221SOL     OW24295   1.192   1.824  11.387 -0.1255 -0.6250 -0.0153
 4221SOL    HW124296   1.222   1.854  11.301  2.2785 -0.7367  0.7724
 4221SOL    HW224297   1.147   1.742  11.366 -1.3772  0.4487 -1.4910
 4222SOL     OW24298   3.649   4.606   2.283 -0.3548 -0.4477 -0.0839
 4222SOL    HW124299   3.700   4.650   2.351 -1.1229 -1.1617  0.9452
 4222SOL    HW224300   3.562   4.646   2.292  1.1042  2.7530 -0.1373
 4223SOL     OW24301   4.206   3.770  15.452 -0.0390 -0.1261 -0.3788
 4223SOL    HW124302   4.254   3.689  15.434 -0.5998 -0.8844  1.6434
 4223SOL    HW224303   4.181   3.760  15.543 -0.3892 -0.1356 -0.4760
 4224SOL     OW24304   0.593   2.275   9.651 -0.3104 -0.7682  0.1897
 4224SOL    HW124305   0.618   2.326   9.573 -0.4515  0.0069  0.6480
 4224SOL    HW224306   0.508   2.241   9.622 -1.3093  1.7573  0.1472
 4225SOL     OW24307   1.683   2.429   3.963 -0.0504 -0.3541  0.2296
 4225SOL    HW124308   1.756   2.376   3.998  0.9127  0.5847 -0.3724
 4225SOL    HW224309   1.621   2.358   3.943 -1.2065  0.5937  0.4705
 4226SOL     OW24310   1.606   1.644  11.129  0.9900  0.2891 -0.2535
 4226SOL    HW124311   1.596   1.550  11.113  0.5971  0.3603 -0.4126
 4226SOL    HW224312   1.654   1.681  11.055  1.5433 -0.1512 -0.1127
 4227SOL     OW24313   4.226   2.432   4.385 -0.3449 -0.5658  0.1204
 4227SOL    HW124314   4.255   2.412   4.296  0.4583 -0.4310  0.3489
 4227SOL    HW224315   4.198   2.342   4.405 -2.0108 -0.5698 -2.2238
 4228SOL     OW24316   3.572   3.080   3.998  0.3939 -0.1904  0.5212
 4228SOL    HW124317   3.490   3.094   3.951  0.6607 -1.1815 -0.2405
 4228SOL    HW224318   3.630   3.054   3.926 -0.0552  2.7984 -0.8808
 4229SOL     OW24319   4.500   3.929  12.949  0.1344  0.2161 -0.0531
 4229SOL    HW124320   4.459   3.985  13.015 -0.8752 -1.1411  0.4591
 4229SOL    HW224321   4.549   3.866  13.003  0.1635  0.3207  0.0430
 4230SOL     OW24322   0.696   1.798   2.247 -0.3334 -0.2917  0.2407
 4230SOL    HW124323   0.691   1.878   2.194 -0.4277 -0.2619  0.2957
 4230SOL    HW224324   0.634   1.741   2.200 -1.2018  1.9554 -1.3513
 4231SOL     OW24325   3.752   2.421   6.728 -0.3043 -0.2678 -0.3416
 4231SOL    HW124326   3.750   2.353   6.795 -1.5970 -1.0270 -1.1558
 4231SOL    HW224327   3.796   2.496   6.769  2.5301 -2.9411  1.4547
 4232SOL     OW24328   0.548   0.074   0.827 -0.7663  0.9119  0.0076
 4232SOL    HW124329   0.462   0.111   0.845 -0.4491  1.2785  0.7737
 4232SOL    HW224330   0.574   0.110   0.742 -2.3160  2.3539  0.1630
 4233SOL     OW24331   3.390   1.982   0.980 -0.0998 -0.2519 -0.0928
 4233SOL    HW124332   3.453   2.000   0.910 -0.4019 -1.0993 -0.5789
 4233SOL    HW224333   3.305   1.998   0.939  0.7168  1.8920 -0.9685
 4234SOL     OW24334   0.207   0.824   2.351  0.7166  0.1188 -0.0094
 4234SOL    HW124335   0.291   0.851   2.312  1.1313 -0.8560  0.1984
 4234SOL    HW224336   0.194   0.900   2.408  0.9326  0.7527 -0.8064
 4235SOL     OW24337   2.316   2.665   4.775 -0.6802  0.0689  0.8655
 4235SOL    HW124338   2.412   2.669   4.778 -0.6619 -0.0132  0.3804
 4235SOL    HW224339   2.302   2.692   4.684 -1.9392  2.6790  1.8314
 4236SOL     OW24340   0.308   4.605   8.436  0.0105 -0.0247 -0.4006
 4236SOL    HW124341   0.349   4.557   8.508 -0.5181  1.5776  0.9432
 4236SOL    HW224342   0.297   4.691   8.476  0.2597 -0.5277  0.7459
 4237SOL     OW24343   4.593   0.831   6.202  0.3975 -0.1255  0.6324
 4237SOL    HW124344   4.568   0.793   6.118  1.0603 -0.0653  0.4033
 4237SOL    HW224345   4.514   0.836   6.255 -0.6473 -2.0595 -0.7482
 4238SOL     OW24346   4.135   2.046   1.538 -0.0113 -0.1869  0.4651
 4238SOL    HW124347   4.154   1.993   1.615  1.3893 -1.3830 -0.7136
 4238SOL    HW224348   4.078   1.978   1.502  0.5019 -1.4188  1.9855
 4239SOL     OW24349   4.276   4.468   5.435 -0.0342  0.3610  0.3038
 4239SOL    HW124350   4.314   4.431   5.355 -2.1588 -0.2375 -0.4401
 4239SOL    HW224351   4.354   4.463   5.490  0.6760  2.9106 -0.4929
 4240SOL     OW24352   4.509   1.307   3.279 -0.0189  0.1078  0.3183
 4240SOL    HW124353   4.554   1.296   3.362  0.8503 -1.4970 -0.3585
 4240SOL    HW224354   4.442   1.238   3.283 -1.0740  1.1615  0.9237
 4241SOL     OW24355   1.408   4.632  10.839  0.1020 -0.2420  0.2698
 4241SOL    HW124356   1.483   4.689  10.855 -1.0868  1.2260  0.6890
 4241SOL    HW224357   1.362   4.650  10.921  2.0165  1.0294  1.0611
 4242SOL     OW24358   3.537   2.928   2.253 -0.3340  0.3123  0.2196
 4242SOL    HW124359   3.571   2.847   2.291  2.5309  1.9648  1.1857
 4242SOL    HW224360   3.488   2.896   2.177 -1.6526  0.6111  0.9453
 4243SOL     OW24361   3.783   1.627   7.041 -0.0104 -0.1570  0.1047
 4243SOL    HW124362   3.764   1.591   7.128  0.4211  0.2366  0.3600
 4243SOL    HW224363   3.872   1.660   7.052  0.3715 -0.7113 -1.2973
 4244SOL     OW24364   2.475   3.523  14.692 -0.0224 -0.0491  0.0932
 4244SOL    HW124365   2.426   3.441  14.683 -0.0103 -0.2356  1.7314
 4244SOL    HW224366   2.512   3.528  14.604 -0.8565  1.3072 -0.1842
 4245SOL     OW24367   3.026   2.611   6.865 -0.1040 -0.6107 -0.0861
 4245SOL    HW124368   2.975   2.545   6.914  0.7531  0.0140  1.6359
 4245SOL    HW224369   2.961   2.635   6.799 -2.0384 -1.2779  1.5600
 4246SOL     OW24370   0.703   2.326   7.150 -0.3279  0.1243  0.6745
 4246SOL    HW124371   0.669   2.237   7.153  0.4526 -0.1645  1.0265
 4246SOL    HW224372   0.667   2.351   7.064  1.8059  1.1060  0.0716
 4247SOL     OW24373   3.402   1.574   7.263 -0.1966  0.9177  0.0205
 4247SOL    HW124374   3.368   1.518   7.193  1.4504  2.1701 -1.7906
 4247SOL    HW224375   3.478   1.614   7.221  0.3254  0.3468  0.4198
 4248SOL     OW24376   4.606   4.443   1.712  0.5384  0.1834  0.1494
 4248SOL    HW124377   4.575   4.357   1.683  0.5872  0.0888  0.3835
 4248SOL    HW224378   4.666   4.454   1.638 -1.2498  0.4193 -1.2840
 4249SOL     OW24379   1.238   2.199   8.653 -0.5041 -0.4196  0.7021
 4249SOL    HW124380   1.179   2.272   8.634 -0.1549 -0.1369  0.7161
 4249SOL    HW224381   1.168   2.134   8.664 -1.8842  1.0073  0.3472
 4250SOL     OW24382   1.306   4.254   9.261 -0.2158 -0.3613 -0.0184
 4250SOL    HW124383   1.310   4.334   9.313  0.5749  0.7350 -1.7633
 4250SOL    HW224384   1.221   4.248   9.219 -1.1504  0.4664  1.7614
 4251SOL     OW24385   4.412   2.815  12.712  0.2197  0.1398 -0.1957
 4251SOL    HW124386   4.385   2.880  12.647  0.4532  1.7815  1.3577
 4251SOL    HW224387   4.506   2.812  12.699  0.3313 -0.7931  0.9094
 4252SOL     OW24388   1.042   1.822   2.964  0.1755  0.4288  0.4040
 4252SOL    HW124389   0.948   1.806   2.963  0.1882  0.4616 -1.4449
 4252SOL    HW224390   1.054   1.843   2.871  1.8410 -4.1238 -0.4458
 4253SOL     OW24391   0.906   4.600   8.722  0.1199  0.4410 -0.1565
 4253SOL    HW124392   0.840   4.666   8.700  0.4456  1.2248  1.2602
 4253SOL    HW224393   0.874   4.578   8.809 -1.5211  0.1189 -0.8247
 4254SOL     OW24394   2.306   0.388  12.155 -0.1859  0.3884  0.1423
 4254SOL    HW124395   2.309   0.313  12.215  0.4607  1.2878  1.2233
 4254SOL    HW224396   2.396   0.419  12.150 -0.4005  1.1004  0.6941
 4255SOL     OW24397   2.490   0.224   3.084  0.0989 -0.7727 -0.0495
 4255SOL    HW124398   2.523   0.230   2.994  1.3802  1.6320  0.5583
 4255SOL    HW224399   2.572   0.189   3.120  0.1129  0.1340  0.8044
 4256SOL     OW24400   0.501   2.571   7.895  0.4642 -0.6930  0.2846
 4256SOL    HW124401   0.483   2.585   7.802 -0.0938  0.4151  0.5567
 4256SOL    HW224402   0.580   2.520   7.910 -0.2330 -1.1594  2.3403
 4257SOL     OW24403   2.869   0.344   5.248  0.2362  0.2064  0.2611
 4257SOL    HW124404   2.939   0.404   5.273 -0.2225  1.0425 -0.4699
 4257SOL    HW224405   2.799   0.367   5.309 -0.0057 -0.1258  0.1073
 4258SOL     OW24406   4.707   2.563  14.830  0.0347 -0.1027 -0.7754
 4258SOL    HW124407   0.017   2.482  14.848 -1.7653 -1.2966 -1.3370
 4258SOL    HW224408   4.691   2.556  14.735  1.0867 -1.1289 -0.8661
 4259SOL     OW24409   2.386   1.883   9.473  0.6184 -0.3657  0.1474
 4259SOL    HW124410   2.325   1.953   9.498 -1.6145 -2.2010 -0.1931
 4259SOL    HW224411   2.448   1.915   9.407 -1.2418  0.2206 -1.3431
 4260SOL     OW24412   3.715   1.268   2.721  0.3804  0.1148 -0.0608
 4260SOL    HW124413   3.781   1.336   2.726 -0.2206  0.7778 -1.2975
 4260SOL    HW224414   3.735   1.228   2.806  0.5630 -2.4653 -1.3141
 4261SOL     OW24415   0.120   4.604   7.893 -0.2095  0.3167  0.2003
 4261SOL    HW124416   0.095   4.596   7.985  1.1704 -0.1451  0.5375
 4261SOL    HW224417   0.209   4.637   7.897  0.8125 -2.0407 -3.0857
 4262SOL     OW24418   0.178   2.471   4.051  0.3576  0.1626  0.0706
 4262SOL    HW124419   0.085   2.491   4.039  0.8578  2.7743  0.5177
 4262SOL    HW224420   0.194   2.555   4.093 -0.7643 -1.3793  3.6267
 4263SOL     OW24421   1.327   2.457   3.684  0.2507 -0.3245 -0.0318
 4263SOL    HW124422   1.398   2.499   3.636  0.2466 -1.9856 -1.4964
 4263SOL    HW224423   1.270   2.526   3.718  1.5448 -0.2833  2.0098
 4264SOL     OW24424   2.060   1.831   1.757  0.2993 -0.0009 -0.0437
 4264SOL    HW124425   2.049   1.838   1.852  1.4159 -0.8493  0.1537
 4264SOL    HW224426   2.108   1.913   1.749 -0.6655  0.5029 -0.7403
 4265SOL     OW24427   4.258   4.400   4.610 -0.5252 -0.0461  0.3998
 4265SOL    HW124428   4.179   4.351   4.632 -1.6846  2.4027  1.7383
 4265SOL    HW224429   4.303   4.344   4.547  2.6418  0.9375  1.7716
 4266SOL     OW24430   4.306   1.281   3.859  0.3348  0.4116 -0.0548
 4266SOL    HW124431   4.400   1.265   3.861  0.6061  2.0211 -0.1439
 4266SOL    HW224432   4.282   1.272   3.951 -1.9535  0.2357 -0.6421
 4267SOL     OW24433   3.326   1.418   7.054 -0.0212  0.0961  0.1535
 4267SOL    HW124434   3.416   1.417   7.020 -0.7600  2.3135 -1.8724
 4267SOL    HW224435   3.317   1.328   7.021  0.4069  1.2003 -2.9297
 4268SOL     OW24436   3.264   3.711   9.213  0.4851 -0.9622 -0.2276
 4268SOL    HW124437   3.246   3.631   9.262  0.1778 -1.0932 -0.5627
 4268SOL    HW224438   3.249   3.768   9.289 -1.1075  1.4657 -2.3660
 4269SOL     OW24439   0.450   3.512   5.352 -0.2561  0.1581  0.1238
 4269SOL    HW124440   0.487   3.527   5.439 -2.5550  2.6191  0.6729
 4269SOL    HW224441   0.529   3.473   5.314 -0.6266 -0.2500 -0.2344
 4270SOL     OW24442   3.252   3.649  17.599 -0.1157 -0.1856 -0.5009
 4270SOL    HW124443   3.278   3.573  17.651 -0.1049 -0.6976 -1.2658
 4270SOL    HW224444   3.287   3.730  17.636 -0.3836 -0.4690  0.3648
 4271SOL     OW24445   1.740   3.268   6.235  0.2413  0.4399 -0.1209
 4271SOL    HW124446   1.657   3.240   6.274  1.0851 -2.1843 -0.1573
 4271SOL    HW224447   1.771   3.186   6.194 -1.2702  0.0628 -0.5070
 4272SOL     OW24448   1.778   0.953   6.238  0.4633  0.3968  0.2595
 4272SOL    HW124449   1.704   0.894   6.253  0.5229  0.5256  1.0431
 4272SOL    HW224450   1.836   0.899   6.292  0.8779 -0.2778 -0.8400
 4273SOL     OW24451   3.034   0.921  12.570 -0.6365 -0.1001 -0.3392
 4273SOL    HW124452   3.028   1.011  12.603  0.5074 -0.0907 -0.1702
 4273SOL    HW224453   3.088   0.932  12.491  1.3753  2.9967  1.4699
 4274SOL     OW24454   4.345   2.558  15.573 -0.3990  0.7371  0.5296
 4274SOL    HW124455   4.307   2.560  15.486  1.8814 -1.4210 -0.5141
 4274SOL    HW224456   4.391   2.474  15.575  0.5147  1.2197 -0.1790
 4275SOL     OW24457   3.987   1.770   4.238 -0.2281  0.5826 -0.1778
 4275SOL    HW124458   3.953   1.803   4.155 -1.4442  0.8949  0.4388
 4275SOL    HW224459   4.060   1.718   4.206  0.5216 -0.0258  2.5620
 4276SOL     OW24460   2.599   1.118   5.534  0.2441 -0.0082  0.0159
 4276SOL    HW124461   2.679   1.106   5.483 -0.6080  0.2170 -1.3637
 4276SOL    HW224462   2.576   1.032   5.571 -2.4794  0.8987  0.3906
 4277SOL     OW24463   0.068   3.855   4.718 -0.0252 -0.5206  0.2152
 4277SOL    HW124464   0.015   3.803   4.778 -0.1721  0.3181  0.8013
 4277SOL    HW224465   0.089   3.791   4.650 -1.4135  1.1874 -1.7984
 4278SOL     OW24466   2.979   1.400   7.387 -0.0425  0.0570 -0.2417
 4278SOL    HW124467   3.032   1.378   7.310 -0.7386 -0.2412 -0.6318
 4278SOL    HW224468   3.046   1.406   7.456 -0.7674  0.0085  0.4751
 4279SOL     OW24469   1.234   2.474   7.298  0.2813 -0.0360  0.0896
 4279SOL    HW124470   1.320   2.509   7.320  0.9059  0.0454 -2.5809
 4279SOL    HW224471   1.253   2.402   7.238  0.1738  1.3568 -1.6001
 4280SOL     OW24472   4.146   4.185  17.096  0.5928 -0.5833  0.1318
 4280SOL    HW124473   4.119   4.101  17.060  0.7148 -0.6195  0.1228
 4280SOL    HW224474   4.064   4.231  17.077  2.2488  1.9752 -0.8573
 4281SOL     OW24475   4.446   1.987   7.046 -0.3398 -0.1671  0.2139
 4281SOL    HW124476   4.532   1.968   7.084  0.0826  0.5891 -0.3762
 4281SOL    HW224477   4.410   1.900   7.027  0.7933 -0.8430  1.1229
 4282SOL     OW24478   2.350   4.168  10.055  0.9662  0.0422  0.8177
 4282SOL    HW124479   2.371   4.090  10.107 -1.4324  0.1072  1.9001
 4282SOL    HW224480   2.405   4.234  10.098  0.0401  1.0114  0.5120
 4283SOL     OW24481   3.155   1.457   9.545  0.4169  0.1391 -0.6014
 4283SOL    HW124482   3.234   1.498   9.511 -0.2753  0.9753 -1.2054
 4283SOL    HW224483   3.118   1.426   9.462 -1.2395  0.4613  0.0089
 4284SOL     OW24484   1.722   4.542   8.235 -0.2913 -0.7792  0.2168
 4284SOL    HW124485   1.751   4.481   8.303  2.1657  1.7158  1.4348
 4284SOL    HW224486   1.692   4.612   8.293 -2.1740 -1.5175  0.1443
 4285SOL     OW24487   0.794   3.586   3.585  0.3556  0.7277 -0.2219
 4285SOL    HW124488   0.741   3.627   3.654 -0.1104 -0.0327 -0.1261
 4285SOL    HW224489   0.732   3.596   3.512  0.5259 -0.7017 -0.5537
 4286SOL     OW24490   1.739   0.510   8.661  0.4857  0.1724 -0.1018
 4286SOL    HW124491   1.782   0.562   8.729 -2.9377 -0.8418  2.8728
 4286SOL    HW224492   1.814   0.470   8.618 -0.1701 -2.1648  0.9509
 4287SOL     OW24493   3.511   0.315   7.006 -0.3542 -0.9301  0.0447
 4287SOL    HW124494   3.554   0.380   6.950  0.9116 -2.7965 -1.1350
 4287SOL    HW224495   3.551   0.324   7.093  0.2777 -0.5148 -0.2906
 4288SOL     OW24496   0.253   1.030   5.896  0.0915 -0.4472 -0.2593
 4288SOL    HW124497   0.223   1.121   5.905  0.5070 -0.3308 -0.0601
 4288SOL    HW224498   0.190   0.990   5.956 -1.2589 -0.9376 -2.0113
 4289SOL     OW24499   4.414   1.316   5.800 -0.1588 -0.0041 -0.0070
 4289SOL    HW124500   4.338   1.353   5.756  0.2352  0.0178 -0.6730
 4289SOL    HW224501   4.473   1.297   5.727  0.3992 -1.1538  0.7442
 4290SOL     OW24502   0.971   3.985   6.762  0.4833  0.5118 -0.3797
 4290SOL    HW124503   0.896   4.012   6.815 -0.4688 -1.7552 -0.5586
 4290SOL    HW224504   1.049   4.005   6.814  0.5089  1.2434 -0.6954
 4291SOL     OW24505   1.973   0.761  11.580 -0.4299 -0.4183 -0.4314
 4291SOL    HW124506   1.900   0.824  11.578 -2.2192 -2.5134 -1.1956
 4291SOL    HW224507   2.018   0.781  11.499 -0.5378 -2.2730 -0.9368
 4292SOL     OW24508   2.289   4.371   1.888 -0.2597 -0.9667  0.2630
 4292SOL    HW124509   2.305   4.447   1.944 -0.7351 -2.5317  2.5115
 4292SOL    HW224510   2.207   4.388   1.842  0.4196 -0.0891 -0.6211
 4293SOL     OW24511   1.876   0.912  15.841  0.2726 -1.0922 -0.4332
 4293SOL    HW124512   1.966   0.912  15.873 -0.2935 -4.1114  1.1381
 4293SOL    HW224513   1.838   0.890  15.925  4.1456 -3.1567  0.7853
 4294SOL     OW24514   2.105   4.387  11.389  0.0458 -0.0632 -0.2434
 4294SOL    HW124515   2.152   4.330  11.450  0.8433  0.0114 -0.7798
 4294SOL    HW224516   2.142   4.474  11.401  1.1776 -0.7131  1.0330
 4295SOL     OW24517   1.205   0.011  13.887  0.3419  0.0886  0.1053
 4295SOL    HW124518   1.228   0.024  13.979  1.3052 -2.4986  0.2139
 4295SOL    HW224519   1.136   4.683  13.891 -0.9444  1.3531 -1.0624
 4296SOL     OW24520   1.413   4.140   4.644 -0.3854 -0.7822  0.4115
 4296SOL    HW124521   1.457   4.137   4.729  0.5909  1.0658 -0.0057
 4296SOL    HW224522   1.470   4.091   4.586  1.2453  1.2214  0.3031
 4297SOL     OW24523   2.802   3.787   0.219  0.2171  0.8038  0.3624
 4297SOL    HW124524   2.745   3.850   0.174  0.4038 -0.5880 -1.8631
 4297SOL    HW224525   2.757   3.775   0.303  2.0765  0.2392  1.2738
 4298SOL     OW24526   0.249   4.547   1.432 -0.5248 -0.3797 -0.5387
 4298SOL    HW124527   0.274   4.634   1.401  0.2681 -0.1536  0.7378
 4298SOL    HW224528   0.292   4.497   1.363  0.9800 -0.0262  0.1676
 4299SOL     OW24529   2.386   2.722   6.146 -0.5277 -0.3486 -0.6020
 4299SOL    HW124530   2.308   2.713   6.202 -0.0185  2.0790  0.4919
 4299SOL    HW224531   2.461   2.705   6.202 -0.9058  1.5954  0.5045
 4300SOL     OW24532   0.089   4.330  13.469 -0.1659  0.3219 -0.0927
 4300SOL    HW124533   0.051   4.352  13.384  0.4405 -1.4738 -0.8260
 4300SOL    HW224534   0.034   4.255  13.490 -0.0096  0.0502 -0.6557
 4301SOL     OW24535   4.038   4.099   3.786  0.3529 -0.2339 -0.4542
 4301SOL    HW124536   4.018   4.092   3.879 -1.1501 -1.4731 -0.8657
 4301SOL    HW224537   3.976   4.168   3.764  0.2732 -0.2032 -0.1228
 4302SOL     OW24538   4.347   1.479  16.601  0.0670 -0.5766 -0.2254
 4302SOL    HW124539   4.304   1.553  16.559 -0.3288 -1.4556 -1.3480
 4302SOL    HW224540   4.283   1.409  16.587 -1.7525  1.1611 -0.6079
 4303SOL     OW24541   1.728   4.295   6.088  0.1266 -0.7690 -0.2959
 4303SOL    HW124542   1.667   4.319   6.158 -2.2646 -1.7096 -2.0510
 4303SOL    HW224543   1.780   4.375   6.083 -2.0936  0.7626  1.3533
 4304SOL     OW24544   0.357   0.143   9.754 -0.3799 -0.1645 -0.5199
 4304SOL    HW124545   0.371   0.053   9.784  0.8056  0.8145  1.8871
 4304SOL    HW224546   0.263   0.146   9.771 -0.0941 -0.7111  1.1903
 4305SOL     OW24547   4.335   3.016  10.450 -0.0031 -0.0167 -0.4894
 4305SOL    HW124548   4.334   2.948  10.383  0.6143  1.8443 -2.4051
 4305SOL    HW224549   4.369   2.971  10.527 -1.4973 -1.2886 -0.5824
 4306SOL     OW24550   2.363   4.118   1.326  0.2090  0.2825  1.0826
 4306SOL    HW124551   2.441   4.074   1.362  1.2409  0.3939 -1.0276
 4306SOL    HW224552   2.328   4.039   1.284 -1.7107  1.9529 -0.4273
 4307SOL     OW24553   2.608   1.498   3.268 -0.1239  0.3896  0.5924
 4307SOL    HW124554   2.641   1.439   3.336 -0.3877  1.6275  1.7866
 4307SOL    HW224555   2.555   1.450   3.204  1.3409 -0.9855  0.3930
 4308SOL     OW24556   4.030   1.964   9.074  0.1755  0.0712 -0.0686
 4308SOL    HW124557   4.042   1.893   9.011 -1.0694  0.0164 -0.2405
 4308SOL    HW224558   4.118   1.998   9.091 -0.6787  2.3803 -0.2625
 4309SOL     OW24559   1.686   1.105   6.821  0.2013 -0.5531 -0.1214
 4309SOL    HW124560   1.601   1.104   6.778  0.1099  1.4315 -0.0002
 4309SOL    HW224561   1.669   1.058   6.902 -0.3906 -0.4386 -0.1825
 4310SOL     OW24562   2.959   3.815  16.305 -0.1728 -0.2424 -0.6356
 4310SOL    HW124563   3.042   3.801  16.349 -1.1633  0.6453  1.5287
 4310SOL    HW224564   2.958   3.911  16.309  2.9185 -0.3035  1.5118
 4311SOL     OW24565   4.423   0.487  10.167  0.2329  0.2816 -0.4640
 4311SOL    HW124566   4.344   0.535  10.190 -0.2290 -1.2654  1.2574
 4311SOL    HW224567   4.429   0.533  10.084 -2.6091  2.0554  0.3134
 4312SOL     OW24568   3.346   1.410   2.086 -0.1811  0.3122  0.3162
 4312SOL    HW124569   3.283   1.370   2.147 -0.8703  1.0751  0.1046
 4312SOL    HW224570   3.290   1.474   2.043  0.5663  0.3800 -0.5587
 4313SOL     OW24571   1.575   1.900   8.164 -0.1183 -0.4604 -0.0772
 4313SOL    HW124572   1.566   1.956   8.242  0.7051 -1.5720  0.8189
 4313SOL    HW224573   1.514   1.942   8.103 -1.5027 -0.7886  1.0778
 4314SOL     OW24574   3.388   0.187   3.880 -0.5333  0.4527 -0.3863
 4314SOL    HW124575   3.468   0.212   3.924 -0.1582 -2.2067  0.4220
 4314SOL    HW224576   3.342   0.269   3.862  2.3247  1.6235 -2.3909
 4315SOL     OW24577   4.360   1.858  16.276 -0.1316 -0.5358 -0.4090
 4315SOL    HW124578   4.297   1.910  16.225  0.2397 -1.9344 -2.2702
 4315SOL    HW224579   4.444   1.891  16.243 -0.3291  0.2236 -0.1655
 4316SOL     OW24580   2.884   3.572  13.991  0.2321  0.0611 -0.4064
 4316SOL    HW124581   2.833   3.605  13.916  0.5257  1.2751 -0.0792
 4316SOL    HW224582   2.894   3.484  13.955  3.2088 -0.2363  1.1241
 4317SOL     OW24583   3.333   1.296   4.181  0.5726  0.2481  0.1511
 4317SOL    HW124584   3.258   1.270   4.233  1.5004 -2.8335 -0.0723
 4317SOL    HW224585   3.399   1.254   4.237  0.0557 -1.2695 -0.3907
 4318SOL     OW24586   1.622   2.131   9.121  0.5298 -0.3652  0.4980
 4318SOL    HW124587   1.659   2.051   9.158 -1.3570 -1.8480 -0.8668
 4318SOL    HW224588   1.692   2.197   9.129  1.1774 -1.1705  1.5985
 4319SOL     OW24589   4.483   1.840   9.772  0.5263  0.3842  0.2687
 4319SOL    HW124590   4.556   1.900   9.791  1.1432 -0.4233  0.4648
 4319SOL    HW224591   4.430   1.900   9.720  0.4737 -1.3115 -1.5760
 4320SOL     OW24592   4.482   3.162   7.684 -0.2787 -0.1823 -0.4803
 4320SOL    HW124593   4.487   3.195   7.594  0.2691  0.6456 -0.1444
 4320SOL    HW224594   4.393   3.128   7.694 -0.0259 -0.6773  0.0558
 4321SOL     OW24595   4.275   0.483   9.423  0.2123 -0.8786  0.5198
 4321SOL    HW124596   4.322   0.403   9.449 -0.3041 -1.5486 -0.6331
 4321SOL    HW224597   4.319   0.509   9.342 -1.9031  1.5980  0.1745
 4322SOL     OW24598   1.808   1.895   2.089 -0.4573  0.1556  0.0982
 4322SOL    HW124599   1.819   1.881   2.183 -0.2492  0.7618  0.1617
 4322SOL    HW224600   1.713   1.890   2.098 -0.4831 -1.3927 -0.8772
 4323SOL     OW24601   3.194   0.856  16.423  0.4151 -0.1346  0.7440
 4323SOL    HW124602   3.104   0.869  16.452 -1.0139 -1.8541 -2.9206
 4323SOL    HW224603   3.182   0.893  16.336  2.2774  0.6057  0.8202
 4324SOL     OW24604   2.314   1.185  16.752  0.2080 -0.7659 -0.6214
 4324SOL    HW124605   2.327   1.227  16.838 -1.4761 -2.0801  0.2829
 4324SOL    HW224606   2.266   1.105  16.773 -2.8347  1.0705 -0.5317
 4325SOL     OW24607   3.365   1.076  17.243  0.4627  0.0541 -0.0262
 4325SOL    HW124608   3.278   1.114  17.228  0.3953 -0.4309 -0.8871
 4325SOL    HW224609   3.419   1.154  17.229  1.6428 -1.0935 -1.8864
 4326SOL     OW24610   0.965   2.863  15.719 -0.7303  0.6457 -0.6047
 4326SOL    HW124611   0.883   2.815  15.707 -1.1445  1.0299  0.6744
 4326SOL    HW224612   0.953   2.905  15.804  1.0290  0.2811 -0.1869
 4327SOL     OW24613   3.845   2.534   4.871 -0.3532 -0.0769  0.0418
 4327SOL    HW124614   3.873   2.624   4.884 -0.7538 -0.0422  0.6789
 4327SOL    HW224615   3.884   2.503   4.789 -0.0125 -0.7277  0.4574
 4328SOL     OW24616   2.286   4.304   3.889 -0.2256  0.5756  0.1488
 4328SOL    HW124617   2.362   4.250   3.912 -0.6828 -0.4789 -0.8117
 4328SOL    HW224618   2.211   4.288   3.945  0.5470  1.9139  1.5704
 4329SOL     OW24619   3.250   0.429   6.873  0.4066  0.0482  0.1514
 4329SOL    HW124620   3.345   0.420   6.862  0.0123 -1.4280 -2.0148
 4329SOL    HW224621   3.222   0.401   6.786  1.4755  1.3730 -0.6057
 4330SOL     OW24622   0.236   1.766   6.056 -0.0386 -0.5627 -0.0127
 4330SOL    HW124623   0.308   1.821   6.086 -0.2728 -0.5038  0.4301
 4330SOL    HW224624   0.232   1.797   5.965 -1.1018  0.9779  0.5728
 4331SOL     OW24625   4.199   2.203   2.135  0.1215  0.1307  0.4786
 4331SOL    HW124626   4.226   2.127   2.188  0.3460 -1.5523 -2.0756
 4331SOL    HW224627   4.201   2.263   2.209  2.8032  0.0140  0.5012
 4332SOL     OW24628   1.386   0.358   8.301 -0.0368 -0.2686  0.0607
 4332SOL    HW124629   1.317   0.394   8.245 -1.5083  0.4395  2.3546
 4332SOL    HW224630   1.369   0.264   8.301  0.3912 -0.3428 -1.0587
 4333SOL     OW24631   2.904   1.510   8.801 -0.3478  0.9370  0.1740
 4333SOL    HW124632   2.942   1.579   8.745 -1.4614  0.2476 -1.4199
 4333SOL    HW224633   2.987   1.468   8.824 -0.8534 -0.1263  0.0535
 4334SOL     OW24634   0.435   2.878   6.846 -0.1513  0.1386  0.3052
 4334SOL    HW124635   0.413   2.946   6.910 -2.2771 -0.2657  0.0300
 4334SOL    HW224636   0.342   2.856   6.836  0.1103 -0.1476 -1.6083
 4335SOL     OW24637   2.848   0.649   7.277  0.1507  0.1540 -0.1339
 4335SOL    HW124638   2.939   0.637   7.306  0.2230  1.8671  0.3867
 4335SOL    HW224639   2.816   0.562   7.299  2.1536 -0.6273 -0.2573
 4336SOL     OW24640   3.993   4.273   4.510  0.7107  0.2483 -0.0759
 4336SOL    HW124641   3.993   4.189   4.557  0.8061 -1.8240 -3.7762
 4336SOL    HW224642   3.905   4.310   4.522  0.4932  0.0174 -0.9604
 4337SOL     OW24643   0.734   1.135  15.328  0.7820 -0.1938  0.5445
 4337SOL    HW124644   0.792   1.207  15.305  0.7823 -1.2322 -2.7084
 4337SOL    HW224645   0.793   1.066  15.297  1.5396 -0.2130  2.0318
 4338SOL     OW24646   3.721   0.827   3.463  0.2347  0.2679  0.2421
 4338SOL    HW124647   3.748   0.740   3.490  0.5666  0.1285 -0.5278
 4338SOL    HW224648   3.754   0.884   3.532  1.8704 -0.0753 -0.2412
 4339SOL     OW24649   2.833   2.694   6.185  0.1592  0.1862  0.0946
 4339SOL    HW124650   2.837   2.601   6.161 -1.6048  0.6354 -2.0163
 4339SOL    HW224651   2.917   2.728   6.154  2.7897 -3.8995  2.8142
 4340SOL     OW24652   1.518   3.351  10.648  0.3134 -0.3812  0.4857
 4340SOL    HW124653   1.454   3.313  10.708 -0.7501  4.3466  2.3601
 4340SOL    HW224654   1.514   3.442  10.678  0.2694 -0.6338  1.2512
 4341SOL     OW24655   3.693   2.597   2.723 -0.2357  0.3670 -0.0333
 4341SOL    HW124656   3.659   2.583   2.811 -0.2537  0.5717 -0.0094
 4341SOL    HW224657   3.761   2.529   2.720 -0.1357  0.4719 -0.1457
 4342SOL     OW24658   2.957   1.668   4.336 -0.2594  0.4713 -0.2931
 4342SOL    HW124659   3.045   1.639   4.311  0.1377  0.8319  0.6783
 4342SOL    HW224660   2.910   1.590   4.308 -0.5888  1.0257 -1.2726
 4343SOL     OW24661   1.278   0.979  12.943  0.1488 -0.9065 -0.0590
 4343SOL    HW124662   1.316   1.054  12.897 -0.8681 -0.4397 -0.1416
 4343SOL    HW224663   1.357   0.926  12.944  1.0422  0.4335  1.8071
 4344SOL     OW24664   3.148   4.565   5.574  0.0982  0.3896  0.8340
 4344SOL    HW124665   3.070   4.549   5.520  0.1502  0.9618  0.5859
 4344SOL    HW224666   3.108   4.604   5.652 -1.1098  2.7962 -0.9802
 4345SOL     OW24667   2.905   2.755   3.059  0.1900 -0.4686  0.7454
 4345SOL    HW124668   2.913   2.835   3.112  0.8628 -0.3074  0.3955
 4345SOL    HW224669   2.988   2.750   3.012 -0.7730 -3.0779 -0.6696
 4346SOL     OW24670   4.417   3.206   1.765 -0.1276 -0.3326  0.2943
 4346SOL    HW124671   4.492   3.210   1.824  1.6598  1.1657 -2.0568
 4346SOL    HW224672   4.459   3.177   1.683  1.0142 -1.7377  1.3704
 4347SOL     OW24673   3.643   2.988   8.090  0.1700  0.5285 -0.3500
 4347SOL    HW124674   3.626   3.081   8.074  0.7680 -0.2455 -5.4136
 4347SOL    HW224675   3.562   2.956   8.127 -1.4865  0.5820 -3.9063
 4348SOL     OW24676   4.469   1.558   4.785  0.2443 -0.2896  0.5166
 4348SOL    HW124677   4.557   1.576   4.753  0.9117  0.1181  2.5942
 4348SOL    HW224678   4.475   1.463   4.779 -0.7194 -0.4245  1.6620
 4349SOL     OW24679   0.758   2.595   8.976  0.1723 -0.0366 -0.6807
 4349SOL    HW124680   0.668   2.586   8.946  0.2203 -1.9865 -0.2399
 4349SOL    HW224681   0.763   2.690   8.984  2.4389 -0.1468 -0.6970
 4350SOL     OW24682   0.803   2.174  11.515  0.3029  0.7818 -0.2943
 4350SOL    HW124683   0.878   2.233  11.507  0.7691 -0.0509 -2.0289
 4350SOL    HW224684   0.771   2.180  11.425 -1.0604  0.4496  0.1767
 4351SOL     OW24685   1.638   4.365   2.791 -0.7868  0.1528 -0.6201
 4351SOL    HW124686   1.725   4.402   2.777 -0.8964  0.2769 -0.9707
 4351SOL    HW224687   1.648   4.280   2.747 -0.1975  0.2128 -0.6047
 4352SOL     OW24688   0.649   1.262   2.071  0.7503 -0.2088  0.2902
 4352SOL    HW124689   0.637   1.313   2.151 -2.2211  1.6969 -1.3666
 4352SOL    HW224690   0.649   1.332   2.005  2.2355 -0.2965  0.1931
 4353SOL     OW24691   0.692   1.073   5.939  0.2087 -0.2039  0.4034
 4353SOL    HW124692   0.748   0.996   5.931  0.4934  0.1714 -1.2568
 4353SOL    HW224693   0.610   1.037   5.907  0.5456 -0.9829  0.4233
 4354SOL     OW24694   3.972   1.527   7.565 -0.1638 -0.4593  0.2435
 4354SOL    HW124695   3.932   1.614   7.564  1.8482  0.4697 -0.1591
 4354SOL    HW224696   3.925   1.490   7.639  0.4966 -0.5516  0.6224
 4355SOL     OW24697   2.110   1.419  14.246  0.0891  0.6205  0.0124
 4355SOL    HW124698   2.104   1.515  14.253  0.3429  0.8013 -2.4019
 4355SOL    HW224699   2.019   1.390  14.249 -0.3141  1.9209  0.4021
 4356SOL     OW24700   2.677   2.718   4.959 -0.2492 -0.7227  0.9767
 4356SOL    HW124701   2.643   2.691   4.874 -0.6668 -0.3751  1.0331
 4356SOL    HW224702   2.731   2.792   4.933  1.0917 -2.4724 -1.2021
 4357SOL     OW24703   1.989   3.114   9.146 -0.6253 -0.2990 -0.0836
 4357SOL    HW124704   2.028   3.109   9.233 -0.9574  0.1262  0.0886
 4357SOL    HW224705   1.943   3.198   9.151 -1.9040 -0.7365 -4.4220
 4358SOL     OW24706   0.725   3.998  14.685  0.1563  0.2007 -0.0545
 4358SOL    HW124707   0.755   3.922  14.734  0.4296  0.8667  0.8079
 4358SOL    HW224708   0.777   3.997  14.605  0.7353  2.4205  0.3102
 4359SOL     OW24709   3.662   3.746  16.088 -0.0934  0.3849  0.2062
 4359SOL    HW124710   3.664   3.690  16.165  0.2444 -0.3022 -0.3114
 4359SOL    HW224711   3.644   3.689  16.014 -0.4523 -0.8047  1.2175
 4360SOL     OW24712   2.958   3.227   1.288  0.0551 -0.8978 -0.6345
 4360SOL    HW124713   2.982   3.147   1.333 -1.0164 -0.6939  0.3139
 4360SOL    HW224714   2.946   3.190   1.201 -3.1492 -1.6257  0.0955
 4361SOL     OW24715   3.255   3.485   9.335  0.2150 -0.1145  0.0569
 4361SOL    HW124716   3.347   3.503   9.351 -0.3268  1.2037  1.6234
 4361SOL    HW224717   3.251   3.398   9.294  0.3070 -0.1992  0.2285
 4362SOL     OW24718   0.470   2.130  15.426  0.1136  0.5090  0.5843
 4362SOL    HW124719   0.492   2.057  15.368  2.5517  1.1245  0.7521
 4362SOL    HW224720   0.389   2.164  15.387  0.4002 -0.0186 -0.4650
 4363SOL     OW24721   0.499   4.034   5.409  0.0304  0.5190 -0.6334
 4363SOL    HW124722   0.594   4.024   5.411 -0.1692 -1.7786 -2.9834
 4363SOL    HW224723   0.490   4.127   5.430  1.5256 -0.0062  2.3800
 4364SOL     OW24724   2.881   1.173  10.085 -0.0425 -0.1834  0.4559
 4364SOL    HW124725   2.975   1.192  10.090 -0.1856  0.8033 -0.5876
 4364SOL    HW224726   2.850   1.239  10.022  1.3311  1.9211  2.0003
 4365SOL     OW24727   0.067   4.045   9.928 -0.4949  0.0264 -0.3101
 4365SOL    HW124728   0.059   4.136   9.957 -1.7584  0.4624 -1.9774
 4365SOL    HW224729   4.721   4.036   9.882 -1.7659 -0.4784  2.1175
 4366SOL     OW24730   0.269   3.654  10.217  0.3776  0.4657  0.2692
 4366SOL    HW124731   0.214   3.732  10.213  0.8117  0.5986 -2.5674
 4366SOL    HW224732   0.247   3.621  10.130  1.6312 -0.3687  0.2712
 4367SOL     OW24733   2.307   2.364  16.575 -0.1390  0.1519  0.4068
 4367SOL    HW124734   2.299   2.416  16.495 -1.3726  1.9076  1.6896
 4367SOL    HW224735   2.306   2.277  16.533  1.2746  0.0623  0.5631
 4368SOL     OW24736   2.402   4.528   7.353  0.1303 -0.6525 -0.2147
 4368SOL    HW124737   2.397   4.603   7.412 -0.5587 -1.3499  0.6173
 4368SOL    HW224738   2.486   4.494   7.381  0.5120  0.0206 -0.5339
 4369SOL     OW24739   1.195   0.402   6.792  0.6586 -0.2538  0.3992
 4369SOL    HW124740   1.107   0.424   6.763  0.9366  1.5537  0.8970
 4369SOL    HW224741   1.196   0.448   6.876 -0.0187  1.2921 -0.4396
 4370SOL     OW24742   1.786   1.512   9.094  0.0223 -0.1137 -0.4252
 4370SOL    HW124743   1.839   1.434   9.074  0.7968 -0.0295  1.3045
 4370SOL    HW224744   1.838   1.565   9.153  0.0868  0.1237 -0.6955
 4371SOL     OW24745   4.632   0.388   8.257  0.0352  1.2212  0.1547
 4371SOL    HW124746   4.637   0.396   8.352  0.6010  2.2725  0.0398
 4371SOL    HW224747   4.710   0.434   8.225 -0.2979  0.6265 -1.4923
 4372SOL     OW24748   2.082   0.312   9.143  0.0220  0.4587  0.3437
 4372SOL    HW124749   1.986   0.314   9.137 -0.1835 -0.5086  3.4056
 4372SOL    HW224750   2.111   0.281   9.058  1.4637  0.4614  0.8350
 4373SOL     OW24751   3.193   1.236   7.275 -0.0903 -0.3624 -0.3068
 4373SOL    HW124752   3.223   1.145   7.277  0.5099 -0.1237  0.9896
 4373SOL    HW224753   3.274   1.278   7.247 -0.5850  0.6525 -0.2244
 4374SOL     OW24754   3.163   1.291   1.469  0.4896  0.1202  0.3107
 4374SOL    HW124755   3.180   1.301   1.563 -0.0541  1.5183  0.2591
 4374SOL    HW224756   3.244   1.324   1.430 -0.1586  1.0854 -0.2183
 4375SOL     OW24757   3.705   4.109   2.286 -0.5073  0.2457  0.2185
 4375SOL    HW124758   3.696   4.130   2.379  1.2617  1.0751  0.2150
 4375SOL    HW224759   3.672   4.189   2.244  0.4534  0.6004  0.1177
 4376SOL     OW24760   2.051   3.922   8.398 -0.2223  0.3050 -0.4151
 4376SOL    HW124761   1.998   3.858   8.352 -0.6733  0.1392  0.3371
 4376SOL    HW224762   2.030   3.893   8.487  0.5740 -0.4888 -0.4869
 4377SOL     OW24763   1.091   3.294   6.872  0.0096 -0.0097  0.1417
 4377SOL    HW124764   1.138   3.300   6.955  0.4275 -1.3292  0.0023
 4377SOL    HW224765   1.166   3.284   6.812 -0.3991  1.3515 -0.5797
 4378SOL     OW24766   4.116   1.959   8.119 -0.0074  0.1493  0.3976
 4378SOL    HW124767   4.108   2.019   8.044  0.6269 -0.9268 -0.5402
 4378SOL    HW224768   4.181   1.893   8.093  0.9881  0.1989  2.8095
 4379SOL     OW24769   1.026   1.293   5.465  0.0206 -0.0013 -0.5495
 4379SOL    HW124770   1.083   1.261   5.394 -1.9184 -1.6594 -1.3421
 4379SOL    HW224771   1.083   1.362   5.499 -0.2225  1.4658 -3.0902
 4380SOL     OW24772   4.172   0.049   4.659 -0.4560 -0.1445  0.3519
 4380SOL    HW124773   4.252   0.082   4.701  1.3946 -1.9371 -1.7215
 4380SOL    HW224774   4.140   4.719   4.718 -0.8797  1.8152  2.3391
 4381SOL     OW24775   3.335   3.502  14.189 -1.0009 -0.2375  0.0963
 4381SOL    HW124776   3.254   3.541  14.223 -1.3476 -0.3138 -0.6399
 4381SOL    HW224777   3.298   3.451  14.117 -0.4105 -0.6573  0.0974
 4382SOL     OW24778   2.484   2.494   4.481 -0.0287 -0.8097 -0.1909
 4382SOL    HW124779   2.516   2.559   4.418 -0.8642 -0.4830 -0.2875
 4382SOL    HW224780   2.390   2.513   4.481  0.7960  3.4146  1.5337
 4383SOL     OW24781   0.231   3.775   4.211  0.0976 -0.4538  0.1517
 4383SOL    HW124782   0.191   3.860   4.197  0.3816 -0.1667  1.1037
 4383SOL    HW224783   0.162   3.713   4.187 -0.2545  0.0142 -0.0441
 4384SOL     OW24784   3.630   1.107   6.255  0.2066 -0.2712 -0.5806
 4384SOL    HW124785   3.550   1.101   6.306  1.8639 -1.1743  1.9425
 4384SOL    HW224786   3.685   1.032   6.278  1.5891  0.6257 -0.9554
 4385SOL     OW24787   1.451   2.260   6.751  0.7166  0.2347 -0.0734
 4385SOL    HW124788   1.471   2.174   6.787  1.7700 -0.0320 -1.3221
 4385SOL    HW224789   1.476   2.320   6.821 -0.3710  2.7227 -1.8145
 4386SOL     OW24790   0.121   3.403  14.270  0.1221 -0.0021 -0.1413
 4386SOL    HW124791   0.193   3.358  14.226  1.6370  2.2071  0.0901
 4386SOL    HW224792   0.089   3.444  14.190  0.6862  3.0147  1.1845
 4387SOL     OW24793   1.947   2.216   0.546  0.7212  0.8346  0.2993
 4387SOL    HW124794   1.943   2.289   0.607 -1.1785  0.3043  0.8021
 4387SOL    HW224795   1.973   2.250   0.461  1.0360 -0.3090 -0.0570
 4388SOL     OW24796   2.817   2.184   6.834  0.0306 -0.3541  0.2638
 4388SOL    HW124797   2.744   2.159   6.891 -0.8896  0.5492 -0.5070
 4388SOL    HW224798   2.863   2.106   6.803 -2.3902 -0.7135 -2.4000
 4389SOL     OW24799   2.032   0.491   6.103  0.5170 -0.4096 -0.6295
 4389SOL    HW124800   1.989   0.424   6.156 -0.7505  0.1840 -0.9177
 4389SOL    HW224801   2.123   0.463   6.089  0.9569  0.1019  1.2914
 4390SOL     OW24802   1.183   2.649   4.169  0.3870 -0.1765 -0.2743
 4390SOL    HW124803   1.164   2.742   4.154  0.2444 -0.1491  0.0694
 4390SOL    HW224804   1.243   2.630   4.097 -1.4833  0.0295 -1.9012
 4391SOL     OW24805   1.316   3.061  15.484  0.2607 -0.7521 -0.2326
 4391SOL    HW124806   1.370   3.001  15.433  2.2385  1.4455 -0.7094
 4391SOL    HW224807   1.239   3.063  15.427 -1.0058  1.3353  1.5537
 4392SOL     OW24808   2.149   1.294   6.753 -0.2163  0.5534 -0.4531
 4392SOL    HW124809   2.153   1.208   6.710  2.4507  0.5512 -0.1966
 4392SOL    HW224810   2.228   1.299   6.806 -0.7784 -1.1581  0.5484
 4393SOL     OW24811   1.889   1.967   2.572  0.5173  0.8189 -0.0884
 4393SOL    HW124812   1.959   1.914   2.535 -0.8191 -1.3536  0.4253
 4393SOL    HW224813   1.946   2.029   2.616  0.2615  0.6544  0.4844
 4394SOL     OW24814   2.070   2.212   6.814  0.7077 -0.0381  0.1599
 4394SOL    HW124815   2.023   2.132   6.836 -1.1554  0.6311 -1.3392
 4394SOL    HW224816   1.999   2.273   6.833  0.6542 -0.2421  0.5975
 4395SOL     OW24817   1.955   3.856   5.509 -0.1486 -0.4361  0.0720
 4395SOL    HW124818   2.016   3.820   5.573 -0.1141 -1.3270 -0.4657
 4395SOL    HW224819   1.884   3.791   5.509 -0.3725 -0.1997  3.1839
 4396SOL     OW24820   1.544   1.963  12.006 -0.0234  0.3510 -0.6138
 4396SOL    HW124821   1.553   1.938  11.914 -1.1552  0.1028 -0.6677
 4396SOL    HW224822   1.564   1.880  12.050 -0.9282  0.2491 -0.3845
 4397SOL     OW24823   1.771   1.473   6.211 -0.2333  0.6259 -0.0158
 4397SOL    HW124824   1.686   1.517   6.204 -0.7990 -0.8110 -1.9526
 4397SOL    HW224825   1.738   1.393   6.172  2.2745  0.1236 -1.0880
 4398SOL     OW24826   1.590   0.320   6.019  0.2476 -0.0538 -0.1138
 4398SOL    HW124827   1.678   0.336   5.986 -0.7739  1.6043 -2.0310
 4398SOL    HW224828   1.553   0.272   5.944  2.6580  0.1230 -1.3960
 4399SOL     OW24829   4.592   1.909   4.968 -0.1923  0.3980 -0.7739
 4399SOL    HW124830   4.659   1.931   4.903  0.1478  0.8022 -0.2887
 4399SOL    HW224831   4.571   1.996   5.003 -0.0057 -0.2455  0.9297
 4400SOL     OW24832   0.663   1.872  15.032  0.0976 -0.1531  0.4952
 4400SOL    HW124833   0.736   1.842  15.086  1.7087  1.8184 -0.5965
 4400SOL    HW224834   0.596   1.811  15.065  0.1132 -0.4244  0.0190
 4401SOL     OW24835   3.223   1.469   7.575  0.4144 -0.2398  0.2005
 4401SOL    HW124836   3.213   1.501   7.664  0.7740 -0.4632  0.3226
 4401SOL    HW224837   3.241   1.552   7.530 -0.1540  0.0105  0.4464
 4402SOL     OW24838   0.267   4.059   4.670 -0.0516 -0.3643  0.2428
 4402SOL    HW124839   0.200   3.998   4.701  0.3917 -0.3075  1.3118
 4402SOL    HW224840   0.225   4.113   4.604 -0.8002 -0.0357  0.9960
 4403SOL     OW24841   4.439   2.863   1.911  0.4872  0.0168  0.1258
 4403SOL    HW124842   4.431   2.918   1.988 -1.6952  1.9125 -1.4504
 4403SOL    HW224843   4.512   2.901   1.862  1.3876  0.6296  1.9481
 4404SOL     OW24844   3.163   3.402   2.787  0.6663 -0.1766 -0.2079
 4404SOL    HW124845   3.092   3.386   2.850  2.4588 -2.5030  1.2067
 4404SOL    HW224846   3.114   3.440   2.714 -0.5129  1.5918  1.4917
 4405SOL     OW24847   4.055   1.586   3.008 -0.3358  0.2445 -0.2374
 4405SOL    HW124848   4.018   1.675   3.013 -2.4194 -0.5806 -0.7438
 4405SOL    HW224849   4.136   1.608   3.052 -2.0887  0.8185  2.6665
 4406SOL     OW24850   4.118   1.663  17.443 -0.0740  0.3574  0.4599
 4406SOL    HW124851   4.022   1.664  17.440 -0.1454 -0.0558  2.5999
 4406SOL    HW224852   4.134   1.605  17.518  1.3962  0.9906  0.6266
 4407SOL     OW24853   3.994   0.485   9.475 -0.7421  0.4260  0.6292
 4407SOL    HW124854   4.084   0.493   9.443 -0.2133  0.7539  2.2089
 4407SOL    HW224855   3.977   0.565   9.524 -0.1587  1.1290 -0.3364
 4408SOL     OW24856   2.215   3.355   3.374 -0.0595 -0.0628  0.3971
 4408SOL    HW124857   2.159   3.424   3.339 -1.2960 -0.7235  1.0733
 4408SOL    HW224858   2.305   3.389   3.378 -0.6610  1.5539  0.0343
 4409SOL     OW24859   4.615   1.330  13.943 -0.3516  0.4480  0.0240
 4409SOL    HW124860   4.708   1.354  13.932 -0.8181  1.1508 -2.3914
 4409SOL    HW224861   4.599   1.306  13.852 -0.9906  0.6939  0.0766
 4410SOL     OW24862   3.011   2.802   5.390  0.2094 -0.8962  0.3315
 4410SOL    HW124863   3.104   2.781   5.381 -0.4102 -3.4193 -0.0958
 4410SOL    HW224864   2.995   2.884   5.344  0.7073  0.4712  2.6063
 4411SOL     OW24865   0.794   2.975  15.348 -1.1708  0.7068  0.2149
 4411SOL    HW124866   0.751   3.050  15.307 -1.6211  0.9441  1.1285
 4411SOL    HW224867   0.881   2.979  15.308 -3.2970 -1.3114 -4.5742
 4412SOL     OW24868   2.645   2.616  13.985 -0.4139 -0.1674 -0.5942
 4412SOL    HW124869   2.720   2.649  14.033 -0.7917 -1.6548  1.0285
 4412SOL    HW224870   2.643   2.681  13.915 -4.2448  0.2985 -0.0665
 4413SOL     OW24871   1.290   3.607   9.007  0.2042  0.4397 -0.5586
 4413SOL    HW124872   1.207   3.612   9.055  0.7379 -0.0479  0.4149
 4413SOL    HW224873   1.349   3.661   9.059  0.1787 -1.2183  1.1671
 4414SOL     OW24874   0.005   0.794   8.536 -0.0614  0.5736  0.5218
 4414SOL    HW124875   4.688   0.737   8.590  0.1894 -0.5465 -0.3944
 4414SOL    HW224876   4.737   0.747   8.453 -0.4832  1.4912  0.0287
 4415SOL     OW24877   2.898   0.495   2.203 -0.2564 -0.3519 -0.0133
 4415SOL    HW124878   2.975   0.540   2.238 -1.7712  0.8584  1.7901
 4415SOL    HW224879   2.927   0.417   2.156  2.0896 -0.7174  2.0368
 4416SOL     OW24880   2.490   1.692  12.002  0.1439  0.3851  0.2985
 4416SOL    HW124881   2.496   1.764  12.065 -1.9054  1.7427 -1.0299
 4416SOL    HW224882   2.397   1.676  11.986 -0.0880  1.4555  0.5821
 4417SOL     OW24883   0.678   0.949   8.696 -0.0567 -0.4371  0.1475
 4417SOL    HW124884   0.659   0.885   8.765  0.1156 -1.4865 -0.7906
 4417SOL    HW224885   0.623   1.024   8.719  2.1398  1.8649 -2.0133
 4418SOL     OW24886   0.565   3.643   1.132  0.3523  0.1109 -0.3585
 4418SOL    HW124887   0.513   3.716   1.166  2.3091  1.7384 -0.8729
 4418SOL    HW224888   0.512   3.645   1.052 -0.6139  0.4516  0.2984
 4419SOL     OW24889   0.513   2.524   8.895 -0.0926  0.1184  0.0057
 4419SOL    HW124890   0.523   2.432   8.872 -1.7428  0.1740 -0.9646
 4419SOL    HW224891   0.492   2.565   8.811 -1.9885  0.1743  0.5208
 4420SOL     OW24892   0.096   0.306   7.084 -0.1602  0.5010  0.0287
 4420SOL    HW124893   0.013   0.323   7.039  0.5868 -1.1756 -1.9814
 4420SOL    HW224894   0.057   0.252   7.153 -1.6821  1.7717  0.1543
 4421SOL     OW24895   1.616   2.146   2.361  0.4348  0.0900 -0.4342
 4421SOL    HW124896   1.689   2.181   2.310  1.0543 -0.4541  0.0861
 4421SOL    HW224897   1.631   2.186   2.447  0.0769 -4.0951  1.5856
 4422SOL     OW24898   1.850   2.949   2.294  0.3427  0.4110 -0.9084
 4422SOL    HW124899   1.912   2.969   2.224  1.2375  1.0685  0.0775
 4422SOL    HW224900   1.820   3.039   2.308  1.7982  0.8455 -0.6071
 4423SOL     OW24901   3.590   2.061   3.496 -0.0284 -0.3248 -0.3371
 4423SOL    HW124902   3.589   1.972   3.529 -0.4993  0.6536  2.2895
 4423SOL    HW224903   3.529   2.055   3.422  0.8020  1.3869 -1.1733
 4424SOL     OW24904   0.779   1.866  13.803  0.3612 -0.9573 -0.7333
 4424SOL    HW124905   0.856   1.910  13.838 -0.4147  0.7411 -1.1076
 4424SOL    HW224906   0.824   1.792  13.762  1.9539  0.1589 -1.0052
 4425SOL     OW24907   1.511   3.217  10.121  0.6054 -0.4948  0.0244
 4425SOL    HW124908   1.481   3.275  10.191  1.1662  0.4869 -0.5553
 4425SOL    HW224909   1.427   3.173  10.110  0.0577  0.2821  1.0529
 4426SOL     OW24910   0.325   3.614  16.787  0.3968  0.4567  0.4618
 4426SOL    HW124911   0.310   3.708  16.786 -1.5508  0.1397  0.2947
 4426SOL    HW224912   0.380   3.605  16.709 -0.8862 -0.1149 -0.3695
 4427SOL     OW24913   2.601   0.748  13.138 -0.3330  0.3357  0.0103
 4427SOL    HW124914   2.535   0.713  13.079 -0.0305  0.5563 -0.4555
 4427SOL    HW224915   2.619   0.673  13.193 -0.4361  1.5846  1.7643
 4428SOL     OW24916   0.027   1.217   2.811  0.0902  0.0619  0.1171
 4428SOL    HW124917   4.732   1.306   2.795  1.9226  0.8445  0.7737
 4428SOL    HW224918   4.714   1.162   2.751 -0.0179  0.7836 -0.4651
 4429SOL     OW24919   0.571   1.208  12.566  0.7125 -0.6247  0.3573
 4429SOL    HW124920   0.600   1.181  12.478 -1.2009  3.4681 -1.5159
 4429SOL    HW224921   0.498   1.150  12.586 -0.9284  1.4801  0.4851
 4430SOL     OW24922   2.955   2.615   0.518 -0.7671  0.0808 -1.1340
 4430SOL    HW124923   2.999   2.652   0.441  3.2535  1.5176  1.8455
 4430SOL    HW224924   2.897   2.545   0.488 -3.8746  1.0840  2.5619
 4431SOL     OW24925   2.857   3.283   5.104  0.2845 -0.4976 -0.4072
 4431SOL    HW124926   2.919   3.218   5.136  2.2129  0.9003 -1.2954
 4431SOL    HW224927   2.855   3.338   5.182 -0.6257 -2.2545  0.7926
 4432SOL     OW24928   4.196   3.865   2.251  0.2995  0.5604  0.8800
 4432SOL    HW124929   4.114   3.903   2.219  1.0007  2.0766  0.9199
 4432SOL    HW224930   4.237   3.940   2.293  0.0070 -0.0047  2.1734
 4433SOL     OW24931   1.790   1.930   9.172 -0.1116 -0.3899  0.1345
 4433SOL    HW124932   1.800   1.835   9.179 -2.6110 -0.7579 -1.2318
 4433SOL    HW224933   1.859   1.955   9.234 -1.7296  3.0794  0.5564
 4434SOL     OW24934   1.740   1.235  13.702 -0.3370  0.1524 -0.1484
 4434SOL    HW124935   1.693   1.254  13.621  0.9082  0.6049 -0.7746
 4434SOL    HW224936   1.832   1.258  13.687 -0.6777  2.0923  0.7123
 4435SOL     OW24937   3.162   0.138   6.230  0.1036  0.6595 -0.3279
 4435SOL    HW124938   3.079   0.132   6.183 -0.5179 -3.3678  1.2969
 4435SOL    HW224939   3.137   0.147   6.321  0.4051 -0.7235 -0.0972
 4436SOL     OW24940   3.038   2.676  14.341 -0.3551 -0.2881 -0.0067
 4436SOL    HW124941   3.116   2.686  14.396 -0.7950 -2.1758  0.9740
 4436SOL    HW224942   2.977   2.730  14.392 -0.3121  0.7467 -1.0440
 4437SOL     OW24943   0.337   0.844   4.288 -0.0928  0.0872 -0.2604
 4437SOL    HW124944   0.350   0.883   4.201  1.1413  0.5904  0.1539
 4437SOL    HW224945   0.367   0.753   4.284 -3.7061 -1.0890 -1.2635
 4438SOL     OW24946   2.802   0.622   9.048  0.1378 -0.5010 -0.0960
 4438SOL    HW124947   2.845   0.707   9.035 -2.4888  0.6385 -1.3069
 4438SOL    HW224948   2.833   0.569   8.974  0.8278 -1.2193  0.7055
 4439SOL     OW24949   3.111   3.125   7.563  0.1188  0.1873 -0.6311
 4439SOL    HW124950   3.032   3.156   7.519 -1.0186 -2.3348 -0.3466
 4439SOL    HW224951   3.105   3.030   7.552  0.5967  0.3626 -2.3514
 4440SOL     OW24952   0.745   0.796   5.683 -0.4295  0.0156  0.0435
 4440SOL    HW124953   0.693   0.869   5.650 -2.1938 -0.2498  2.2699
 4440SOL    HW224954   0.774   0.825   5.770  1.1956  3.4250 -1.6341
 4441SOL     OW24955   2.552   0.516   3.843  0.4042 -0.1323 -0.2652
 4441SOL    HW124956   2.580   0.549   3.758  0.1299 -0.4456 -0.4786
 4441SOL    HW224957   2.511   0.432   3.821 -1.5028  0.5429  0.6986
 4442SOL     OW24958   0.102   3.551   6.263 -0.4468 -0.3548 -0.7517
 4442SOL    HW124959   0.075   3.461   6.249  0.6643 -0.6059 -1.2006
 4442SOL    HW224960   0.128   3.581   6.176 -1.1393  0.7278 -0.5895
 4443SOL     OW24961   2.296   2.361   5.875 -0.0803 -0.4366 -0.1364
 4443SOL    HW124962   2.252   2.399   5.951  2.2612 -1.6113  1.8134
 4443SOL    HW224963   2.387   2.355   5.903 -0.2624  0.9686  0.7519
 4444SOL     OW24964   1.744   0.518  11.515  1.1446  0.2494  0.3784
 4444SOL    HW124965   1.690   0.554  11.445 -0.5544 -0.0967  1.5181
 4444SOL    HW224966   1.683   0.525  11.588 -0.1932  2.1253 -0.8934
 4445SOL     OW24967   0.612   4.114   2.514 -0.0105  0.3832 -0.2367
 4445SOL    HW124968   0.603   4.200   2.556 -1.4465  0.2658 -0.3132
 4445SOL    HW224969   0.690   4.121   2.459  1.6897  0.2901  2.1537
 4446SOL     OW24970   0.263   0.487   4.836  0.2328  0.0768 -0.1728
 4446SOL    HW124971   0.189   0.511   4.779  0.3279 -0.3068 -0.4583
 4446SOL    HW224972   0.223   0.478   4.922 -0.9318  0.5941 -0.6639
 4447SOL     OW24973   2.762   2.245   8.630 -0.3046 -0.1030  0.1763
 4447SOL    HW124974   2.766   2.158   8.591  1.6107  0.1854 -0.2736
 4447SOL    HW224975   2.668   2.250   8.643 -0.5109 -0.9504 -1.0185
 4448SOL     OW24976   3.981   3.132   6.419 -0.0273 -0.4272 -0.2694
 4448SOL    HW124977   4.043   3.059   6.429 -0.7757 -1.3153 -2.0539
 4448SOL    HW224978   4.031   3.187   6.358 -2.6933  0.7784 -1.3550
 4449SOL     OW24979   0.628   3.087   8.995 -0.3617  0.1513  0.2875
 4449SOL    HW124980   0.675   3.145   9.056 -2.6010  0.7761  1.4509
 4449SOL    HW224981   0.680   3.007   8.997  2.0576  1.7307  0.5384
 4450SOL     OW24982   0.361   0.866  13.437  0.0076  0.0703 -0.1874
 4450SOL    HW124983   0.428   0.874  13.369  1.4988  1.7860  1.4688
 4450SOL    HW224984   0.288   0.913  13.397 -0.7757 -1.3117 -0.3689
 4451SOL     OW24985   4.058   1.232   9.274 -0.0323 -0.0596 -0.0591
 4451SOL    HW124986   4.000   1.156   9.277 -0.4489  0.1795 -2.5963
 4451SOL    HW224987   4.021   1.299   9.217 -1.2228 -0.4784  0.2200
 4452SOL     OW24988   1.884   2.084   5.337 -0.3062 -0.5627 -0.0652
 4452SOL    HW124989   1.965   2.134   5.331 -0.5217 -0.0416  1.6702
 4452SOL    HW224990   1.837   2.121   5.262  1.6275  2.4612  0.2564
 4453SOL     OW24991   0.695   0.236   3.615 -0.3878  0.5206 -0.4782
 4453SOL    HW124992   0.727   0.232   3.525 -1.7478 -1.3917 -0.8779
 4453SOL    HW224993   0.739   0.156   3.643 -1.7956  0.5690  1.8187
 4454SOL     OW24994   3.662   0.676   8.313  0.1689 -0.1111 -0.8819
 4454SOL    HW124995   3.660   0.735   8.388 -1.4546 -1.9382  0.5009
 4454SOL    HW224996   3.651   0.734   8.237 -1.3498  1.2817  0.4080
 4455SOL     OW24997   2.153   0.005  10.837 -0.4410  0.2408  0.8323
 4455SOL    HW124998   2.104   4.662  10.851  0.7887 -0.7105 -0.3571
 4455SOL    HW224999   2.181   0.019  10.928  1.6695  0.0512  0.2132
 4456SOL     OW25000   2.885   3.781   7.449 -0.2002 -0.3666  0.4525
 4456SOL    HW125001   2.906   3.796   7.541 -1.3323 -2.8801  1.1168
 4456SOL    HW225002   2.941   3.706   7.427  2.7004  1.7204  0.7033
 4457SOL     OW25003   1.917   4.375   7.979  0.4797 -0.2697  0.0684
 4457SOL    HW125004   1.924   4.470   7.963 -1.7502 -0.4670 -2.2787
 4457SOL    HW225005   1.987   4.340   7.924 -0.0558 -1.8795  0.4349
 4458SOL     OW25006   4.036   1.613  16.123  0.3132 -0.3703 -1.1540
 4458SOL    HW125007   3.987   1.622  16.041 -0.6441 -0.9882 -0.6451
 4458SOL    HW225008   4.058   1.521  16.137  2.1993 -0.0694 -2.1783
 4459SOL     OW25009   0.401   2.795   7.178  0.6023  0.1541  0.4857
 4459SOL    HW125010   0.376   2.704   7.195 -0.6185  0.6932  1.6132
 4459SOL    HW225011   0.467   2.790   7.110 -0.4468 -1.6868 -0.4114
 4460SOL     OW25012   3.853   2.641   6.279  0.0735 -0.2734 -0.5873
 4460SOL    HW125013   3.885   2.558   6.244 -2.8155 -0.8403 -1.9568
 4460SOL    HW225014   3.823   2.606   6.363  0.0164 -1.9360 -1.3064
 4461SOL     OW25015   1.037   3.567   1.509 -0.1502  0.4635  0.2143
 4461SOL    HW125016   0.959   3.565   1.453 -2.3725 -0.7537  3.3171
 4461SOL    HW225017   0.998   3.568   1.597 -1.9047 -0.3821 -0.5486
 4462SOL     OW25018   1.393   0.147   2.880  0.5361 -0.5258 -0.0963
 4462SOL    HW125019   1.332   0.210   2.842 -0.9572 -1.5030  0.6742
 4462SOL    HW225020   1.439   0.136   2.797 -0.7735  2.1419 -1.1920
 4463SOL     OW25021   2.529   3.170   5.556  0.5791 -0.2717 -0.5104
 4463SOL    HW125022   2.598   3.228   5.525  0.5153  0.2029  0.2352
 4463SOL    HW225023   2.458   3.182   5.492 -1.1950  0.8662  1.6710
 4464SOL     OW25024   3.944   4.731   8.822  0.0987 -0.1518 -0.8617
 4464SOL    HW125025   3.878   0.035   8.767  0.7288  0.3730 -1.2154
 4464SOL    HW225026   3.921   0.018   8.911 -0.6614 -0.6455 -0.9136
 4465SOL     OW25027   4.098   3.816   4.892  0.3845 -0.4322 -0.5358
 4465SOL    HW125028   4.026   3.871   4.862  0.7646  0.5128  0.2909
 4465SOL    HW225029   4.167   3.826   4.826  1.7933 -2.6308  0.5979
 4466SOL     OW25030   3.007   3.646  11.700 -0.6859  0.1649  0.5058
 4466SOL    HW125031   2.967   3.701  11.766 -0.4317 -0.8682  1.5202
 4466SOL    HW225032   3.046   3.580  11.757 -0.5803  0.7508  1.1046
 4467SOL     OW25033   1.338   2.103   4.143  0.3062  0.3747 -0.2116
 4467SOL    HW125034   1.361   2.012   4.157  0.3943  0.9801  3.4171
 4467SOL    HW225035   1.351   2.106   4.048  0.6432 -0.4451 -0.1917
 4468SOL     OW25036   0.187   0.972   7.745  0.0872 -0.2870  0.2720
 4468SOL    HW125037   0.250   1.008   7.808 -0.9723 -0.2047  1.2904
 4468SOL    HW225038   0.218   0.882   7.738 -0.9279 -0.9005  3.7225
 4469SOL     OW25039   1.677   3.488  11.256 -0.5240  0.2026 -0.3652
 4469SOL    HW125040   1.726   3.506  11.176  2.8723  0.6178  1.7985
 4469SOL    HW225041   1.666   3.576  11.292 -1.2797 -0.1421  0.2438
 4470SOL     OW25042   2.123   0.392   3.351 -0.3693 -0.1104  0.4976
 4470SOL    HW125043   2.189   0.450   3.388 -0.8603  1.3422 -0.9255
 4470SOL    HW225044   2.128   0.412   3.257 -0.0657  0.3291  0.6074
 4471SOL     OW25045   2.239   4.017  16.565  0.2138 -0.8896  0.4270
 4471SOL    HW125046   2.326   4.018  16.527  1.3112 -0.7667  2.9680
 4471SOL    HW225047   2.261   4.002  16.657  0.7141  3.2669  0.9987
 4472SOL     OW25048   2.045   0.274  17.740  0.0299 -0.4506 -0.3040
 4472SOL    HW125049   2.049   0.215   0.065 -1.4329 -1.2097 -0.8237
 4472SOL    HW225050   2.138   0.278  17.719 -0.0757  1.4498 -0.4754
 4473SOL     OW25051   1.789   0.417  16.940 -0.0851 -0.6817  0.4396
 4473SOL    HW125052   1.818   0.328  16.922 -0.1543 -0.2046 -2.0768
 4473SOL    HW225053   1.782   0.413  17.035  1.4247 -0.4929  0.5697
 4474SOL     OW25054   3.629   2.114   5.936  0.2824  0.3241 -0.8359
 4474SOL    HW125055   3.630   2.093   6.029  2.4849 -0.0734 -0.9459
 4474SOL    HW225056   3.721   2.112   5.909  0.5109  2.6047 -0.2444
 4475SOL     OW25057   1.728   0.061   8.931 -0.0577  0.3104  0.3716
 4475SOL    HW125058   1.755   0.058   8.839  0.1873 -1.7430  0.5209
 4475SOL    HW225059   1.670   0.137   8.937 -1.5718 -0.9125  1.2330
 4476SOL     OW25060   0.466   1.255  15.767 -0.0178  0.4326 -0.1275
 4476SOL    HW125061   0.550   1.255  15.813 -0.4650  2.4778  0.7195
 4476SOL    HW225062   0.485   1.211  15.684  1.0881 -1.2336  1.0241
 4477SOL     OW25063   2.628   1.686   7.975 -0.1052  0.0585 -0.4365
 4477SOL    HW125064   2.623   1.644   7.889 -1.6063  1.5337 -1.0407
 4477SOL    HW225065   2.536   1.701   7.996  0.0165 -1.5856  1.3222
 4478SOL     OW25066   3.429   1.700   8.767 -0.1844 -0.2394  0.0832
 4478SOL    HW125067   3.352   1.716   8.822 -0.9236 -1.8103 -0.5112
 4478SOL    HW225068   3.503   1.717   8.826 -1.6477  0.3074  1.7616
 4479SOL     OW25069   1.448   1.536  15.104  0.0758 -0.1141  0.1687
 4479SOL    HW125070   1.515   1.567  15.165  0.7691 -1.5631  0.1537
 4479SOL    HW225071   1.491   1.459  15.067  3.8566  1.0785  2.0577
 4480SOL     OW25072   0.914   2.539  16.746  0.0315 -0.0648  0.5797
 4480SOL    HW125073   0.964   2.482  16.688 -0.0757 -1.1602  1.5787
 4480SOL    HW225074   0.927   2.486  16.824  0.5575 -0.4998  0.1913
 4481SOL     OW25075   2.720   0.466   5.703  0.6693 -0.3665  0.2898
 4481SOL    HW125076   2.648   0.494   5.759 -1.3944 -3.0036 -0.9692
 4481SOL    HW225077   2.764   0.400   5.757  1.4857 -0.9872 -1.1354
 4482SOL     OW25078   4.345   1.763   8.267  0.1740  0.0677  0.1364
 4482SOL    HW125079   4.399   1.696   8.309  0.0856 -1.2103 -1.8127
 4482SOL    HW225080   4.287   1.714   8.209 -0.2030 -0.5686  1.0631
 4483SOL     OW25081   1.506   4.704   1.923 -0.4547  0.1468 -0.2025
 4483SOL    HW125082   1.454   4.647   1.980  1.1154 -1.9766 -0.9038
 4483SOL    HW225083   1.443   4.712   1.851 -1.5817  0.6192  0.8188
 4484SOL     OW25084   3.101   0.513   4.420 -0.6686 -0.6537 -0.0860
 4484SOL    HW125085   3.162   0.440   4.410 -0.0449 -0.4773  2.3005
 4484SOL    HW225086   3.019   0.474   4.391 -1.4159  0.6017  0.3402
 4485SOL     OW25087   4.165   0.143   3.925 -0.1513  0.3616 -0.0380
 4485SOL    HW125088   4.136   0.231   3.903  0.5782  0.5223 -0.3404
 4485SOL    HW225089   4.117   0.132   4.007 -1.4633  2.0020 -0.5741
 4486SOL     OW25090   1.875   0.655   8.831  0.1967 -0.4379  0.0629
 4486SOL    HW125091   1.962   0.648   8.869 -0.8047 -2.6795  1.9078
 4486SOL    HW225092   1.857   0.749   8.835 -1.0276 -0.7368  1.4206
 4487SOL     OW25093   0.722   4.188   4.094  0.2975 -0.3083  0.6116
 4487SOL    HW125094   0.729   4.129   4.169 -0.8494 -0.9522  0.2028
 4487SOL    HW225095   0.629   4.208   4.085  0.2376 -0.8673  0.0189
 4488SOL     OW25096   3.656   4.734   3.436 -0.4612 -0.6642 -0.2428
 4488SOL    HW125097   3.644   4.639   3.425  0.3770 -0.5894 -1.8044
 4488SOL    HW225098   3.677   4.736   3.530 -1.1144  0.8787 -0.1451
 4489SOL     OW25099   3.441   0.445  12.646  0.6423  0.6377 -0.3780
 4489SOL    HW125100   3.481   0.523  12.685 -0.0150  0.3997  0.7760
 4489SOL    HW225101   3.475   0.375  12.702 -2.4899 -1.6424 -1.3314
 4490SOL     OW25102   1.443   4.317   6.958  0.4238  0.1532  0.4933
 4490SOL    HW125103   1.409   4.406   6.957  0.0200 -0.0168 -2.0123
 4490SOL    HW225104   1.538   4.329   6.959  0.2636  1.0891  3.2076
 4491SOL     OW25105   3.411   3.515   3.157  0.0488 -0.1201  0.2874
 4491SOL    HW125106   3.503   3.540   3.149  0.4239 -1.6659 -0.2650
 4491SOL    HW225107   3.397   3.534   3.250 -0.6870 -1.2802  0.4067
 4492SOL     OW25108   2.497   2.005  12.438  0.0916 -0.2375  0.0968
 4492SOL    HW125109   2.432   2.049  12.384 -1.4599 -1.3863  1.0377
 4492SOL    HW225110   2.447   1.989  12.518  1.3024 -1.0342  0.6950
 4493SOL     OW25111   3.002   4.388  16.951  0.4030 -0.3288 -0.1950
 4493SOL    HW125112   3.008   4.349  17.038  0.0137  0.9579  0.4047
 4493SOL    HW225113   2.915   4.356  16.926 -0.0295  0.5308  0.2108
 4494SOL     OW25114   3.121   3.036   4.682  0.0801  0.2985  0.3142
 4494SOL    HW125115   3.119   3.127   4.654 -3.4652  0.6150  1.6024
 4494SOL    HW225116   3.176   3.053   4.759  0.7168 -0.7227  0.0941
 4495SOL     OW25117   1.731   2.695   5.981  0.0336 -0.0503 -0.3459
 4495SOL    HW125118   1.727   2.600   5.980 -0.1807 -0.0441  0.9196
 4495SOL    HW225119   1.709   2.711   5.889  0.5814 -1.4639 -0.7092
 4496SOL     OW25120   4.340   0.675   3.291  0.6514 -0.1512 -0.2086
 4496SOL    HW125121   4.305   0.586   3.283 -1.4157  0.5085  1.4912
 4496SOL    HW225122   4.408   0.664   3.224  0.8527 -0.8727  0.1046
 4497SOL     OW25123   2.700   0.722   6.257  0.7994  0.1430  0.5569
 4497SOL    HW125124   2.690   0.801   6.310  1.4826  0.8526 -0.3534
 4497SOL    HW225125   2.794   0.718   6.237 -0.2172 -0.6110 -4.2249
 4498SOL     OW25126   4.700   0.253   8.934 -0.2877 -0.2769  0.5590
 4498SOL    HW125127   4.727   0.337   8.898 -0.5612  1.0926  3.5015
 4498SOL    HW225128   4.650   0.218   8.861  2.5037 -2.6356 -0.2503
 4499SOL     OW25129   3.195   0.331   7.985 -0.6590  0.4586  0.3218
 4499SOL    HW125130   3.166   0.243   7.960  1.2473 -0.3671  1.0162
 4499SOL    HW225131   3.243   0.316   8.066  0.9105  0.9246 -0.5224
 4500SOL     OW25132   1.330   4.158   4.082  0.2885 -0.2955  0.7674
 4500SOL    HW125133   1.345   4.073   4.125 -1.0980 -0.2763  1.3071
 4500SOL    HW225134   1.310   4.128   3.994  0.0888 -1.4393  1.1955
 4501SOL     OW25135   3.874   3.146   4.033 -0.1639  0.0599  0.0755
 4501SOL    HW125136   3.829   3.196   4.102  0.6562  0.1739  0.5327
 4501SOL    HW225137   3.906   3.080   4.094 -1.5857  0.0104  0.7641
 4502SOL     OW25138   0.964   4.696  13.080  0.0846 -0.6177  0.4869
 4502SOL    HW125139   0.946   4.614  13.035 -2.3579 -0.0988  0.5118
 4502SOL    HW225140   1.041   4.730  13.035  0.3141  0.0944  1.4015
 4503SOL     OW25141   4.709   1.561   5.415 -0.1243 -0.0725 -0.3201
 4503SOL    HW125142   4.697   1.594   5.327 -1.3355 -2.0203 -0.8976
 4503SOL    HW225143   0.050   1.509   5.403 -1.7021 -1.9813 -2.3951
 4504SOL     OW25144   4.171   1.843   5.216 -0.1507  0.4952 -0.1076
 4504SOL    HW125145   4.129   1.759   5.235 -0.9240  0.9426  0.1612
 4504SOL    HW225146   4.202   1.827   5.126 -0.1618 -1.4976  0.2408
 4505SOL     OW25147   0.742   1.946   6.582 -0.1709 -0.1941  0.2722
 4505SOL    HW125148   0.832   1.967   6.559  0.0594 -1.9408 -0.4359
 4505SOL    HW225149   0.754   1.871   6.640  0.6957  0.0069  0.3454
 4506SOL     OW25150   2.379   3.839   1.196  0.6811 -0.0173 -0.2802
 4506SOL    HW125151   2.399   3.774   1.263  2.2366 -0.5400 -1.2491
 4506SOL    HW225152   2.456   3.832   1.140  0.3221  1.0128 -0.9048
 4507SOL     OW25153   1.508   1.930   1.828  0.2183  0.2998  0.2581
 4507SOL    HW125154   1.526   1.865   1.760  0.7620  0.2169  0.4847
 4507SOL    HW225155   1.497   1.881   1.910 -0.6870 -1.4254 -0.8946
 4508SOL     OW25156   1.002   2.780   3.146 -0.7675 -0.0710  0.0496
 4508SOL    HW125157   1.075   2.798   3.086 -0.6906  0.0610  0.1847
 4508SOL    HW225158   1.058   2.750   3.218  1.0447  1.4123 -0.7112
 4509SOL     OW25159   4.336   3.955   1.611  0.7119 -0.1748 -0.3820
 4509SOL    HW125160   4.398   4.024   1.634  1.5193 -1.0499  0.0756
 4509SOL    HW225161   4.376   3.931   1.528 -0.1573 -0.7278 -0.6482
 4510SOL     OW25162   3.071   0.007  11.794  0.2522 -0.4690  0.2856
 4510SOL    HW125163   3.096   0.028  11.704  1.8574 -0.5839  0.7093
 4510SOL    HW225164   3.159   4.723  11.824  0.9387  2.0736  0.0789
 4511SOL     OW25165   3.613   3.575   2.804 -0.4187 -0.4714  0.6334
 4511SOL    HW125166   3.599   3.527   2.723  0.2727 -2.8179  1.9139
 4511SOL    HW225167   3.526   3.591   2.839 -0.0076  0.8336  1.0688
 4512SOL     OW25168   3.075   0.441  13.267 -0.2739  0.0214  0.3997
 4512SOL    HW125169   3.089   0.360  13.316  0.8789 -2.4526 -4.0639
 4512SOL    HW225170   2.992   0.479  13.294 -0.4663 -1.0888  1.3347
 4513SOL     OW25171   0.133   1.148   4.474  0.3224  0.2209 -0.2892
 4513SOL    HW125172   0.058   1.145   4.533  0.1040 -0.0182 -0.5802
 4513SOL    HW225173   0.092   1.130   4.389 -1.4832 -0.8005  0.8044
 4514SOL     OW25174   0.992   4.705   5.687 -0.2455  0.3047  0.3759
 4514SOL    HW125175   0.946   4.668   5.613 -0.3780  0.8747  0.1736
 4514SOL    HW225176   0.965   4.657   5.765 -4.2645 -0.4478 -1.5227
 4515SOL     OW25177   3.121   0.591   3.596 -0.0586  0.0142 -0.1078
 4515SOL    HW125178   3.087   0.673   3.560 -0.4205 -0.4344 -0.7919
 4515SOL    HW225179   3.043   0.561   3.642  2.2180 -2.8933  1.9018
 4516SOL     OW25180   4.439   1.841   6.132 -0.0242  0.0387  0.1016
 4516SOL    HW125181   4.400   1.781   6.196  0.0797  0.3697  0.4755
 4516SOL    HW225182   4.445   1.788   6.052 -1.2192  0.3033 -0.1655
 4517SOL     OW25183   4.721   3.865   6.127  0.0500  0.0662  0.0152
 4517SOL    HW125184   4.665   3.821   6.191 -0.0611 -2.9817 -2.1498
 4517SOL    HW225185   0.041   3.899   6.195  1.0409 -0.5090 -0.5358
 4518SOL     OW25186   1.450   0.908   8.686 -0.1675  0.1223  0.5454
 4518SOL    HW125187   1.436   0.997   8.653  0.8743  0.9986  2.4829
 4518SOL    HW225188   1.534   0.930   8.724  1.0176 -1.5172 -1.1415
 4519SOL     OW25189   4.732   2.874   4.557 -0.1617 -0.6062 -0.5731
 4519SOL    HW125190   0.028   2.945   4.611 -0.1258 -1.3589  0.3947
 4519SOL    HW225191   4.723   2.805   4.622 -1.8848 -0.1666 -0.3444
 4520SOL     OW25192   0.675   3.876  17.545 -0.7486  0.5167 -0.1145
 4520SOL    HW125193   0.626   3.794  17.542  0.4392 -0.2402  1.3619
 4520SOL    HW225194   0.756   3.828  17.563 -0.7113  1.3713  1.9313
 4521SOL     OW25195   3.993   3.104   5.934 -0.5871 -0.1149  0.6793
 4521SOL    HW125196   4.026   3.161   6.004 -0.5281  1.0693 -0.3059
 4521SOL    HW225197   4.009   3.160   5.858 -1.8689 -2.3283 -1.2008
 4522SOL     OW25198   2.661   2.369  10.303  0.1540 -0.7181 -0.1568
 4522SOL    HW125199   2.720   2.411  10.365  0.1843 -0.7097 -0.1910
 4522SOL    HW225200   2.669   2.437  10.236  2.0827 -1.5133 -0.7333
 4523SOL     OW25201   2.544   1.509  10.065  0.4065  0.1944  0.2855
 4523SOL    HW125202   2.594   1.474  10.139  2.6398 -2.9561 -2.6884
 4523SOL    HW225203   2.460   1.535  10.102  0.1393 -0.3132  0.0386
 4524SOL     OW25204   1.810   1.607   5.103 -0.1734 -0.5899  0.0261
 4524SOL    HW125205   1.808   1.691   5.149 -1.7023 -0.7718  0.2774
 4524SOL    HW225206   1.804   1.639   5.012  1.6690 -2.5569 -0.7903
 4525SOL     OW25207   4.726   4.505   8.445  0.3436  0.4648  0.3470
 4525SOL    HW125208   4.730   4.409   8.450  1.6078  0.4027 -1.7537
 4525SOL    HW225209   0.040   4.520   8.366  0.3298  1.1431  0.4715
 4526SOL     OW25210   2.376   2.317   8.047  0.5582 -0.1023  0.8034
 4526SOL    HW125211   2.459   2.286   8.011 -0.1123 -3.1690  1.9124
 4526SOL    HW225212   2.366   2.254   8.118 -3.1127  1.3503  1.5845
 4527SOL     OW25213   2.483   3.130   2.101 -0.1375  0.4305  0.4594
 4527SOL    HW125214   2.551   3.196   2.088  0.3183  0.0045  0.6715
 4527SOL    HW225215   2.408   3.184   2.125  0.3463  1.5834 -0.6063
 4528SOL     OW25216   4.013   4.701   7.853  0.2705  0.3426  0.6441
 4528SOL    HW125217   4.004   4.717   7.759  0.3546 -0.0241  0.5743
 4528SOL    HW225218   4.094   0.010   7.872  0.2801  1.1176 -1.3308
 4529SOL     OW25219   0.178   0.495   3.808  0.4155  0.2825 -0.0210
 4529SOL    HW125220   0.234   0.517   3.882  1.2229  3.1040 -1.4694
 4529SOL    HW225221   0.187   0.573   3.753  3.7274  0.2853  0.5500
 4530SOL     OW25222   4.269   2.549   8.518 -0.3809  0.6774  0.2082
 4530SOL    HW125223   4.350   2.599   8.514 -1.1200  2.0523  2.8349
 4530SOL    HW225224   4.276   2.514   8.429  2.5984  1.3639  0.1596
 4531SOL     OW25225   4.217   0.908   3.204  0.2168 -0.1362  0.2474
 4531SOL    HW125226   4.193   0.873   3.118  2.1251 -2.8176  0.7904
 4531SOL    HW225227   4.244   0.821   3.233  1.5070  1.2332  3.1111
 4532SOL     OW25228   0.992   4.431   7.067  0.5598 -0.1964  0.1073
 4532SOL    HW125229   0.969   4.430   6.974 -0.3557  0.9547  0.3113
 4532SOL    HW225230   0.931   4.497   7.101  0.8132  0.7120 -1.1623
 4533SOL     OW25231   2.662   3.278  10.355  0.1414  0.3336  0.0299
 4533SOL    HW125232   2.750   3.246  10.335  0.0300 -1.1707  1.9817
 4533SOL    HW225233   2.681   3.328  10.435  0.5148 -0.9280  0.7233
 4534SOL     OW25234   0.520   0.691  12.909 -0.0004  0.4329 -0.0728
 4534SOL    HW125235   0.536   0.647  12.992 -1.7058 -3.5310 -1.8289
 4534SOL    HW225236   0.509   0.612  12.857 -0.3967  0.3639  0.1159
 4535SOL     OW25237   3.530   4.609   8.484  0.6551 -0.3621 -0.0807
 4535SOL    HW125238   3.511   4.640   8.396  0.1860 -0.1508  0.0963
 4535SOL    HW225239   3.516   4.515   8.473 -0.9058 -0.1999  0.6242
 4536SOL     OW25240   0.232   1.012   8.127 -0.5030 -0.2309  0.2340
 4536SOL    HW125241   0.175   1.081   8.160  0.2108  0.5134 -0.0902
 4536SOL    HW225242   0.292   1.067   8.077 -0.9863  0.3175  0.2592
 4537SOL     OW25243   3.599   0.222  12.777  1.1489  0.0008 -0.2896
 4537SOL    HW125244   3.594   0.159  12.849  0.0996  0.7767  0.3260
 4537SOL    HW225245   3.692   0.216  12.754  1.2520 -0.1330  0.1558
 4538SOL     OW25246   0.724   3.509  17.336 -0.5608 -0.0774 -0.0930
 4538SOL    HW125247   0.733   3.423  17.376 -1.0795 -0.0943 -0.0151
 4538SOL    HW225248   0.660   3.553  17.392 -1.2869 -1.1234 -0.0931
 4539SOL     OW25249   1.591   4.416  17.734  0.5996 -0.1235 -0.0284
 4539SOL    HW125250   1.520   4.413   0.049  0.3126 -1.0739 -0.3764
 4539SOL    HW225251   1.643   4.342   0.016  0.8836  0.6447  1.3155
 4540SOL     OW25252   0.062   1.025   3.971  0.4321  0.1335 -0.2226
 4540SOL    HW125253   0.025   1.057   4.054 -0.4636 -1.8497  0.1337
 4540SOL    HW225254   0.034   0.934   3.982  0.9851 -0.1566 -1.2644
 4541SOL     OW25255   0.273   2.791   0.195 -0.2092 -0.3034  0.9441
 4541SOL    HW125256   0.341   2.738   0.235  1.0433  0.6610  0.1129
 4541SOL    HW225257   0.295   2.877   0.232  1.9676  0.5664 -2.3202
 4542SOL     OW25258   3.706   2.965   6.773 -0.5145 -0.5849  0.5768
 4542SOL    HW125259   3.762   3.011   6.711 -0.1682 -1.2193  0.4204
 4542SOL    HW225260   3.712   2.872   6.754 -1.9566 -0.0525 -2.4365
 4543SOL     OW25261   3.845   4.312   7.238 -0.2570 -0.2293 -0.5606
 4543SOL    HW125262   3.765   4.358   7.210 -1.6799 -0.3945  3.1886
 4543SOL    HW225263   3.909   4.379   7.214 -1.4148  1.1250  0.1178
 4544SOL     OW25264   4.498   0.360  17.260  0.2806  0.1898  0.1109
 4544SOL    HW125265   4.574   0.303  17.273 -0.0310 -0.3568 -0.4304
 4544SOL    HW225266   4.459   0.315  17.185 -1.5461  0.7228  0.7521
 4545SOL     OW25267   1.967   3.983   4.139 -0.1023 -0.3473 -0.9312
 4545SOL    HW125268   1.906   4.053   4.162  1.5564  0.2594  1.5518
 4545SOL    HW225269   1.931   3.916   4.196 -2.6650  0.0495 -2.0542
 4546SOL     OW25270   1.178   4.297   2.873 -0.2950 -0.3210  0.5135
 4546SOL    HW125271   1.249   4.238   2.844  0.8078  0.5052  1.5293
 4546SOL    HW225272   1.099   4.249   2.848 -0.4222  1.5404 -2.6500
 4547SOL     OW25273   0.343   1.698   7.492 -0.4644  0.2203 -0.2367
 4547SOL    HW125274   0.283   1.772   7.493 -0.7599  0.0063 -1.2516
 4547SOL    HW225275   0.418   1.721   7.547 -1.5645 -0.7747  1.6662
 4548SOL     OW25276   0.217   2.449   8.269 -0.0542  0.2618 -0.3462
 4548SOL    HW125277   0.239   2.407   8.186  1.3722 -0.8747  0.5796
 4548SOL    HW225278   0.302   2.445   8.314 -1.8681 -3.6738  2.7912
 4549SOL     OW25279   2.824   1.641   2.340 -0.1548  0.2288 -0.8159
 4549SOL    HW125280   2.738   1.635   2.299 -1.5725  1.7454  1.9402
 4549SOL    HW225281   2.845   1.733   2.328 -2.3080  0.9464  0.9725
 4550SOL     OW25282   1.400   1.155  13.891 -0.0024 -0.3384  0.3577
 4550SOL    HW125283   1.385   1.250  13.885 -0.8790 -0.4758  0.3715
 4550SOL    HW225284   1.311   1.133  13.864  0.6999 -1.1760 -1.2695
 4551SOL     OW25285   1.920   1.469   2.955  0.3215 -0.5521 -0.3582
 4551SOL    HW125286   1.879   1.481   2.869 -0.6428 -1.6225 -0.0537
 4551SOL    HW225287   1.924   1.557   2.992 -0.7086 -0.9237  0.6191
 4552SOL     OW25288   1.964   3.201   5.069 -0.1991  0.3320  0.4217
 4552SOL    HW125289   1.940   3.125   5.017  0.2192  0.6782 -0.2732
 4552SOL    HW225290   2.022   3.164   5.137 -0.3219  1.8602  1.3614
 4553SOL     OW25291   2.237   3.074   8.799 -0.4548 -0.1789  0.5246
 4553SOL    HW125292   2.253   3.105   8.710  2.7875 -0.5284  0.9837
 4553SOL    HW225293   2.150   3.108   8.819 -2.4618 -2.5986 -3.9105
 4554SOL     OW25294   2.641   1.006  16.680  0.2156  0.0119 -0.0508
 4554SOL    HW125295   2.681   1.093  16.677 -1.5780  0.8441  0.0911
 4554SOL    HW225296   2.620   0.993  16.773 -1.2515 -0.0350 -0.3843
 4555SOL     OW25297   3.802   0.533  16.124 -0.2107  0.0925  0.2318
 4555SOL    HW125298   3.884   0.562  16.084 -0.7977  4.0876  1.9487
 4555SOL    HW225299   3.791   0.585  16.203 -1.2390 -0.1480  0.2494
 4556SOL     OW25300   3.131   2.067   7.012  0.0943  0.2396 -0.1403
 4556SOL    HW125301   3.094   2.155   7.018 -0.7088 -0.0205 -1.2541
 4556SOL    HW225302   3.101   2.026   7.093  0.1928  0.1510 -0.1483
 4557SOL     OW25303   0.639   2.978   9.503  0.4789 -0.3784 -0.0016
 4557SOL    HW125304   0.580   2.997   9.430 -2.1708 -0.5075  2.1058
 4557SOL    HW225305   0.697   3.054   9.493  0.3847  0.0214  2.4676
 4558SOL     OW25306   1.623   4.522  12.078  0.2969 -0.3492 -0.0706
 4558SOL    HW125307   1.621   4.608  12.038 -0.8565 -0.7079 -0.7806
 4558SOL    HW225308   1.581   4.462  12.017  0.6580  0.6750 -1.3251
 4559SOL     OW25309   3.179   4.371  16.019  0.3549 -0.5464  0.1976
 4559SOL    HW125310   3.190   4.320  15.938 -0.2900 -0.0132 -0.2198
 4559SOL    HW225311   3.098   4.334  16.053 -0.4124  0.8337 -0.1596
 4560SOL     OW25312   4.110   1.217   8.138 -0.3139 -0.0014  0.1557
 4560SOL    HW125313   4.206   1.219   8.133 -0.2937 -1.9932 -0.2390
 4560SOL    HW225314   4.091   1.244   8.228  0.1127 -1.0687  0.5618
 4561SOL     OW25315   2.566   2.237   4.428 -0.0484 -0.5519  0.1250
 4561SOL    HW125316   2.507   2.234   4.352 -0.5676  1.7339  0.4260
 4561SOL    HW225317   2.555   2.330   4.447 -3.5791 -1.3919  2.0067
 4562SOL     OW25318   0.616   2.414   1.613  0.5157  0.8563 -0.0891
 4562SOL    HW125319   0.564   2.334   1.603  1.8402 -0.1006  0.7908
 4562SOL    HW225320   0.558   2.468   1.559 -1.5715 -0.5393  0.7375
 4563SOL     OW25321   4.392   0.326   2.223  0.0360 -0.9404 -0.6395
 4563SOL    HW125322   4.309   0.362   2.194  0.1835  0.1123  0.2628
 4563SOL    HW225323   4.417   0.268   2.151 -1.3978 -0.8913 -1.1684
 4564SOL     OW25324   0.723   1.120   9.945 -0.2395 -0.0596 -0.0744
 4564SOL    HW125325   0.649   1.151   9.997 -0.6814 -1.5419  0.1694
 4564SOL    HW225326   0.713   1.029   9.971  0.9349  0.2261  1.3541
 4565SOL     OW25327   2.584   3.518  10.928  0.0716  0.1232 -0.1918
 4565SOL    HW125328   2.607   3.552  11.014  2.7605  1.2660 -1.3802
 4565SOL    HW225329   2.659   3.556  10.882 -1.5841  2.1593 -1.2019
 4566SOL     OW25330   3.411   1.867   2.544 -0.1581  0.2269  0.0544
 4566SOL    HW125331   3.325   1.844   2.510  0.2781 -0.7134 -0.4198
 4566SOL    HW225332   3.436   1.934   2.481  0.4893  0.3172  0.4083
 4567SOL     OW25333   4.294   3.075  10.158 -0.4743 -0.3161  0.2387
 4567SOL    HW125334   4.202   3.096  10.144 -0.3149  0.3400  0.1614
 4567SOL    HW225335   4.287   2.989  10.199  1.5598  1.2125  3.8634
 4568SOL     OW25336   1.005   3.969  14.117  0.1305 -0.0521 -0.1140
 4568SOL    HW125337   1.021   4.026  14.041 -0.7632 -1.1697 -1.1485
 4568SOL    HW225338   1.095   3.936  14.122  0.3480  0.7495  1.3617
 4569SOL     OW25339   4.042   3.374  10.177  0.3016 -0.7706 -1.1127
 4569SOL    HW125340   4.039   3.405  10.267 -0.8044 -3.1167 -0.3468
 4569SOL    HW225341   4.042   3.278  10.187 -2.7155 -0.3982  2.2597
 4570SOL     OW25342   2.880   4.206   3.578  0.3491  0.2509 -0.0513
 4570SOL    HW125343   2.944   4.189   3.509 -0.9000  0.1308 -1.2004
 4570SOL    HW225344   2.884   4.129   3.634  2.0742 -2.0403 -3.3005
 4571SOL     OW25345   1.499   2.356  12.052  0.1760  0.2466 -0.2147
 4571SOL    HW125346   1.477   2.273  12.093  1.5535  0.6277  1.2965
 4571SOL    HW225347   1.432   2.376  11.986  0.8245 -0.6454 -1.1536
 4572SOL     OW25348   2.653   0.181   4.124 -0.0208 -0.1281 -1.1562
 4572SOL    HW125349   2.655   0.105   4.066  0.0458 -0.7717 -0.3208
 4572SOL    HW225350   2.720   0.236   4.085 -0.4449 -0.1901 -1.9822
 4573SOL     OW25351   4.003   3.832   0.240  0.3180 -0.3911 -0.0389
 4573SOL    HW125352   3.989   3.899   0.307  1.4033  1.0474 -1.2485
 4573SOL    HW225353   3.961   3.887   0.173  0.9481 -1.3597 -1.2253
 4574SOL     OW25354   2.720   2.951   6.121  0.1207 -0.0898  0.5529
 4574SOL    HW125355   2.767   2.869   6.132  0.1687 -0.0178  0.8665
 4574SOL    HW225356   2.646   2.948   6.182 -0.5588 -2.4654 -0.3794
 4575SOL     OW25357   2.221   3.409   6.978  0.3450 -0.2138  0.1424
 4575SOL    HW125358   2.272   3.468   7.033  0.1724  0.7414 -0.7285
 4575SOL    HW225359   2.152   3.461   6.938 -0.0465  0.2364  1.4416
 4576SOL     OW25360   3.215   1.273   5.285  0.2146  0.0742 -0.1540
 4576SOL    HW125361   3.196   1.249   5.376 -3.2009  0.5070 -0.7380
 4576SOL    HW225362   3.301   1.233   5.273 -0.5395 -2.0877  1.5241
 4577SOL     OW25363   1.352   2.228   7.527 -0.1779 -0.2329  0.3612
 4577SOL    HW125364   1.393   2.173   7.594 -0.7911  1.9145  2.5122
 4577SOL    HW225365   1.340   2.156   7.464 -0.2960  0.2870 -0.2099
 4578SOL     OW25366   1.574   0.219   5.186  0.6188 -0.6150 -0.4732
 4578SOL    HW125367   1.551   0.150   5.248  1.9696 -0.9904 -0.3783
 4578SOL    HW225368   1.626   0.173   5.120  2.4498  1.0529 -0.2085
 4579SOL     OW25369   2.714   3.354  15.214 -0.2373 -0.3453 -0.3147
 4579SOL    HW125370   2.766   3.308  15.148  2.4161 -0.1985  1.6773
 4579SOL    HW225371   2.708   3.286  15.281  0.6849 -0.2013 -0.0802
 4580SOL     OW25372   3.467   0.116   5.583 -0.2237 -0.0117  0.2521
 4580SOL    HW125373   3.372   0.122   5.594  0.0167  1.4182  1.6588
 4580SOL    HW225374   3.492   0.143   5.672  1.6090 -0.5557 -0.1111
 4581SOL     OW25375   3.972   1.725  15.227 -0.0621 -0.4407  0.0190
 4581SOL    HW125376   3.932   1.801  15.270 -0.4167 -1.0379  0.7301
 4581SOL    HW225377   4.063   1.748  15.250 -1.1034  0.0112  3.6444
 4582SOL     OW25378   0.819   1.911   3.736 -0.0620 -0.0295 -0.2007
 4582SOL    HW125379   0.803   2.004   3.721 -0.5036 -0.1172 -0.2929
 4582SOL    HW225380   0.835   1.893   3.643  0.2256  3.0263 -0.7199
 4583SOL     OW25381   1.685   1.681  12.733 -0.1529  0.3472  0.1149
 4583SOL    HW125382   1.766   1.697  12.684  0.2983 -1.3648  0.3111
 4583SOL    HW225383   1.646   1.768  12.728 -1.5803 -0.3371 -0.5182
 4584SOL     OW25384   4.522   3.427   6.375  0.1735 -0.0297  0.2896
 4584SOL    HW125385   4.434   3.438   6.338 -0.6488  2.0279  2.8865
 4584SOL    HW225386   4.503   3.484   6.449 -3.3028 -3.5238  2.1165
 4585SOL     OW25387   2.691   3.882   3.291 -0.6228  0.8095  0.3018
 4585SOL    HW125388   2.727   3.953   3.237  2.6604 -1.2160 -0.1188
 4585SOL    HW225389   2.758   3.871   3.358  0.2401 -0.9978 -0.8707
 4586SOL     OW25390   2.446   3.905   2.098  0.4496  0.2954 -0.4299
 4586SOL    HW125391   2.403   3.865   2.023  1.3374 -0.3935 -0.5726
 4586SOL    HW225392   2.410   3.993   2.088 -1.7197 -0.5013  0.4903
 4587SOL     OW25393   1.904   1.972   7.603  0.0274 -0.7799 -0.8831
 4587SOL    HW125394   1.860   1.932   7.528  0.0218 -1.8529 -0.2994
 4587SOL    HW225395   1.995   1.946   7.588 -0.2476 -3.5351  2.1243
 4588SOL     OW25396   3.491   0.873   3.911  0.0362 -0.8415 -0.2932
 4588SOL    HW125397   3.553   0.936   3.947  1.3628 -1.6403 -1.1947
 4588SOL    HW225398   3.517   0.863   3.819  1.9980 -1.9635  0.4013
 4589SOL     OW25399   2.117   1.267   7.334  0.2354 -0.1554 -0.8186
 4589SOL    HW125400   2.140   1.175   7.316 -1.4751 -0.6854 -0.2888
 4589SOL    HW225401   2.202   1.286   7.375  1.0007 -0.1988 -2.4110
 4590SOL     OW25402   0.932   2.196  10.509 -0.6972 -0.1579 -0.8517
 4590SOL    HW125403   1.020   2.214  10.478 -0.0312 -2.0193 -0.0267
 4590SOL    HW225404   0.920   2.103  10.489 -1.2064 -0.4550  0.8020
 4591SOL     OW25405   1.262   3.597   5.641 -0.0841 -0.1078 -0.1907
 4591SOL    HW125406   1.341   3.591   5.588 -0.1793 -2.2076 -0.0728
 4591SOL    HW225407   1.280   3.529   5.705 -1.3374  0.2252  0.5075
 4592SOL     OW25408   2.042   3.611   2.992 -0.1778 -0.1197  0.3677
 4592SOL    HW125409   2.026   3.632   2.900  0.0985 -3.1718 -0.3660
 4592SOL    HW225410   2.014   3.519   2.998  0.5551 -0.3744 -0.1443
 4593SOL     OW25411   0.606   3.225   7.909  0.9409 -0.4614 -0.0781
 4593SOL    HW125412   0.672   3.273   7.959  2.2284 -1.4764 -0.8206
 4593SOL    HW225413   0.630   3.134   7.922  0.2610 -0.8437 -1.4756
 4594SOL     OW25414   3.357   3.360  14.678 -1.0616 -0.0393 -0.7897
 4594SOL    HW125415   3.270   3.395  14.699 -0.9444 -0.9927  1.1914
 4594SOL    HW225416   3.325   3.318  14.598  0.7349 -0.6483 -1.1791
 4595SOL     OW25417   3.478   2.733   3.681 -0.4088 -0.4553 -0.2082
 4595SOL    HW125418   3.432   2.738   3.765  0.6376  1.6172  0.2187
 4595SOL    HW225419   3.511   2.644   3.692 -0.4790 -0.3626  0.7305
 4596SOL     OW25420   0.102   0.494  13.823  0.1277 -0.5234 -0.5207
 4596SOL    HW125421   0.193   0.515  13.844 -0.2164 -0.1370  0.5799
 4596SOL    HW225422   0.102   0.460  13.733  0.2817 -1.1101 -0.3016
 4597SOL     OW25423   2.715   3.899  14.569  0.3058  0.1711  0.0887
 4597SOL    HW125424   2.808   3.878  14.572 -0.0988 -1.6806 -0.4871
 4597SOL    HW225425   2.720   3.979  14.620 -0.1361  0.5853 -0.5162
 4598SOL     OW25426   4.163   0.537  15.288  0.7487 -0.2301 -0.2564
 4598SOL    HW125427   4.088   0.551  15.230  3.3378  2.0762 -3.0732
 4598SOL    HW225428   4.122   0.506  15.369  1.6556 -0.1185  0.2480
 4599SOL     OW25429   3.617   1.236  14.841 -0.7074  0.0692  0.2653
 4599SOL    HW125430   3.683   1.240  14.910  0.6762 -1.3032 -0.9803
 4599SOL    HW225431   3.541   1.207  14.891 -0.1098  0.9957  1.7246
 4600SOL     OW25432   2.446   1.443   9.594 -0.1393  0.3063 -0.2442
 4600SOL    HW125433   2.370   1.387   9.610  1.0868 -1.7658 -1.5425
 4600SOL    HW225434   2.503   1.412   9.665  1.0645  2.0728 -0.4358
 4601SOL     OW25435   2.491   3.114   1.792  0.8725 -0.5543  0.0144
 4601SOL    HW125436   2.505   3.101   1.886  3.4906 -0.0515 -0.2977
 4601SOL    HW225437   2.431   3.188   1.791 -1.0807 -2.1374  0.7116
 4602SOL     OW25438   1.360   1.749   3.298  0.3541 -0.7971 -0.0330
 4602SOL    HW125439   1.310   1.819   3.256  1.0883  0.5234  1.2884
 4602SOL    HW225440   1.284   1.697   3.324  2.2317 -3.7843 -0.6197
 4603SOL     OW25441   3.521   0.524   8.477 -0.4434  0.5169  0.3921
 4603SOL    HW125442   3.562   0.553   8.395 -1.0876 -2.1936 -0.8909
 4603SOL    HW225443   3.429   0.514   8.452  0.5241  0.0268 -3.0682
 4604SOL     OW25444   0.826   3.189   5.100  0.3453  0.4147 -0.1204
 4604SOL    HW125445   0.790   3.177   5.012  2.8903  0.9439 -1.2497
 4604SOL    HW225446   0.830   3.104   5.143  0.2464  0.1100 -0.7123
 4605SOL     OW25447   0.004   2.374   0.750  0.1592 -0.1292 -0.0575
 4605SOL    HW125448   0.069   2.401   0.815 -1.1740 -1.4774  1.8513
 4605SOL    HW225449   0.056   2.320   0.691 -1.4992 -2.4357  0.5920
 4606SOL     OW25450   4.484   3.181   5.678 -0.0172  0.0584  0.5840
 4606SOL    HW125451   4.564   3.203   5.727  0.9523  0.7844 -1.3364
 4606SOL    HW225452   4.411   3.200   5.737 -0.5765 -1.0442  0.2334
 4607SOL     OW25453   4.472   0.857   2.438  0.3326 -0.6073 -0.0079
 4607SOL    HW125454   4.457   0.931   2.379  0.7475  0.7151  1.5549
 4607SOL    HW225455   4.567   0.848   2.432  0.3273  0.0622 -1.0789
 4608SOL     OW25456   2.166   0.681   5.127  0.0289  0.3055  0.1366
 4608SOL    HW125457   2.177   0.641   5.213  0.4085 -0.7889 -0.4302
 4608SOL    HW225458   2.111   0.754   5.154  1.9111  1.5182  0.7520
 4609SOL     OW25459   2.534   0.275   9.076 -0.2106  0.2410 -0.2387
 4609SOL    HW125460   2.516   0.208   9.141  0.9984 -0.0406 -0.1995
 4609SOL    HW225461   2.629   0.269   9.084 -0.4248  0.4842  2.5014
 4610SOL     OW25462   4.377   3.132   6.506 -0.2576 -0.0912  0.1857
 4610SOL    HW125463   4.449   3.143   6.444 -0.2043 -1.4955 -0.0168
 4610SOL    HW225464   4.362   3.038   6.499 -2.5306  0.3301 -0.4553
 4611SOL     OW25465   4.506   4.224  17.372 -0.3379 -0.0167  0.2136
 4611SOL    HW125466   4.601   4.215  17.373 -0.3522  0.0997  2.5236
 4611SOL    HW225467   4.470   4.137  17.353 -0.0557  0.7671 -3.9135
 4612SOL     OW25468   0.030   0.373   7.750  0.1390 -0.1767  0.2794
 4612SOL    HW125469   4.673   0.364   7.755  0.2166 -0.2189  1.6893
 4612SOL    HW225470   0.041   0.278   7.756  0.7666 -0.0547  1.1258
 4613SOL     OW25471   0.787   4.707   3.027  0.0283 -0.1109  0.1981
 4613SOL    HW125472   0.803   4.613   3.017 -0.2257  0.1606 -2.6674
 4613SOL    HW225473   0.813   4.714   3.119  2.0409  0.7052 -0.4373
 4614SOL     OW25474   4.406   2.527   7.613 -0.5728  0.6751  0.1104
 4614SOL    HW125475   4.382   2.475   7.536 -0.9890  0.8098  0.1479
 4614SOL    HW225476   4.375   2.462   7.677  1.4635 -0.6947 -0.2958
 4615SOL     OW25477   0.631   0.733   6.459  0.3231  0.0897 -0.0857
 4615SOL    HW125478   0.544   0.693   6.452 -0.0236  0.5895  1.3679
 4615SOL    HW225479   0.609   0.821   6.428 -0.0120 -0.5974 -1.8016
 4616SOL     OW25480   2.846   3.637   9.843  0.4374 -0.6076  0.2723
 4616SOL    HW125481   2.832   3.730   9.857  0.2564 -0.3373 -1.6885
 4616SOL    HW225482   2.764   3.601   9.877  0.9448 -1.3486  0.7041
 4617SOL     OW25483   4.165   0.232   2.543  0.4501 -0.0708 -0.2653
 4617SOL    HW125484   4.253   0.245   2.577 -0.6671  2.3979  1.7032
 4617SOL    HW225485   4.108   0.267   2.611  1.4261  1.8167 -0.4197
 4618SOL     OW25486   1.674   2.530   1.880  0.1297 -0.3192  0.5172
 4618SOL    HW125487   1.743   2.592   1.859  1.3811 -1.6125  0.7655
 4618SOL    HW225488   1.729   2.455   1.900  2.1397  1.5134  1.7672
 4619SOL     OW25489   4.408   3.730  12.703 -0.2193  0.2011 -0.4937
 4619SOL    HW125490   4.487   3.677  12.695 -0.6491 -0.8987  2.4740
 4619SOL    HW225491   4.350   3.700  12.632  0.1375  0.2658 -0.8114
 4620SOL     OW25492   1.125   3.936   7.427  0.0376  0.1493 -0.0805
 4620SOL    HW125493   1.177   3.990   7.367  0.5199 -0.0549  0.1568
 4620SOL    HW225494   1.148   3.851   7.390  0.6105 -0.3608  1.4305
 4621SOL     OW25495   3.842   0.857   4.075  0.0426 -0.5137  0.7848
 4621SOL    HW125496   3.841   0.833   4.167 -1.2022 -2.9684  0.1342
 4621SOL    HW225497   3.915   0.919   4.070  0.2630 -0.7906  0.5922
 4622SOL     OW25498   1.668   0.919   8.417  0.1044  0.5105 -0.2407
 4622SOL    HW125499   1.655   1.001   8.368  2.8314 -0.4048 -2.5219
 4622SOL    HW225500   1.719   0.862   8.359  0.3851 -2.3288  2.7982
 4623SOL     OW25501   3.718   2.570   8.521 -0.3685 -0.3748 -0.0555
 4623SOL    HW125502   3.747   2.511   8.452 -1.9161 -1.4967  0.2368
 4623SOL    HW225503   3.628   2.586   8.493  0.4531 -0.9535 -2.9872
 4624SOL     OW25504   2.056   1.732   4.319  0.0447  0.3923  0.2751
 4624SOL    HW125505   2.129   1.704   4.265  0.0764  0.6822  0.1683
 4624SOL    HW225506   2.025   1.810   4.273  0.0691 -0.5670 -1.3778
 4625SOL     OW25507   2.962   0.528   3.203  0.2123 -0.4236 -0.2703
 4625SOL    HW125508   2.993   0.618   3.199  1.5218 -0.8263  0.9615
 4625SOL    HW225509   2.916   0.529   3.287 -0.3837  0.6742 -0.6124
 4626SOL     OW25510   0.930   2.008   4.087  0.2342 -0.2774  0.1742
 4626SOL    HW125511   0.971   2.085   4.127  2.5543 -0.2884 -2.1763
 4626SOL    HW225512   0.871   2.054   4.029  1.6392  0.0197 -1.0162
 4627SOL     OW25513   4.424   4.175   7.646 -0.2346 -0.1575  0.4597
 4627SOL    HW125514   4.458   4.092   7.679  1.3261 -0.3205 -1.5621
 4627SOL    HW225515   4.330   4.164   7.639 -0.1658 -1.7167  1.8926
 4628SOL     OW25516   1.640   2.920   9.391 -0.1193 -0.3874 -0.3575
 4628SOL    HW125517   1.615   3.011   9.409  0.1245 -0.7265  1.7392
 4628SOL    HW225518   1.565   2.887   9.342 -1.0368  0.5192  0.4258
 4629SOL     OW25519   2.281   1.465   9.104 -0.5771  0.5654 -0.0600
 4629SOL    HW125520   2.351   1.429   9.159  0.1526  1.2583 -0.5402
 4629SOL    HW225521   2.313   1.555   9.096 -0.0889  0.2212 -1.8705
 4630SOL     OW25522   1.528   0.086   9.971 -0.1093 -0.4769 -0.7984
 4630SOL    HW125523   1.520   4.729   9.956  0.5314 -0.6901  0.1529
 4630SOL    HW225524   1.607   0.088  10.025 -0.6537 -0.8594  0.0299
 4631SOL     OW25525   0.082   4.240   8.446 -0.8683  0.2576 -0.3613
 4631SOL    HW125526   0.099   4.171   8.381  0.3003 -1.0433  1.3001
 4631SOL    HW225527   0.086   4.197   8.532 -1.2874 -0.3996 -0.6708
 4632SOL     OW25528   3.349   2.790  10.483  0.0953 -0.4154 -0.4384
 4632SOL    HW125529   3.427   2.735  10.478  1.2459  1.0568  1.4370
 4632SOL    HW225530   3.338   2.823  10.572  0.6019 -1.3479 -0.0233
 4633SOL     OW25531   3.655   0.087  17.341  0.2139 -0.5645  0.0294
 4633SOL    HW125532   3.731   0.078  17.399  0.7939 -0.0417 -0.6416
 4633SOL    HW225533   3.582   0.038  17.379 -0.5496  0.1004 -0.5946
 4634SOL     OW25534   4.312   3.829   4.725  0.0782  0.9551 -0.2169
 4634SOL    HW125535   4.359   3.746   4.721 -1.2375  0.2555 -0.9735
 4634SOL    HW225536   4.377   3.882   4.679  0.0473  2.2192  1.1734
 4635SOL     OW25537   2.242   3.049   2.938 -0.2521 -0.3263 -0.0970
 4635SOL    HW125538   2.314   3.112   2.940 -0.8104  0.2488  1.9875
 4635SOL    HW225539   2.199   3.081   3.017 -1.1085 -0.8225 -0.3631
 4636SOL     OW25540   2.894   1.222  14.246 -0.0346  0.3031 -0.0785
 4636SOL    HW125541   2.818   1.184  14.290 -0.6415 -0.9362 -2.1646
 4636SOL    HW225542   2.868   1.201  14.156  0.1127 -0.7983  0.1302
 4637SOL     OW25543   2.983   0.347  13.035  0.8601 -0.1346  0.3387
 4637SOL    HW125544   2.961   0.436  13.008  0.8986  0.3085  1.7979
 4637SOL    HW225545   3.062   0.364  13.086  1.1849 -2.9067  0.7583
 4638SOL     OW25546   2.093   4.445   7.015  0.2317  0.1763  0.0101
 4638SOL    HW125547   2.078   4.437   6.921 -0.3764  0.8519  0.0458
 4638SOL    HW225548   2.113   4.353   7.032 -1.4537 -0.4968 -1.6365
 4639SOL     OW25549   1.983   2.155  11.109 -0.3056  0.3011  0.5166
 4639SOL    HW125550   1.896   2.192  11.124 -0.0808  0.0508  2.4135
 4639SOL    HW225551   2.026   2.175  11.192 -0.6574  0.4047  0.6767
 4640SOL     OW25552   4.618   2.967   7.821  0.2111 -0.0952  0.0390
 4640SOL    HW125553   4.556   2.895   7.807  0.3691 -0.1669 -0.2979
 4640SOL    HW225554   4.593   3.022   7.747  0.7270 -0.9437 -0.7693
 4641SOL     OW25555   0.594   4.526  11.215  0.0342 -0.3991  0.0856
 4641SOL    HW125556   0.511   4.480  11.204  0.5456 -1.5365  1.0299
 4641SOL    HW225557   0.591   4.535  11.311 -0.0587 -1.9474  0.2228
 4642SOL     OW25558   3.776   1.923  16.382  0.7944 -0.3894 -0.9964
 4642SOL    HW125559   3.728   1.841  16.369  0.2646 -0.5316  1.9231
 4642SOL    HW225560   3.851   1.912  16.324 -0.7477 -1.5214 -2.7792
 4643SOL     OW25561   0.336   0.634  13.565 -0.1740  0.0508  0.1537
 4643SOL    HW125562   0.320   0.722  13.533 -3.5185 -0.3404  0.6741
 4643SOL    HW225563   0.246   0.602  13.574  0.2413 -1.4687 -1.0456
 4644SOL     OW25564   2.908   2.706   7.617 -0.1544 -0.0883 -0.0525
 4644SOL    HW125565   2.848   2.757   7.673 -0.6344 -0.2549 -0.4185
 4644SOL    HW225566   2.962   2.665   7.685  0.4544  1.1805  0.2370
 4645SOL     OW25567   4.056   1.541   8.586  0.0014 -0.1134  0.1459
 4645SOL    HW125568   4.111   1.513   8.660  0.2183 -2.6503 -0.9802
 4645SOL    HW225569   4.059   1.633   8.612 -1.6048  0.0201 -0.1358
 4646SOL     OW25570   2.073   2.232   7.934  0.3351 -0.1763 -0.0035
 4646SOL    HW125571   2.048   2.323   7.953  0.2576 -0.8410  2.9798
 4646SOL    HW225572   1.989   2.205   7.897  1.4592 -1.2895 -1.7067
 4647SOL     OW25573   4.537   4.704   8.425 -0.0691 -0.3783 -0.1270
 4647SOL    HW125574   4.462   4.656   8.459  0.3413 -0.4805  0.6255
 4647SOL    HW225575   4.609   4.642   8.436 -2.1134 -2.3513  2.2135
 4648SOL     OW25576   4.285   0.552   4.887  0.0640  0.1089 -0.8028
 4648SOL    HW125577   4.314   0.482   4.945  0.3167 -0.2664 -1.3816
 4648SOL    HW225578   4.332   0.625   4.928 -0.3847 -0.7963  1.3467
 4649SOL     OW25579   2.183   2.073   4.501  0.6364  0.6706  0.3527
 4649SOL    HW125580   2.093   2.073   4.533  0.7550 -1.2516  0.7064
 4649SOL    HW225581   2.198   1.981   4.523  1.4629  0.7582  0.1663
 4650SOL     OW25582   4.643   1.756  16.471  0.8500  0.2196 -0.2260
 4650SOL    HW125583   4.681   1.772  16.385  3.4639 -0.4592  0.8074
 4650SOL    HW225584   4.681   1.674  16.501 -1.2586 -0.7620 -0.2719
 4651SOL     OW25585   4.544   2.297   6.632 -0.2538 -0.4969  0.4644
 4651SOL    HW125586   4.496   2.380   6.631 -0.5823 -0.6972 -0.4358
 4651SOL    HW225587   4.479   2.241   6.590 -1.6976  0.1529  1.8522
 4652SOL     OW25588   1.450   4.440   9.775 -0.2985  0.0837  0.1379
 4652SOL    HW125589   1.508   4.476   9.707  0.2048  0.6797  0.8879
 4652SOL    HW225590   1.470   4.494   9.851  1.8490 -1.6405  0.8061
 4653SOL     OW25591   4.062   1.124  16.026  0.6477  0.0415  0.1039
 4653SOL    HW125592   4.100   1.116  15.939 -0.7737 -0.6491 -0.4454
 4653SOL    HW225593   3.984   1.069  16.017  0.0190  1.4675 -2.9637
 4654SOL     OW25594   1.505   3.145   6.331  0.2679 -0.5834 -0.1589
 4654SOL    HW125595   1.456   3.170   6.253 -2.1350 -0.8127  1.2729
 4654SOL    HW225596   1.451   3.182   6.401 -0.8937 -0.6449 -1.0323
 4655SOL     OW25597   1.566   3.851   3.993  0.0921 -0.0977  0.1824
 4655SOL    HW125598   1.607   3.933   3.966 -0.8223  0.9845  2.1572
 4655SOL    HW225599   1.525   3.868   4.077 -1.1102  1.4917 -0.7158
 4656SOL     OW25600   2.867   1.516   3.175 -0.3281  0.1747 -0.1262
 4656SOL    HW125601   2.882   1.483   3.086 -1.0715 -1.2619  0.2983
 4656SOL    HW225602   2.774   1.537   3.188 -0.4654  0.4304 -1.4954
 4657SOL     OW25603   1.838   0.856   5.763  0.3536 -0.5899  0.2441
 4657SOL    HW125604   1.903   0.862   5.832  1.5447  1.1976 -1.0356
 4657SOL    HW225605   1.882   0.858   5.678  0.1431 -1.3787  0.1166
 4658SOL     OW25606   3.653   2.441  14.913  0.3561  0.6910 -0.6977
 4658SOL    HW125607   3.591   2.480  14.975  1.1406 -0.2827  0.6887
 4658SOL    HW225608   3.708   2.517  14.891  1.3370  0.3117  0.4801
 4659SOL     OW25609   2.997   3.796   6.069  0.1345 -0.2211  0.4069
 4659SOL    HW125610   3.081   3.842   6.060  0.1407  0.1556  2.4351
 4659SOL    HW225611   3.015   3.742   6.146  0.9080 -0.0122  0.3701
 4660SOL     OW25612   0.857   3.035   6.187  0.0597  0.4270  0.6244
 4660SOL    HW125613   0.915   2.966   6.219  1.6703  1.7672  0.5826
 4660SOL    HW225614   0.828   2.986   6.109  0.8850  1.3593 -0.2751
 4661SOL     OW25615   4.020   2.550   9.159 -0.6746 -0.1164 -0.3359
 4661SOL    HW125616   4.015   2.564   9.254  1.0260  2.7817 -0.6899
 4661SOL    HW225617   3.969   2.621   9.121 -1.3142 -0.8358 -0.8115
 4662SOL     OW25618   3.928   4.047  16.623 -0.6215 -0.0744 -0.4840
 4662SOL    HW125619   3.962   3.958  16.632  0.2256  0.2639 -0.3657
 4662SOL    HW225620   3.978   4.095  16.689  1.4559 -2.3619 -0.4074
 4663SOL     OW25621   2.366   0.290   7.266 -0.0952 -0.0844  0.0076
 4663SOL    HW125622   2.348   0.323   7.178  1.2570  1.6583  0.3741
 4663SOL    HW225623   2.384   0.369   7.318  0.0305 -0.4261  0.4789
 4664SOL     OW25624   3.304   3.100   1.853  0.5441 -0.1127 -0.3075
 4664SOL    HW125625   3.256   3.092   1.770  0.9917 -0.9081 -0.5015
 4664SOL    HW225626   3.329   3.008   1.867 -2.1919 -0.6619  0.9628
 4665SOL     OW25627   0.191   3.448   4.362  0.7748 -0.2272 -0.0936
 4665SOL    HW125628   0.136   3.509   4.312  2.0801  1.6395  0.7410
 4665SOL    HW225629   0.207   3.500   4.441 -1.0747  1.7002 -0.9877
 4666SOL     OW25630   3.485   2.444   8.076 -0.3495 -0.2028 -0.2753
 4666SOL    HW125631   3.459   2.420   8.165  1.9406  1.4309  0.8270
 4666SOL    HW225632   3.504   2.365   8.026 -1.8305 -0.0506 -1.0806
 4667SOL     OW25633   2.749   3.931  17.148 -0.3430  0.1554 -0.0058
 4667SOL    HW125634   2.721   3.850  17.104  0.9668  0.0209 -0.5964
 4667SOL    HW225635   2.795   3.896  17.224  0.6427  0.6680 -0.3657
 4668SOL     OW25636   1.323   3.635  12.749  0.1093  0.1738 -0.0352
 4668SOL    HW125637   1.304   3.728  12.755 -1.3173 -0.1612  0.6749
 4668SOL    HW225638   1.243   3.601  12.788  0.7043 -2.2122 -0.9046
 4669SOL     OW25639   0.394   0.443  14.168  0.8358 -0.1941 -0.0141
 4669SOL    HW125640   0.323   0.506  14.166  0.0363 -1.1192 -0.5988
 4669SOL    HW225641   0.459   0.510  14.189 -1.3256  2.1232 -0.7247
 4670SOL     OW25642   1.353   0.781  10.107 -0.2246 -0.2332 -0.9080
 4670SOL    HW125643   1.375   0.734  10.026  2.8658 -2.4212  1.2096
 4670SOL    HW225644   1.371   0.871  10.081 -0.3079  0.1468  0.3661
 4671SOL     OW25645   2.834   1.911   4.363 -0.2413  0.4456  0.0856
 4671SOL    HW125646   2.844   1.816   4.350 -2.7652 -0.1153  2.2832
 4671SOL    HW225647   2.919   1.924   4.406  0.3370 -1.7231 -0.3998
 4672SOL     OW25648   3.911   0.590   4.315  0.3628  0.0905  0.1641
 4672SOL    HW125649   3.988   0.558   4.362  1.6595  0.3297 -1.8235
 4672SOL    HW225650   3.908   0.685   4.327 -0.7628 -0.0079  0.6348
 4673SOL     OW25651   1.846   3.138   0.319  0.0968  0.0529  0.6340
 4673SOL    HW125652   1.813   3.175   0.237 -2.1833  0.0073  1.5269
 4673SOL    HW225653   1.826   3.049   0.290 -2.2175  0.5773  0.6416
 4674SOL     OW25654   2.592   0.125  11.256 -0.0096  0.0091  0.3719
 4674SOL    HW125655   2.571   0.098  11.167 -1.6213  0.8798  0.4901
 4674SOL    HW225656   2.638   0.208  11.239 -2.3171  0.9421 -1.2164
 4675SOL     OW25657   1.990   3.899   8.716  0.3967 -0.5091  0.2454
 4675SOL    HW125658   2.004   3.829   8.780 -1.6678 -0.1508  1.1053
 4675SOL    HW225659   2.045   3.969   8.752 -2.2962  2.2516 -1.0149
 4676SOL     OW25660   4.650   2.854   2.980 -0.2532  0.3668 -0.2625
 4676SOL    HW125661   4.718   2.899   2.929 -0.1983  1.4311  0.7376
 4676SOL    HW225662   4.714   2.826   3.046  0.9042 -1.4310 -2.1251
 4677SOL     OW25663   4.047   2.915   3.121 -0.4181 -0.0762 -0.3601
 4677SOL    HW125664   4.143   2.915   3.128 -0.3966  0.0425 -0.6448
 4677SOL    HW225665   4.031   2.823   3.101  1.2298 -0.0840 -1.6739
 4678SOL     OW25666   4.644   3.447  13.019 -0.4934 -0.3246 -0.5940
 4678SOL    HW125667   4.702   3.436  12.944 -1.1875  0.5803 -1.2472
 4678SOL    HW225668   4.710   3.458  13.088 -1.0996 -2.2818  0.3311
 4679SOL     OW25669   2.885   3.845   7.040 -0.1672 -0.3024 -0.1514
 4679SOL    HW125670   2.928   3.780   6.984  1.2529 -1.7694  2.6433
 4679SOL    HW225671   2.878   3.917   6.977  0.8603  0.8978  1.1261
 4680SOL     OW25672   1.975   4.423   5.974  0.3768  0.0778  0.9742
 4680SOL    HW125673   2.026   4.479   6.033 -0.1044  1.7722 -0.2245
 4680SOL    HW225674   1.913   4.479   5.927  1.4544  1.2213  0.9223
 4681SOL     OW25675   0.706   0.005   7.723 -0.1449 -0.0837  0.4788
 4681SOL    HW125676   0.739   4.676   7.782  0.5854 -0.3854 -0.2650
 4681SOL    HW225677   0.725   0.085   7.772  0.6540  0.4220 -0.6490
 4682SOL     OW25678   1.550   0.381   9.956  0.2024 -0.0644  0.5178
 4682SOL    HW125679   1.532   0.311  10.019 -1.7275  1.5951  1.8106
 4682SOL    HW225680   1.638   0.412   9.978 -0.0237  0.7215  0.2873
 4683SOL     OW25681   1.636   0.319   5.587 -0.4253  0.6814 -0.0344
 4683SOL    HW125682   1.686   0.397   5.610 -1.0360  0.3228  2.5000
 4683SOL    HW225683   1.593   0.348   5.507  1.4907 -0.7804 -1.5907
 4684SOL     OW25684   2.926   3.431  11.540 -0.6987  0.5935  0.1518
 4684SOL    HW125685   2.931   3.517  11.581  2.2918  1.9915 -3.1218
 4684SOL    HW225686   3.003   3.384  11.574 -0.3442  1.2744  0.3067
 4685SOL     OW25687   0.320   1.448   8.037  0.2412  0.2784 -0.1381
 4685SOL    HW125688   0.358   1.431   7.950 -1.4630 -0.1908 -0.7965
 4685SOL    HW225689   0.245   1.494   8.000  0.4637 -0.1390 -1.1315
 4686SOL     OW25690   1.033   3.254   0.610  0.1023  0.0720  0.5314
 4686SOL    HW125691   1.050   3.196   0.684  2.1741 -0.3696 -0.2882
 4686SOL    HW225692   1.012   3.339   0.650 -3.8410 -1.5755  1.9334
 4687SOL     OW25693   4.237   2.464   6.520 -0.0571  0.2021 -0.1603
 4687SOL    HW125694   4.233   2.377   6.560  2.5283 -0.7973 -2.0860
 4687SOL    HW225695   4.233   2.434   6.429 -0.5048 -0.3982  0.0588
 4688SOL     OW25696   0.610   4.267   7.070 -0.0460 -0.3031 -0.1466
 4688SOL    HW125697   0.538   4.270   7.133  1.6061 -0.4617  1.7427
 4688SOL    HW225698   0.569   4.293   6.988 -0.5201 -1.2031 -0.1993
 4689SOL     OW25699   0.628   2.287   3.195 -0.5123 -0.5795 -0.1978
 4689SOL    HW125700   0.611   2.366   3.143  1.8598  0.3958  0.5138
 4689SOL    HW225701   0.718   2.282   3.162 -0.7905  1.1329 -1.2231
 4690SOL     OW25702   4.533   2.753  14.140 -0.0998 -0.1842  0.7888
 4690SOL    HW125703   4.519   2.695  14.215  1.9562 -2.7555 -0.8341
 4690SOL    HW225704   4.497   2.834  14.176  0.7076  0.7270 -0.4278
 4691SOL     OW25705   3.554   2.254   5.190 -0.0508 -0.1218 -0.0319
 4691SOL    HW125706   3.640   2.273   5.153  0.4958 -2.2306  0.1430
 4691SOL    HW225707   3.552   2.317   5.263  1.2006 -1.5604  1.2359
 4692SOL     OW25708   2.600   2.021   5.267  0.2073 -0.4908 -0.2494
 4692SOL    HW125709   2.665   1.965   5.225  0.7419  0.8318 -1.1424
 4692SOL    HW225710   2.519   1.992   5.225 -0.4729  0.1308  0.6329
 4693SOL     OW25711   4.173   2.054   8.377  0.2120 -0.1415  0.1353
 4693SOL    HW125712   4.143   2.016   8.294  0.0641  0.5788 -0.1435
 4693SOL    HW225713   4.258   2.009   8.376 -0.0579 -0.6113 -2.1117
 4694SOL     OW25714   2.714   4.085   9.162  0.2899  0.1623  0.0208
 4694SOL    HW125715   2.761   4.151   9.213  0.1993  0.2867 -0.0549
 4694SOL    HW225716   2.706   4.010   9.221 -0.1362  1.0284  1.0550
 4695SOL     OW25717   1.834   1.581  13.144 -0.9755 -0.5023 -0.2374
 4695SOL    HW125718   1.750   1.589  13.099 -1.8437  0.1469  1.5116
 4695SOL    HW225719   1.880   1.658  13.109 -2.5205  0.3095 -0.4993
 4696SOL     OW25720   4.367   4.615   7.105  0.3292 -0.3005  0.0425
 4696SOL    HW125721   4.319   4.564   7.170  0.7636 -1.6678 -0.7040
 4696SOL    HW225722   4.390   4.690   7.159 -1.2530 -0.2250  0.6161
 4697SOL     OW25723   0.733   4.086   7.616  0.6609  1.0576  0.7746
 4697SOL    HW125724   0.803   4.146   7.645 -0.5105  2.1976  1.2429
 4697SOL    HW225725   0.696   4.045   7.694  2.1541 -0.2342  0.8030
 4698SOL     OW25726   0.717   3.415   6.578 -0.1420  0.3521  0.4517
 4698SOL    HW125727   0.711   3.388   6.669 -0.7656  1.0092  0.6106
 4698SOL    HW225728   0.723   3.334   6.527 -3.1021  0.9927 -0.9311
 4699SOL     OW25729   4.561   4.144   7.133  0.3160 -0.3058 -0.5996
 4699SOL    HW125730   4.598   4.101   7.210 -0.4930 -0.7318 -0.4392
 4699SOL    HW225731   4.468   4.129   7.154  0.7857 -0.6610  1.1576
 4700SOL     OW25732   2.551   1.282   2.176 -0.5350 -0.0510 -0.1923
 4700SOL    HW125733   2.592   1.260   2.260 -0.0470  1.6097  0.0067
 4700SOL    HW225734   2.537   1.199   2.131  0.4448 -1.5006  2.1365
 4701SOL     OW25735   3.773   4.067  17.197  0.5884  0.1789 -0.1793
 4701SOL    HW125736   3.812   4.031  17.277  2.0268 -0.4129 -1.1375
 4701SOL    HW225737   3.684   4.082  17.227  0.8054  0.1029  0.4910
 4702SOL     OW25738   1.004   0.171   6.312 -0.4167  0.0507  0.3236
 4702SOL    HW125739   1.012   0.226   6.234 -0.8079  0.3174  0.4725
 4702SOL    HW225740   0.941   0.106   6.278 -0.0650  0.8014 -1.7806
 4703SOL     OW25741   0.828   0.437  13.375  0.2698 -0.3692  0.0959
 4703SOL    HW125742   0.922   0.452  13.363  0.7776 -0.4850  3.7270
 4703SOL    HW225743   0.786   0.522  13.387  0.9272 -0.4863  3.4795
 4704SOL     OW25744   4.611   3.226   6.708  0.0436 -0.0927  0.1277
 4704SOL    HW125745   4.544   3.265   6.763  1.4542  2.0605  0.3199
 4704SOL    HW225746   4.570   3.208   6.623 -2.2353 -0.8645  1.3862
 4705SOL     OW25747   4.055   2.233   4.781 -0.0460 -0.2824 -0.1864
 4705SOL    HW125748   4.116   2.283   4.836 -0.0542  0.6139 -0.9941
 4705SOL    HW225749   4.092   2.145   4.791  0.8799  0.0400 -0.7376
 4706SOL     OW25750   4.041   0.236   4.488 -0.0351 -0.1091  0.1434
 4706SOL    HW125751   4.007   0.241   4.577 -1.1611  1.8615 -0.4128
 4706SOL    HW225752   4.112   0.175   4.510 -1.1298 -1.3887  0.1543
 4707SOL     OW25753   1.850   3.329  10.052  0.3961 -0.0239 -0.5129
 4707SOL    HW125754   1.905   3.274  10.108 -0.1334 -1.1927 -1.1395
 4707SOL    HW225755   1.781   3.263  10.046  1.7810 -1.3135 -2.6838
 4708SOL     OW25756   4.099   3.258   6.154 -0.0176 -0.1807 -0.4252
 4708SOL    HW125757   4.187   3.294   6.143  0.1855 -0.2828  0.7774
 4708SOL    HW225758   4.057   3.340   6.178 -0.7800 -0.8719  0.6160
 4709SOL     OW25759   2.111   4.575   2.511 -0.4665 -0.0017  0.2724
 4709SOL    HW125760   2.123   4.667   2.534  1.9747 -0.6186  1.4873
 4709SOL    HW225761   2.025   4.574   2.470 -2.1386 -0.4252  3.7807
 4710SOL     OW25762   2.324   0.048   8.094 -0.2502 -0.0489  0.2748
 4710SOL    HW125763   2.252   4.727   8.116 -0.1042 -0.1491  0.4891
 4710SOL    HW225764   2.276   0.130   8.102  1.2618  1.0209 -1.4841
 4711SOL     OW25765   3.231   1.197  12.064  0.2223  0.8903  0.5347
 4711SOL    HW125766   3.277   1.193  12.147  0.1135 -1.4143  0.4621
 4711SOL    HW225767   3.171   1.271  12.077 -1.5187 -0.0280 -2.3020
 4712SOL     OW25768   0.377   0.412   9.764  0.6275 -0.7836  0.1090
 4712SOL    HW125769   0.375   0.318   9.746  3.2595 -0.8621  0.2684
 4712SOL    HW225770   0.338   0.411   9.851 -1.4996  0.1872 -0.8413
 4713SOL     OW25771   3.748   2.602   5.246  0.1862  0.4127  0.1506
 4713SOL    HW125772   3.818   2.613   5.310  0.1580  0.2474  0.2101
 4713SOL    HW225773   3.774   2.524   5.196 -2.2588 -0.1023 -0.3299
 4714SOL     OW25774   2.770   3.158   7.042  0.7347 -0.4061 -0.2982
 4714SOL    HW125775   2.745   3.155   6.949 -0.6170  3.6492 -0.0830
 4714SOL    HW225776   2.862   3.132   7.040  1.3337  1.6098  0.6913
 4715SOL     OW25777   0.329   0.498  13.302 -0.8054  0.5584  0.2603
 4715SOL    HW125778   0.330   0.573  13.244  0.1087  0.2832 -0.0796
 4715SOL    HW225779   0.316   0.548  13.382  2.0877  0.8126  0.5449
 4716SOL     OW25780   1.196   1.008  10.375  0.7864  0.3339  0.1890
 4716SOL    HW125781   1.260   0.943  10.405 -0.6285  0.2295  2.9574
 4716SOL    HW225782   1.195   0.980  10.283  0.7190 -1.3540  0.6995
 4717SOL     OW25783   3.847   3.556   7.490 -0.5721  0.0100 -0.1824
 4717SOL    HW125784   3.771   3.510   7.455 -0.3724  0.1846 -0.8349
 4717SOL    HW225785   3.827   3.637   7.444 -1.0543  1.4761  2.6269
 4718SOL     OW25786   2.911   1.882  12.201 -0.1491  0.1630 -0.2533
 4718SOL    HW125787   2.955   1.932  12.132 -1.4309 -0.8185 -1.7978
 4718SOL    HW225788   2.963   1.802  12.201 -0.0594  0.2379  1.6109
 4719SOL     OW25789   3.018   1.306  16.289 -0.7487 -0.1972 -0.0622
 4719SOL    HW125790   3.029   1.400  16.272  0.5862 -0.2525  0.5278
 4719SOL    HW225791   2.922   1.308  16.288 -0.6964  1.9437 -1.3193
 4720SOL     OW25792   1.720   3.711   4.554  0.0534 -0.0694  0.1814
 4720SOL    HW125793   1.685   3.698   4.642  0.9307 -0.3765  0.4866
 4720SOL    HW225794   1.655   3.664   4.503 -0.5466  1.8811 -0.8129
 4721SOL     OW25795   1.486   0.648   9.346  0.2836  0.0073  0.4181
 4721SOL    HW125796   1.483   0.554   9.326  0.7531  0.6178 -2.4897
 4721SOL    HW225797   1.528   0.667   9.263  0.0507  0.2396  0.3526
 4722SOL     OW25798   3.569   1.965  17.220  0.4480 -0.0732 -0.0124
 4722SOL    HW125799   3.523   2.048  17.202  0.4791 -0.2699 -1.0117
 4722SOL    HW225800   3.611   1.995  17.301  0.8864 -0.1655 -0.2073
 4723SOL     OW25801   2.017   4.094   1.671 -0.2239  0.0304 -0.1337
 4723SOL    HW125802   2.100   4.132   1.641 -0.9309  0.0187 -2.1246
 4723SOL    HW225803   2.027   4.008   1.630 -1.9661 -1.2115  2.0279
 4724SOL     OW25804   3.765   0.017  16.799 -0.2930  0.1383  0.5925
 4724SOL    HW125805   3.831   0.051  16.739 -1.2488 -1.2249 -1.2013
 4724SOL    HW225806   3.813   0.021  16.882  1.3619  2.6610 -0.4704
 4725SOL     OW25807   3.216   0.115  13.297 -0.1544 -0.0156  0.0314
 4725SOL    HW125808   3.178   0.029  13.315 -2.7187  1.0321 -0.4053
 4725SOL    HW225809   3.200   0.165  13.377 -0.7867 -0.2748  0.0666
 4726SOL     OW25810   2.144   2.357   8.318 -0.3657  0.0880 -0.0202
 4726SOL    HW125811   2.068   2.409   8.291 -0.1961 -0.1749 -1.0002
 4726SOL    HW225812   2.090   2.304   8.377  1.9224 -0.9875  1.1119
 4727SOL     OW25813   3.274   1.099   0.450  0.1941 -0.5242  0.0385
 4727SOL    HW125814   3.237   1.165   0.508 -0.5526 -1.2810  0.4358
 4727SOL    HW225815   3.281   1.140   0.364  0.6234 -1.4398 -0.3674
 4728SOL     OW25816   4.443   4.058   3.063 -0.6747 -0.3228 -0.3527
 4728SOL    HW125817   4.491   4.133   3.098 -1.2512 -0.3085  0.3942
 4728SOL    HW225818   4.367   4.072   3.118  0.9716  2.1739  1.2970
 4729SOL     OW25819   1.997   2.636   2.105 -0.4611 -0.2261 -0.0954
 4729SOL    HW125820   2.035   2.672   2.024  0.5532 -0.1126  0.4392
 4729SOL    HW225821   2.009   2.704   2.171  0.5320 -1.3485  0.8691
 4730SOL     OW25822   1.437   3.176   2.687  0.1121 -0.2050 -0.0431
 4730SOL    HW125823   1.460   3.096   2.733 -0.1849 -0.0428  0.3964
 4730SOL    HW225824   1.522   3.214   2.665 -0.4562  0.5896 -0.8589
 4731SOL     OW25825   4.371   3.357   6.839  0.1759  0.1663 -0.7212
 4731SOL    HW125826   4.326   3.420   6.782  1.6596  1.9163  0.0229
 4731SOL    HW225827   4.312   3.283   6.826  2.4312 -1.7437 -0.0539
 4732SOL     OW25828   0.470   1.149   4.271 -0.0050  0.1259  0.1218
 4732SOL    HW125829   0.507   1.062   4.285 -0.2820 -0.0521 -0.2425
 4732SOL    HW225830   0.410   1.132   4.197 -0.8395 -0.0026  0.8274
 4733SOL     OW25831   2.723   3.971   2.672 -0.1224  0.4370  0.4653
 4733SOL    HW125832   2.740   3.979   2.578 -1.7639 -1.2396  0.0028
 4733SOL    HW225833   2.807   3.938   2.702 -0.0300  0.0722 -0.1932
 4734SOL     OW25834   2.062   1.286   0.559  0.2529  0.0353  0.1155
 4734SOL    HW125835   2.049   1.374   0.594  2.8531  1.0896 -1.5936
 4734SOL    HW225836   2.021   1.299   0.473  0.6337  1.3396  0.1239
 4735SOL     OW25837   4.572   1.192   5.152  0.3289  0.5289  0.0340
 4735SOL    HW125838   4.550   1.099   5.152 -1.4505  0.9453  0.4368
 4735SOL    HW225839   4.650   1.192   5.208  1.0796  1.4244 -1.0137
 4736SOL     OW25840   3.770   1.346   9.614 -0.3022 -0.2980  0.4922
 4736SOL    HW125841   3.676   1.352   9.598 -0.0139 -1.4668 -1.6628
 4736SOL    HW225842   3.775   1.342   9.709 -0.7510  0.6100  0.5487
 4737SOL     OW25843   1.571   3.917   3.421 -0.1334 -0.2003  0.0134
 4737SOL    HW125844   1.665   3.904   3.408 -0.1865  0.1627 -0.6960
 4737SOL    HW225845   1.572   3.987   3.486 -0.2410 -2.3286  2.3167
 4738SOL     OW25846   1.777   4.632  13.281 -0.3564  0.5003  0.1667
 4738SOL    HW125847   1.742   4.711  13.240  2.2169  1.6534  0.1662
 4738SOL    HW225848   1.697   4.590  13.312 -0.6037  0.0440 -1.0746
 4739SOL     OW25849   3.377   1.990   8.945  0.3918 -0.6213 -0.2313
 4739SOL    HW125850   3.308   1.932   8.977  0.4130 -0.0526  0.8517
 4739SOL    HW225851   3.450   1.982   9.006  0.4781  1.5873 -0.0624
 4740SOL     OW25852   2.856   4.192   8.478  0.7805 -0.1249 -0.5260
 4740SOL    HW125853   2.896   4.136   8.413 -2.2791 -1.3531 -1.3593
 4740SOL    HW225854   2.808   4.260   8.431 -2.4239 -1.2526  1.0506
 4741SOL     OW25855   3.543   3.361   2.617 -0.2235 -0.5447  0.7276
 4741SOL    HW125856   3.560   3.385   2.526 -1.8263  0.8240  0.7925
 4741SOL    HW225857   3.538   3.265   2.615  1.3827 -0.5906 -1.1161
 4742SOL     OW25858   4.598   0.942   3.389 -0.2884  0.1369 -0.3676
 4742SOL    HW125859   4.569   0.961   3.300  0.7051  0.2160 -0.6750
 4742SOL    HW225860   4.668   1.004   3.410  0.1827 -0.1889 -0.9609
 4743SOL     OW25861   2.809   4.383   3.321  0.4686  0.1430  0.1543
 4743SOL    HW125862   2.855   4.376   3.405  0.0943 -0.3231  0.3207
 4743SOL    HW225863   2.872   4.441   3.279  1.8921 -0.7179  1.0667
 4744SOL     OW25864   2.973   4.226   7.377  0.1745 -0.4122 -0.2706
 4744SOL    HW125865   2.997   4.149   7.327  0.9854 -0.3922  0.0883
 4744SOL    HW225866   2.921   4.273   7.312  1.1539  0.6926 -0.2704
 4745SOL     OW25867   3.975   2.189   2.650 -0.3962  0.1347  0.2995
 4745SOL    HW125868   3.891   2.145   2.635 -0.0509  0.1982 -1.8295
 4745SOL    HW225869   3.977   2.258   2.584 -1.2987 -0.8884 -0.8099
 4746SOL     OW25870   0.072   1.104   3.353  0.1010  0.0629  0.2688
 4746SOL    HW125871   0.071   1.194   3.322 -1.3333 -0.0336  0.0305
 4746SOL    HW225872   0.158   1.115   3.394  1.0155 -1.1121 -1.3402
 4747SOL     OW25873   0.577   3.897   7.192  0.6337  0.1161  0.4679
 4747SOL    HW125874   0.621   3.975   7.159 -0.3417  0.3569 -0.2899
 4747SOL    HW225875   0.611   3.885   7.281  0.3559  2.1404  0.8399
 4748SOL     OW25876   4.429   0.596  17.398 -0.1679 -0.8300 -0.3575
 4748SOL    HW125877   4.513   0.631  17.428  0.2570 -2.2196  0.0733
 4748SOL    HW225878   4.450   0.505  17.375 -2.3341 -1.3100 -0.4041
 4749SOL     OW25879   4.317   4.625   6.832  0.7449 -0.7166  0.4807
 4749SOL    HW125880   4.283   4.545   6.792  0.1154 -0.3718  0.3255
 4749SOL    HW225881   4.333   4.596   6.922  2.2037 -2.3090 -0.3039
 4750SOL     OW25882   0.788   2.064   6.150 -0.3194  0.5647  0.1681
 4750SOL    HW125883   0.744   2.148   6.143 -0.4862  0.7560  3.4258
 4750SOL    HW225884   0.736   2.031   6.224  0.7502  0.2515  0.7826
 4751SOL     OW25885   3.480   3.503   5.036  0.4163  0.4525  0.4491
 4751SOL    HW125886   3.408   3.564   5.023 -1.2061 -1.4172  0.5716
 4751SOL    HW225887   3.499   3.495   4.943 -2.1096 -2.2560  0.1545
 4752SOL     OW25888   1.309   3.016   3.086 -0.0700  0.1196 -1.1198
 4752SOL    HW125889   1.246   2.995   3.155  1.2905  1.6539  0.5771
 4752SOL    HW225890   1.322   3.107   3.112  1.6535 -1.1382  2.3617
 4753SOL     OW25891   3.636   0.894   2.993 -0.4830 -0.1279 -0.4573
 4753SOL    HW125892   3.645   0.892   3.089 -0.1640 -0.5205 -0.4935
 4753SOL    HW225893   3.675   0.809   2.972 -2.0593 -0.7882 -0.6656
 4754SOL     OW25894   1.505   1.608   5.781  0.4038  0.0445  0.2542
 4754SOL    HW125895   1.467   1.690   5.811  0.9382  0.2974  0.2309
 4754SOL    HW225896   1.423   1.561   5.765  0.3575 -0.1128  0.9920
 4755SOL     OW25897   0.228   4.641   2.506 -0.0072 -0.0572  0.4985
 4755SOL    HW125898   0.269   4.573   2.452 -1.4861 -0.0233 -0.6837
 4755SOL    HW225899   0.187   4.588   2.575 -2.0082  2.4413  1.2301
 4756SOL     OW25900   0.614   0.764  10.182 -0.3104 -0.0028  0.5760
 4756SOL    HW125901   0.621   0.771  10.087  0.4604 -0.1963  0.6176
 4756SOL    HW225902   0.629   0.852  10.214 -1.0782  0.6396 -0.8139
 4757SOL     OW25903   4.154   4.677   6.075  0.3011 -0.5533 -0.5538
 4757SOL    HW125904   4.160   4.668   5.980  0.9315 -0.9415 -0.4750
 4757SOL    HW225905   4.229   4.735   6.091 -1.6825  2.0143 -0.5849
 4758SOL     OW25906   2.881   2.299   7.198 -0.3930  0.1167  0.0300
 4758SOL    HW125907   2.953   2.303   7.262 -0.6475 -0.9257  0.3929
 4758SOL    HW225908   2.819   2.367   7.223 -0.1994 -0.1144  1.1441
 4759SOL     OW25909   0.505   2.327  11.724  0.6981  0.9005 -0.0727
 4759SOL    HW125910   0.507   2.392  11.654 -0.4879  1.1987  0.1705
 4759SOL    HW225911   0.421   2.342  11.768  1.8964  2.4861  1.6934
 4760SOL     OW25912   2.454   0.642  11.993  0.0155 -0.2959  0.1299
 4760SOL    HW125913   2.543   0.678  11.986 -0.7901  1.2483 -2.1424
 4760SOL    HW225914   2.421   0.641  11.903 -0.1038 -1.5923  0.1861
 4761SOL     OW25915   3.920   0.883   4.778 -0.0785  0.4991 -0.5963
 4761SOL    HW125916   3.955   0.890   4.690  0.3095  1.3498 -0.3688
 4761SOL    HW225917   3.879   0.969   4.786  0.9632  0.8618  0.8847
 4762SOL     OW25918   1.330   4.719   1.708 -0.1871  0.1803  0.1172
 4762SOL    HW125919   1.250   0.029   1.731 -0.6844  0.1384 -1.5136
 4762SOL    HW225920   1.354   0.027   1.627  0.8713  1.3120  1.0638
 4763SOL     OW25921   2.704   3.643   0.800  0.0649 -0.6280 -0.3405
 4763SOL    HW125922   2.733   3.569   0.852  1.7248  0.2093 -0.0865
 4763SOL    HW225923   2.777   3.702   0.781  0.5826 -1.4533 -0.8925
 4764SOL     OW25924   2.480   3.453  17.384 -0.1629  0.2483 -0.2244
 4764SOL    HW125925   2.432   3.373  17.405  0.1165  0.8702  2.7105
 4764SOL    HW225926   2.534   3.413  17.316  0.0258  1.3263 -0.7126
 4765SOL     OW25927   2.119   1.823  15.624  0.2437  0.0074 -0.6037
 4765SOL    HW125928   2.026   1.831  15.604  0.3187  0.7236 -0.6779
 4765SOL    HW225929   2.150   1.861  15.542  0.1989  0.5603 -0.3622
 4766SOL     OW25930   0.345   4.446   6.961  0.8490  1.1353 -0.3499
 4766SOL    HW125931   0.339   4.368   7.017 -0.3036  0.9743 -0.7093
 4766SOL    HW225932   0.255   4.476   6.964  0.0809 -1.2638  0.6653
 4767SOL     OW25933   0.865   0.284   9.007 -0.1211 -0.0492 -0.8386
 4767SOL    HW125934   0.893   0.374   8.992  4.2787 -1.2702  0.1605
 4767SOL    HW225935   0.830   0.295   9.096 -1.6349 -0.6614 -1.3538
 4768SOL     OW25936   1.499   0.593   5.133 -0.2784  0.5278 -0.2249
 4768SOL    HW125937   1.588   0.622   5.114 -0.1911  0.3157 -0.1421
 4768SOL    HW225938   1.505   0.598   5.229 -1.2145 -2.2450 -0.0029
 4769SOL     OW25939   1.141   1.841   3.976  0.2834 -0.2350  0.3097
 4769SOL    HW125940   1.054   1.877   3.992  0.6356  0.0597  1.5076
 4769SOL    HW225941   1.193   1.860   4.054  0.9961 -1.2880  0.1027
 4770SOL     OW25942   4.585   2.531   9.869 -0.0313  0.4896  0.0069
 4770SOL    HW125943   4.671   2.492   9.852  0.1906 -0.0477  2.3723
 4770SOL    HW225944   4.610   2.622   9.852  0.4536  0.4662  0.6010
 4771SOL     OW25945   0.965   0.181   7.585 -0.0910  0.2173 -0.3454
 4771SOL    HW125946   1.040   0.212   7.535 -0.3391  0.4193 -0.5927
 4771SOL    HW225947   0.953   0.263   7.634  0.3316 -0.9838  1.7622
 4772SOL     OW25948   1.715   2.827   8.340 -0.4866 -0.5536 -0.0708
 4772SOL    HW125949   1.782   2.851   8.276 -1.8547  1.1222 -0.8592
 4772SOL    HW225950   1.652   2.893   8.312  3.0154  2.2284 -1.4483
 4773SOL     OW25951   1.170   2.982  10.319 -0.4411 -0.2772  0.0121
 4773SOL    HW125952   1.133   2.994  10.231  1.8613  0.1661 -0.8868
 4773SOL    HW225953   1.257   2.947  10.302  0.3554  0.2315  3.0685
 4774SOL     OW25954   3.610   3.324   4.497  0.1033  0.0198  0.6042
 4774SOL    HW125955   3.687   3.310   4.553 -0.9124  0.9134  2.2118
 4774SOL    HW225956   3.550   3.250   4.505 -2.4584  2.2712  2.0852
 4775SOL     OW25957   3.437   2.811   9.338 -0.5023  0.7886  0.5216
 4775SOL    HW125958   3.380   2.766   9.275  0.4714  0.6951 -0.2761
 4775SOL    HW225959   3.506   2.746   9.346  0.9830  2.4258  0.9368
 4776SOL     OW25960   0.125   0.922  15.919  0.2060 -0.1244  0.6917
 4776SOL    HW125961   0.157   1.012  15.928 -0.3746  0.0355  1.1234
 4776SOL    HW225962   0.213   0.884  15.921  0.5464  0.5448 -2.4039
 4777SOL     OW25963   2.581   3.202   1.425  0.1721  0.4635  0.1551
 4777SOL    HW125964   2.498   3.239   1.396  0.0545 -0.1906 -0.3488
 4777SOL    HW225965   2.613   3.172   1.340  2.3472  1.8168  0.4740
 4778SOL     OW25966   0.095   2.591   5.077 -0.0203 -0.0393  0.5066
 4778SOL    HW125967   0.147   2.511   5.071 -2.3363 -1.4463 -0.4090
 4778SOL    HW225968   0.110   2.613   5.169  0.9312  0.3981  0.2505
 4779SOL     OW25969   2.079   1.664  16.562 -0.2144  0.7464 -0.1884
 4779SOL    HW125970   1.984   1.659  16.577 -0.1809  1.2941  0.2026
 4779SOL    HW225971   2.100   1.576  16.594  0.0971  0.9612  0.1971
 4780SOL     OW25972   0.209   1.543   8.553 -0.0704 -0.5205  0.7542
 4780SOL    HW125973   0.222   1.511   8.464 -0.1913  0.8161  0.2621
 4780SOL    HW225974   0.147   1.477   8.584 -1.5033  0.0974 -0.7769
 4781SOL     OW25975   2.907   2.232   0.813  0.3877  0.1056 -0.5032
 4781SOL    HW125976   2.875   2.286   0.741  0.1500  0.8888  0.1922
 4781SOL    HW225977   2.847   2.241   0.887 -1.6656 -2.8565 -1.7931
 4782SOL     OW25978   4.633   2.336  17.256  0.5228  0.8213 -0.0337
 4782SOL    HW125979   4.690   2.409  17.233  0.7148  0.8904  0.6607
 4782SOL    HW225980   4.566   2.375  17.312  0.6092  0.9237 -0.0020
 4783SOL     OW25981   1.721   4.035   8.208  0.1286 -0.0136  0.7875
 4783SOL    HW125982   1.742   4.065   8.120 -1.6605  0.3756  0.5062
 4783SOL    HW225983   1.648   4.095   8.225  0.7870  1.0072 -0.0448
 4784SOL     OW25984   3.325   1.552   2.711  0.2986 -0.2269  0.1154
 4784SOL    HW125985   3.379   1.548   2.631  1.9729 -0.4126  1.2549
 4784SOL    HW225986   3.389   1.519   2.774  0.0017  1.8177  1.4846
 4785SOL     OW25987   2.998   0.465   7.025  0.4083 -0.2874  0.2258
 4785SOL    HW125988   2.918   0.458   7.078 -1.2010 -0.6716 -2.2513
 4785SOL    HW225989   2.954   0.484   6.942 -0.2616  0.1356  0.6785
 4786SOL     OW25990   4.345   4.481   2.393 -0.1127  0.0283 -0.4767
 4786SOL    HW125991   4.340   4.396   2.438 -1.4910  0.7393  0.7614
 4786SOL    HW225992   4.331   4.543   2.465  2.1976  0.7356 -0.6373
 4787SOL     OW25993   3.850   4.433   4.286 -0.4218  0.3872 -0.1291
 4787SOL    HW125994   3.795   4.494   4.335 -0.5944 -1.9235  2.5874
 4787SOL    HW225995   3.878   4.362   4.344 -1.4129  1.3024  1.4696
 4788SOL     OW25996   0.666   4.459   7.483  0.6442 -0.1976 -0.2322
 4788SOL    HW125997   0.683   4.550   7.459 -0.3523  0.2316  0.7234
 4788SOL    HW225998   0.574   4.467   7.505  0.3485 -0.2860 -1.4104
 4789SOL     OW25999   4.400   2.369  12.795 -0.2242 -0.0437 -0.2568
 4789SOL    HW126000   4.339   2.295  12.795 -1.1017  0.6652  0.8003
 4789SOL    HW226001   4.354   2.416  12.864  0.0222  2.8136 -2.0638
 4790SOL     OW26002   4.502   2.558   4.275 -0.5955 -0.4912 -0.0277
 4790SOL    HW126003   4.432   2.509   4.230 -1.6990  2.1118 -1.1328
 4790SOL    HW226004   4.456   2.619   4.333 -1.1832 -1.7494  0.8329
 4791SOL     OW26005   3.182   1.350   0.552 -0.7948 -0.0877 -0.4055
 4791SOL    HW126006   3.243   1.393   0.492 -0.9883  3.2268  1.7481
 4791SOL    HW226007   3.115   1.418   0.560  1.1106  1.7495 -0.1857
 4792SOL     OW26008   1.536   0.815   6.584  0.0692 -0.0647 -0.0453
 4792SOL    HW126009   1.556   0.856   6.500  2.5728 -1.0899  0.0326
 4792SOL    HW226010   1.473   0.753   6.547 -0.3448  1.3956 -1.7880
 4793SOL     OW26011   3.391   2.543   5.424  0.3398 -0.3109  0.0428
 4793SOL    HW126012   3.403   2.638   5.419 -0.5746 -0.1455  1.0338
 4793SOL    HW226013   3.480   2.509   5.415 -1.0215 -2.9694 -3.3688
 4794SOL     OW26014   2.808   0.880   1.687  0.0733 -0.1317 -0.9125
 4794SOL    HW126015   2.825   0.802   1.634  3.1369 -1.5039  2.0563
 4794SOL    HW226016   2.893   0.888   1.730 -0.8448  0.0277  0.8737
 4795SOL     OW26017   1.633   2.818   2.135 -0.5390  0.1063  0.3274
 4795SOL    HW126018   1.552   2.827   2.187 -0.9856  1.0423 -0.5472
 4795SOL    HW226019   1.701   2.836   2.200  1.2103 -0.6033 -1.3191
 4796SOL     OW26020   1.973   3.794   2.758  0.2003  0.7761  0.5770
 4796SOL    HW126021   2.017   3.866   2.803 -0.0572  1.7168 -0.6845
 4796SOL    HW226022   2.012   3.800   2.671 -0.3670 -1.4439  0.1837
 4797SOL     OW26023   4.108   3.056   5.597  0.6847 -0.4609  0.4929
 4797SOL    HW126024   4.116   3.112   5.520  1.9412 -0.5099  0.5885
 4797SOL    HW226025   4.037   2.995   5.574  0.9018 -0.7995  0.7162
 4798SOL     OW26026   2.576   3.405   1.674  0.1580 -0.8200  0.2411
 4798SOL    HW126027   2.607   3.440   1.590  0.0352  0.6387  0.8109
 4798SOL    HW226028   2.638   3.337   1.701  2.0005  0.3666 -1.0077
 4799SOL     OW26029   4.140   2.449   8.757 -0.1550 -0.3377  0.1444
 4799SOL    HW126030   4.162   2.488   8.673 -1.2206 -0.6840 -0.2906
 4799SOL    HW226031   4.162   2.516   8.822 -2.0011  2.0794 -1.7451
 4800SOL     OW26032   0.634   4.296   8.943 -0.4246  0.3734 -0.5965
 4800SOL    HW126033   0.719   4.340   8.938  0.4936 -1.5109 -1.3561
 4800SOL    HW226034   0.596   4.328   9.026 -0.0708  0.0541 -0.3103
 4801SOL     OW26035   2.849   2.549  13.236 -0.0115 -0.5300  0.3110
 4801SOL    HW126036   2.891   2.570  13.319  0.6106  2.1050 -0.6513
 4801SOL    HW226037   2.778   2.488  13.255 -2.4737  1.5552 -2.1942
 4802SOL     OW26038   1.766   3.917   2.206 -0.0364 -0.2983 -0.2391
 4802SOL    HW126039   1.774   3.895   2.113  2.0029  1.8048 -0.5610
 4802SOL    HW226040   1.699   3.984   2.215 -0.0214 -0.1840 -1.0436
 4803SOL     OW26041   0.618   2.847   4.655  0.2565  0.4723 -0.1320
 4803SOL    HW126042   0.639   2.788   4.583  0.5126  0.3549  0.0368
 4803SOL    HW226043   0.682   2.820   4.721  1.3478  0.7560 -1.0881
 4804SOL     OW26044   1.560   1.299   1.093 -0.4958 -0.2000  0.2659
 4804SOL    HW126045   1.479   1.267   1.132 -0.5033  1.7981  1.8758
 4804SOL    HW226046   1.533   1.295   1.001 -3.0737  0.4279  1.0092
 4805SOL     OW26047   2.803   0.571   1.560 -0.1260 -0.1792 -0.2966
 4805SOL    HW126048   2.842   0.516   1.492 -0.5929 -0.8921  0.0242
 4805SOL    HW226049   2.832   0.532   1.642  0.2284 -0.0246 -0.3467
 4806SOL     OW26050   4.145   4.142   0.303 -0.2897 -0.2367  0.6902
 4806SOL    HW126051   4.088   4.192   0.245  0.5573 -0.1837 -0.1123
 4806SOL    HW226052   4.221   4.133   0.245  0.5406 -2.0373  2.0822
 4807SOL     OW26053   3.759   1.205  17.267  0.2232  0.1984 -0.4459
 4807SOL    HW126054   3.678   1.257  17.261 -0.9533 -1.4291  1.3825
 4807SOL    HW226055   3.724   1.123  17.234  1.9624 -0.4667 -0.6118
 4808SOL     OW26056   1.431   0.571   4.686  0.4110 -0.0888  0.7862
 4808SOL    HW126057   1.399   0.649   4.642  2.5976  1.0511  1.2443
 4808SOL    HW226058   1.435   0.609   4.774 -0.7210 -0.1433  0.8687
 4809SOL     OW26059   1.956   2.290   8.516 -0.0870  0.0264  0.2870
 4809SOL    HW126060   1.973   2.239   8.595 -1.3673  0.0002  0.5462
 4809SOL    HW226061   1.907   2.363   8.554 -0.9668 -0.7051  0.5614
 4810SOL     OW26062   1.281   1.095   1.693 -0.0245 -0.2154 -0.4016
 4810SOL    HW126063   1.333   1.022   1.660  1.7205  1.2247 -0.8163
 4810SOL    HW226064   1.198   1.062   1.726 -0.0623 -0.1757 -0.4566
 4811SOL     OW26065   0.119   2.559   2.881 -0.0011 -0.7015 -0.0064
 4811SOL    HW126066   0.091   2.469   2.866 -2.1365  0.0382 -0.4786
 4811SOL    HW226067   0.061   2.574   2.955 -2.2582  0.1334 -1.9504
 4812SOL     OW26068   2.999   3.034   5.121 -0.3545  0.1511  0.1858
 4812SOL    HW126069   2.958   2.988   5.048  0.6097 -0.2642 -0.0839
 4812SOL    HW226070   3.079   2.983   5.122 -0.8232 -0.5885  0.1814
 4813SOL     OW26071   2.539   1.459   6.647 -0.2611 -0.2811 -0.2729
 4813SOL    HW126072   2.533   1.396   6.575 -0.1692  0.2763 -0.7577
 4813SOL    HW226073   2.617   1.500   6.611 -1.7485  2.5344 -0.2198
 4814SOL     OW26074   4.293   3.822   8.416  0.3655 -0.0424  0.3340
 4814SOL    HW126075   4.254   3.818   8.329  2.0481  1.1334 -0.4657
 4814SOL    HW226076   4.219   3.815   8.476 -1.7119  1.0911 -2.1212
 4815SOL     OW26077   0.119   0.277  12.552 -0.3753 -0.1880 -0.2172
 4815SOL    HW126078   0.086   0.217  12.486 -3.9837 -1.0617  2.3512
 4815SOL    HW226079   0.207   0.244  12.565  1.0793  2.6208 -2.8368
 4816SOL     OW26080   2.014   1.931   5.014 -0.1011  0.5328 -0.2933
 4816SOL    HW126081   2.014   1.871   5.088 -3.1399 -0.6338 -1.2446
 4816SOL    HW226082   1.980   1.871   4.948  2.4220  1.9999 -2.9578
 4817SOL     OW26083   0.738   2.144   4.528  0.3869 -0.2054 -0.5073
 4817SOL    HW126084   0.665   2.206   4.521  1.1834  0.8870  0.6868
 4817SOL    HW226085   0.718   2.104   4.444 -1.1303 -2.2702  0.8453
 4818SOL     OW26086   3.869   2.395   7.550  0.3493 -0.0269  0.3623
 4818SOL    HW126087   3.776   2.412   7.564  0.1348 -0.1613 -0.8579
 4818SOL    HW226088   3.886   2.352   7.634  0.3112 -1.2106 -0.2345
 4819SOL     OW26089   3.032   3.571   9.084  0.0089 -0.1449  0.2752
 4819SOL    HW126090   2.977   3.604   9.155 -0.7569 -2.4275  0.7496
 4819SOL    HW226091   3.121   3.585   9.117 -0.5388  5.2001 -0.5155
 4820SOL     OW26092   3.500   3.271   0.431  0.6683  0.0387  0.3936
 4820SOL    HW126093   3.580   3.304   0.473 -0.0648  0.0986  1.7180
 4820SOL    HW226094   3.427   3.331   0.439  1.7095  1.3298  0.2661
 4821SOL     OW26095   3.873   4.008   5.248 -0.1250  0.9748  0.8549
 4821SOL    HW126096   3.799   4.051   5.205 -0.0368 -1.3438 -1.6524
 4821SOL    HW226097   3.836   3.949   5.314 -0.8083  0.0773 -0.3315
 4822SOL     OW26098   0.814   1.929   9.454  0.1059 -0.1487 -1.1383
 4822SOL    HW126099   0.750   1.858   9.455  1.3061 -1.1946  0.1937
 4822SOL    HW226100   0.895   1.885   9.429 -1.3946 -2.6574 -1.6200
 4823SOL     OW26101   2.787   4.195  11.273 -0.0336 -0.1648 -0.2473
 4823SOL    HW126102   2.867   4.248  11.276  0.1045 -0.3741 -0.2220
 4823SOL    HW226103   2.808   4.104  11.295 -1.6920 -0.0928  1.6516
 4824SOL     OW26104   1.751   4.534   8.846  0.5840  0.3410  0.0618
 4824SOL    HW126105   1.682   4.494   8.794  0.7720 -1.4966  1.2318
 4824SOL    HW226106   1.724   4.622   8.873 -3.5965 -1.1555  0.7800
 4825SOL     OW26107   4.263   3.086   7.553  0.5045  0.1689 -0.2918
 4825SOL    HW126108   4.251   3.180   7.565  1.1821  0.4410 -1.6917
 4825SOL    HW226109   4.186   3.050   7.598  1.7811 -1.7250  0.3699
 4826SOL     OW26110   0.652   3.749  10.152  0.0752  0.1700 -0.3150
 4826SOL    HW126111   0.671   3.842  10.167 -2.1168  0.3187  1.4263
 4826SOL    HW226112   0.586   3.747  10.083  0.9008  1.1552 -1.1450
 4827SOL     OW26113   3.625   3.496  14.241 -0.3979 -0.9189 -0.5958
 4827SOL    HW126114   3.669   3.411  14.233 -0.3450 -0.8719 -0.8179
 4827SOL    HW226115   3.531   3.478  14.230 -0.5141 -0.2101 -0.7463
 4828SOL     OW26116   1.470   2.046   4.547  0.2315  0.3271 -0.5560
 4828SOL    HW126117   1.496   2.096   4.469 -2.9990  1.3300 -0.9878
 4828SOL    HW226118   1.457   2.114   4.613 -1.9356 -0.4581 -0.1839
 4829SOL     OW26119   0.393   3.762   2.899  0.5797 -0.5354  0.0165
 4829SOL    HW126120   0.488   3.751   2.892  0.4073 -2.3657  0.7566
 4829SOL    HW226121   0.387   3.853   2.929  0.3954 -0.6883  0.4449
 4830SOL     OW26122   4.131   3.634   1.771  0.3842  0.4344  0.1249
 4830SOL    HW126123   4.155   3.596   1.856 -0.6099  1.7142  0.9785
 4830SOL    HW226124   4.080   3.562   1.732 -0.8273  1.4069 -0.0730
 4831SOL     OW26125   2.318   3.394  15.623 -0.0075 -0.7476 -0.4002
 4831SOL    HW126126   2.384   3.331  15.596 -0.4951 -2.2294  1.8779
 4831SOL    HW226127   2.241   3.338  15.608 -0.6698 -0.6768  2.7744
 4832SOL     OW26128   0.428   1.581   6.645  0.1663 -0.1354  0.3935
 4832SOL    HW126129   0.388   1.532   6.573  1.2137  2.7443 -2.1683
 4832SOL    HW226130   0.464   1.504   6.690 -1.4247 -0.7193  0.6538
 4833SOL     OW26131   3.448   2.211   4.948  0.0843  0.0538 -0.0515
 4833SOL    HW126132   3.364   2.256   4.938 -0.6297 -1.1290  0.6261
 4833SOL    HW226133   3.475   2.217   5.039  0.3677 -0.3482 -0.1080
 4834SOL     OW26134   4.200   3.077   2.465 -0.5383 -0.0317 -0.1788
 4834SOL    HW126135   4.192   3.075   2.561  1.7760 -4.0517 -0.0314
 4834SOL    HW226136   4.288   3.042   2.452 -0.3052 -0.4702  2.6078
 4835SOL     OW26137   1.549   0.739   7.869  0.5075  0.1634  0.2105
 4835SOL    HW126138   1.532   0.784   7.786 -0.5667  0.3986  0.5512
 4835SOL    HW226139   1.621   0.790   7.905  1.1991 -0.3985 -0.3998
 4836SOL     OW26140   2.159   1.894   7.574  0.2060  0.4362 -0.2894
 4836SOL    HW126141   2.210   1.911   7.495  0.2732 -1.0000 -0.5535
 4836SOL    HW226142   2.212   1.930   7.645 -0.3964 -0.9340  0.8591
 4837SOL     OW26143   3.110   1.762   9.388 -0.3836 -0.5322  0.0567
 4837SOL    HW126144   3.138   1.801   9.471 -1.8660  0.7777 -0.0424
 4837SOL    HW226145   3.015   1.770   9.397 -0.3506 -0.8128  0.6897
 4838SOL     OW26146   2.523   1.178   1.777 -0.0600 -0.3664 -0.4329
 4838SOL    HW126147   2.535   1.084   1.789 -1.0279 -0.1409  2.2347
 4838SOL    HW226148   2.608   1.196   1.735  0.9283 -0.7619  1.3774
 4839SOL     OW26149   4.503   4.589   9.352  0.4156  0.0687 -0.2305
 4839SOL    HW126150   4.500   4.495   9.331  1.5002 -0.3269  1.3544
 4839SOL    HW226151   4.408   4.593   9.367  0.5749  0.4326  0.6778
 4840SOL     OW26152   0.826   3.293   0.936  0.1434  0.3524  0.2333
 4840SOL    HW126153   0.889   3.362   0.917 -2.7476  2.5395 -1.3635
 4840SOL    HW226154   0.758   3.337   0.987 -0.7743 -0.1422 -0.5656
 4841SOL     OW26155   4.272   4.115   6.471 -0.6546 -0.7557 -0.0414
 4841SOL    HW126156   4.313   4.139   6.388  0.1759 -1.3459  0.1976
 4841SOL    HW226157   4.341   4.058   6.506  1.2599  1.6705  0.0912
 4842SOL     OW26158   0.151   4.005  12.196 -0.7127  0.2944  0.2243
 4842SOL    HW126159   0.169   4.013  12.289  0.2284 -0.0135  0.0637
 4842SOL    HW226160   0.065   4.047  12.195 -1.9672 -2.2856 -0.8537
 4843SOL     OW26161   0.569   0.790   6.043  0.5340 -0.8518 -0.0347
 4843SOL    HW126162   0.491   0.771   6.095 -0.6532  1.1793 -1.0796
 4843SOL    HW226163   0.531   0.835   5.967 -1.9309 -1.3209  0.9138
 4844SOL     OW26164   3.171   2.476   8.916 -0.1638 -0.4915 -0.5295
 4844SOL    HW126165   3.203   2.521   8.838  0.7415 -2.0245 -1.0359
 4844SOL    HW226166   3.091   2.524   8.936 -0.8291 -2.1963  0.8929
 4845SOL     OW26167   2.859   2.925   2.196  0.1333  0.4133 -0.0952
 4845SOL    HW126168   2.927   2.879   2.146 -1.3182 -0.5081 -1.2156
 4845SOL    HW226169   2.858   3.018   2.173  0.9423  0.2958 -0.6281
 4846SOL     OW26170   3.531   2.393   5.912  0.5696  0.9199  0.0936
 4846SOL    HW126171   3.539   2.303   5.944 -1.0905  1.6405  2.5578
 4846SOL    HW226172   3.624   2.414   5.906 -0.3577  5.0419  0.4268
 4847SOL     OW26173   1.436   3.934  10.701 -0.1318 -0.0101 -0.5937
 4847SOL    HW126174   1.389   3.885  10.769  1.8340 -0.7326  0.2546
 4847SOL    HW226175   1.447   3.866  10.634 -0.5686 -0.8135  0.1458
 4848SOL     OW26176   1.384   4.533   2.632 -0.3602  0.1190 -0.8890
 4848SOL    HW126177   1.441   4.537   2.555  0.0048  1.3225 -0.5586
 4848SOL    HW226178   1.447   4.503   2.697 -3.3778 -0.7070  1.6780
 4849SOL     OW26179   1.917   1.539   7.849  0.2058 -0.2995 -0.8359
 4849SOL    HW126180   1.863   1.586   7.912  0.1029 -0.9688 -0.4279
 4849SOL    HW226181   1.849   1.492   7.801 -1.4026  2.7759 -1.5832
 4850SOL     OW26182   1.829   3.754  12.800 -0.3454  0.2800  0.3877
 4850SOL    HW126183   1.904   3.759  12.741 -1.7324 -0.5928 -1.4776
 4850SOL    HW226184   1.773   3.822  12.763  0.9514  1.4541  0.6035
 4851SOL     OW26185   3.775   0.727   5.729  0.0007 -0.4774  0.7061
 4851SOL    HW126186   3.699   0.671   5.747  0.0000 -0.5142  0.5906
 4851SOL    HW226187   3.819   0.741   5.813  1.4654  1.4562 -0.4003
 4852SOL     OW26188   2.472   0.886   8.720  0.4050  0.1305  0.5870
 4852SOL    HW126189   2.560   0.911   8.745  0.8544  1.0010 -1.8840
 4852SOL    HW226190   2.438   0.963   8.675  2.4976 -0.4271 -1.9402
 4853SOL     OW26191   1.112   3.254  15.257  0.1487  0.6517 -0.0077
 4853SOL    HW126192   1.071   3.262  15.343 -0.8197 -0.6128 -0.3415
 4853SOL    HW226193   1.110   3.344  15.227  1.7081  1.2408  1.6896
 4854SOL     OW26194   4.208   1.031  13.915 -0.0935 -0.1571  0.0064
 4854SOL    HW126195   4.182   0.989  13.833  1.6292 -2.2727  0.5348
 4854SOL    HW226196   4.292   1.068  13.888 -0.1163 -0.1676 -0.0793
 4855SOL     OW26197   3.225   0.548  14.781 -0.5227 -0.2169 -0.1681
 4855SOL    HW126198   3.249   0.473  14.727  2.2254 -0.1567  0.9654
 4855SOL    HW226199   3.296   0.542  14.844  1.3137 -1.4581 -2.3619
 4856SOL     OW26200   4.407   4.090   3.878 -0.0215  0.0060 -0.1280
 4856SOL    HW126201   4.484   4.147   3.866  0.3468 -0.9928 -2.4380
 4856SOL    HW226202   4.337   4.155   3.883  0.3633  0.2378  2.0145
 4857SOL     OW26203   1.359   0.638   3.654  0.8691  0.1246  0.2085
 4857SOL    HW126204   1.333   0.566   3.597 -2.2988  1.1661  0.3422
 4857SOL    HW226205   1.310   0.711   3.617  2.3708  0.7540 -0.5087
 4858SOL     OW26206   3.409   4.248   4.633 -0.0766 -0.1595  0.3011
 4858SOL    HW126207   3.418   4.343   4.645  0.9436 -0.2235 -0.0167
 4858SOL    HW226208   3.313   4.243   4.629 -0.0355  0.1849 -0.9552
 4859SOL     OW26209   0.295   3.564   3.858  0.0429  0.2417 -0.8656
 4859SOL    HW126210   0.275   3.555   3.951  1.9368 -1.0702 -0.5792
 4859SOL    HW226211   0.352   3.490   3.836 -1.3958 -0.3784 -2.4280
 4860SOL     OW26212   2.001   4.431  13.501  0.1258  0.5631 -0.2098
 4860SOL    HW126213   2.089   4.466  13.488  1.2813 -2.3389 -0.2341
 4860SOL    HW226214   1.964   4.513  13.533  2.0450  0.8250  1.2914
 4861SOL     OW26215   2.206   0.967   8.131 -0.2435  1.0670  0.4296
 4861SOL    HW126216   2.275   0.910   8.165  0.6715  0.2835 -2.7946
 4861SOL    HW226217   2.188   1.032   8.199  3.1279  1.7380  0.6645
 4862SOL     OW26218   3.604   0.214   2.187  0.1948  0.2619 -0.2625
 4862SOL    HW126219   3.542   0.172   2.128  1.4852 -0.5763 -1.0187
 4862SOL    HW226220   3.673   0.224   2.122  0.8376  0.5409  0.4602
 4863SOL     OW26221   4.076   1.595   6.169  0.1241  0.2989  0.2876
 4863SOL    HW126222   4.036   1.516   6.132  1.0129 -0.3513  0.7397
 4863SOL    HW226223   4.080   1.640   6.085 -1.1936 -1.3379 -0.6707
 4864SOL     OW26224   4.145   4.399   6.244 -0.2690  0.3153 -0.3618
 4864SOL    HW126225   4.220   4.382   6.300 -0.7975  0.3223  0.3513
 4864SOL    HW226226   4.180   4.474   6.197 -1.0246 -0.2637 -1.8849
 4865SOL     OW26227   2.791   0.393   7.225 -1.0117  0.0244 -0.4689
 4865SOL    HW126228   2.764   0.321   7.282  0.5352 -0.2519 -0.1028
 4865SOL    HW226229   2.744   0.371   7.144  0.1119  0.3753 -1.2115
 4866SOL     OW26230   4.506   2.274   2.742 -0.0777 -0.1814 -0.3603
 4866SOL    HW126231   4.461   2.248   2.662 -0.0923 -1.4068  0.0530
 4866SOL    HW226232   4.438   2.315   2.796 -1.2091 -2.0983 -0.3478
 4867SOL     OW26233   2.237   4.682   1.156  0.2296 -0.1651  0.3811
 4867SOL    HW126234   2.187   4.697   1.236  0.4745 -1.0059  0.6904
 4867SOL    HW226235   2.236   0.034   1.123  0.7088 -0.2668  0.0844
 4868SOL     OW26236   3.025   3.576   0.840  0.1956 -0.5974 -0.5455
 4868SOL    HW126237   3.096   3.567   0.904  0.9648  0.9075 -1.1897
 4868SOL    HW226238   3.080   3.597   0.765  0.0441  0.7418 -0.2793
 4869SOL     OW26239   3.627   3.980   4.581  0.0485 -0.2115  0.2961
 4869SOL    HW126240   3.586   3.974   4.668  1.1102  1.1418  0.9005
 4869SOL    HW226241   3.574   4.054   4.552  0.8329  0.2188 -0.0538
 4870SOL     OW26242   1.770   2.569  11.679  0.3078 -0.0224  0.7772
 4870SOL    HW126243   1.829   2.611  11.740 -0.4162 -0.4230  1.7474
 4870SOL    HW226244   1.690   2.615  11.705 -0.6516 -1.4163  0.2905
 4871SOL     OW26245   1.028   0.446   5.062 -0.4848  0.0418  0.3612
 4871SOL    HW126246   1.021   0.369   5.005 -1.3272 -0.2176  0.8271
 4871SOL    HW226247   0.944   0.440   5.107 -1.7319  0.3686 -1.9349
 4872SOL     OW26248   1.996   0.512  11.548 -0.5759  0.5274 -0.1343
 4872SOL    HW126249   1.996   0.605  11.572 -1.8230  0.1326  1.3443
 4872SOL    HW226250   1.902   0.516  11.531 -0.4167  2.7741 -0.5083
 4873SOL     OW26251   3.025   1.414  12.077 -0.2165 -1.3695  0.2369
 4873SOL    HW126252   2.991   1.446  12.160  0.5049 -0.6786  0.2686
 4873SOL    HW226253   3.031   1.503  12.041  0.3457 -1.1516  0.8693
 4874SOL     OW26254   1.570   0.931   4.846 -0.2151 -0.3975  0.1657
 4874SOL    HW126255   1.492   0.878   4.858 -0.8085  0.2526 -0.8791
 4874SOL    HW226256   1.576   0.992   4.920 -0.2658 -0.3203  0.1056
 4875SOL     OW26257   1.750   3.762  12.141  0.0385  0.5630  0.2207
 4875SOL    HW126258   1.667   3.740  12.099 -0.3900  0.4783  1.1082
 4875SOL    HW226259   1.750   3.854  12.116 -4.4934  0.8960  1.3386
 4876SOL     OW26260   3.303   4.119   4.209  0.3692  0.5605  0.7781
 4876SOL    HW126261   3.225   4.160   4.245 -0.7222 -1.1212  0.3021
 4876SOL    HW226262   3.349   4.194   4.171 -0.9563  0.8152 -0.3364
 4877SOL     OW26263   0.505   1.601   3.960 -0.0319 -0.3820  0.0797
 4877SOL    HW126264   0.528   1.582   4.051  2.5625 -1.0951 -0.7245
 4877SOL    HW226265   0.572   1.660   3.927 -1.0938 -1.0822 -3.3732
 4878SOL     OW26266   4.124   3.007   2.230 -0.2940  0.2117 -0.4610
 4878SOL    HW126267   4.103   2.914   2.239  0.2973 -0.0096 -1.3684
 4878SOL    HW226268   4.149   3.020   2.322  0.3268 -1.6067 -0.3675
 4879SOL     OW26269   4.061   4.157   7.352 -0.3544  0.0954  0.3115
 4879SOL    HW126270   3.977   4.113   7.362 -0.2672 -0.5516 -1.8080
 4879SOL    HW226271   4.043   4.248   7.329  0.2334 -0.1214 -1.0305
 4880SOL     OW26272   2.159   4.628   1.659  0.4365 -0.2338  0.2791
 4880SOL    HW126273   2.205   4.586   1.731  2.2481  1.4511  0.0921
 4880SOL    HW226274   2.207   4.586   1.587 -2.1944 -2.2279 -0.2952
 4881SOL     OW26275   3.644   1.416   7.527  0.5772  0.0592 -0.2446
 4881SOL    HW126276   3.712   1.368   7.574  1.6234 -2.3322 -4.2646
 4881SOL    HW226277   3.623   1.480   7.596 -0.0865  0.0400 -0.4291
 4882SOL     OW26278   2.822   3.858  12.133  0.1253  0.1703 -0.3565
 4882SOL    HW126279   2.880   3.848  12.208 -3.4381 -2.3399  2.0304
 4882SOL    HW226280   2.743   3.886  12.179  0.4828  3.0993 -1.5147
 4883SOL     OW26281   3.882   1.593   6.376 -0.5052 -0.0717  0.2001
 4883SOL    HW126282   3.839   1.526   6.323  0.1988  0.6021 -1.2209
 4883SOL    HW226283   3.967   1.592   6.333 -0.3124 -0.4384  0.5893
 4884SOL     OW26284   3.040   0.115   2.201 -0.0075  0.0991  0.1540
 4884SOL    HW126285   2.986   0.148   2.273 -0.2403  0.7872 -0.3409
 4884SOL    HW226286   3.011   0.024   2.197  0.6875 -0.1709  1.2247
 4885SOL     OW26287   4.018   1.411   5.457 -0.0445  0.0159 -0.0280
 4885SOL    HW126288   4.094   1.363   5.490 -0.3156 -0.0763  0.4518
 4885SOL    HW226289   4.017   1.490   5.511  0.2085 -0.1618  0.2378
 4886SOL     OW26290   4.264   1.450  14.284  0.4962 -0.0680 -0.1270
 4886SOL    HW126291   4.169   1.437  14.282  0.6424 -1.1342  0.0162
 4886SOL    HW226292   4.293   1.387  14.218 -0.5328  2.6274 -3.1476
 4887SOL     OW26293   0.329   2.497   3.317 -0.0182 -0.2090 -0.2285
 4887SOL    HW126294   0.384   2.515   3.241 -0.8502  1.8162 -0.3665
 4887SOL    HW226295   0.384   2.544   3.379 -1.2406  1.0882 -0.1178
 4888SOL     OW26296   1.076   4.361   5.128  0.3893 -0.5416 -0.3407
 4888SOL    HW126297   1.040   4.421   5.062  0.2387  0.8574  1.0100
 4888SOL    HW226298   1.010   4.292   5.127 -0.7164  0.5044  0.0207
 4889SOL     OW26299   0.755   4.470   9.701 -0.6539  0.2019 -0.1126
 4889SOL    HW126300   0.783   4.397   9.756 -2.1213 -0.7531 -0.6456
 4889SOL    HW226301   0.801   4.542   9.743 -0.4331  0.8460 -1.4392
 4890SOL     OW26302   0.837   4.294   7.311 -0.4056  0.0268 -0.5440
 4890SOL    HW126303   0.790   4.326   7.234  0.4488  0.3577 -0.9201
 4890SOL    HW226304   0.794   4.354   7.373 -0.4410  0.3681 -0.9039
 4891SOL     OW26305   3.093   2.836   0.833  0.4165  0.1037 -0.4648
 4891SOL    HW126306   3.143   2.913   0.861  1.1850 -0.1016 -1.2524
 4891SOL    HW226307   3.080   2.861   0.741  2.0763 -1.2627 -1.0691
 4892SOL     OW26308   3.668   3.224  14.289 -0.0370  0.3483  0.3440
 4892SOL    HW126309   3.755   3.217  14.249 -0.4740  1.4724 -0.7954
 4892SOL    HW226310   3.676   3.153  14.354 -2.7958 -0.3478 -0.0342
 4893SOL     OW26311   3.348   1.308  16.324  0.4134  0.0677  0.2049
 4893SOL    HW126312   3.420   1.287  16.384 -0.1878  0.0545  0.9085
 4893SOL    HW226313   3.274   1.273  16.373  0.8245  0.8584  1.3951
 4894SOL     OW26314   3.895   1.852   0.467  0.4118 -0.0103 -0.2413
 4894SOL    HW126315   3.977   1.868   0.420  0.6330 -1.1202 -0.2249
 4894SOL    HW226316   3.837   1.849   0.392 -0.3835 -0.0860  0.3765
 4895SOL     OW26317   4.265   1.141   7.357 -0.0255  0.1594  0.1596
 4895SOL    HW126318   4.224   1.063   7.320  2.0593  0.3123 -2.4808
 4895SOL    HW226319   4.322   1.099   7.420  0.4479 -0.7632 -0.8866
 4896SOL     OW26320   0.730   4.506   4.793  0.5620 -0.1484  0.0588
 4896SOL    HW126321   0.669   4.580   4.788  0.2688 -0.3667  0.3914
 4896SOL    HW226322   0.734   4.476   4.702 -1.9810 -0.8102  0.1553
 4897SOL     OW26323   0.394   2.261   4.950  0.6972  0.7339 -0.2825
 4897SOL    HW126324   0.348   2.261   4.866  0.2682 -0.4255 -0.0508
 4897SOL    HW226325   0.467   2.318   4.927  0.6707  1.1277  0.5888
 4898SOL     OW26326   3.620   0.861   1.915 -0.1927  0.2381 -0.7898
 4898SOL    HW126327   3.541   0.854   1.969 -0.1063  3.7637 -0.1700
 4898SOL    HW226328   3.685   0.853   1.986 -1.2165 -1.9362 -0.1109
 4899SOL     OW26329   1.429   3.456   5.822  0.1625  0.4366 -0.3430
 4899SOL    HW126330   1.492   3.397   5.863  0.3408  1.1688  0.4409
 4899SOL    HW226331   1.349   3.448   5.875 -0.8118 -0.0212 -1.8871
 4900SOL     OW26332   4.107   3.703   8.892  0.2808  0.1346  0.1293
 4900SOL    HW126333   4.054   3.776   8.861 -1.5212 -1.1858  0.1462
 4900SOL    HW226334   4.049   3.629   8.874  0.3145  0.2738 -0.5591
 4901SOL     OW26335   3.731   2.301   6.986 -0.6794 -0.6103  0.3718
 4901SOL    HW126336   3.752   2.393   7.003  0.4485 -0.5184 -1.5376
 4901SOL    HW226337   3.647   2.299   7.032 -0.3349 -0.4922  1.0225
 4902SOL     OW26338   1.647   0.766  10.108 -0.5413  0.1441 -0.1943
 4902SOL    HW126339   1.612   0.711  10.037  0.7891  0.3607 -1.0204
 4902SOL    HW226340   1.580   0.830  10.129  1.1865  2.2251 -1.0755
 4903SOL     OW26341   4.640   1.170   6.957 -0.2472  0.2311 -0.2881
 4903SOL    HW126342   4.585   1.193   7.032  1.9370  0.9993  1.1024
 4903SOL    HW226343   4.723   1.143   6.996  0.7984  0.8478 -2.0967
 4904SOL     OW26344   2.294   3.578   3.115  0.1346  0.0227  0.2727
 4904SOL    HW126345   2.211   3.610   3.081 -0.0427 -0.1789  0.5163
 4904SOL    HW226346   2.358   3.628   3.064  1.4567  0.8268  2.6915
 4905SOL     OW26347   0.475   0.260   2.463 -0.5517  0.2225 -0.0967
 4905SOL    HW126348   0.469   0.342   2.512 -0.1380  0.0367  0.2653
 4905SOL    HW226349   0.389   0.220   2.468 -0.1039 -0.4131  2.4012
 4906SOL     OW26350   1.390   2.555   4.022  0.5119  0.0397 -0.1356
 4906SOL    HW126351   1.347   2.528   3.941  2.7777 -1.6037 -0.8060
 4906SOL    HW226352   1.435   2.637   3.999  0.9688 -0.2938 -0.4330
 4907SOL     OW26353   4.718   4.569   6.835  0.0702  0.8732  0.2986
 4907SOL    HW126354   4.709   4.475   6.822  0.5535  0.5492  2.3560
 4907SOL    HW226355   0.046   4.574   6.904  1.1852 -2.0450 -0.5672
 4908SOL     OW26356   4.592   2.024   2.774  0.0801  0.3346  0.0909
 4908SOL    HW126357   4.573   2.117   2.762 -2.6239 -0.0326  1.3504
 4908SOL    HW226358   4.622   2.002   2.686  1.3916 -0.4503  0.7384
 4909SOL     OW26359   3.671   1.916   5.522  0.3794 -0.3435 -0.2578
 4909SOL    HW126360   3.668   1.839   5.465 -0.2985  1.4859 -2.6981
 4909SOL    HW226361   3.681   1.989   5.461  1.2855 -0.7545 -0.6175
 4910SOL     OW26362   0.830   4.365   8.605  0.0694  0.1696 -0.0425
 4910SOL    HW126363   0.737   4.370   8.628 -0.1203 -3.8435  0.0092
 4910SOL    HW226364   0.869   4.406   8.683  1.1143  1.8858 -1.4765
 4911SOL     OW26365   0.939   0.379   6.762 -0.3062 -0.3112  0.3712
 4911SOL    HW126366   0.923   0.340   6.848  0.4572 -1.2352  0.0964
 4911SOL    HW226367   0.853   0.409   6.732  0.2185  3.1369  2.4448
 4912SOL     OW26368   2.854   4.474   1.168 -0.6403 -0.4590  0.2541
 4912SOL    HW126369   2.819   4.418   1.238 -1.3365  1.6815  1.6039
 4912SOL    HW226370   2.949   4.465   1.171 -0.6258 -0.1976  0.6018
 4913SOL     OW26371   3.300   0.238   1.778 -0.1583 -0.2337 -0.2397
 4913SOL    HW126372   3.227   0.182   1.753  0.6757 -2.7678  2.9337
 4913SOL    HW226373   3.345   0.262   1.697  2.0436 -2.6938  0.2407
 4914SOL     OW26374   1.625   3.133   3.253 -0.0225 -0.1214  0.1270
 4914SOL    HW126375   1.649   3.133   3.346  0.6153  2.0465 -0.0266
 4914SOL    HW226376   1.714   3.130   3.218  0.5787 -0.1738  1.6871
 4915SOL     OW26377   0.694   0.791  13.486  0.0899  0.3119 -0.1553
 4915SOL    HW126378   0.666   0.824  13.571  1.7095 -2.1730  1.3444
 4915SOL    HW226379   0.666   0.700  13.493  2.1138 -0.4019 -1.1342
 4916SOL     OW26380   4.436   4.334  13.733 -0.5147  0.1575 -0.4725
 4916SOL    HW126381   4.440   4.429  13.744  2.5604 -0.3369  2.8022
 4916SOL    HW226382   4.356   4.325  13.682 -0.9337 -0.1468  0.2358
 4917SOL     OW26383   2.021   2.125   6.252  0.3439  0.0353  0.3850
 4917SOL    HW126384   2.089   2.089   6.309 -0.5648 -2.0968  0.1378
 4917SOL    HW226385   1.964   2.172   6.313 -0.5280 -1.0558  0.4195
 4918SOL     OW26386   0.672   1.083  13.653 -0.2359  0.1796  0.3837
 4918SOL    HW126387   0.641   0.995  13.670  0.4098  0.2880  2.1342
 4918SOL    HW226388   0.590   1.116  13.616  0.8770  1.9908 -0.5104
 4919SOL     OW26389   3.897   2.022  11.391  0.4778 -0.0729 -0.3485
 4919SOL    HW126390   3.818   2.073  11.375 -0.2471 -1.4744 -1.2702
 4919SOL    HW226391   3.912   1.984  11.304 -1.8134  2.6729 -1.9232
 4920SOL     OW26392   1.568   2.271   3.085 -0.0405  0.8697  0.0626
 4920SOL    HW126393   1.606   2.356   3.105  2.6531 -1.0648  3.1036
 4920SOL    HW226394   1.632   2.246   3.018 -0.0972 -0.7981  0.6285
 4921SOL     OW26395   0.642   2.347   2.329 -0.2281 -0.1092  0.2836
 4921SOL    HW126396   0.655   2.255   2.351 -0.8843 -0.1743  0.3791
 4921SOL    HW226397   0.548   2.357   2.316  0.1968 -0.1602 -2.6256
 4922SOL     OW26398   2.343   0.024   4.211 -0.3115  0.4421 -0.0223
 4922SOL    HW126399   2.348   0.101   4.155 -0.9127 -0.3943 -1.2210
 4922SOL    HW226400   2.257   4.736   4.177 -0.2059 -1.4441  1.1138
 4923SOL     OW26401   4.736   4.442   8.805  0.6113 -0.9454  0.4180
 4923SOL    HW126402   0.043   4.459   8.888  0.9050 -0.5494  0.1794
 4923SOL    HW226403   4.681   4.519   8.819  1.0491 -0.6826  0.6974
 4924SOL     OW26404   0.162   1.864   2.421  0.0879 -0.3566 -0.2809
 4924SOL    HW126405   0.195   1.949   2.394  0.4148 -0.1601  0.7369
 4924SOL    HW226406   0.237   1.807   2.401 -1.6555 -2.5975 -0.5064
 4925SOL     OW26407   3.115   1.331   4.358  0.2521 -0.6673  0.0049
 4925SOL    HW126408   3.064   1.375   4.290  0.7195  0.5567  0.4500
 4925SOL    HW226409   3.049   1.292   4.414  0.0634  0.4529  0.5590
 4926SOL     OW26410   2.126   4.561   6.177 -0.2575 -0.0359  0.1834
 4926SOL    HW126411   2.212   4.599   6.159 -0.4948  0.2079 -0.4528
 4926SOL    HW226412   2.074   4.641   6.190 -2.8545 -1.3614 -1.9124
 4927SOL     OW26413   4.352   1.096   8.270 -0.8642 -0.4349 -0.3636
 4927SOL    HW126414   4.403   1.174   8.249  1.4637 -2.7464 -3.2329
 4927SOL    HW226415   4.347   1.102   8.366  0.2672 -1.6122 -0.2169
 4928SOL     OW26416   2.081   0.903   2.648 -0.0991  0.2818  0.3345
 4928SOL    HW126417   2.037   0.850   2.715  2.8024 -1.5808  0.7389
 4928SOL    HW226418   2.147   0.944   2.704 -2.2921  0.1362  3.0359
 4929SOL     OW26419   1.665   1.010   8.790  0.0501  0.3802  0.5984
 4929SOL    HW126420   1.756   1.013   8.820 -0.3635  2.2861  1.6547
 4929SOL    HW226421   1.615   1.013   8.871 -2.2407  1.2973 -0.8494
 4930SOL     OW26422   0.041   1.315   6.541 -0.6079  0.0751 -0.3373
 4930SOL    HW126423   0.129   1.320   6.506 -0.5522 -0.8060 -0.3168
 4930SOL    HW226424   0.060   1.341   6.631 -1.0718  0.3230 -0.3068
 4931SOL     OW26425   2.227   4.505   3.473  0.6615 -0.3407 -0.2787
 4931SOL    HW126426   2.279   4.426   3.490  1.0270  0.0655  0.4859
 4931SOL    HW226427   2.172   4.475   3.400  1.9813 -0.4328 -1.2392
 4932SOL     OW26428   1.657   3.656   7.048 -0.2923  0.2674  0.1947
 4932SOL    HW126429   1.571   3.696   7.039 -0.5710 -0.1429  0.9571
 4932SOL    HW226430   1.684   3.698   7.130  1.1591 -0.8586  0.2890
 4933SOL     OW26431   2.664   3.607   5.123 -0.1415  0.0416  0.1007
 4933SOL    HW126432   2.658   3.693   5.163 -1.2589 -1.6211  3.4946
 4933SOL    HW226433   2.734   3.563   5.171 -0.0165  1.3107  1.0545
 4934SOL     OW26434   3.200   2.989  14.170 -0.2009  0.1711 -0.1407
 4934SOL    HW126435   3.134   3.056  14.150 -0.2871  0.1760  0.1639
 4934SOL    HW226436   3.258   3.041  14.226 -2.6317  1.0712  1.5519
 4935SOL     OW26437   1.688   1.544  15.288  0.5417 -0.1460 -0.3541
 4935SOL    HW126438   1.767   1.537  15.233  0.1986  0.9732 -0.9931
 4935SOL    HW226439   1.717   1.529  15.377 -1.4283  1.6081  0.5907
 4936SOL     OW26440   1.873   0.752   5.397 -0.0286 -1.0201 -0.0324
 4936SOL    HW126441   1.927   0.762   5.319  1.5218  2.8848  1.5285
 4936SOL    HW226442   1.935   0.765   5.469  0.5906  0.5414 -0.8644
 4937SOL     OW26443   1.687   3.648   4.118 -0.1736  0.2594  0.8760
 4937SOL    HW126444   1.596   3.628   4.141 -0.4274  0.6606  0.2286
 4937SOL    HW226445   1.680   3.741   4.095 -0.3600 -0.0811 -0.4649
 4938SOL     OW26446   3.871   3.123   8.266  0.2905  0.3604 -0.2955
 4938SOL    HW126447   3.888   3.102   8.358  1.9088 -2.9206 -1.3655
 4938SOL    HW226448   3.840   3.042   8.227 -0.0089 -0.3762  1.4713
 4939SOL     OW26449   3.575   0.293   4.944  0.1298  0.7352  0.1963
 4939SOL    HW126450   3.667   0.267   4.935 -0.4423 -0.3704 -2.5466
 4939SOL    HW226451   3.579   0.328   5.032 -0.4597 -0.4552  0.7037
 4940SOL     OW26452   2.888   2.925   4.855 -0.8884  0.4229 -0.4981
 4940SOL    HW126453   2.964   2.871   4.876  0.1783  1.8067 -0.7941
 4940SOL    HW226454   2.929   2.955   4.774  1.9478 -0.2142  0.7363
 4941SOL     OW26455   3.865   3.899   7.011 -0.7051 -0.2420  0.0720
 4941SOL    HW126456   3.896   3.810   6.999  1.4418  0.5157 -0.0806
 4941SOL    HW226457   3.785   3.901   6.958 -0.7827  0.6906  0.2092
 4942SOL     OW26458   0.051   2.094   8.209  0.1412 -0.2003 -0.7433
 4942SOL    HW126459   4.709   2.097   8.156 -1.1670 -0.9536  1.1374
 4942SOL    HW226460   0.033   2.157   8.279  1.7233  1.2824 -1.6717
 4943SOL     OW26461   0.595   2.099   7.236 -0.2724  0.1611  0.0587
 4943SOL    HW126462   0.635   2.044   7.303 -0.3163 -1.0632 -0.9185
 4943SOL    HW226463   0.523   2.046   7.201  0.2387 -0.1138 -0.5620
 4944SOL     OW26464   4.271   2.277   3.758  0.6148  0.2518 -0.7126
 4944SOL    HW126465   4.252   2.365   3.724  0.2674 -0.2292 -1.7656
 4944SOL    HW226466   4.242   2.216   3.690  1.1297  0.2349 -0.9166
 4945SOL     OW26467   4.719   3.627   4.869  0.0261 -0.2470  0.0324
 4945SOL    HW126468   0.050   3.562   4.878 -0.2842 -0.4465  1.0123
 4945SOL    HW226469   4.687   3.643   4.958 -1.7436 -0.1447 -0.6189
 4946SOL     OW26470   1.991   1.560   5.313  0.2204  0.1587  0.1068
 4946SOL    HW126471   1.922   1.560   5.247 -0.4744  0.2256  0.8362
 4946SOL    HW226472   1.938   1.545   5.392  0.1994 -1.2970 -0.1780
 4947SOL     OW26473   0.119   2.744   7.476 -0.9870  0.3156 -0.3963
 4947SOL    HW126474   0.034   2.741   7.431 -1.8445 -1.8782  1.3622
 4947SOL    HW226475   0.145   2.657   7.446 -0.4006  1.2269 -2.5618
 4948SOL     OW26476   0.784   3.221   9.488  0.0900  0.0044  0.6895
 4948SOL    HW126477   0.864   3.197   9.535 -1.6317  1.2747  4.2221
 4948SOL    HW226478   0.769   3.310   9.518 -0.6386 -0.3415  1.3294
 4949SOL     OW26479   4.582   2.713  15.012 -0.1449  0.3287 -0.0679
 4949SOL    HW126480   4.504   2.722  14.957 -0.4099  1.1014  0.4392
 4949SOL    HW226481   4.631   2.669  14.943 -0.0976 -0.4769  0.4808
 4950SOL     OW26482   0.715   2.366  12.079 -0.1007  0.0648  0.2956
 4950SOL    HW126483   0.785   2.305  12.104  0.3597 -0.2866 -1.9115
 4950SOL    HW226484   0.725   2.369  11.984  1.8659  1.6243  0.5671
 4951SOL     OW26485   0.446   0.954  12.331  0.4763 -0.7928 -0.2901
 4951SOL    HW126486   0.446   0.859  12.324  0.4401 -0.7545 -0.8082
 4951SOL    HW226487   0.439   0.966  12.426  1.7576 -2.1014 -0.0496
 4952SOL     OW26488   4.552   0.253   9.186  0.0024  0.2543 -0.0808
 4952SOL    HW126489   4.589   0.274   9.100  0.6262  1.7211  0.5425
 4952SOL    HW226490   4.581   0.328   9.237 -0.6609  0.9705 -0.7498
 4953SOL     OW26491   0.218   1.086   2.427  0.5797  0.3334 -0.4508
 4953SOL    HW126492   0.287   1.101   2.363  1.3054 -1.8375 -0.1708
 4953SOL    HW226493   0.261   1.111   2.509 -0.5281 -0.2046  0.2913
 4954SOL     OW26494   3.653   3.661   7.079  0.1814 -0.6751  0.2744
 4954SOL    HW126495   3.646   3.714   7.000 -1.5777 -0.6708  0.4514
 4954SOL    HW226496   3.646   3.571   7.045 -0.2049 -0.6010  0.1594
 4955SOL     OW26497   3.863   4.466   7.979  0.5977  0.4629  0.0633
 4955SOL    HW126498   3.935   4.512   7.936  0.1857 -0.6620 -1.7939
 4955SOL    HW226499   3.791   4.478   7.918  1.7439 -0.3510 -1.4496
 4956SOL     OW26500   0.830   0.862   1.854 -0.0232 -0.2350 -0.5852
 4956SOL    HW126501   0.871   0.786   1.894 -2.3727 -0.4066  1.4675
 4956SOL    HW226502   0.747   0.875   1.900 -0.0074 -0.5225 -0.4783
 4957SOL     OW26503   2.981   0.849   4.614  0.5989  0.3143  0.4896
 4957SOL    HW126504   2.964   0.910   4.685  0.5389 -0.1236  0.8464
 4957SOL    HW226505   2.944   0.767   4.647  1.2411 -1.0148 -2.0070
 4958SOL     OW26506   2.651   1.473   7.760 -0.4963 -0.0661 -0.0403
 4958SOL    HW126507   2.581   1.421   7.800 -2.5225  2.3397 -0.4783
 4958SOL    HW226508   2.674   1.417   7.686 -2.5366 -1.6868  0.5382
 4959SOL     OW26509   4.709   3.269   5.819 -0.3586 -0.2649  0.1057
 4959SOL    HW126510   0.054   3.220   5.812  0.3119  0.7461  1.0571
 4959SOL    HW226511   4.727   3.330   5.890  1.9392 -0.3322 -0.4205
 4960SOL     OW26512   2.736   3.676   2.025  0.3533  0.3683 -0.1360
 4960SOL    HW126513   2.783   3.730   1.962 -0.6797 -1.3509 -2.3842
 4960SOL    HW226514   2.653   3.663   1.978 -0.4252  0.6553  1.1409
 4961SOL     OW26515   1.722   0.285   9.485 -0.4975 -0.1800 -0.1973
 4961SOL    HW126516   1.768   0.369   9.484 -3.1202  1.2274 -0.9461
 4961SOL    HW226517   1.730   0.247   9.573  0.3546  2.2013  0.7437
 4962SOL     OW26518   0.845   0.754   6.111 -0.3474  0.0372  0.0760
 4962SOL    HW126519   0.756   0.782   6.091 -0.6308 -1.8974 -1.4554
 4962SOL    HW226520   0.827   0.667   6.147 -1.6123  0.5247  0.6129
 4963SOL     OW26521   3.888   2.793   5.037  0.6220 -0.7447  0.0428
 4963SOL    HW126522   3.919   2.752   5.118  0.3897 -0.6110  0.2008
 4963SOL    HW226523   3.815   2.844   5.072  1.0406 -1.0113  1.3064
 4964SOL     OW26524   0.944   1.092   3.920 -0.3257 -0.6149 -0.6729
 4964SOL    HW126525   0.944   1.186   3.942 -2.4809 -1.1762  1.7338
 4964SOL    HW226526   1.030   1.086   3.878 -0.5150 -2.2692 -0.8255
 4965SOL     OW26527   2.568   2.716   4.324 -0.1213  0.2069 -0.1693
 4965SOL    HW126528   2.545   2.710   4.231  0.6528  0.0205 -0.3460
 4965SOL    HW226529   2.525   2.800   4.340 -0.4083  0.2022 -0.9243
 4966SOL     OW26530   3.791   1.867   9.183  0.3917 -0.2347  0.5195
 4966SOL    HW126531   3.861   1.923   9.152 -0.5480  1.4716  1.4584
 4966SOL    HW226532   3.716   1.923   9.161  0.9784  0.1516 -0.4855
 4967SOL     OW26533   0.299   1.479   1.543 -0.6155  0.0353 -0.6011
 4967SOL    HW126534   0.275   1.563   1.581  1.8366 -0.3298  1.7171
 4967SOL    HW226535   0.330   1.439   1.624  0.2651  2.0972  0.0638
 4968SOL     OW26536   0.697   3.381   5.319 -0.4830 -0.1327  0.5303
 4968SOL    HW126537   0.775   3.407   5.368  0.6022 -0.8409 -0.8182
 4968SOL    HW226538   0.739   3.345   5.241 -0.6945 -1.0523  0.8493
 4969SOL     OW26539   3.556   1.507   4.956  0.0613 -0.3778 -0.0609
 4969SOL    HW126540   3.545   1.601   4.971 -0.6509 -0.4364 -0.1808
 4969SOL    HW226541   3.639   1.504   4.910 -0.3877 -2.0607 -0.7500
 4970SOL     OW26542   3.540   2.376   0.976 -0.1068  0.4013  0.1958
 4970SOL    HW126543   3.509   2.303   0.922 -1.9819  0.7588  0.7855
 4970SOL    HW226544   3.565   2.329   1.055  4.1414  0.9022 -0.8562
 4971SOL     OW26545   2.258   0.890   8.412  0.2387 -0.0224 -0.0584
 4971SOL    HW126546   2.215   0.889   8.498  1.2531  1.3924  0.4630
 4971SOL    HW226547   2.322   0.823   8.435  0.5988  0.4590  0.3613
 4972SOL     OW26548   0.256   1.986  14.857  0.1174  0.0700  0.5983
 4972SOL    HW126549   0.251   1.939  14.940  2.2381 -0.0656  0.6491
 4972SOL    HW226550   0.292   2.065  14.898  1.4784  0.1674 -0.7685
 4973SOL     OW26551   2.672   3.189   3.799  0.2801  0.1861 -0.3930
 4973SOL    HW126552   2.742   3.125   3.803 -0.0920 -0.4466 -4.6437
 4973SOL    HW226553   2.706   3.257   3.742  0.2788  0.7137  0.2294
 4974SOL     OW26554   1.451   3.720  10.540 -0.3519 -0.2423  0.0751
 4974SOL    HW126555   1.494   3.655  10.485  1.6094  0.6333  0.5744
 4974SOL    HW226556   1.394   3.669  10.597 -0.5259  0.2339  0.3274
 4975SOL     OW26557   0.864   2.399  11.016  0.4299  0.0684 -0.1091
 4975SOL    HW126558   0.895   2.366  10.932  1.0148 -1.2297  0.6093
 4975SOL    HW226559   0.936   2.366  11.069  2.1338  3.7552 -0.1520
 4976SOL     OW26560   3.359   3.348   7.222 -0.5996  0.5006  0.1199
 4976SOL    HW126561   3.421   3.332   7.294 -1.2908  0.9349  0.8185
 4976SOL    HW226562   3.291   3.282   7.236 -1.2079  1.0714 -0.1533
 4977SOL     OW26563   2.769   4.536   1.544  0.3051 -0.2330 -0.2661
 4977SOL    HW126564   2.725   4.472   1.487  0.7269 -1.2113  0.5117
 4977SOL    HW226565   2.776   4.606   1.479 -0.5267  0.3923  0.3239
 4978SOL     OW26566   2.850   0.855   8.501 -0.3636  0.1772 -0.4179
 4978SOL    HW126567   2.794   0.785   8.467 -2.1040 -0.1468  3.1698
 4978SOL    HW226568   2.788   0.885   8.567  1.8187  1.0194  1.2562
 4979SOL     OW26569   0.729   0.710   4.324 -0.2206 -0.0933 -0.2717
 4979SOL    HW126570   0.762   0.773   4.388  0.9936  0.2495 -1.2247
 4979SOL    HW226571   0.700   0.763   4.249  1.7367  0.5253 -0.5984
 4980SOL     OW26572   0.702   3.177   6.784  0.5385 -0.0748  0.2584
 4980SOL    HW126573   0.634   3.157   6.719 -0.3526 -1.3786  1.6192
 4980SOL    HW226574   0.780   3.130   6.757 -1.2673 -2.4963 -0.7276
 4981SOL     OW26575   0.995   2.735   5.883  0.6167  0.0529 -0.4181
 4981SOL    HW126576   0.943   2.659   5.907  0.5323 -0.0229 -0.8290
 4981SOL    HW226577   0.940   2.804   5.919 -0.5183 -0.8848 -0.3566
 4982SOL     OW26578   2.843   4.020   4.015 -0.1085 -0.1755  0.0162
 4982SOL    HW126579   2.863   4.008   4.108  1.2259 -0.0390 -0.2470
 4982SOL    HW226580   2.790   4.099   4.006 -1.8509 -1.2596  0.8795
 4983SOL     OW26581   3.926   3.044  11.347  0.2511  0.1301 -0.5494
 4983SOL    HW126582   3.911   3.136  11.323 -1.0816 -0.2607 -1.1979
 4983SOL    HW226583   3.837   3.016  11.366 -0.2844  1.1038 -1.5813
 4984SOL     OW26584   3.900   2.256   0.862  0.2001 -0.5108  0.0434
 4984SOL    HW126585   3.873   2.166   0.879 -2.4947  0.4097  0.6512
 4984SOL    HW226586   3.894   2.293   0.950 -2.1537 -0.8201  0.0003
 4985SOL     OW26587   3.378   2.740   2.450 -0.1596 -0.2264  0.4227
 4985SOL    HW126588   3.467   2.745   2.486 -1.1334  1.9188  2.5507
 4985SOL    HW226589   3.330   2.805   2.501  2.1084  0.6168  1.4891
 4986SOL     OW26590   3.634   2.530   4.690 -0.2658  0.4996  0.6293
 4986SOL    HW126591   3.657   2.618   4.659 -0.9601  0.3030 -0.4049
 4986SOL    HW226592   3.703   2.520   4.756  0.2511  1.7600  0.2795
 4987SOL     OW26593   3.618   4.197   8.752  0.0415  0.2231  0.1212
 4987SOL    HW126594   3.699   4.146   8.751 -0.3800 -0.4253 -0.3335
 4987SOL    HW226595   3.640   4.290   8.762 -0.0105  0.3152 -0.6861
 4988SOL     OW26596   4.503   2.134   5.433 -0.0187  0.0710 -0.0402
 4988SOL    HW126597   4.526   2.107   5.522  2.0331  1.6065 -0.1237
 4988SOL    HW226598   4.446   2.062   5.403  3.3081 -1.1600 -3.3797
 4989SOL     OW26599   1.965   2.489   1.287 -0.0119 -0.3132 -0.3954
 4989SOL    HW126600   1.897   2.422   1.285 -0.2137  0.0734 -4.9720
 4989SOL    HW226601   2.000   2.497   1.199 -3.1673  0.3082 -1.5814
 4990SOL     OW26602   0.275   0.383   5.147  0.5422  1.0167 -0.4498
 4990SOL    HW126603   0.206   0.317   5.138  0.1869  1.5280 -1.4774
 4990SOL    HW226604   0.342   0.322   5.176  0.3620 -0.3769 -3.0021
 4991SOL     OW26605   1.667   3.292   4.721  0.1373 -0.4030 -0.5843
 4991SOL    HW126606   1.746   3.312   4.671  0.5637  1.4209  0.8265
 4991SOL    HW226607   1.665   3.356   4.792 -2.1252 -0.7852 -0.2897
 4992SOL     OW26608   1.557   1.694   6.205  0.2438  0.5110  0.1585
 4992SOL    HW126609   1.478   1.746   6.194  0.9125  1.4876  0.0178
 4992SOL    HW226610   1.623   1.740   6.154  1.4443 -2.6531 -1.1434
 4993SOL     OW26611   2.353   0.531   7.934  0.5055 -0.1848  0.3143
 4993SOL    HW126612   2.311   0.548   7.850  1.4719  0.5206 -0.0199
 4993SOL    HW226613   2.270   0.518   7.979  0.1545  1.4639  0.1596
 4994SOL     OW26614   1.202   3.539   9.677  0.2453  0.2256  0.3883
 4994SOL    HW126615   1.113   3.536   9.640  0.5340 -1.0893 -0.2201
 4994SOL    HW226616   1.195   3.493   9.761  3.2241 -1.5523 -0.3412
 4995SOL     OW26617   2.901   4.202   9.751 -0.3346  0.4214  0.3420
 4995SOL    HW126618   2.814   4.163   9.764 -0.1810  0.4972  1.6167
 4995SOL    HW226619   2.880   4.294   9.766 -0.9728  0.2718  0.3929
 4996SOL     OW26620   4.146   4.124   7.592  0.0558 -0.1411  0.7592
 4996SOL    HW126621   4.062   4.171   7.588 -0.4393 -1.2957 -2.7244
 4996SOL    HW226622   4.161   4.116   7.498  2.3056  0.8122  1.0631
 4997SOL     OW26623   2.369   2.320   4.848 -0.2669  0.2504  0.4489
 4997SOL    HW126624   2.456   2.356   4.860  0.4858 -1.0041 -1.1897
 4997SOL    HW226625   2.384   2.249   4.785 -1.3272  0.1726  0.2788
 4998SOL     OW26626   2.082   2.265   5.277  0.0293  0.9847 -0.2298
 4998SOL    HW126627   2.157   2.232   5.326 -0.3197 -0.5374 -0.7164
 4998SOL    HW226628   2.119   2.285   5.191 -0.9117 -0.3787 -0.9601
 4999SOL     OW26629   3.099   1.026   9.448 -0.2415  0.0270 -0.6277
 4999SOL    HW126630   3.151   1.097   9.484  0.5483 -0.7546 -0.2211
 4999SOL    HW226631   3.119   0.955   9.508 -1.1534  0.5491  0.2921
 5000SOL     OW26632   4.122   2.123   7.927 -0.1465  0.4184 -0.3864
 5000SOL    HW126633   4.199   2.126   7.870 -0.5116 -2.7046 -1.0208
 5000SOL    HW226634   4.048   2.140   7.869 -0.6638  0.9055  0.4125
 5001SOL     OW26635   0.229   3.772  13.781 -0.5524 -0.3126 -0.1277
 5001SOL    HW126636   0.306   3.767  13.838 -0.4222 -0.2968 -0.3022
 5001SOL    HW226637   0.234   3.684  13.744 -2.6598 -0.4220 -0.1749
 5002SOL     OW26638   0.118   2.741   8.254 -0.2341  0.2565 -1.1578
 5002SOL    HW126639   0.131   2.650   8.227 -1.2850 -0.5571  1.0737
 5002SOL    HW226640   0.173   2.788   8.191 -0.8426  1.1137 -1.0447
 5003SOL     OW26641   0.309   4.593   8.974 -0.3561  0.0705  0.2905
 5003SOL    HW126642   0.229   4.564   9.018 -1.9609  1.3959 -1.7223
 5003SOL    HW226643   0.280   4.682   8.956  0.1476  0.0922 -0.4275
 5004SOL     OW26644   1.497   4.686   4.970  0.3184  0.1182 -0.0764
 5004SOL    HW126645   1.535   4.608   4.930  2.7615  0.2926  1.9320
 5004SOL    HW226646   1.572   0.007   4.961  0.0279  0.3005 -1.2680
 5005SOL     OW26647   2.780   3.532   2.722  0.4577 -0.0959 -0.1665
 5005SOL    HW126648   2.821   3.479   2.790  2.6348 -1.0217 -2.2111
 5005SOL    HW226649   2.761   3.464   2.658 -0.8297  1.0542 -1.0161
 5006SOL     OW26650   3.054   0.838   2.892 -0.7146  0.5347  0.5324
 5006SOL    HW126651   3.149   0.844   2.899 -0.5568  0.9249 -2.0113
 5006SOL    HW226652   3.027   0.835   2.984 -2.5213 -2.4032 -0.0888
 5007SOL     OW26653   3.269   3.195  14.473  0.0376 -0.0990 -0.0676
 5007SOL    HW126654   3.272   3.100  14.479  1.1558 -0.0969 -0.6717
 5007SOL    HW226655   3.304   3.224  14.388 -0.9196 -1.9182 -1.0703
 5008SOL     OW26656   0.820   0.132   8.749 -0.1591 -0.2552 -0.2241
 5008SOL    HW126657   0.873   0.178   8.814 -0.2125  0.3282 -0.5996
 5008SOL    HW226658   0.733   0.171   8.756 -0.5110 -0.9733 -0.5837
 5009SOL     OW26659   4.262   0.021   4.401 -0.0322 -0.6924  0.1098
 5009SOL    HW126660   4.329   4.694   4.424  0.0595 -0.2499  1.0950
 5009SOL    HW226661   4.199   0.005   4.471 -0.8494  1.9519 -0.0509
 5010SOL     OW26662   4.349   0.593  15.487  0.0585 -0.6380 -0.1194
 5010SOL    HW126663   4.325   0.537  15.414 -1.1376  0.1297 -0.3230
 5010SOL    HW226664   4.440   0.616  15.469 -0.4452  0.3535 -1.3831
 5011SOL     OW26665   1.481   4.529   7.993 -0.0576 -0.0145  0.3066
 5011SOL    HW126666   1.547   4.595   8.013 -0.8669  0.2340  2.2281
 5011SOL    HW226667   1.520   4.496   7.912  0.9940 -1.4399  1.3940
 5012SOL     OW26668   0.971   3.317   6.178  0.0123 -0.2113 -0.0063
 5012SOL    HW126669   0.930   3.403   6.168 -0.1045 -0.5261 -2.2046
 5012SOL    HW226670   0.907   3.258   6.139 -0.6032 -0.7678  1.8872
 5013SOL     OW26671   2.697   4.161   7.046 -0.0602 -0.1112 -0.2052
 5013SOL    HW126672   2.767   4.194   6.989  0.0658  0.6347  0.3834
 5013SOL    HW226673   2.669   4.081   7.002  0.5837 -0.7993  0.6315
 5014SOL     OW26674   3.233   3.179  13.043  0.3687  0.9057  0.2087
 5014SOL    HW126675   3.222   3.188  13.137 -0.2136 -1.8571  0.4174
 5014SOL    HW226676   3.220   3.085  13.028  1.3560  0.7536  0.3505
 5015SOL     OW26677   3.361   4.461   2.396 -0.6518 -0.4558  0.2084
 5015SOL    HW126678   3.422   4.473   2.468  2.5076  0.1932 -2.5662
 5015SOL    HW226679   3.362   4.365   2.397 -1.7814 -0.4979 -1.7485
 5016SOL     OW26680   1.211   0.352   9.284  0.0101  0.5816  0.0639
 5016SOL    HW126681   1.298   0.318   9.300 -0.1672  0.6839  1.2628
 5016SOL    HW226682   1.168   0.287   9.229  1.8835 -0.7635  0.2241
 5017SOL     OW26683   1.966   0.767   2.846  0.2296  0.2253  0.3215
 5017SOL    HW126684   1.965   0.773   2.941  0.6292  1.1576  0.2729
 5017SOL    HW226685   1.872   0.761   2.828  1.0738 -0.5394 -3.8448
 5018SOL     OW26686   0.447   2.256   6.359  0.3311  0.0979 -0.1339
 5018SOL    HW126687   0.437   2.187   6.424  2.3554 -0.8073 -0.7721
 5018SOL    HW226688   0.530   2.295   6.385  0.6395 -0.1015 -0.8002
 5019SOL     OW26689   1.657   4.046   6.554  0.5836  0.1234  0.1548
 5019SOL    HW126690   1.652   4.141   6.554  2.7327  0.2353  0.2863
 5019SOL    HW226691   1.713   4.029   6.478 -0.1507 -0.0143 -0.3561
 5020SOL     OW26692   2.457   4.309   4.703  0.8699  0.0604 -0.9547
 5020SOL    HW126693   2.488   4.389   4.661  2.3071  0.0635  0.1076
 5020SOL    HW226694   2.383   4.276   4.652 -0.9914  3.1130 -0.2106
 5021SOL     OW26695   1.451   1.272   6.970  0.2848 -0.3745 -0.4631
 5021SOL    HW126696   1.378   1.294   6.912  0.8656  1.8415 -0.3694
 5021SOL    HW226697   1.525   1.280   6.909  0.0020 -0.9420 -0.8793
 5022SOL     OW26698   2.935   3.978   8.847  0.0188  0.2805  0.3438
 5022SOL    HW126699   3.003   4.014   8.791  1.9082 -0.8327  1.9202
 5022SOL    HW226700   2.853   3.996   8.802  0.9687  0.2634 -1.3751
 5023SOL     OW26701   1.788   0.785   4.833  0.0635 -0.4054  0.1866
 5023SOL    HW126702   1.720   0.849   4.853 -0.7401 -2.6531  4.7379
 5023SOL    HW226703   1.818   0.760   4.920 -2.2704 -0.6009  0.9249
 5024SOL     OW26704   1.412   3.169  14.386  0.4988  0.4732 -0.3469
 5024SOL    HW126705   1.428   3.227  14.310 -1.3030  0.5714 -0.6565
 5024SOL    HW226706   1.317   3.159  14.382  0.7146 -1.4711 -0.5404
 5025SOL     OW26707   1.150   4.416  12.812 -0.3074  0.1247  0.1625
 5025SOL    HW126708   1.182   4.487  12.757  1.1510 -0.5817  0.1077
 5025SOL    HW226709   1.055   4.422  12.824 -0.3701 -1.2754  0.3651
 5026SOL     OW26710   1.635   3.333   2.632 -0.2086 -0.0032  0.0629
 5026SOL    HW126711   1.642   3.428   2.621  1.7501 -0.3037 -1.1408
 5026SOL    HW226712   1.597   3.323   2.545  2.5916  1.3994 -1.2846
 5027SOL     OW26713   0.648   2.286   6.066 -0.0335 -0.0081 -0.2506
 5027SOL    HW126714   0.579   2.343   6.101  0.2103  1.0004 -1.4280
 5027SOL    HW226715   0.607   2.269   5.981 -1.1787 -0.1192  0.3115
 5028SOL     OW26716   1.871   0.282  11.355 -0.6160  0.2812  0.2135
 5028SOL    HW126717   1.891   0.292  11.448 -2.8246  1.3261  0.5732
 5028SOL    HW226718   1.775   0.291  11.359 -0.4260  2.8613 -0.6253
 5029SOL     OW26719   1.818   4.245  13.561 -0.1204  0.2037  0.1443
 5029SOL    HW126720   1.895   4.300  13.545 -1.1111  1.6428  0.3863
 5029SOL    HW226721   1.859   4.162  13.585  1.5723  0.8697 -0.4437
 5030SOL     OW26722   0.223   2.620   2.453  0.2912 -0.6973 -0.3172
 5030SOL    HW126723   0.305   2.637   2.406 -0.3573 -1.1779 -1.6546
 5030SOL    HW226724   0.231   2.526   2.471 -0.5379 -0.6302  0.4058
 5031SOL     OW26725   2.757   1.324  16.388 -0.4432  0.0672  0.6182
 5031SOL    HW126726   2.707   1.250  16.354  1.0224 -0.3002 -0.7337
 5031SOL    HW226727   2.720   1.394  16.334 -0.9608 -1.3690 -0.9070
 5032SOL     OW26728   0.910   1.467   6.048 -0.5241  0.0434 -0.1758
 5032SOL    HW126729   1.006   1.470   6.056 -0.7031  1.4014  1.3024
 5032SOL    HW226730   0.894   1.561   6.052 -0.6312 -0.0226  0.8017
 5033SOL     OW26731   0.390   3.096   2.425  0.0618  0.2843  0.1866
 5033SOL    HW126732   0.400   3.191   2.430  0.6390  0.2342  0.0155
 5033SOL    HW226733   0.359   3.071   2.512 -0.4818 -2.8989 -0.9088
 5034SOL     OW26734   1.426   0.738  13.865 -0.0630  0.2392 -0.3156
 5034SOL    HW126735   1.339   0.772  13.886  0.2477  0.6118  0.3663
 5034SOL    HW226736   1.397   0.651  13.839  0.1965  0.6344 -1.9148
 5035SOL     OW26737   2.107   1.897   3.401 -0.1229  0.2247 -0.2884
 5035SOL    HW126738   2.027   1.845   3.393  0.4134 -0.5935 -0.3510
 5035SOL    HW226739   2.070   1.984   3.417  2.2426  0.8214  1.9185
 5036SOL     OW26740   4.365   2.232   1.555 -0.2434 -0.1146 -0.5809
 5036SOL    HW126741   4.299   2.178   1.510  1.9778 -0.7679 -3.0122
 5036SOL    HW226742   4.314   2.263   1.630  1.6094 -0.1986  0.6882
 5037SOL     OW26743   1.161   0.921   4.796  0.1944 -0.6548 -0.6473
 5037SOL    HW126744   1.090   0.859   4.781  0.6513 -0.6804 -2.7369
 5037SOL    HW226745   1.170   0.956   4.708 -2.1374 -1.4295 -1.1781
 5038SOL     OW26746   3.116   2.752  14.088  0.1585 -0.1566  0.8117
 5038SOL    HW126747   3.086   2.711  14.169  2.0484 -1.3300  0.9143
 5038SOL    HW226748   3.138   2.840  14.118  0.1607  0.3461 -0.6191
 5039SOL     OW26749   1.249   0.268   3.296 -0.0550 -0.1877  0.0351
 5039SOL    HW126750   1.332   0.227   3.321  0.3998 -0.3267 -1.7522
 5039SOL    HW226751   1.235   0.239   3.206  0.4501  0.7585 -0.3462
 5040SOL     OW26752   3.150   1.716   2.458 -0.1236  0.5666 -0.3600
 5040SOL    HW126753   3.172   1.758   2.375 -0.4416  1.3371 -0.0606
 5040SOL    HW226754   3.113   1.790   2.508  1.2857  0.1532  1.3017
 5041SOL     OW26755   2.054   3.103   1.311 -0.1254 -0.4128  1.0240
 5041SOL    HW126756   2.082   3.039   1.376 -0.0954 -1.4285  0.0056
 5041SOL    HW226757   2.113   3.174   1.337  1.1410 -0.6600 -1.2447
 5042SOL     OW26758   1.916   3.357   5.678 -0.6151 -0.5452  0.6752
 5042SOL    HW126759   1.913   3.373   5.772 -1.5373  2.5437  0.1059
 5042SOL    HW226760   1.995   3.304   5.667 -0.5928 -0.1997 -0.8077
 5043SOL     OW26761   2.655   4.463   0.002  0.0001 -0.1515  0.2302
 5043SOL    HW126762   2.575   4.413  17.736  0.1652 -0.6575  0.9889
 5043SOL    HW226763   2.651   4.529  17.682  1.1843  1.2929  1.5118
 5044SOL     OW26764   0.989   0.401  14.178  0.1662  0.6372  0.1408
 5044SOL    HW126765   1.018   0.386  14.268 -2.4064 -0.0850  0.8590
 5044SOL    HW226766   0.948   0.315  14.163  1.2403  0.4232 -1.4838
 5045SOL     OW26767   3.403   3.742   5.455  0.0599  0.3695 -0.6739
 5045SOL    HW126768   3.414   3.662   5.403 -0.7053 -0.4689  0.4341
 5045SOL    HW226769   3.308   3.745   5.471  0.1965 -2.3623  0.6977
 5046SOL     OW26770   4.126   4.336  12.545  0.2212 -0.3022 -0.0673
 5046SOL    HW126771   4.092   4.249  12.564  1.4516 -0.1306  3.0493
 5046SOL    HW226772   4.220   4.318  12.549  0.2868  0.3749  1.6268
 5047SOL     OW26773   2.108   0.408   1.830  0.4563 -0.5183 -0.3475
 5047SOL    HW126774   2.201   0.414   1.852 -0.0328 -1.7442  2.0534
 5047SOL    HW226775   2.096   0.320   1.865 -0.8580 -0.2232 -0.0798
 5048SOL     OW26776   4.677   3.899   9.202 -0.1983  0.4732  0.3384
 5048SOL    HW126777   0.010   3.933   9.257  2.1098 -2.1034 -1.0777
 5048SOL    HW226778   4.700   3.934   9.116 -0.6280  3.2337  1.3441
 5049SOL     OW26779   2.319   3.115   6.812  0.1139 -0.3528 -0.2306
 5049SOL    HW126780   2.226   3.093   6.817 -0.4966  2.4205  0.7944
 5049SOL    HW226781   2.305   3.200   6.854  1.0339 -0.2235 -0.1819
 5050SOL     OW26782   3.474   0.599   3.306 -0.1818  0.5318  0.4056
 5050SOL    HW126783   3.541   0.563   3.248  2.1942  3.1626  1.5248
 5050SOL    HW226784   3.473   0.534   3.377  1.3550  0.4169  0.3082
 5051SOL     OW26785   0.960   0.378   3.098 -0.2330 -0.0267 -0.3127
 5051SOL    HW126786   1.030   0.438   3.123 -0.6266 -0.4247  1.7331
 5051SOL    HW226787   0.963   0.317   3.172 -1.0135 -0.0314 -0.2849
 5052SOL     OW26788   1.563   4.131  14.622  0.2814 -0.2393  0.3074
 5052SOL    HW126789   1.624   4.190  14.577  0.5684 -0.2465  0.6793
 5052SOL    HW226790   1.619   4.115  14.698 -1.5686  0.8053  1.8837
 5053SOL     OW26791   0.708   3.997   5.796  0.2956  0.1358  0.7641
 5053SOL    HW126792   0.666   3.915   5.772 -1.4138  0.8184  1.4306
 5053SOL    HW226793   0.801   3.977   5.789  0.0325 -1.3705  1.5395
 5054SOL     OW26794   0.358   3.487   6.581 -0.2522  0.4693 -0.2724
 5054SOL    HW126795   0.388   3.448   6.663 -0.2492  0.4940 -0.2617
 5054SOL    HW226796   0.307   3.411   6.552  0.2889  0.3396 -0.9112
 5055SOL     OW26797   3.371   0.499   7.818  0.4875  0.1167 -0.0212
 5055SOL    HW126798   3.328   0.416   7.842  2.5853 -0.0583  3.2015
 5055SOL    HW226799   3.386   0.489   7.724 -0.8028 -0.2945 -0.1875
 5056SOL     OW26800   2.637   0.774  10.171 -0.3234  0.5586 -0.5545
 5056SOL    HW126801   2.679   0.853  10.205 -3.2486 -0.1286  4.7231
 5056SOL    HW226802   2.694   0.759  10.096  1.2735  0.7871  0.6292
 5057SOL     OW26803   3.722   0.191   6.099  0.7966 -0.0081  0.2370
 5057SOL    HW126804   3.704   0.208   6.191  1.4244  0.0773  0.3464
 5057SOL    HW226805   3.698   0.098   6.097  1.7816 -0.2875  1.0054
 5058SOL     OW26806   0.923   4.056  13.080 -0.4004  0.1272  0.8237
 5058SOL    HW126807   0.946   4.057  13.173  1.7756  2.2079  0.2718
 5058SOL    HW226808   0.838   4.013  13.086 -0.7555  0.9964  1.9098
 5059SOL     OW26809   0.871   3.952   3.669 -0.4950  0.8275  0.4312
 5059SOL    HW126810   0.953   3.969   3.623  0.5283 -1.4884  1.4087
 5059SOL    HW226811   0.867   4.023   3.734 -0.6921  0.4233  0.8609
 5060SOL     OW26812   2.812   2.198   4.011  0.1420  0.6384  0.2661
 5060SOL    HW126813   2.735   2.255   4.003  0.8286  1.5406  0.0100
 5060SOL    HW226814   2.839   2.220   4.100  0.2967 -0.9270  0.6026
 5061SOL     OW26815   2.654   0.033   4.391 -0.0092  0.1503  0.4578
 5061SOL    HW126816   2.695   0.098   4.448  0.8586 -0.7055  0.8264
 5061SOL    HW226817   2.684   0.073   4.310 -3.0638 -0.5088 -0.9879
 5062SOL     OW26818   1.844   2.473  11.223  0.0505 -0.4188  0.1442
 5062SOL    HW126819   1.794   2.416  11.165  1.3525 -0.9413 -0.4412
 5062SOL    HW226820   1.904   2.518  11.164 -1.3207  0.6836 -0.4062
 5063SOL     OW26821   4.286   3.787   0.310 -0.1646 -0.4794  0.1771
 5063SOL    HW126822   4.345   3.851   0.350 -0.7721 -0.2840  0.7519
 5063SOL    HW226823   4.220   3.841   0.267 -0.4667  0.6483  2.1098
 5064SOL     OW26824   2.630   0.070   1.400 -0.6152 -0.3842  0.0565
 5064SOL    HW126825   2.706   0.099   1.452  0.5369 -1.3631 -1.0859
 5064SOL    HW226826   2.660   0.102   1.315 -0.7026  0.1429  0.2235
 5065SOL     OW26827   1.176   2.245   9.062  0.1472 -0.3594 -0.3678
 5065SOL    HW126828   1.085   2.266   9.041 -0.3549 -2.6677 -0.5788
 5065SOL    HW226829   1.171   2.150   9.047 -1.5370 -0.2747 -0.3747
 5066SOL     OW26830   3.235   1.171   2.533  0.2845 -0.7763 -1.2110
 5066SOL    HW126831   3.204   1.224   2.459 -1.9265 -1.1154 -0.5096
 5066SOL    HW226832   3.234   1.224   2.613 -0.3564  0.5248 -2.0770
 5067SOL     OW26833   1.036   0.708   5.674 -0.4089  0.1094 -0.6645
 5067SOL    HW126834   0.946   0.737   5.659 -0.9603 -1.3758 -0.2328
 5067SOL    HW226835   1.044   0.655   5.754 -2.0583  1.6772  0.5397
 5068SOL     OW26836   2.047   1.081   5.768  0.0860  0.1008 -0.1103
 5068SOL    HW126837   1.966   1.095   5.817  0.8823  0.1199  1.1739
 5068SOL    HW226838   2.104   1.145   5.811  1.9831 -0.8783 -1.1498
 5069SOL     OW26839   2.650   3.115   1.106  0.6311  0.6026 -0.2372
 5069SOL    HW126840   2.661   3.206   1.080 -0.5161  0.8256  0.0836
 5069SOL    HW226841   2.556   3.106   1.120  1.1030 -1.1385  1.9119
 5070SOL     OW26842   0.090   0.525  13.055 -0.0293  0.0767 -0.1844
 5070SOL    HW126843   0.073   0.532  12.961 -0.5460 -1.9262 -0.2490
 5070SOL    HW226844   0.118   0.433  13.054  0.3601  0.2054 -0.6085
 5071SOL     OW26845   1.192   3.277   3.904  0.5318  0.2241  0.1071
 5071SOL    HW126846   1.238   3.337   3.846  1.9111 -0.2482  0.7304
 5071SOL    HW226847   1.105   3.317   3.897  0.7386  0.2104 -2.6019
 5072SOL     OW26848   2.723   0.930   3.550 -0.3249  0.5640 -0.5551
 5072SOL    HW126849   2.812   0.956   3.571 -0.4184  0.0097  0.5333
 5072SOL    HW226850   2.732   0.863   3.481 -1.8845  0.5056 -0.7233
 5073SOL     OW26851   3.266   4.654   2.038 -0.8602 -0.1942  0.2351
 5073SOL    HW126852   3.203   4.674   1.968 -0.2489 -0.7477 -0.4678
 5073SOL    HW226853   3.305   4.572   2.007  2.4216  1.6276 -0.3509
 5074SOL     OW26854   1.825   3.136   5.371  0.0269 -0.2737 -0.4214
 5074SOL    HW126855   1.757   3.069   5.361 -2.2897  2.1167 -0.6014
 5074SOL    HW226856   1.902   3.084   5.348 -0.1548  0.1050 -1.8624
 5075SOL     OW26857   2.938   2.011   4.955 -0.3596  0.5222  0.0134
 5075SOL    HW126858   2.926   2.085   4.895 -0.6064 -0.2812 -0.9297
 5075SOL    HW226859   3.032   2.014   4.974 -0.3290 -1.7040  0.1881
 5076SOL     OW26860   3.166   4.639   3.048  0.3505  0.0962  0.7111
 5076SOL    HW126861   3.190   4.685   3.129  0.1112  1.0385  0.2460
 5076SOL    HW226862   3.218   4.688   2.985  1.2685 -1.4604  0.2717
 5077SOL     OW26863   2.600   4.503   3.180  0.2052 -0.3003 -0.2927
 5077SOL    HW126864   2.640   4.545   3.103 -0.2719  0.2572 -0.2429
 5077SOL    HW226865   2.672   4.457   3.222 -0.3265 -0.0974  0.8510
 5078SOL     OW26866   2.321   2.908   2.359  0.2200  0.1207  0.4592
 5078SOL    HW126867   2.409   2.916   2.322  0.1708  1.8573  0.7115
 5078SOL    HW226868   2.332   2.961   2.439  0.3509  0.4784  0.2054
 5079SOL     OW26869   1.327   0.822   7.314  0.0519  0.4503  0.1408
 5079SOL    HW126870   1.342   0.823   7.220  1.1459  0.7870  0.3210
 5079SOL    HW226871   1.233   0.803   7.305 -0.1730  2.5341 -1.8321
 5080SOL     OW26872   0.039   1.476  17.668 -0.2616  0.0758  0.0157
 5080SOL    HW126873   0.105   1.516  17.610 -0.3452 -1.0302 -0.8536
 5080SOL    HW226874   0.025   1.394  17.621 -1.6962 -0.9484  2.2867
 5081SOL     OW26875   1.846   4.575   2.453 -0.3836 -0.5552  0.0477
 5081SOL    HW126876   1.846   4.579   2.357  1.7600 -1.5533 -0.0036
 5081SOL    HW226877   1.783   4.505   2.468 -0.1113 -0.3721  2.0950
 5082SOL     OW26878   3.674   0.099   0.919  0.4133  0.3900  0.0927
 5082SOL    HW126879   3.671   0.013   0.878  0.1216  0.6945 -0.5135
 5082SOL    HW226880   3.697   0.159   0.848  0.6113  0.8168  0.5169
 5083SOL     OW26881   1.582   1.394   5.991 -0.4553 -0.4976  0.1837
 5083SOL    HW126882   1.586   1.459   5.921 -1.6666 -0.3091  0.2824
 5083SOL    HW226883   1.528   1.325   5.953 -3.5960  1.8573  0.3890
 5084SOL     OW26884   3.634   2.472   3.455 -0.4361  0.6401  0.8441
 5084SOL    HW126885   3.648   2.563   3.430  1.1248  0.0495 -0.3944
 5084SOL    HW226886   3.539   2.470   3.452 -0.4610  0.1714  1.6865
 5085SOL     OW26887   0.680   4.411   4.536 -0.0194  0.0710 -0.1947
 5085SOL    HW126888   0.769   4.375   4.539 -0.1168 -0.3978 -2.5940
 5085SOL    HW226889   0.707   4.467   4.463  1.2225 -0.7057 -0.3466
 5086SOL     OW26890   1.160   1.366   7.428  0.0377 -0.0938  0.2292
 5086SOL    HW126891   1.143   1.363   7.522  2.3378 -0.6259  0.6276
 5086SOL    HW226892   1.255   1.364   7.415 -0.2315 -0.4693 -1.6923
 5087SOL     OW26893   0.633   2.077   2.423  0.2626  0.0759  0.6922
 5087SOL    HW126894   0.684   2.038   2.494  2.1401 -0.1440 -0.7656
 5087SOL    HW226895   0.622   2.002   2.366 -0.2144  0.6675  0.0024
 5088SOL     OW26896   2.976   1.790   9.068 -0.5434  0.2046 -0.2945
 5088SOL    HW126897   2.931   1.716   9.109 -1.2415 -0.2129 -1.8205
 5088SOL    HW226898   2.913   1.859   9.090  1.0601  1.5083  0.2236
 5089SOL     OW26899   3.304   1.035   8.974  0.6816  0.2106 -0.2065
 5089SOL    HW126900   3.252   1.013   9.051  0.6142 -0.8937 -0.5654
 5089SOL    HW226901   3.233   1.022   8.912  0.0999  1.4915  0.2013
 5090SOL     OW26902   3.395   3.644   7.236 -0.4292 -0.0736 -0.6763
 5090SOL    HW126903   3.483   3.659   7.202  0.3311 -2.1365  0.3694
 5090SOL    HW226904   3.396   3.551   7.211  0.6776 -0.3384  0.3444
 5091SOL     OW26905   2.798   1.782   7.253 -0.9138  0.2886  0.1744
 5091SOL    HW126906   2.790   1.699   7.205 -5.3370  1.2730 -0.7494
 5091SOL    HW226907   2.738   1.776   7.328  1.2333  0.3853  1.9014
 5092SOL     OW26908   4.619   1.034   8.421  0.0450  0.1939 -0.2175
 5092SOL    HW126909   4.524   1.031   8.422  0.0541  0.2242  0.5542
 5092SOL    HW226910   4.644   0.950   8.459  1.2900  0.5244 -0.3001
 5093SOL     OW26911   3.566   2.619   5.739  0.0196 -0.1172  0.3245
 5093SOL    HW126912   3.648   2.617   5.689 -0.3352  0.3245 -0.2771
 5093SOL    HW226913   3.573   2.535   5.785  3.5516  0.3541  0.6883
 5094SOL     OW26914   1.754   1.901   2.362 -0.4093 -0.0908 -0.0556
 5094SOL    HW126915   1.795   1.931   2.443  0.0163 -0.1509 -0.2473
 5094SOL    HW226916   1.693   1.975   2.359  0.9927  1.1573  2.1475
 5095SOL     OW26917   4.379   2.902   2.925  0.0599  0.1044  0.1651
 5095SOL    HW126918   4.334   2.832   2.972 -0.1535  1.5605  2.1527
 5095SOL    HW226919   4.468   2.867   2.926  0.7059  1.7068 -1.6430
 5096SOL     OW26920   4.314   3.437   4.519  0.8330  0.3367  0.3646
 5096SOL    HW126921   4.368   3.515   4.529 -0.8388  1.1467  2.8595
 5096SOL    HW226922   4.292   3.454   4.427 -0.5601  0.2854  0.6931
 5097SOL     OW26923   3.354   2.103   8.715 -0.2337  0.4207 -0.0554
 5097SOL    HW126924   3.444   2.111   8.684 -0.3243 -0.0081 -0.4336
 5097SOL    HW226925   3.368   2.067   8.802  0.2890  0.9799  0.0928
 5098SOL     OW26926   1.153   0.466  16.583  0.3797  0.3798 -0.1632
 5098SOL    HW126927   1.179   0.535  16.522 -0.4829  1.7188  0.9791
 5098SOL    HW226928   1.127   0.527  16.653  1.9788  3.7991 -2.5039
 5099SOL     OW26929   1.394   0.711   4.912 -0.7712 -0.1921  0.8025
 5099SOL    HW126930   1.436   0.661   4.982  1.3853 -0.8684 -0.9551
 5099SOL    HW226931   1.305   0.727   4.942 -1.2008  2.8373 -2.0505
 5100SOL     OW26932   3.650   2.496   3.005  0.2937  0.8472  0.5782
 5100SOL    HW126933   3.669   2.414   2.959  0.0700  0.8129  0.5482
 5100SOL    HW226934   3.575   2.466   3.057  0.3625 -0.0461  0.1658
 5101SOL     OW26935   2.244   4.657   2.145 -0.5829 -0.3982  0.1296
 5101SOL    HW126936   2.172   4.595   2.155 -0.2670 -0.6233  1.0950
 5101SOL    HW226937   2.312   4.625   2.205  0.1629  2.1701  0.6546
 5102SOL     OW26938   1.193   0.697   9.602  0.2411 -0.1371  0.4336
 5102SOL    HW126939   1.205   0.775   9.656 -2.7924  0.6792 -0.0296
 5102SOL    HW226940   1.119   0.731   9.551 -0.7347 -1.0414  1.2278
 5103SOL     OW26941   3.539   4.324  11.111  0.4462 -0.1239 -0.2056
 5103SOL    HW126942   3.447   4.341  11.131  0.6090 -0.7398  1.0754
 5103SOL    HW226943   3.526   4.240  11.066 -1.6115 -0.5458  1.1509
 5104SOL     OW26944   4.151   0.473   3.982 -0.1751  0.2839 -0.4600
 5104SOL    HW126945   4.141   0.536   4.054 -2.2104  0.2498 -0.7150
 5104SOL    HW226946   4.246   0.464   3.984 -0.0881  1.2931  0.0452
 5105SOL     OW26947   0.166   0.050   4.905 -0.1220  0.4571  0.3245
 5105SOL    HW126948   0.163   0.021   4.814  1.8937  0.6266  0.1961
 5105SOL    HW226949   0.095   0.114   4.901  0.7884  1.5310  1.1802
 5106SOL     OW26950   2.633   0.902   7.192 -0.1080  0.0139 -0.2090
 5106SOL    HW126951   2.585   0.836   7.142 -0.7747  0.1215  0.2901
 5106SOL    HW226952   2.630   0.973   7.127  0.0176 -0.6107 -0.9026
 5107SOL     OW26953   0.357   0.830   4.942  0.1079  0.5629  0.0355
 5107SOL    HW126954   0.422   0.870   4.884 -0.6532  1.9353  0.1302
 5107SOL    HW226955   0.280   0.836   4.886  0.2452 -1.5594 -0.3621
 5108SOL     OW26956   1.073   2.048  15.376 -0.4676 -0.5451  0.1510
 5108SOL    HW126957   1.047   2.137  15.399  0.8531 -0.6101  1.8584
 5108SOL    HW226958   1.139   2.030  15.442 -1.0456 -0.4059  0.7660
 5109SOL     OW26959   1.760   3.755   6.019 -0.3880  0.7033  1.2936
 5109SOL    HW126960   1.835   3.708   6.055 -1.3303 -1.8091 -0.0254
 5109SOL    HW226961   1.695   3.697   6.057  0.8806  0.1580  2.6073
 5110SOL     OW26962   2.732   4.605   2.968  0.2348  0.5412 -0.2645
 5110SOL    HW126963   2.693   4.645   2.890 -2.2324 -0.5802  0.3890
 5110SOL    HW226964   2.812   4.658   2.974  1.7543 -1.5005 -2.5431
 5111SOL     OW26965   2.284   2.811   5.710 -0.7957  0.6436 -0.1640
 5111SOL    HW126966   2.267   2.849   5.623 -1.0222 -1.7372 -1.1395
 5111SOL    HW226967   2.350   2.744   5.691 -0.2904  0.9421  0.5048
 5112SOL     OW26968   2.299   0.384   5.975  0.0858  0.0078  0.1013
 5112SOL    HW126969   2.271   0.342   5.894 -0.3017 -0.7017  0.6051
 5112SOL    HW226970   2.301   0.317   6.043 -0.8801  0.5726  0.6864
 5113SOL     OW26971   0.024   2.295   3.135 -0.5648 -0.0041 -0.4920
 5113SOL    HW126972   0.053   2.294   3.043  0.0677 -1.8153 -0.2588
 5113SOL    HW226973   4.678   2.250   3.140  0.9698 -2.5882  1.7298
 5114SOL     OW26974   3.379   0.591  11.818  0.3603 -1.0071 -0.1579
 5114SOL    HW126975   3.355   0.534  11.891  0.8237  2.5641  2.8440
 5114SOL    HW226976   3.352   0.530  11.750  1.2893  0.6270 -2.0005
 5115SOL     OW26977   1.005   1.435   2.759  0.0495 -0.4242  0.4648
 5115SOL    HW126978   1.087   1.398   2.791 -0.0673  0.1211  1.4005
 5115SOL    HW226979   1.029   1.479   2.678 -0.3699 -1.7482 -0.3691
 5116SOL     OW26980   4.490   1.288   7.450 -0.0937 -0.2009 -0.2787
 5116SOL    HW126981   4.401   1.291   7.417 -0.8639 -0.7319  1.7422
 5116SOL    HW226982   4.475   1.241   7.532 -0.6380  0.4906  0.0119
 5117SOL     OW26983   1.543   4.006   4.911  0.1338  0.1935  0.1199
 5117SOL    HW126984   1.448   3.993   4.913 -0.4266  3.9290 -2.1087
 5117SOL    HW226985   1.569   3.924   4.953  0.8527  1.1657  1.5942
 5118SOL     OW26986   1.947   3.745   7.701 -0.2503  0.0628  0.6948
 5118SOL    HW126987   1.896   3.666   7.718  1.6375 -1.4262 -0.5770
 5118SOL    HW226988   1.908   3.775   7.618  4.1278  1.8069 -0.7289
 5119SOL     OW26989   4.259   2.343   6.271  0.1831  0.1029  0.1246
 5119SOL    HW126990   4.340   2.344   6.220 -0.3913 -1.2154 -0.8319
 5119SOL    HW226991   4.240   2.251   6.254 -1.7893  0.1916  1.8250
 5120SOL     OW26992   3.521   4.204  16.559  0.1306 -0.0553  0.1495
 5120SOL    HW126993   3.588   4.138  16.542 -0.0268 -0.2035  0.1107
 5120SOL    HW226994   3.440   4.168  16.522  0.2738 -0.0549 -0.1695
 5121SOL     OW26995   1.402   4.206   2.498  0.1257 -0.1440  0.4016
 5121SOL    HW126996   1.353   4.126   2.480  0.6391 -0.8750  2.1983
 5121SOL    HW226997   1.331   4.269   2.486  0.8389  0.6560  0.3621
 5122SOL     OW26998   0.660   3.347   4.414  0.1469 -0.5186 -0.4045
 5122SOL    HW126999   0.671   3.358   4.508 -0.3647  2.5179 -0.6904
 5122SOL    HW227000   0.677   3.255   4.396 -0.2125 -0.8614  1.0701
 5123SOL     OW27001   1.590   1.210   7.222 -0.5405  0.0260 -0.5176
 5123SOL    HW127002   1.635   1.136   7.182 -1.5419  0.0300 -1.6360
 5123SOL    HW227003   1.530   1.233   7.151 -0.6911  1.1673 -0.0370
 5124SOL     OW27004   3.906   0.165   2.090 -0.0423  0.2155  0.3643
 5124SOL    HW127005   3.873   0.246   2.052 -2.0553 -1.4544 -1.4897
 5124SOL    HW227006   3.998   0.179   2.067 -0.2368  0.6275 -0.1592
 5125SOL     OW27007   3.280   2.017   6.583 -0.3312  0.3963 -0.0245
 5125SOL    HW127008   3.332   2.097   6.586 -0.1325  0.2482  0.4604
 5125SOL    HW227009   3.189   2.045   6.572 -0.7109  0.2189  2.7049
 5126SOL     OW27010   4.561   2.555  10.948  0.7582  0.5228 -0.6061
 5126SOL    HW127011   4.656   2.563  10.942  0.8785 -0.3469  0.1474
 5126SOL    HW227012   4.564   2.553  11.044  0.0348 -1.5440 -0.6357
 5127SOL     OW27013   0.620   0.127   6.151 -0.3153 -0.1516  0.6851
 5127SOL    HW127014   0.560   0.095   6.084  1.8324 -1.7597 -0.4348
 5127SOL    HW227015   0.569   0.201   6.183  1.0498  1.6059 -1.2606
 5128SOL     OW27016   4.216   3.865  12.858  0.7022  0.5228  0.0909
 5128SOL    HW127017   4.274   3.905  12.924 -1.1878  1.7963  0.9650
 5128SOL    HW227018   4.289   3.830  12.807  0.7899 -0.2678  0.7572
 5129SOL     OW27019   0.047   2.077   4.008 -0.0207  0.3093 -0.5418
 5129SOL    HW127020   0.053   2.134   3.932  1.8889  1.0068  0.1268
 5129SOL    HW227021   0.117   2.015   3.992  0.4550  0.8896 -0.7048
 5130SOL     OW27022   2.408   1.357   7.406 -0.1118  0.2471  0.3165
 5130SOL    HW127023   2.430   1.284   7.464  0.5906 -0.0839 -0.3715
 5130SOL    HW227024   2.475   1.344   7.339 -1.4926  0.4350 -1.0746
 5131SOL     OW27025   0.646   1.535   2.814  0.1637 -0.1448 -0.5880
 5131SOL    HW127026   0.557   1.569   2.813  0.9624  2.0121  0.6555
 5131SOL    HW227027   0.683   1.581   2.890  0.1323  0.5575 -1.0048
 5132SOL     OW27028   1.617   4.201   7.372 -0.6895 -0.0747  0.9392
 5132SOL    HW127029   1.547   4.137   7.363  0.8946 -1.6762  0.1053
 5132SOL    HW227030   1.682   4.151   7.422 -1.2312 -2.3480 -0.6321
 5133SOL     OW27031   1.496   4.591   2.363  0.0769 -0.2152  0.1640
 5133SOL    HW127032   1.429   4.554   2.305 -0.4607  0.2286  0.5069
 5133SOL    HW227033   1.533   4.664   2.313 -1.4146 -0.1963 -0.9056
 5134SOL     OW27034   0.320   3.195   7.514  0.0279  0.4206 -0.4906
 5134SOL    HW127035   0.330   3.207   7.609  1.9782  1.2750 -0.8091
 5134SOL    HW227036   0.248   3.131   7.512 -1.3009  1.8446  1.0322
 5135SOL     OW27037   2.834   3.148   2.697 -0.3764 -0.0108 -0.3377
 5135SOL    HW127038   2.869   3.060   2.711  0.5919  0.5114  0.5086
 5135SOL    HW227039   2.846   3.148   2.602 -0.6460 -2.7121 -0.3767
 5136SOL     OW27040   1.409   3.980   9.069 -0.0934  0.1111  0.5863
 5136SOL    HW127041   1.410   3.910   9.134  2.0337  0.1113  0.5591
 5136SOL    HW227042   1.313   3.980   9.060 -0.2139  0.0933  1.8128
 5137SOL     OW27043   1.719   4.471   0.907  0.0215  0.5753  0.5257
 5137SOL    HW127044   1.676   4.556   0.908  1.6773  1.4271 -1.5801
 5137SOL    HW227045   1.721   4.449   1.001  1.9451 -2.8888 -0.3373
 5138SOL     OW27046   0.499   3.043   6.643 -0.3368 -0.3493 -0.0931
 5138SOL    HW127047   0.474   2.978   6.708  0.3616 -0.0307  0.4912
 5138SOL    HW227048   0.505   2.988   6.565  0.6816 -0.6854  0.2322
 5139SOL     OW27049   2.053   4.096   5.692 -0.0309  0.0947  0.0482
 5139SOL    HW127050   2.004   4.031   5.743  0.1390 -0.3548 -0.3563
 5139SOL    HW227051   2.141   4.100   5.730 -0.0306  0.8461 -0.0256
 5140SOL     OW27052   1.913   1.943   3.923 -0.5612 -0.0961 -0.0751
 5140SOL    HW127053   1.988   1.894   3.956  1.1301  3.6218  1.6656
 5140SOL    HW227054   1.964   1.986   3.854 -1.2581 -0.6285 -0.9219
 5141SOL     OW27055   1.320   1.273   2.455 -0.2853 -0.1820 -0.0125
 5141SOL    HW127056   1.301   1.182   2.475 -1.0823 -0.1974 -0.8552
 5141SOL    HW227057   1.342   1.301   2.544  0.2626  0.5552 -0.3730
 5142SOL     OW27058   2.673   1.068  14.261  0.2312 -0.3241 -0.1933
 5142SOL    HW127059   2.585   1.101  14.245  1.3255  2.9122  0.5589
 5142SOL    HW227060   2.655   1.013  14.338 -0.9610  2.3164  1.4271
 5143SOL     OW27061   2.150   4.038   2.271 -0.2219  0.8389  0.1375
 5143SOL    HW127062   2.115   4.127   2.278  0.8046  1.2829 -0.3192
 5143SOL    HW227063   2.243   4.060   2.272 -0.0550 -0.0098  2.2255
 5144SOL     OW27064   3.709   0.494   7.533  0.2251  0.5544  0.5692
 5144SOL    HW127065   3.694   0.588   7.542 -0.4921  0.4828  0.1058
 5144SOL    HW227066   3.711   0.467   7.625  0.0025 -1.2835  0.0215
 5145SOL     OW27067   2.539   0.006  15.113  0.2784  0.0073  0.2363
 5145SOL    HW127068   2.563   4.705  15.029  2.4233  0.6514  0.5470
 5145SOL    HW227069   2.470   0.071  15.097 -0.4743 -0.9176 -0.3339
 5146SOL     OW27070   1.149   0.388  13.411  0.0941  0.9692  0.3207
 5146SOL    HW127071   1.236   0.347  13.417 -0.2811  0.4040  1.9390
 5146SOL    HW227072   1.141   0.434  13.494 -0.0454  0.3135  0.6746
 5147SOL     OW27073   0.383   1.330   2.868 -0.5522 -0.1229 -0.0584
 5147SOL    HW127074   0.444   1.289   2.929  0.0152 -0.8554 -1.1217
 5147SOL    HW227075   0.310   1.269   2.863 -1.5028  1.1695 -2.0421
 5148SOL     OW27076   3.211   0.518   7.243  0.5406 -0.3412  0.6026
 5148SOL    HW127077   3.157   0.465   7.185 -0.1850  2.4643 -1.3160
 5148SOL    HW227078   3.269   0.445   7.265  0.4332 -1.0667 -1.4859
 5149SOL     OW27079   1.034   0.135   4.212  0.4561 -0.5130 -0.5931
 5149SOL    HW127080   1.026   0.053   4.262  0.3673 -1.0292 -1.4402
 5149SOL    HW227081   1.077   0.192   4.275  0.7239 -0.2123 -1.0550
 5150SOL     OW27082   3.566   1.197   5.990 -0.1459  0.2757  0.2096
 5150SOL    HW127083   3.644   1.202   5.936  0.1938 -0.5769  0.6196
 5150SOL    HW227084   3.584   1.152   6.073  1.8044  0.1885 -0.2754
 5151SOL     OW27085   3.749   1.707  13.566 -0.1862 -0.0468  0.2382
 5151SOL    HW127086   3.751   1.714  13.661 -1.3873 -0.9587  0.3303
 5151SOL    HW227087   3.744   1.611  13.563 -1.8160  0.0919 -1.2603
 5152SOL     OW27088   1.162   0.616   9.284  0.2852 -0.9535 -0.0988
 5152SOL    HW127089   1.175   0.521   9.292 -1.2339 -1.1389  0.2631
 5152SOL    HW227090   1.230   0.648   9.344  1.6339  0.1372 -2.2366
 5153SOL     OW27091   2.477   3.684   7.435 -0.3755  0.1590 -0.5624
 5153SOL    HW127092   2.550   3.694   7.374  1.3413  2.1736  1.8150
 5153SOL    HW227093   2.495   3.747   7.506  0.9852 -0.7691 -0.0905
 5154SOL     OW27094   3.605   3.701   4.570  0.1361  0.5027 -0.8122
 5154SOL    HW127095   3.691   3.741   4.582  0.3717  0.3412 -1.9595
 5154SOL    HW227096   3.558   3.762   4.626 -0.9061 -0.9371 -0.1337
 5155SOL     OW27097   4.302   4.012   9.010  0.2755 -1.0689 -0.0620
 5155SOL    HW127098   4.362   3.937   9.002  1.7560  0.2472 -1.0873
 5155SOL    HW227099   4.318   4.064   8.932 -0.3565  0.2471  0.6961
 5156SOL     OW27100   0.191   1.309   5.911  0.2923 -0.3539  0.4505
 5156SOL    HW127101   0.134   1.262   5.972 -0.9071  0.1257 -0.3050
 5156SOL    HW227102   0.146   1.393   5.916 -1.3313 -1.2410  0.8661
 5157SOL     OW27103   3.125   4.418   9.434 -0.3649  0.7059 -0.1805
 5157SOL    HW127104   3.127   4.509   9.407 -2.9921  0.1179 -2.4533
 5157SOL    HW227105   3.033   4.412   9.460 -0.1919  1.1876  0.5358
 5158SOL     OW27106   4.097   0.378   2.199  0.4598  0.5292 -0.1347
 5158SOL    HW127107   4.103   0.438   2.273  0.8490 -0.8508  0.9489
 5158SOL    HW227108   4.028   0.413   2.143  2.2956  0.4009 -2.4957
 5159SOL     OW27109   2.367   2.195   2.074  0.4267 -0.3485  0.2572
 5159SOL    HW127110   2.324   2.262   2.127 -0.5128 -0.8002  0.0510
 5159SOL    HW227111   2.329   2.115   2.109 -1.0207  1.3862  2.6624
 5160SOL     OW27112   3.075   0.794   9.652 -0.2757  0.3536 -0.1738
 5160SOL    HW127113   3.019   0.718   9.635 -1.5853  1.6742 -1.7844
 5160SOL    HW227114   3.151   0.744   9.682  1.2772  1.4779 -2.2519
 5161SOL     OW27115   1.867   0.339   1.668 -0.8641  0.0512  0.0063
 5161SOL    HW127116   1.944   0.381   1.706  0.6206 -1.7736 -0.9492
 5161SOL    HW227117   1.794   0.397   1.689  0.1966  1.1637  0.6002
 5162SOL     OW27118   1.414   4.591  13.763 -0.0124 -0.5950 -0.0693
 5162SOL    HW127119   1.340   4.637  13.802  0.1439  0.5687 -1.1219
 5162SOL    HW227120   1.377   4.506  13.739 -2.0162  1.2252 -3.4921
 5163SOL     OW27121   1.851   2.378  12.199 -0.4050  0.3007 -0.2178
 5163SOL    HW127122   1.916   2.332  12.251 -0.1266  2.3512  1.2408
 5163SOL    HW227123   1.875   2.471  12.199 -2.0684  0.7410 -1.4853
 5164SOL     OW27124   2.855   2.323   4.247  0.1197  0.7367  0.4440
 5164SOL    HW127125   2.946   2.325   4.278 -0.0465 -3.0279  1.2835
 5164SOL    HW227126   2.808   2.401   4.276 -2.1075  0.1113 -1.4652
 5165SOL     OW27127   2.816   2.716   6.503 -0.1808  0.1570  0.2481
 5165SOL    HW127128   2.820   2.743   6.595 -1.4152 -0.7851  0.5821
 5165SOL    HW227129   2.794   2.799   6.461  1.0435  0.6863  0.6601
 5166SOL     OW27130   0.462   3.768   5.716  0.2093 -0.2945  0.0376
 5166SOL    HW127131   0.450   3.780   5.810  0.5392 -0.9538  0.1705
 5166SOL    HW227132   0.400   3.830   5.679  0.9720 -0.9777 -2.3899
 5167SOL     OW27133   3.598   0.140   6.320  0.1713  0.2672  0.1012
 5167SOL    HW127134   3.543   0.217   6.329 -0.0960  0.4328 -2.7398
 5167SOL    HW227135   3.534   0.071   6.303  0.4481  0.0533 -0.0879
 5168SOL     OW27136   3.395   4.494  12.197 -0.0188  0.4244 -0.3475
 5168SOL    HW127137   3.360   4.417  12.242 -1.6504  1.3085 -0.0935
 5168SOL    HW227138   3.482   4.459  12.182 -0.5981 -1.0910 -0.1632
 5169SOL     OW27139   3.068   3.242   8.296 -0.1893  0.4025 -0.1647
 5169SOL    HW127140   3.074   3.166   8.239 -3.4050 -1.2485  1.6618
 5169SOL    HW227141   3.006   3.296   8.247 -2.2217 -1.3838  0.4087
 5170SOL     OW27142   0.989   2.218   5.403 -0.1620  0.3472 -0.5751
 5170SOL    HW127143   1.040   2.221   5.321 -2.0480  2.8791 -1.6321
 5170SOL    HW227144   1.040   2.284   5.448 -1.1458  0.4791  0.3284
 5171SOL     OW27145   4.141   0.404   9.105 -0.5941 -0.5213  0.3424
 5171SOL    HW127146   4.082   0.333   9.081 -1.6428  0.2517  0.6730
 5171SOL    HW227147   4.167   0.384   9.195 -0.5217 -2.7507 -0.1682
 5172SOL     OW27148   3.683   1.357   2.220 -0.2702  0.2833 -0.5331
 5172SOL    HW127149   3.721   1.396   2.299 -1.4527 -0.7384  0.5277
 5172SOL    HW227150   3.740   1.281   2.210  0.5495  0.8589 -0.2841
 5173SOL     OW27151   2.746   3.856   5.434 -0.2654 -0.1871 -0.1088
 5173SOL    HW127152   2.721   3.942   5.398 -0.3670  0.1792  0.8380
 5173SOL    HW227153   2.832   3.849   5.393 -0.3028 -1.1609 -0.0075
 5174SOL     OW27154   4.731   2.082  13.395  0.1339 -0.2563  0.0458
 5174SOL    HW127155   4.720   2.137  13.317  1.1989  2.2421  1.6376
 5174SOL    HW227156   4.718   2.151  13.459 -1.5787 -0.2541 -0.3061
 5175SOL     OW27157   2.350   1.848   2.714  0.3425  0.0255  0.1859
 5175SOL    HW127158   2.430   1.900   2.724 -0.6361  1.5409  0.1327
 5175SOL    HW227159   2.383   1.759   2.705 -1.3266 -0.3695 -1.9606
 5176SOL     OW27160   0.473   2.775   9.297  0.0287 -0.0396 -0.5592
 5176SOL    HW127161   0.465   2.870   9.291  0.9681  0.1568  1.2119
 5176SOL    HW227162   0.487   2.761   9.203 -0.0478  1.3087 -0.7756
 5177SOL     OW27163   1.097   2.448  11.955 -0.3509 -0.2520  0.2082
 5177SOL    HW127164   1.132   2.434  12.043  0.9568 -0.4868 -0.3516
 5177SOL    HW227165   1.169   2.402  11.913 -1.2944 -1.3719 -0.2041
 5178SOL     OW27166   1.925   2.636   6.374 -0.1853  0.1063 -0.6138
 5178SOL    HW127167   1.921   2.565   6.438 -0.6976 -0.6897 -1.5410
 5178SOL    HW227168   1.883   2.701   6.430 -1.1194 -1.0068 -0.0205
 5179SOL     OW27169   2.659   0.446   5.421 -0.0133  0.3988  0.2571
 5179SOL    HW127170   2.568   0.443   5.451  0.8403 -0.3787  2.7468
 5179SOL    HW227171   2.705   0.432   5.504  0.7445 -1.5973 -0.5163
 5180SOL     OW27172   4.236   4.505   3.161  0.2303  0.5451 -0.3139
 5180SOL    HW127173   4.324   4.538   3.141 -1.0309  3.4483 -1.0378
 5180SOL    HW227174   4.252   4.460   3.244 -0.5288  1.8352  0.5334
 5181SOL     OW27175   3.670   2.924   5.182 -0.0808  0.9602  0.3963
 5181SOL    HW127176   3.673   2.970   5.098  0.3409  2.2021  1.0995
 5181SOL    HW227177   3.678   2.994   5.246  0.7655  0.9951  0.2408
 5182SOL     OW27178   1.855   4.698   9.703 -0.2944  0.1086 -0.3893
 5182SOL    HW127179   1.882   4.697   9.795 -1.1400 -1.2237 -0.1601
 5182SOL    HW227180   1.936   4.715   9.653  0.1806 -1.1436 -0.0324
 5183SOL     OW27181   3.311   1.816   6.358 -0.1998  0.0150 -0.2170
 5183SOL    HW127182   3.308   1.889   6.420  1.1037  0.3942 -0.6053
 5183SOL    HW227183   3.216   1.813   6.342 -0.2988  1.0274  0.1803
 5184SOL     OW27184   3.604   4.222   5.584 -0.1140 -0.0175  0.3591
 5184SOL    HW127185   3.639   4.133   5.580 -0.5305 -0.1705  0.1313
 5184SOL    HW227186   3.511   4.205   5.599 -0.3856 -1.0613 -2.6656
 5185SOL     OW27187   3.568   0.733   9.013  0.0063  0.0630 -0.4511
 5185SOL    HW127188   3.579   0.804   8.951  3.2936 -1.1325 -1.2035
 5185SOL    HW227189   3.531   0.662   8.960  0.4828  0.0647 -0.7801
 5186SOL     OW27190   1.977   1.750   9.500 -0.4505  0.7426  0.4859
 5186SOL    HW127191   1.901   1.769   9.556  0.5327 -0.4313  2.2376
 5186SOL    HW227192   2.042   1.774   9.566  2.6667 -0.0970 -2.2577
 5187SOL     OW27193   4.411   3.594   2.855  0.2620  0.0575  0.3416
 5187SOL    HW127194   4.433   3.630   2.941  1.3460  0.6104 -0.1570
 5187SOL    HW227195   4.406   3.681   2.815  0.0042  0.7700  1.9272
 5188SOL     OW27196   3.182   0.254   5.686 -0.1189  0.1347  0.1679
 5188SOL    HW127197   3.213   0.344   5.695 -0.6405  0.3527 -0.2356
 5188SOL    HW227198   3.173   0.245   5.591 -0.9767 -1.6547  0.4033
 5189SOL     OW27199   3.200   3.738   1.575  0.3922  0.4919 -0.1540
 5189SOL    HW127200   3.234   3.783   1.652  1.0459 -0.3135  0.0257
 5189SOL    HW227201   3.248   3.655   1.567 -0.9003 -0.2419 -0.3622
 5190SOL     OW27202   1.882   4.470   5.361  0.2027  0.1992  0.0299
 5190SOL    HW127203   1.871   4.393   5.416  3.0695 -1.2881 -1.4264
 5190SOL    HW227204   1.841   4.430   5.284  2.6585 -0.9900 -0.6723
 5191SOL     OW27205   1.556   3.141   4.212  0.7078  0.3124 -0.3971
 5191SOL    HW127206   1.557   3.182   4.126  0.4078  2.6842  0.7382
 5191SOL    HW227207   1.578   3.048   4.209  0.0361  0.1354  0.1787
 5192SOL     OW27208   1.550   2.499   6.841 -0.2370 -0.5751  0.1358
 5192SOL    HW127209   1.542   2.559   6.915  1.3187 -0.6802  0.3894
 5192SOL    HW227210   1.578   2.561   6.774 -0.9238 -1.2788 -0.7963
 5193SOL     OW27211   1.367   0.487  12.945  0.0919  0.0230  0.4013
 5193SOL    HW127212   1.285   0.473  12.992  0.7159 -0.2007  1.4268
 5193SOL    HW227213   1.351   0.455  12.856  0.9956 -0.9508  0.5792
 5194SOL     OW27214   4.249   0.533   5.264 -0.7271  0.1054 -0.7409
 5194SOL    HW127215   4.231   0.534   5.358 -1.9481 -0.6199 -0.9733
 5194SOL    HW227216   4.341   0.505   5.264 -1.0558 -0.9491  0.7504
 5195SOL     OW27217   4.728   2.019   2.017 -0.3431 -0.1443  0.4566
 5195SOL    HW127218   0.044   2.040   1.941 -0.0907 -1.6113  0.2411
 5195SOL    HW227219   4.693   2.107   2.027  1.1609  0.3318  1.5186
 5196SOL     OW27220   2.765   0.856  12.540 -0.8142 -0.1711  0.0056
 5196SOL    HW127221   2.856   0.841  12.517 -1.3199  0.7952 -2.6620
 5196SOL    HW227222   2.781   0.856  12.634 -1.2761  1.2228  0.0740
 5197SOL     OW27223   2.012   0.851   1.238  0.8421  0.0138  0.1692
 5197SOL    HW127224   1.991   0.758   1.230  1.9259  0.1287 -3.8325
 5197SOL    HW227225   1.934   0.899   1.212  0.3207 -1.8929 -1.8605
 5198SOL     OW27226   2.392   1.194   5.308  0.3383 -0.0358  0.6589
 5198SOL    HW127227   2.476   1.176   5.266 -0.4467  1.0915 -1.4130
 5198SOL    HW227228   2.336   1.219   5.234  1.3405 -1.4356 -0.5860
 5199SOL     OW27229   4.245   0.815  16.595 -0.1994 -0.2823 -0.5191
 5199SOL    HW127230   4.329   0.790  16.557  0.7152 -0.3163  1.5125
 5199SOL    HW227231   4.186   0.789  16.525 -1.4046  0.5766  0.1671
 5200SOL     OW27232   1.589   3.281  11.390 -0.2883 -0.0985 -0.0761
 5200SOL    HW127233   1.628   3.349  11.336 -2.7777  0.3986 -1.2573
 5200SOL    HW227234   1.583   3.331  11.471 -2.1035 -0.8579  0.2748
 5201SOL     OW27235   2.711   2.427   0.741  0.0975  0.2253 -0.0048
 5201SOL    HW127236   2.680   2.454   0.828  3.1232  0.4937  0.9908
 5201SOL    HW227237   2.677   2.493   0.682 -0.0819  1.3482  1.3533
 5202SOL     OW27238   2.992   4.518   3.203  0.7896  0.3298 -0.1932
 5202SOL    HW127239   3.031   4.430   3.203 -2.8547 -1.2480  1.3628
 5202SOL    HW227240   3.048   4.563   3.139  0.3148  2.9820  1.3025
 5203SOL     OW27241   0.870   4.715   3.602 -0.2827 -0.7058  0.3399
 5203SOL    HW127242   0.960   0.001   3.578 -1.2289 -0.5915 -3.1321
 5203SOL    HW227243   0.872   4.713   3.697  2.0895 -0.6681  0.3047
 5204SOL     OW27244   0.808   3.217  12.324 -0.3256 -0.0721  0.6068
 5204SOL    HW127245   0.785   3.143  12.269 -1.8702  0.1449  0.9772
 5204SOL    HW227246   0.897   3.195  12.353  0.6955 -0.3276 -2.7776
 5205SOL     OW27247   1.970   2.926   8.658  0.0142  0.3170 -0.0862
 5205SOL    HW127248   1.900   2.983   8.692  0.3172  0.8488 -0.3627
 5205SOL    HW227249   1.979   2.858   8.724 -0.9336  0.1758 -0.1018
 5206SOL     OW27250   2.983   3.317  10.303  0.5755  0.5216 -0.2881
 5206SOL    HW127251   2.996   3.356  10.390  0.9873 -0.5365  0.1263
 5206SOL    HW227252   3.067   3.272  10.302  0.1297 -0.3139 -0.3467
 5207SOL     OW27253   3.148   4.079  14.162  0.2376 -0.3251 -0.6449
 5207SOL    HW127254   3.237   4.049  14.141  0.4245 -0.5101  0.3957
 5207SOL    HW227255   3.093   4.022  14.109  0.7249 -1.2343 -0.1660
 5208SOL     OW27256   3.305   0.257  13.746  0.3643  0.9496 -0.6947
 5208SOL    HW127257   3.375   0.222  13.801 -0.1575  1.5346  0.3355
 5208SOL    HW227258   3.295   0.341  13.790 -0.1819  0.8822 -0.6824
 5209SOL     OW27259   0.469   1.207   3.625 -0.1210 -0.0775  0.0253
 5209SOL    HW127260   0.419   1.282   3.655 -0.6794 -0.3615 -0.1976
 5209SOL    HW227261   0.491   1.161   3.706  1.9339  1.1864  0.1925
 5210SOL     OW27262   0.885   2.043   4.759  0.3520 -0.2360 -0.1197
 5210SOL    HW127263   0.814   2.060   4.697  0.5075  2.5998  0.4721
 5210SOL    HW227264   0.922   1.963   4.723  1.0333  0.1223 -0.1994
 5211SOL     OW27265   1.613   3.493   7.634 -0.4432  0.0592 -0.5648
 5211SOL    HW127266   1.582   3.583   7.628 -1.2894 -0.3325 -2.0907
 5211SOL    HW227267   1.568   3.477   7.717 -3.1728 -0.4702 -2.1452
 5212SOL     OW27268   2.213   1.030   2.913  0.2723 -0.1843  0.1202
 5212SOL    HW127269   2.305   1.056   2.924 -0.1060  0.8558  0.7592
 5212SOL    HW227270   2.174   1.116   2.899  0.1525 -0.2779 -0.1116
 5213SOL     OW27271   3.915   2.783   4.765  0.3168  0.6378  0.1248
 5213SOL    HW127272   4.003   2.811   4.739  1.3627 -3.3565 -0.6423
 5213SOL    HW227273   3.906   2.823   4.851 -3.8749 -1.3205  0.5947
 5214SOL     OW27274   1.308   3.770  13.199 -0.1511  0.5716 -0.0290
 5214SOL    HW127275   1.218   3.770  13.166  0.1383  1.2735 -0.8346
 5214SOL    HW227276   1.347   3.845  13.154 -1.4759  1.3123  0.0702
 5215SOL     OW27277   2.318   4.672   0.487  0.8064  0.1565 -0.1146
 5215SOL    HW127278   2.282   4.730   0.419 -2.0528 -0.2245  1.0375
 5215SOL    HW227279   2.243   4.614   0.499  1.2534 -0.4041 -0.0395
 5216SOL     OW27280   4.465   1.659   3.651  0.3415 -0.1189  0.4530
 5216SOL    HW127281   4.546   1.703   3.676 -0.1182  1.0584 -0.0841
 5216SOL    HW227282   4.460   1.670   3.556 -1.4912 -1.6145  0.3538
 5217SOL     OW27283   1.861   1.009   2.537  0.2247 -0.5997 -0.1398
 5217SOL    HW127284   1.840   1.097   2.568 -1.9222 -1.2951  0.3911
 5217SOL    HW227285   1.953   0.987   2.553 -0.0112 -2.1095 -0.8613
 5218SOL     OW27286   0.687   2.427  14.952 -0.4789  0.1669  0.0225
 5218SOL    HW127287   0.704   2.354  15.010  1.1632  0.1193 -0.5034
 5218SOL    HW227288   0.613   2.388  14.905  2.2107 -0.3270 -3.8681
 5219SOL     OW27289   3.333   3.409   6.805  0.0885 -0.1579 -0.3690
 5219SOL    HW127290   3.287   3.326   6.813  2.6484 -1.5495  0.1034
 5219SOL    HW227291   3.261   3.466   6.832 -0.0813 -1.5926  2.1829
 5220SOL     OW27292   1.116   4.363   1.989 -0.0711  0.7163  0.1179
 5220SOL    HW127293   1.130   4.272   2.016 -1.0413  0.0623 -1.6069
 5220SOL    HW227294   1.098   4.352   1.896  0.0490 -0.6225  0.2591
 5221SOL     OW27295   3.667   4.329  11.824  0.0180 -0.4255 -0.3172
 5221SOL    HW127296   3.745   4.357  11.777 -0.3213 -0.8529 -1.1313
 5221SOL    HW227297   3.605   4.401  11.813  2.8040  2.1300  0.6596
 5222SOL     OW27298   4.313   1.690  16.049 -0.9725  0.3229 -0.2016
 5222SOL    HW127299   4.306   1.599  16.080  0.6259  0.8031  1.5827
 5222SOL    HW227300   4.304   1.747  16.125 -2.9137  0.6607 -0.7096
 5223SOL     OW27301   2.181   2.684   6.322  0.4579  0.8463  1.0459
 5223SOL    HW127302   2.183   2.767   6.371  1.7060  0.7383  1.1789
 5223SOL    HW227303   2.095   2.650   6.347 -1.0087  1.6408 -2.9339
 5224SOL     OW27304   3.589   3.160   0.707  0.7218 -0.3884  0.2351
 5224SOL    HW127305   3.509   3.211   0.721  0.2323 -0.9600 -0.4368
 5224SOL    HW227306   3.650   3.211   0.655  0.0635 -0.7408 -0.8726
 5225SOL     OW27307   2.901   1.419   9.918 -0.2620 -0.5276  0.2309
 5225SOL    HW127308   2.910   1.490   9.981  2.3818 -0.1688 -0.5444
 5225SOL    HW227309   2.850   1.457   9.847  1.0824 -0.2003 -0.5480
 5226SOL     OW27310   3.894   1.538   5.244 -0.2255 -0.4949  0.1774
 5226SOL    HW127311   3.890   1.468   5.179  1.8559  0.1277 -0.6144
 5226SOL    HW227312   3.937   1.494   5.317  0.4556  1.3230  0.8708
 5227SOL     OW27313   1.494   0.779   6.313 -0.0824  0.3135 -0.2088
 5227SOL    HW127314   1.458   0.695   6.343  0.8354 -0.4907 -1.3575
 5227SOL    HW227315   1.520   0.753   6.225 -1.1109  1.3093 -0.7857
 5228SOL     OW27316   1.463   1.257   9.895 -0.0456  0.1182  0.3076
 5228SOL    HW127317   1.478   1.251   9.800 -0.9384 -3.9035  0.4057
 5228SOL    HW227318   1.384   1.311   9.900 -1.3293 -1.7093  0.0616
 5229SOL     OW27319   1.349   3.748  17.509  0.4164 -0.2983  0.5320
 5229SOL    HW127320   1.402   3.743  17.588  0.4288  2.6982  0.7210
 5229SOL    HW227321   1.272   3.796  17.541  2.5744  2.6284  1.3330
 5230SOL     OW27322   0.620   0.782   7.212  0.3864 -0.3075 -0.1436
 5230SOL    HW127323   0.691   0.775   7.277 -0.5940  0.3944  0.9828
 5230SOL    HW227324   0.563   0.733   7.271  0.1978 -1.0390 -0.9308
 5231SOL     OW27325   2.899   2.899   2.723 -0.5796  0.1088 -0.2554
 5231SOL    HW127326   2.901   2.848   2.642 -1.2050 -0.8814  0.3469
 5231SOL    HW227327   2.853   2.839   2.782  1.4179 -1.0518  0.1150
 5232SOL     OW27328   3.162   0.523   2.277 -0.3040 -0.0277  0.2418
 5232SOL    HW127329   3.169   0.463   2.203 -0.3949  0.1787  0.0645
 5232SOL    HW227330   3.230   0.590   2.269 -1.0333  0.8855  1.6731
 5233SOL     OW27331   0.032   1.856   1.780  0.7366 -0.2206 -0.0344
 5233SOL    HW127332   0.049   1.947   1.806 -0.4899 -0.6402  2.1699
 5233SOL    HW227333   4.708   1.876   1.709 -0.2327  0.8017  1.1077
 5234SOL     OW27334   3.008   0.632  12.942  0.2340 -0.2616 -0.2037
 5234SOL    HW127335   3.065   0.662  13.013  1.5400 -0.0846 -1.3145
 5234SOL    HW227336   3.056   0.667  12.867 -0.2810 -0.8899 -0.8178
 5235SOL     OW27337   1.393   2.967   4.636  0.2959  0.3302  0.1908
 5235SOL    HW127338   1.347   2.920   4.567  0.4205  0.9405 -0.3128
 5235SOL    HW227339   1.346   2.937   4.714 -2.1851 -0.2281 -1.5530
 5236SOL     OW27340   3.503   0.915   7.565 -0.1766 -0.1327 -0.0448
 5236SOL    HW127341   3.466   0.994   7.525  0.0459 -1.5811 -3.0969
 5236SOL    HW227342   3.442   0.904   7.638 -1.4416 -0.3987 -1.1377
 5237SOL     OW27343   1.920   1.053   6.640  0.0187  0.1213 -0.1637
 5237SOL    HW127344   1.857   1.093   6.699  0.9602  1.1753  0.1180
 5237SOL    HW227345   1.888   0.963   6.638 -0.8465  0.3767  2.1980
 5238SOL     OW27346   0.702   3.243  16.262  0.2033  0.1291 -0.0476
 5238SOL    HW127347   0.771   3.196  16.310  0.6694  0.4796 -0.3810
 5238SOL    HW227348   0.755   3.267  16.187  0.4077 -0.9248 -0.2410
 5239SOL     OW27349   1.644   1.300   7.778  0.7199 -0.8111 -0.1122
 5239SOL    HW127350   1.684   1.216   7.757  1.3290 -0.0139 -2.1246
 5239SOL    HW227351   1.657   1.343   7.693 -0.3855  0.8686  0.5644
 5240SOL     OW27352   1.193   0.995   9.079 -0.2740  0.3070  0.2524
 5240SOL    HW127353   1.148   1.074   9.048 -2.0667 -0.7432  0.1910
 5240SOL    HW227354   1.144   0.917   9.054  1.6300 -0.3424 -1.3382
 5241SOL     OW27355   0.504   0.162  16.969 -0.3273  0.3187 -0.0012
 5241SOL    HW127356   0.512   0.090  16.908 -2.1908  0.1055  0.0123
 5241SOL    HW227357   0.481   0.119  17.052 -1.4072  2.6693  0.9107
 5242SOL     OW27358   2.498   0.645  14.144 -0.5729 -0.0472  0.0659
 5242SOL    HW127359   2.500   0.731  14.104  0.2924  0.0175  0.2499
 5242SOL    HW227360   2.403   0.629  14.150 -1.1222  2.4092 -2.3882
 5243SOL     OW27361   2.264   1.795   3.196 -0.0741 -0.1481 -0.2259
 5243SOL    HW127362   2.225   1.823   3.278  3.0978  0.5617  1.0407
 5243SOL    HW227363   2.356   1.786   3.220 -0.6090 -3.0671  0.7201
 5244SOL     OW27364   0.154   4.649  13.672  0.0361  0.5341 -0.1065
 5244SOL    HW127365   0.221   4.588  13.641  1.3362  0.3015  3.1028
 5244SOL    HW227366   0.080   4.588  13.677  1.3811 -1.0062  1.0105
 5245SOL     OW27367   4.525   2.946  10.047  0.5495 -0.1334 -0.1951
 5245SOL    HW127368   4.576   2.963  10.126  2.1653 -0.2212 -1.2317
 5245SOL    HW227369   4.441   2.992  10.058 -0.4717 -2.4126  1.7713
 5246SOL     OW27370   0.308   3.039   7.226  0.3424  0.1547 -0.6181
 5246SOL    HW127371   0.329   3.074   7.140  0.7138 -1.1400 -1.0598
 5246SOL    HW227372   0.332   2.950   7.198 -0.2399 -0.0972 -0.3090
 5247SOL     OW27373   3.169   1.905   1.917  0.0391 -0.0476  1.1658
 5247SOL    HW127374   3.215   1.979   1.955 -2.3414  2.4948 -0.9015
 5247SOL    HW227375   3.084   1.921   1.959 -1.2248 -1.3471 -0.9077
 5248SOL     OW27376   4.223   0.004  13.340  0.0122 -0.2553  0.1353
 5248SOL    HW127377   4.279   0.079  13.319 -0.1772  0.4318  2.0055
 5248SOL    HW227378   4.281   4.669  13.318 -1.6074 -2.3023  2.5886
 5249SOL     OW27379   0.391   2.756  10.332 -0.3963  0.4394  0.8111
 5249SOL    HW127380   0.336   2.833  10.347 -0.8475 -0.0450  1.6712
 5249SOL    HW227381   0.328   2.691  10.301 -1.9004  3.3330 -2.1633
 5250SOL     OW27382   2.015   0.584   2.019 -0.1862  0.7420  0.4712
 5250SOL    HW127383   1.919   0.578   2.018 -0.0251 -1.9388 -0.9662
 5250SOL    HW227384   2.023   0.547   1.931 -2.8399  0.6037  0.2745
 5251SOL     OW27385   3.292   0.974  12.394 -0.1226 -0.1693 -0.9143
 5251SOL    HW127386   3.317   0.892  12.436 -2.0826 -0.5214 -0.4290
 5251SOL    HW227387   3.316   1.051  12.444  1.1365 -2.0178  1.3393
 5252SOL     OW27388   3.058   1.481   7.117 -0.2116 -0.1652 -0.4681
 5252SOL    HW127389   3.150   1.457   7.106 -0.1939 -0.3687  0.1246
 5252SOL    HW227390   3.077   1.571   7.146 -0.5269 -0.0909 -0.4951
 5253SOL     OW27391   3.864   2.427   8.747  0.0484  0.4006  0.5647
 5253SOL    HW127392   3.959   2.422   8.744  0.0774  0.5473  1.3699
 5253SOL    HW227393   3.850   2.470   8.663  0.0305 -1.4803 -0.3972
 5254SOL     OW27394   1.227   0.135   7.911  0.0666  0.4360  0.0646
 5254SOL    HW127395   1.194   0.161   7.997  0.9471  2.4238 -0.1941
 5254SOL    HW227396   1.158   0.080   7.874 -3.3750  2.7538  3.0845
 5255SOL     OW27397   0.986   0.915   8.370  0.1095 -0.0506  0.2099
 5255SOL    HW127398   0.912   0.885   8.422 -2.1011  2.3302 -1.5968
 5255SOL    HW227399   1.007   0.832   8.328 -0.4312  0.1128 -0.3785
 5256SOL     OW27400   2.963   1.788   2.992 -0.0003 -0.1290  0.4221
 5256SOL    HW127401   3.027   1.748   2.933  2.5909  1.1504  2.3797
 5256SOL    HW227402   2.888   1.782   2.932  0.5215  0.1834 -0.2513
 5257SOL     OW27403   2.254   3.867   9.059  0.4204  0.2522  0.6003
 5257SOL    HW127404   2.302   3.788   9.081  0.4432  0.2810  0.6539
 5257SOL    HW227405   2.316   3.924   9.014 -0.6174  0.2283 -0.8562
 5258SOL     OW27406   0.991   0.457   4.645 -0.0793 -0.2122 -0.4636
 5258SOL    HW127407   1.000   0.410   4.728  0.5988  1.9947  0.7146
 5258SOL    HW227408   0.952   0.387   4.592 -0.2456  0.5534 -1.3342
 5259SOL     OW27409   4.280   1.285   5.539  0.0417  0.1000  0.6169
 5259SOL    HW127410   4.280   1.214   5.475  1.1425  0.9955 -0.4002
 5259SOL    HW227411   4.366   1.321   5.516 -0.0455  1.1214  1.8697
 5260SOL     OW27412   0.149   2.321   5.142  0.5503 -0.9456  0.7892
 5260SOL    HW127413   0.209   2.309   5.068 -0.0453 -0.0234  0.1590
 5260SOL    HW227414   0.164   2.245   5.197 -0.2131 -1.2470  0.5895
 5261SOL     OW27415   0.335   4.272   7.176  0.1995  0.3494  0.4259
 5261SOL    HW127416   0.260   4.329   7.193  0.3727  0.4066  0.9854
 5261SOL    HW227417   0.320   4.202   7.239 -0.6083 -0.4733 -0.6644
 5262SOL     OW27418   4.309   4.487   7.341  0.0928 -0.3247  0.3543
 5262SOL    HW127419   4.270   4.555   7.397  0.0342  1.7972 -2.2534
 5262SOL    HW227420   4.235   4.433   7.312 -1.3669  0.4888  2.4924
 5263SOL     OW27421   1.598   2.463   9.345  0.0116 -0.0447 -0.7037
 5263SOL    HW127422   1.655   2.450   9.269 -0.9738 -0.0268 -1.4405
 5263SOL    HW227423   1.522   2.409   9.324  0.7872 -1.7025  0.7272
 5264SOL     OW27424   2.971   0.109   5.300 -0.0190 -0.0043  0.5995
 5264SOL    HW127425   2.922   0.189   5.278  1.1057 -0.7576 -4.4958
 5264SOL    HW227426   2.908   0.071   5.362 -2.8958  1.0671 -1.6741
 5265SOL     OW27427   4.367   0.933   9.465  0.2572  0.8517 -0.2256
 5265SOL    HW127428   4.314   1.012   9.477  0.9084  1.3785 -0.8537
 5265SOL    HW227429   4.314   0.884   9.402  1.1027 -1.5037  0.8907
 5266SOL     OW27430   4.726   4.257  16.628 -0.1007 -0.1897  1.0118
 5266SOL    HW127431   0.009   4.337  16.581 -0.8312 -1.3560 -1.3009
 5266SOL    HW227432   4.630   4.258  16.631 -0.1338 -0.1030 -0.1956
 5267SOL     OW27433   4.484   3.385   5.303  0.2253 -0.3712 -0.0768
 5267SOL    HW127434   4.480   3.297   5.340  0.7815 -1.2310 -2.0431
 5267SOL    HW227435   4.460   3.371   5.211  1.6436 -0.2049 -0.4664
 5268SOL     OW27436   4.510   3.599   8.722 -0.2491 -0.4282  0.2175
 5268SOL    HW127437   4.583   3.538   8.709 -0.7482 -0.8165 -0.7264
 5268SOL    HW227438   4.555   3.680   8.700 -0.8573  0.7828  3.4310
 5269SOL     OW27439   0.073   1.292  12.067  0.4760 -0.0789  0.4038
 5269SOL    HW127440   0.037   1.274  12.154 -0.4139 -2.2365 -0.4119
 5269SOL    HW227441   0.012   1.235  12.020 -0.4090  1.0085  0.2222
 5270SOL     OW27442   3.812   0.085  14.362 -0.3559 -0.0466  0.6230
 5270SOL    HW127443   3.818   0.034  14.443  0.4033 -0.2697  0.4297
 5270SOL    HW227444   3.734   0.050  14.320  0.3438 -0.3786 -0.3889
 5271SOL     OW27445   0.772   1.944   2.689  0.5882  0.0457  0.1611
 5271SOL    HW127446   0.803   1.893   2.614 -0.6801 -1.4284  0.6297
 5271SOL    HW227447   0.680   1.918   2.690  0.4282  0.5259 -1.5634
 5272SOL     OW27448   1.233   0.981   9.756  0.3310  0.4173  0.6278
 5272SOL    HW127449   1.322   0.998   9.726  0.2057 -1.3788 -0.8134
 5272SOL    HW227450   1.188   1.012   9.677 -1.1912 -1.0968  0.8884
 5273SOL     OW27451   4.689   3.012  13.782  0.5610  0.1995 -0.1970
 5273SOL    HW127452   4.674   3.040  13.691 -1.8160 -1.6545 -0.3654
 5273SOL    HW227453   4.686   2.917  13.771  1.6889 -0.0900  2.1077
 5274SOL     OW27454   0.484   2.179  11.102 -0.2239 -0.1168 -0.4387
 5274SOL    HW127455   0.486   2.206  11.010  0.2405 -1.1110 -0.7146
 5274SOL    HW227456   0.430   2.100  11.105 -1.4209  0.7004 -0.4236
 5275SOL     OW27457   4.468   0.680  16.498 -0.4650  0.6426  0.0884
 5275SOL    HW127458   4.519   0.631  16.562 -1.6477 -1.2462 -0.4354
 5275SOL    HW227459   4.502   0.654  16.412 -0.2677 -1.4155  0.7891
 5276SOL     OW27460   3.636   0.269   0.000 -0.4063 -0.5736  0.0242
 5276SOL    HW127461   3.669   0.332  17.685 -2.2098 -0.5294 -0.8478
 5276SOL    HW227462   3.702   0.202  17.737  2.0993  1.5316  1.8746
 5277SOL     OW27463   0.268   1.345   4.096 -0.4273 -0.8438 -0.0312
 5277SOL    HW127464   0.323   1.392   4.158  2.7613 -3.4000 -0.9131
 5277SOL    HW227465   0.206   1.415   4.077  1.1877  0.7534  0.6873
 5278SOL     OW27466   3.963   3.708   4.513 -0.4500 -0.0433  0.0937
 5278SOL    HW127467   3.915   3.784   4.546  0.5839  0.5703  0.1727
 5278SOL    HW227468   4.046   3.742   4.480 -0.2093  0.7400  1.4856
 5279SOL     OW27469   0.134   2.097   5.308 -0.0731 -0.0937 -0.1965
 5279SOL    HW127470   0.194   2.066   5.376 -0.0014 -1.3535 -0.8336
 5279SOL    HW227471   0.064   2.032   5.317  0.7422 -0.9951 -0.2722
 5280SOL     OW27472   1.717   2.090   7.243  0.2646 -0.5151  0.0612
 5280SOL    HW127473   1.636   2.043   7.224 -0.5064  0.7274  0.2817
 5280SOL    HW227474   1.698   2.122   7.331 -1.4367  0.0233 -0.5095
 5281SOL     OW27475   0.388   4.337   2.799 -0.9851  0.8272 -0.2207
 5281SOL    HW127476   0.396   4.393   2.876  0.8766  0.0994  0.1107
 5281SOL    HW227477   0.454   4.360   2.734 -0.9361  1.1662 -0.0520
 5282SOL     OW27478   4.088   1.047   1.730  0.0975 -0.5128 -0.1639
 5282SOL    HW127479   4.158   1.079   1.788 -0.3296 -0.5758  0.3887
 5282SOL    HW227480   4.027   1.021   1.799  1.1036 -1.0010  0.5485
 5283SOL     OW27481   4.170   3.761   0.579  0.1924  0.6647  0.2381
 5283SOL    HW127482   4.192   3.754   0.486  0.4921 -1.2470  0.4518
 5283SOL    HW227483   4.133   3.848   0.567 -2.3251 -0.7107 -1.9024
 5284SOL     OW27484   4.446   2.910   0.098  0.3893  0.2455 -0.1702
 5284SOL    HW127485   4.476   2.986   0.048  1.1432  0.5668  0.7626
 5284SOL    HW227486   4.493   2.837   0.058 -3.1416 -1.9038 -0.4638
 5285SOL     OW27487   2.891   0.707   8.107  0.0728 -0.4610 -0.5635
 5285SOL    HW127488   2.838   0.644   8.155  0.1864 -1.5706 -1.8905
 5285SOL    HW227489   2.897   0.770   8.178 -0.0233 -1.1087  0.0151
 5286SOL     OW27490   1.825   3.832  14.378 -0.6527  0.4277 -0.5232
 5286SOL    HW127491   1.734   3.856  14.393 -0.7355  1.0283 -1.9930
 5286SOL    HW227492   1.824   3.742  14.411 -3.1592  0.3976 -0.6532
 5287SOL     OW27493   0.106   2.706  12.155  0.3815 -0.0787 -0.0258
 5287SOL    HW127494   0.034   2.672  12.102  2.3687 -1.3789 -1.8980
 5287SOL    HW227495   0.134   2.630  12.206 -1.0825  0.6317  1.8291
 5288SOL     OW27496   3.036   4.731  13.817  0.2046  0.4459 -0.4409
 5288SOL    HW127497   2.947   0.007  13.784  0.2909  1.3491 -0.3019
 5288SOL    HW227498   3.092   0.002  13.740 -2.3893  0.9739 -2.2935
 5289SOL     OW27499   3.774   1.685   4.372  0.2319 -0.0698 -0.5303
 5289SOL    HW127500   3.842   1.733   4.324  1.6339 -1.1012  0.4428
 5289SOL    HW227501   3.700   1.746   4.372 -0.6101 -1.0863  1.1148
 5290SOL     OW27502   0.720   2.719   3.232  0.4428 -0.0263 -0.4175
 5290SOL    HW127503   0.758   2.635   3.205  1.8079  0.8112 -1.0804
 5290SOL    HW227504   0.757   2.779   3.166 -1.1441 -0.3721 -1.6234
 5291SOL     OW27505   1.336   2.167   0.883 -0.5909  0.3924 -0.1351
 5291SOL    HW127506   1.356   2.208   0.967 -1.8138  0.9101 -0.0913
 5291SOL    HW227507   1.327   2.075   0.907 -0.7984  0.6911  0.9699
 5292SOL     OW27508   1.551   1.541  13.339  0.2862  0.0960 -0.8284
 5292SOL    HW127509   1.547   1.555  13.245  1.7154  0.8631 -0.7696
 5292SOL    HW227510   1.574   1.629  13.370 -2.0186  0.8936 -1.3467
 5293SOL     OW27511   1.234   0.286   4.359  0.3630  0.6413  0.0833
 5293SOL    HW127512   1.274   0.227   4.294 -2.0047 -2.9520  1.8801
 5293SOL    HW227513   1.247   0.235   4.439 -0.6474  0.5127  0.1644
 5294SOL     OW27514   0.050   1.340   7.526 -0.3879 -0.0883 -0.0317
 5294SOL    HW127515   4.714   1.362   7.470 -0.6582  1.4438  0.9440
 5294SOL    HW227516   0.036   1.248   7.551 -1.0436  0.0822  0.2175
 5295SOL     OW27517   3.140   0.132   5.055 -0.0499 -0.5537 -0.6028
 5295SOL    HW127518   3.147   0.224   5.031  1.0669 -0.3399  0.4887
 5295SOL    HW227519   3.079   0.140   5.129 -0.1860 -3.0083 -0.4575
 5296SOL     OW27520   3.987   1.684   3.905 -0.0784  0.1495 -0.6177
 5296SOL    HW127521   4.039   1.636   3.841  0.2550 -2.1762  1.3637
 5296SOL    HW227522   4.051   1.731   3.958 -0.2816 -0.3669  0.0922
 5297SOL     OW27523   4.440   3.466  16.793  0.3662  0.5814 -0.1025
 5297SOL    HW127524   4.515   3.414  16.762  0.8937  1.3959 -0.1866
 5297SOL    HW227525   4.469   3.498  16.879 -0.5431  1.8684 -0.2881
 5298SOL     OW27526   3.225   2.865   5.160 -0.3336 -0.6942 -0.1705
 5298SOL    HW127527   3.292   2.817   5.111 -1.2610  0.1017 -2.1937
 5298SOL    HW227528   3.262   2.851   5.247  0.4893 -1.1345 -0.5941
 5299SOL     OW27529   3.647   4.304   3.001 -0.1530  0.3965  0.4280
 5299SOL    HW127530   3.597   4.355   2.938  0.9183  1.1097  0.1622
 5299SOL    HW227531   3.576   4.264   3.053 -0.0731 -1.2669 -0.7473
 5300SOL     OW27532   2.227   3.422   0.200  0.1978 -0.1532 -0.5772
 5300SOL    HW127533   2.282   3.459   0.268 -2.5573 -0.9452  2.0957
 5300SOL    HW227534   2.178   3.353   0.246 -0.4804 -0.5323 -1.8492
 5301SOL     OW27535   3.873   3.832   2.549  0.1599  0.3136 -0.2885
 5301SOL    HW127536   3.918   3.827   2.465 -1.0956 -1.8037 -0.8431
 5301SOL    HW227537   3.933   3.802   2.617  0.2812  1.3292  0.0427
 5302SOL     OW27538   2.973   1.695   1.307 -0.4225 -0.1215 -0.2336
 5302SOL    HW127539   3.013   1.641   1.239  1.7468 -1.1531  1.8409
 5302SOL    HW227540   3.010   1.656   1.386  2.1379  2.8056 -0.0068
 5303SOL     OW27541   1.847   1.895   1.595 -0.4544 -0.9830  0.0274
 5303SOL    HW127542   1.831   1.943   1.676 -0.3512 -0.1246 -0.4651
 5303SOL    HW227543   1.906   1.824   1.621 -2.5489 -3.2545 -1.4486
 5304SOL     OW27544   0.986   1.643   4.329  0.2427 -0.6648  0.1990
 5304SOL    HW127545   0.942   1.724   4.353  0.4435 -1.4279  3.2485
 5304SOL    HW227546   0.951   1.648   4.240  0.0421 -2.1319  0.1921
 5305SOL     OW27547   3.208   3.229   6.277 -0.2395  0.2209  0.5125
 5305SOL    HW127548   3.288   3.189   6.243 -1.2907 -0.1172 -1.5438
 5305SOL    HW227549   3.155   3.150   6.267 -0.3106  0.2202  0.8960
 5306SOL     OW27550   1.045   1.942   6.896  0.1761 -0.2590 -0.0086
 5306SOL    HW127551   1.126   1.892   6.906  1.8755  2.9041  1.9695
 5306SOL    HW227552   1.015   1.947   6.986 -2.9428  3.1795 -1.2321
 5307SOL     OW27553   0.956   3.587   6.600  0.5818 -0.6207 -0.1484
 5307SOL    HW127554   0.872   3.549   6.576  0.1558  0.9939 -1.2125
 5307SOL    HW227555   0.973   3.553   6.688  2.2942  0.2009 -0.1692
 5308SOL     OW27556   0.411   3.340   3.807  0.4005 -0.4978  0.2288
 5308SOL    HW127557   0.460   3.285   3.746  0.9186 -0.0763  0.2658
 5308SOL    HW227558   0.394   3.282   3.881  1.9427 -1.8981 -0.5125
 5309SOL     OW27559   1.815   2.706   1.715 -0.3359  0.0012 -0.1520
 5309SOL    HW127560   1.881   2.667   1.657 -1.1525 -0.7922 -0.5557
 5309SOL    HW227561   1.743   2.738   1.660 -0.6865 -0.2520  0.1571
 5310SOL     OW27562   3.479   3.419   8.890  0.3443 -0.3360 -0.0104
 5310SOL    HW127563   3.481   3.355   8.962 -0.8750 -0.4255 -0.0596
 5310SOL    HW227564   3.467   3.358   8.818  0.4664 -0.6535  0.2351
 5311SOL     OW27565   0.514   3.040   4.268  0.6844  0.0341  0.6468
 5311SOL    HW127566   0.449   3.084   4.322 -2.2416 -1.0449 -2.0023
 5311SOL    HW227567   0.511   2.947   4.291 -3.0290 -0.6730 -2.7278
 5312SOL     OW27568   1.880   0.888  10.084 -0.3105  0.9293 -0.1912
 5312SOL    HW127569   1.796   0.843  10.088  1.1675 -1.9223 -0.7007
 5312SOL    HW227570   1.858   0.981  10.082 -1.0624  0.7280 -1.1309
 5313SOL     OW27571   2.860   1.166   8.274 -0.2519  0.6904  0.1346
 5313SOL    HW127572   2.813   1.216   8.207  0.7599  1.8845  0.3077
 5313SOL    HW227573   2.816   1.196   8.353  0.4775 -1.8864  1.5296
 5314SOL     OW27574   2.039   4.254   4.052  0.1811  0.2520  0.3954
 5314SOL    HW127575   1.972   4.315   4.025 -0.1831 -0.0981  0.5106
 5314SOL    HW227576   1.990   4.172   4.056  1.1267 -0.2967  1.0171
 5315SOL     OW27577   0.609   0.276  13.366  0.3312 -0.1188  0.3981
 5315SOL    HW127578   0.686   0.334  13.359  1.4747 -1.4649  1.7790
 5315SOL    HW227579   0.570   0.317  13.443 -1.4922 -0.1452 -0.5162
 5316SOL     OW27580   2.075   3.004   7.794 -0.0381 -0.1730 -0.2900
 5316SOL    HW127581   2.025   2.959   7.725 -0.7598  0.3096 -0.0893
 5316SOL    HW227582   2.153   3.039   7.751  0.9168 -1.4587  0.4051
 5317SOL     OW27583   2.227   1.286   7.685 -0.3583  0.3545  0.2739
 5317SOL    HW127584   2.155   1.329   7.640 -0.0904  2.6133  1.9888
 5317SOL    HW227585   2.187   1.216   7.736 -2.1826  1.6439  0.6326
 5318SOL     OW27586   2.223   0.651  14.172  0.2301 -0.2260 -0.2089
 5318SOL    HW127587   2.193   0.565  14.201 -1.0481  0.4826  0.5829
 5318SOL    HW227588   2.166   0.706  14.225 -0.8890  0.6605 -2.3337
 5319SOL     OW27589   1.491   4.678   6.139 -0.1011  0.2136 -0.3212
 5319SOL    HW127590   1.430   4.611   6.168  1.4896 -1.0418  0.1207
 5319SOL    HW227591   1.448   0.017   6.178  0.7447  0.2784  0.5060
 5320SOL     OW27592   4.070   3.092   7.272 -0.7040  0.1678  0.4035
 5320SOL    HW127593   4.158   3.057   7.289  0.5630  1.9111 -2.4446
 5320SOL    HW227594   4.013   3.022   7.239 -0.1830 -0.1806  0.2303
 5321SOL     OW27595   3.189   3.808  16.433  0.0674 -0.2539  0.0314
 5321SOL    HW127596   3.168   3.804  16.526 -1.4307 -0.3080 -0.3049
 5321SOL    HW227597   3.284   3.821  16.437  0.2530 -2.1557  1.8604
 5322SOL     OW27598   3.480   1.199   7.480 -0.1628 -0.2519  0.2990
 5322SOL    HW127599   3.513   1.283   7.510 -0.5896  0.0628 -0.0987
 5322SOL    HW227600   3.492   1.202   7.385 -1.7740  2.5805  0.1823
 5323SOL     OW27601   1.547   2.259  16.446 -0.4745  0.2391 -0.4068
 5323SOL    HW127602   1.477   2.314  16.482 -1.1584 -1.2774  0.6254
 5323SOL    HW227603   1.608   2.282  16.517 -0.0212 -1.2409 -0.3118
 5324SOL     OW27604   4.535   1.685   8.451  0.2579 -0.6273  0.1640
 5324SOL    HW127605   4.489   1.762   8.485  1.0223 -0.0117 -0.2004
 5324SOL    HW227606   4.606   1.717   8.397 -0.7881 -0.0530 -0.8724
 5325SOL     OW27607   3.361   2.133   0.355 -0.0471  0.0416 -0.1384
 5325SOL    HW127608   3.455   2.148   0.366 -0.2034 -0.1076  1.3579
 5325SOL    HW227609   3.342   2.058   0.411 -1.1467  2.5199  2.7892
 5326SOL     OW27610   4.019   3.534   4.810 -0.4468  0.1082 -0.1527
 5326SOL    HW127611   4.007   3.528   4.904  2.3167 -1.3208  0.1045
 5326SOL    HW227612   4.045   3.626   4.804 -1.2663  0.2991 -0.7532
 5327SOL     OW27613   3.804   1.253   5.492  0.0609 -0.0899  0.4993
 5327SOL    HW127614   3.862   1.325   5.468  0.2068 -0.6493 -0.8569
 5327SOL    HW227615   3.736   1.301   5.538  2.6417  2.7683  1.3959
 5328SOL     OW27616   3.752   1.675   5.824  0.3033 -0.4684  0.0246
 5328SOL    HW127617   3.831   1.716   5.787  1.3452 -2.8623 -0.4017
 5328SOL    HW227618   3.771   1.695   5.915  0.2138 -3.7830  0.7563
 5329SOL     OW27619   0.935   2.935  11.956 -0.2955 -0.0155 -0.5115
 5329SOL    HW127620   0.927   2.840  11.965 -0.0903 -0.0545 -0.7449
 5329SOL    HW227621   0.982   2.941  11.872  0.2262 -0.8475 -0.2800
 5330SOL     OW27622   4.537   1.471   5.170 -0.3619  0.7587 -0.5393
 5330SOL    HW127623   4.617   1.504   5.128  1.2762 -2.7006 -0.1037
 5330SOL    HW227624   4.543   1.376   5.173 -1.7496  0.6915  0.3369
 5331SOL     OW27625   3.139   3.088  15.190 -0.0813  0.1962 -0.5367
 5331SOL    HW127626   3.145   3.163  15.249  0.0497 -1.4046  1.4866
 5331SOL    HW227627   3.045   3.070  15.191 -0.0262 -0.0660  0.8250
 5332SOL     OW27628   4.121   3.234   8.270  0.2770 -0.1271 -0.1029
 5332SOL    HW127629   4.044   3.178   8.272 -0.0161  0.3075  0.8561
 5332SOL    HW227630   4.196   3.175   8.260 -0.3352 -1.1331  1.1881
 5333SOL     OW27631   3.840   0.763  14.047  0.3749  0.7389 -0.3013
 5333SOL    HW127632   3.935   0.764  14.032  0.2299 -1.4000 -1.3437
 5333SOL    HW227633   3.834   0.703  14.121 -2.0315  0.6674 -0.5554
 5334SOL     OW27634   0.510   1.587   8.203  0.1012 -0.0396  0.0994
 5334SOL    HW127635   0.441   1.529   8.169  1.9515 -2.0700 -0.1395
 5334SOL    HW227636   0.582   1.525   8.209  0.8262  0.6911 -1.0998
 5335SOL     OW27637   2.555   4.651  15.363  0.5063 -0.3293 -0.6899
 5335SOL    HW127638   2.555   4.679  15.271 -2.7755 -2.6154 -1.4088
 5335SOL    HW227639   2.603   4.569  15.360  1.8689  0.3263  2.9064
 5336SOL     OW27640   2.729   2.290   3.420 -0.1574  0.3635  0.6817
 5336SOL    HW127641   2.804   2.340   3.454 -0.5901  1.2247  0.3681
 5336SOL    HW227642   2.743   2.306   3.327  0.4750  1.6534  0.9846
 5337SOL     OW27643   2.153   3.897   8.041  0.0012  0.3109  0.3407
 5337SOL    HW127644   2.200   3.819   8.012  2.3527  2.1060 -0.7411
 5337SOL    HW227645   2.210   3.951   8.096 -0.2822  1.6035 -0.6210
 5338SOL     OW27646   1.891   0.692  11.113  0.2516  0.2957  0.1679
 5338SOL    HW127647   1.894   0.662  11.204 -0.2267  0.3489  0.2056
 5338SOL    HW227648   1.926   0.615  11.068 -0.3228  0.2173 -0.1530
 5339SOL     OW27649   1.113   0.365  14.433  0.2560  0.2200 -0.1432
 5339SOL    HW127650   1.187   0.312  14.404  2.1927  2.1380  1.3124
 5339SOL    HW227651   1.068   0.304  14.493  2.2649 -2.0228 -0.9252
 5340SOL     OW27652   3.924   2.520   1.443 -0.0053  0.1039 -0.2277
 5340SOL    HW127653   3.866   2.595   1.428  0.6460  0.3170 -1.6966
 5340SOL    HW227654   3.999   2.538   1.387 -0.2119  1.3011 -0.1360
 5341SOL     OW27655   2.838   3.058   4.077 -0.1963  0.0277 -0.2542
 5341SOL    HW127656   2.847   3.151   4.058  0.0989  0.1708  0.5967
 5341SOL    HW227657   2.904   3.018   4.020  0.4722  1.3273 -0.3948
 5342SOL     OW27658   2.526   2.130   4.708  0.6810 -0.1672  0.0946
 5342SOL    HW127659   2.542   2.124   4.614 -1.8880 -0.4393 -0.3451
 5342SOL    HW227660   2.616   2.131   4.741  0.8965 -1.2559 -0.4673
 5343SOL     OW27661   1.620   3.188   2.302 -0.4393 -0.1615 -0.1424
 5343SOL    HW127662   1.634   3.281   2.319 -0.3524 -0.5221  1.7101
 5343SOL    HW227663   1.632   3.185   2.207 -1.4321  2.3746 -0.3599
 5344SOL     OW27664   4.726   4.181   3.607  0.4123  0.4395  0.2692
 5344SOL    HW127665   4.683   4.199   3.691  0.5485  0.4697  0.3325
 5344SOL    HW227666   0.072   4.226   3.607 -1.1777  3.4233 -0.5257
 5345SOL     OW27667   2.986   3.699   8.838  0.2855 -0.4235  0.3766
 5345SOL    HW127668   3.005   3.652   8.919 -0.1804  0.0842  0.7817
 5345SOL    HW227669   2.961   3.788   8.863  0.5435  0.5679 -2.9453
 5346SOL     OW27670   1.500   0.658   5.623 -0.4349 -0.3226  0.0304
 5346SOL    HW127671   1.441   0.604   5.571 -0.4872 -0.8054  0.5991
 5346SOL    HW227672   1.432   0.712   5.664 -0.4319 -0.2875 -0.0107
 5347SOL     OW27673   1.523   2.391   8.193 -0.1859  0.0657 -0.2825
 5347SOL    HW127674   1.599   2.446   8.211 -1.7381  1.9703  0.4323
 5347SOL    HW227675   1.540   2.354   8.106 -2.6117  1.9083 -1.5373
 5348SOL     OW27676   1.815   0.807  17.299 -0.1897  0.1430  0.3903
 5348SOL    HW127677   1.752   0.876  17.322  1.1643  1.7670 -0.7767
 5348SOL    HW227678   1.889   0.861  17.272 -0.2824  0.0232 -0.0954
 5349SOL     OW27679   3.236   2.333   5.490 -0.2634  0.1289 -0.0479
 5349SOL    HW127680   3.212   2.296   5.405 -2.4154 -0.0496  0.6455
 5349SOL    HW227681   3.290   2.401   5.450  0.3917 -0.4943 -0.2437
 5350SOL     OW27682   0.813   4.728   6.222  0.8948  0.2903 -0.0743
 5350SOL    HW127683   0.734   0.043   6.226  0.2407 -0.8812  2.4895
 5350SOL    HW227684   0.850   0.006   6.135 -0.0450  0.8209 -0.3707
 5351SOL     OW27685   0.208   3.695   6.481 -0.6558 -0.2392  0.2780
 5351SOL    HW127686   0.164   3.646   6.411  0.0381 -1.9236  1.0247
 5351SOL    HW227687   0.254   3.623   6.525 -1.5527 -0.1208  1.4012
 5352SOL     OW27688   0.505   1.879   9.540  0.2406 -0.1961 -0.2984
 5352SOL    HW127689   0.473   1.810   9.598  4.4666  0.5363  2.8680
 5352SOL    HW227690   0.443   1.858   9.469 -1.8794 -0.4600  1.6352
 5353SOL     OW27691   3.400   3.368   1.830  0.5886  0.0579 -0.0430
 5353SOL    HW127692   3.375   3.282   1.862  1.0912 -1.4168 -3.5919
 5353SOL    HW227693   3.495   3.372   1.839  0.5832  1.3026 -0.5443
 5354SOL     OW27694   2.430   0.267   5.300  0.3002  0.0279 -0.6259
 5354SOL    HW127695   2.429   0.357   5.266  0.2039  0.8194  1.4822
 5354SOL    HW227696   2.361   0.222   5.251 -0.5007 -2.4127  2.8013
 5355SOL     OW27697   1.602   3.398   6.780  0.2787  0.8871  0.1300
 5355SOL    HW127698   1.643   3.484   6.765  1.0432  0.8116  1.8288
 5355SOL    HW227699   1.518   3.423   6.742  0.3351  0.2466 -0.4256
 5356SOL     OW27700   2.577   4.279   5.187 -0.0216 -0.5822 -0.0215
 5356SOL    HW127701   2.584   4.284   5.092  4.4120 -1.5133  0.2461
 5356SOL    HW227702   2.483   4.284   5.202 -0.0798  2.1839 -1.3820
 5357SOL     OW27703   0.054   2.347   5.438  0.0812  0.2032 -0.2871
 5357SOL    HW127704   0.075   2.292   5.513 -0.0690  2.0408  1.0894
 5357SOL    HW227705   0.055   2.277   5.372  1.5728 -0.7136  0.7240
 5358SOL     OW27706   2.348   3.969   9.833 -0.1778 -0.1626 -0.4407
 5358SOL    HW127707   2.360   4.044   9.891  1.7826  0.4708 -1.6559
 5358SOL    HW227708   2.311   4.007   9.754 -0.2061  0.7932  0.0314
 5359SOL     OW27709   4.518   0.890   3.152  0.3002  0.0512 -0.1164
 5359SOL    HW127710   4.480   0.934   3.077 -0.1323  1.5658  0.9916
 5359SOL    HW227711   4.515   0.797   3.131  0.6340 -0.5496  2.4068
 5360SOL     OW27712   1.752   2.580   0.960  0.0367  0.1842 -0.3204
 5360SOL    HW127713   1.840   2.597   0.994  1.4162 -0.9596 -3.3490
 5360SOL    HW227714   1.714   2.521   1.026 -0.5251  1.6728  0.6835
 5361SOL     OW27715   1.331   1.220   9.262 -0.6522 -0.3652 -0.6063
 5361SOL    HW127716   1.252   1.219   9.208  0.0015 -0.0237 -1.5643
 5361SOL    HW227717   1.398   1.253   9.202 -0.7488  3.3659  1.3278
 5362SOL     OW27718   2.501   3.354   0.791 -0.6455  0.1218  0.2175
 5362SOL    HW127719   2.582   3.322   0.751 -0.0268  1.5763  0.3032
 5362SOL    HW227720   2.500   3.447   0.772  1.8317  0.3694  1.3245
 5363SOL     OW27721   3.624   4.120   5.270  0.1222  0.1845  0.2174
 5363SOL    HW127722   3.642   4.158   5.356  1.2537  0.9378 -0.3446
 5363SOL    HW227723   3.562   4.187   5.243 -0.9111 -0.0579  1.9506
 5364SOL     OW27724   0.293   3.956   5.608  0.0778  0.3200  0.1466
 5364SOL    HW127725   0.232   4.026   5.631  0.4372  1.0997 -1.2708
 5364SOL    HW227726   0.336   3.998   5.534  1.3242 -2.1305 -0.5200
 5365SOL     OW27727   4.190   1.572   7.896 -0.4759 -0.1927  0.4023
 5365SOL    HW127728   4.147   1.489   7.878  0.4640 -0.5610 -0.1189
 5365SOL    HW227729   4.194   1.616   7.811  1.1767  0.0438  0.5997
 5366SOL     OW27730   2.256   3.154   9.317 -0.0168  0.1531 -0.3741
 5366SOL    HW127731   2.256   3.059   9.332 -0.4652  0.4823  1.6574
 5366SOL    HW227732   2.348   3.168   9.338  0.0813 -1.3549  0.1639
 5367SOL     OW27733   1.300   4.730  17.742  0.3579  0.0995 -0.3060
 5367SOL    HW127734   1.368   4.696  17.684  1.6751  0.2791  1.1169
 5367SOL    HW227735   1.326   4.687   0.074  2.8436  2.5260  0.2049
 5368SOL     OW27736   3.445   2.809  16.878  0.2546  0.0772  0.1833
 5368SOL    HW127737   3.468   2.872  16.946 -1.3760 -0.7207  1.4450
 5368SOL    HW227738   3.362   2.841  16.841 -0.4215 -0.7072  1.0318
 5369SOL     OW27739   2.148   1.076   9.952 -0.0393  0.3207  0.2328
 5369SOL    HW127740   2.174   1.030   9.872 -0.7805 -1.1370  0.8293
 5369SOL    HW227741   2.055   1.090   9.933  0.2275  1.7637 -0.0122
 5370SOL     OW27742   2.221   0.186   2.122  0.2277  0.0133 -0.2571
 5370SOL    HW127743   2.312   0.189   2.091  0.9445 -1.4437  1.6880
 5370SOL    HW227744   2.215   0.092   2.136  3.0273  0.2402  2.6229
 5371SOL     OW27745   1.961   3.849  13.012  0.2464  1.3483 -0.0282
 5371SOL    HW127746   2.051   3.834  12.983  0.4233  1.0949  0.6574
 5371SOL    HW227747   1.913   3.784  12.960 -0.1679  0.2360  1.7531
 5372SOL     OW27748   2.807   4.608   1.933  0.1873 -0.0362  0.0435
 5372SOL    HW127749   2.766   4.523   1.913  1.3754 -0.3259 -1.1322
 5372SOL    HW227750   2.737   4.644   1.988 -0.3005 -0.0993 -0.5377
 5373SOL     OW27751   1.736   4.486  17.480  0.5314 -0.3167 -0.1702
 5373SOL    HW127752   1.664   4.455  17.536 -0.3051  0.6476 -0.7023
 5373SOL    HW227753   1.814   4.454  17.524  0.1186 -4.5368 -2.4968
 5374SOL     OW27754   0.705   3.099  15.653 -0.2478  0.3372 -0.5833
 5374SOL    HW127755   0.625   3.151  15.657 -0.4760  0.0646 -1.8964
 5374SOL    HW227756   0.731   3.083  15.563  0.6357 -1.5865 -0.0053
 5375SOL     OW27757   0.561   3.123  13.683  0.3783  0.2183 -0.3028
 5375SOL    HW127758   0.640   3.140  13.632 -0.9762 -1.1121 -2.8126
 5375SOL    HW227759   0.582   3.031  13.699  1.1961  0.0638 -2.3128
 5376SOL     OW27760   2.027   2.531   4.135  0.0008  0.0850  0.1765
 5376SOL    HW127761   1.961   2.473   4.098 -0.7633  0.6340  0.6919
 5376SOL    HW227762   1.989   2.617   4.120 -1.0390 -0.5034 -0.5380
 5377SOL     OW27763   2.682   2.439   8.301 -0.3839 -0.7161 -0.4699
 5377SOL    HW127764   2.678   2.521   8.252 -0.2706 -0.6223 -0.3231
 5377SOL    HW227765   2.595   2.443   8.341 -1.2317  2.1903 -2.5657
 5378SOL     OW27766   4.364   2.215   2.486  0.5009 -0.0690  0.1344
 5378SOL    HW127767   4.309   2.260   2.421  1.0526 -0.1998 -0.4253
 5378SOL    HW227768   4.343   2.126   2.457  1.0496 -0.1931  0.1308
 5379SOL     OW27769   3.615   3.176   9.529  0.4614 -0.5671  0.2928
 5379SOL    HW127770   3.595   3.138   9.615  1.5249 -0.0735  0.7555
 5379SOL    HW227771   3.634   3.269   9.547  1.2071 -0.5359 -0.6690
 5380SOL     OW27772   3.900   0.705   2.519 -0.3129 -0.3520 -0.3289
 5380SOL    HW127773   3.885   0.610   2.512 -0.1727 -0.2637 -1.8841
 5380SOL    HW227774   3.905   0.713   2.614  0.5819  1.6784 -0.5523
 5381SOL     OW27775   2.021   1.274   1.659 -0.0493  0.0302  0.0417
 5381SOL    HW127776   2.034   1.207   1.593  0.7896 -0.6611  0.9016
 5381SOL    HW227777   2.097   1.331   1.646 -0.5817  1.0889  1.5366
 5382SOL     OW27778   2.858   0.255   6.363 -0.4601 -0.7977 -0.7835
 5382SOL    HW127779   2.912   0.318   6.412  0.1624 -1.4844 -0.5939
 5382SOL    HW227780   2.770   0.291   6.352  0.2965  0.9485 -1.1630
 5383SOL     OW27781   0.290   1.668  14.908  0.2880  0.6032 -0.6522
 5383SOL    HW127782   0.338   1.708  14.835  1.2493 -0.5266 -0.6351
 5383SOL    HW227783   0.224   1.627  14.852 -2.0040  0.7399  1.9664
 5384SOL     OW27784   2.875   3.518   1.560 -0.1335  0.6410  0.4277
 5384SOL    HW127785   2.873   3.442   1.618 -0.9311  1.0313  0.9156
 5384SOL    HW227786   2.866   3.483   1.472  0.4939 -0.6962  0.8998
 5385SOL     OW27787   3.291   1.037   3.904 -0.2800  0.2260  0.1504
 5385SOL    HW127788   3.363   0.977   3.923 -1.8330 -1.8484 -0.5461
 5385SOL    HW227789   3.219   1.006   3.959  0.8753  0.5925  1.8760
 5386SOL     OW27790   2.110   3.273  12.802 -0.8206 -0.4464  0.3426
 5386SOL    HW127791   2.059   3.351  12.823  2.4817  1.5762  0.8864
 5386SOL    HW227792   2.168   3.309  12.735 -0.6727  0.4834  0.9794
 5387SOL     OW27793   0.181   0.954   6.395  0.7499 -0.3199 -0.7497
 5387SOL    HW127794   0.134   0.901   6.331  0.6027 -0.2232 -0.7235
 5387SOL    HW227795   0.105   0.973   6.451  1.1262  0.3029 -0.4583
 5388SOL     OW27796   2.827   4.459  11.734 -0.0033  0.1356 -0.0163
 5388SOL    HW127797   2.779   4.459  11.652  0.1289  1.1156 -0.0856
 5388SOL    HW227798   2.827   4.548  11.767  3.6809  0.7907 -1.7653
 5389SOL     OW27799   3.326   4.241   7.943 -0.4294 -0.3066 -0.0410
 5389SOL    HW127800   3.330   4.249   8.038 -0.6983  0.2987 -0.0820
 5389SOL    HW227801   3.240   4.276   7.918  0.7952  1.7475 -1.3319
 5390SOL     OW27802   3.110   3.186   2.585  0.3808 -0.0238 -0.0342
 5390SOL    HW127803   3.135   3.267   2.629  2.4603 -0.0037 -1.2944
 5390SOL    HW227804   3.047   3.225   2.524  1.4078  0.4179 -0.8075
 5391SOL     OW27805   1.710   0.793   2.629 -0.1259 -0.4587  0.6467
 5391SOL    HW127806   1.712   0.811   2.723  1.2976 -0.4736  0.6171
 5391SOL    HW227807   1.733   0.881   2.599 -0.2062 -0.1848  1.3898
 5392SOL     OW27808   2.160   4.365   3.217  0.0523  0.2461  0.2644
 5392SOL    HW127809   2.194   4.286   3.174 -3.4630  1.2951 -4.3767
 5392SOL    HW227810   2.074   4.332   3.241  0.2457 -1.1355 -0.8758
 5393SOL     OW27811   0.841   2.748   8.503 -0.3855 -0.2819  0.0242
 5393SOL    HW127812   0.892   2.701   8.437  1.1189 -0.9042  1.6350
 5393SOL    HW227813   0.764   2.693   8.518  0.8517 -2.3187 -1.1385
 5394SOL     OW27814   0.377   0.734   3.388 -0.3244 -0.1087  0.3305
 5394SOL    HW127815   0.326   0.675   3.444  0.6379 -1.8565 -0.6798
 5394SOL    HW227816   0.334   0.719   3.304 -1.0316  1.0665  0.4694
 5395SOL     OW27817   3.160   2.223  13.910  0.1813  0.0239  0.8192
 5395SOL    HW127818   3.075   2.248  13.947 -1.4573 -0.1838 -2.8608
 5395SOL    HW227819   3.185   2.144  13.958 -1.5739  0.0693  1.8236
 5396SOL     OW27820   1.075   1.538   6.718 -0.2318 -0.5778  0.0520
 5396SOL    HW127821   1.023   1.549   6.798  0.5817  0.7540  0.4027
 5396SOL    HW227822   1.004   1.518   6.658 -1.0724  0.2851  0.7427
 5397SOL     OW27823   0.958   3.594   6.099 -0.4987 -0.0977  0.2416
 5397SOL    HW127824   0.982   3.595   6.006 -1.0878  1.3029  0.0952
 5397SOL    HW227825   0.881   3.652   6.104 -0.0265  0.1870  3.9760
 5398SOL     OW27826   1.675   1.231   8.614 -0.4011 -0.5163 -0.4827
 5398SOL    HW127827   1.591   1.224   8.571  0.3572  2.1758 -2.3730
 5398SOL    HW227828   1.679   1.152   8.669 -0.1957 -0.4186 -0.3540
 5399SOL     OW27829   0.113   1.259   0.443 -0.3701 -0.1732  0.1243
 5399SOL    HW127830   0.121   1.263   0.539 -2.0945 -4.5382  0.4308
 5399SOL    HW227831   0.173   1.188   0.420 -2.2741 -2.2165  1.4657
 5400SOL     OW27832   3.712   2.429   9.432  0.5989 -0.0570 -0.2163
 5400SOL    HW127833   3.676   2.510   9.397  0.9667  0.6374  1.0121
 5400SOL    HW227834   3.679   2.361   9.372  0.5942  0.4141 -0.7492
 5401SOL     OW27835   4.658   1.616  15.321  0.1692 -0.2048 -0.2608
 5401SOL    HW127836   4.682   1.531  15.357  0.7037 -0.2076 -0.6285
 5401SOL    HW227837   4.625   1.590  15.235 -1.9267 -2.0310  1.1043
 5402SOL     OW27838   4.029   0.580   3.308 -0.0260  0.2397 -0.3318
 5402SOL    HW127839   3.966   0.549   3.373  1.8669 -1.5910  0.6277
 5402SOL    HW227840   4.106   0.602   3.361 -1.5081  0.6494  1.6239
 5403SOL     OW27841   2.054   0.744  15.118  0.3746 -0.1588  0.3750
 5403SOL    HW127842   2.029   0.665  15.069 -0.2814 -0.5721  1.3877
 5403SOL    HW227843   2.136   0.713  15.156 -1.4727 -2.1829  2.7268
 5404SOL     OW27844   3.633   1.724  15.661 -1.0562  0.3484  0.2652
 5404SOL    HW127845   3.548   1.766  15.676 -1.6667 -0.8466  0.1422
 5404SOL    HW227846   3.605   1.635  15.641  0.1343  0.2016 -0.8098
 5405SOL     OW27847   2.882   1.324   2.174  0.2533  0.3911 -0.0492
 5405SOL    HW127848   2.853   1.256   2.114 -0.1586 -0.8982  1.6012
 5405SOL    HW227849   2.832   1.314   2.255  2.7366 -0.1795  1.4365
 5406SOL     OW27850   1.301   0.607   1.440 -0.9580  0.0550  0.2229
 5406SOL    HW127851   1.307   0.666   1.364  0.6007  1.3241  1.3231
 5406SOL    HW227852   1.246   0.655   1.501 -0.3885 -1.5399  1.9829
 5407SOL     OW27853   3.443   4.376   1.965 -0.3113  0.0348 -0.7639
 5407SOL    HW127854   3.387   4.306   1.996  0.2717 -0.8014 -1.5871
 5407SOL    HW227855   3.413   4.380   1.874 -0.8735  0.5298 -0.5585
 5408SOL     OW27856   0.127   4.194  13.771  0.5698  0.2650 -0.3004
 5408SOL    HW127857   0.129   4.122  13.707 -1.3427  2.0624 -2.3875
 5408SOL    HW227858   0.034   4.206  13.788 -0.1786 -2.4862 -2.2823
 5409SOL     OW27859   4.532   3.760   5.932  0.4814 -0.2559  0.2949
 5409SOL    HW127860   4.547   3.777   6.025  2.4844  0.5281 -0.1656
 5409SOL    HW227861   4.624   3.775   5.909  0.4802  2.9068  2.3257
 5410SOL     OW27862   3.946   3.978   9.576  0.1708 -0.3594 -0.3440
 5410SOL    HW127863   3.954   4.041   9.504 -0.7735  0.3591  0.1806
 5410SOL    HW227864   3.991   3.901   9.541  2.1838  1.1386 -1.0738
 5411SOL     OW27865   0.592   0.699   5.038 -0.2831 -0.0606 -0.0150
 5411SOL    HW127866   0.576   0.626   4.978 -0.5016  0.2948 -0.3872
 5411SOL    HW227867   0.508   0.741   5.021 -1.3885 -1.4847  1.9735
 5412SOL     OW27868   3.295   2.296   5.759 -0.1132  0.0298  0.1328
 5412SOL    HW127869   3.284   2.332   5.671 -3.5087 -0.8137  0.2229
 5412SOL    HW227870   3.370   2.344   5.796 -0.6615 -0.5228  1.9297
 5413SOL     OW27871   4.048   2.467   5.170 -0.3594  0.2293  0.3712
 5413SOL    HW127872   4.018   2.556   5.190 -1.6048 -0.2655  0.6795
 5413SOL    HW227873   4.119   2.484   5.108 -2.6669  1.3853 -1.9833
 5414SOL     OW27874   0.478   4.238  16.139  0.2680  0.5709  0.2091
 5414SOL    HW127875   0.535   4.179  16.089  0.8677 -2.0395  4.0417
 5414SOL    HW227876   0.519   4.324  16.129 -2.9615  2.1346  0.5120
 5415SOL     OW27877   3.154   1.719   5.026  0.0030 -0.9995 -0.1683
 5415SOL    HW127878   3.188   1.801   5.062 -2.5352 -0.6375  1.4497
 5415SOL    HW227879   3.191   1.655   5.087  1.3502  0.5439  0.6374
 5416SOL     OW27880   2.024   0.963   3.083  0.0781  0.7732 -0.1340
 5416SOL    HW127881   2.049   1.041   3.133  0.3224 -0.7518  2.1301
 5416SOL    HW227882   2.084   0.980   3.010 -0.7156 -0.3582 -1.0522
 5417SOL     OW27883   2.032   0.047  13.301 -0.2171 -0.2643 -0.2203
 5417SOL    HW127884   2.021   4.704  13.251  0.7537 -0.9504  0.6749
 5417SOL    HW227885   1.960   0.056  13.364 -1.1083  0.8707 -1.4086
 5418SOL     OW27886   2.674   2.911   4.513  0.2289  0.1956  0.1289
 5418SOL    HW127887   2.610   2.928   4.444  0.2886  2.3053  0.6030
 5418SOL    HW227888   2.752   2.917   4.458 -0.8996  0.7573 -1.4030
 5419SOL     OW27889   4.093   0.180   1.165 -0.2376  0.0963  0.3542
 5419SOL    HW127890   4.180   0.164   1.128 -0.3033 -0.4473  0.4303
 5419SOL    HW227891   4.097   0.136   1.250 -3.9956 -1.8853 -0.4726
 5420SOL     OW27892   0.341   4.526   6.636 -0.4252  0.3947 -0.2734
 5420SOL    HW127893   0.337   4.542   6.542 -0.3390 -0.2114 -0.3786
 5420SOL    HW227894   0.261   4.569   6.664  0.1212  0.2887  1.4971
 5421SOL     OW27895   3.805   1.457   2.447 -0.3020  0.0410 -0.4218
 5421SOL    HW127896   3.834   1.366   2.458  2.8182  1.2854  1.5955
 5421SOL    HW227897   3.887   1.492   2.413  0.2200  0.0654  0.8511
 5422SOL     OW27898   3.805   3.569   7.851 -0.7087 -0.1835  0.5851
 5422SOL    HW127899   3.810   3.622   7.771 -0.1194  0.5421  1.1048
 5422SOL    HW227900   3.846   3.489   7.816 -1.4073  0.0731 -0.8208
 5423SOL     OW27901   2.893   3.529   6.963 -0.7135  0.2418 -0.2290
 5423SOL    HW127902   2.816   3.500   7.012 -0.3871 -0.0378  0.1141
 5423SOL    HW227903   2.956   3.483   7.017 -1.6915  0.3042  0.9646
 5424SOL     OW27904   2.322   4.323   5.250 -0.4821 -0.2464 -0.2496
 5424SOL    HW127905   2.236   4.326   5.207 -0.0413 -2.4495 -1.3110
 5424SOL    HW227906   2.302   4.330   5.343  0.3578 -2.1876  0.0893
 5425SOL     OW27907   2.450   4.166   1.780 -0.0785 -0.5896 -0.4335
 5425SOL    HW127908   2.386   4.231   1.810  1.2813  0.8057 -0.5507
 5425SOL    HW227909   2.394   4.088   1.776  0.2989 -0.8903  0.3165
 5426SOL     OW27910   0.477   0.578   7.327 -0.8717  0.2292  0.3753
 5426SOL    HW127911   0.487   0.544   7.238  0.5466  0.2549  0.5263
 5426SOL    HW227912   0.408   0.527   7.370  1.3370 -2.0739  1.1408
 5427SOL     OW27913   3.331   0.417   5.314 -0.4418  0.5713  0.1013
 5427SOL    HW127914   3.257   0.463   5.275 -1.5600 -0.6265  0.8420
 5427SOL    HW227915   3.297   0.330   5.332 -1.2546  0.7301 -0.6662
 5428SOL     OW27916   3.765   2.787   2.176 -0.2065  0.0290  0.1490
 5428SOL    HW127917   3.759   2.872   2.132 -0.8276 -0.3074 -0.4276
 5428SOL    HW227918   3.816   2.735   2.114  2.6613  2.1730  0.7353
 5429SOL     OW27919   1.714   3.907   0.906  0.1107  0.2422  0.4380
 5429SOL    HW127920   1.633   3.952   0.932  0.1911  0.4295  0.3707
 5429SOL    HW227921   1.780   3.941   0.967 -0.8394  1.7397  0.6313
 5430SOL     OW27922   2.894   1.917   2.025 -0.3881  0.2483  0.0075
 5430SOL    HW127923   2.884   1.827   1.991 -0.3175  0.9938 -2.0020
 5430SOL    HW227924   2.835   1.965   1.967 -1.4754  0.6917  1.4735
 5431SOL     OW27925   4.101   1.100   7.670 -0.1533 -0.8530 -0.6073
 5431SOL    HW127926   4.120   1.026   7.612 -0.8177 -0.9262 -0.7272
 5431SOL    HW227927   4.020   1.134   7.632  0.0351 -0.9606 -1.0984
 5432SOL     OW27928   0.828   2.626  16.375 -0.2594 -0.1060  0.1956
 5432SOL    HW127929   0.908   2.579  16.397  1.5850  2.3746 -1.2906
 5432SOL    HW227930   0.799   2.576  16.298  1.9083  0.0418 -0.6956
 5433SOL     OW27931   0.077   1.352  15.359  0.4840  0.2829 -0.0002
 5433SOL    HW127932   0.051   1.282  15.300  0.9649  1.2307 -1.3415
 5433SOL    HW227933   0.167   1.374  15.337  0.7952 -1.6940 -0.6762
 5434SOL     OW27934   2.427   2.763   3.395  0.3757  0.4180 -0.5726
 5434SOL    HW127935   2.434   2.776   3.489 -0.1657  0.4265 -0.5325
 5434SOL    HW227936   2.399   2.672   3.389  1.6942 -0.0021 -0.2605
 5435SOL     OW27937   4.544   3.856   2.727  0.3252 -0.0186  0.1911
 5435SOL    HW127938   4.627   3.903   2.734  0.7987 -1.0429  1.4462
 5435SOL    HW227939   4.471   3.913   2.702  0.6176  0.2108 -0.1501
 5436SOL     OW27940   3.789   0.109   5.418  0.2138  0.4014 -0.0264
 5436SOL    HW127941   3.694   0.101   5.405  0.0885  0.3339  0.9589
 5436SOL    HW227942   3.820   0.024   5.387 -0.1766  1.2928 -2.8351
 5437SOL     OW27943   1.803   3.689  17.145 -0.1149 -0.2177 -0.2472
 5437SOL    HW127944   1.731   3.700  17.207 -0.1889 -0.3740 -0.3075
 5437SOL    HW227945   1.743   3.672  17.073  0.8592  1.5720 -1.5114
 5438SOL     OW27946   1.362   2.497  11.537  0.2995  0.1064  0.1383
 5438SOL    HW127947   1.385   2.496  11.630 -2.0984  2.9721  0.7776
 5438SOL    HW227948   1.269   2.517  11.533  0.0572 -0.8065  1.2868
 5439SOL     OW27949   3.157   4.270   3.118 -0.1457  0.8048  0.4491
 5439SOL    HW127950   3.145   4.302   3.029 -1.0944 -0.7928  0.0156
 5439SOL    HW227951   3.247   4.244   3.103  0.4836  1.0110  3.7450
 5440SOL     OW27952   1.516   1.155   0.679 -0.0020 -0.1593  0.4065
 5440SOL    HW127953   1.556   1.090   0.736 -0.1242  1.7224  2.5959
 5440SOL    HW227954   1.458   1.203   0.738 -0.6154 -1.2972  0.7393
 5441SOL     OW27955   1.086   2.933   2.501  0.3936 -0.5559 -0.5821
 5441SOL    HW127956   1.120   2.849   2.531 -0.2213  0.0761  1.9130
 5441SOL    HW227957   1.160   2.986   2.471  0.0623  1.5564  2.3273
 5442SOL     OW27958   4.369   2.683   6.144  0.1614  0.2006 -0.1462
 5442SOL    HW127959   4.281   2.702   6.177 -0.3072  0.3861 -1.4927
 5442SOL    HW227960   4.357   2.590   6.125  1.3812 -0.4231  2.2220
 5443SOL     OW27961   4.596   1.470   3.097  0.0741 -0.3116 -0.2361
 5443SOL    HW127962   4.526   1.535   3.100 -0.0496 -0.4493 -0.1375
 5443SOL    HW227963   4.578   1.415   3.174  2.6344  0.4338  0.8938
 5444SOL     OW27964   2.935   4.461   4.964  0.5359 -0.1373  0.2336
 5444SOL    HW127965   2.910   4.467   5.056 -0.3960  0.3582 -0.0498
 5444SOL    HW227966   2.860   4.492   4.912  1.4175  0.6301 -0.5987
 5445SOL     OW27967   4.553   4.321   7.438 -0.3444 -0.2286 -0.1814
 5445SOL    HW127968   4.489   4.257   7.471  2.0343 -1.8603  1.2476
 5445SOL    HW227969   4.620   4.261   7.404 -0.3775 -0.9897  1.0942
 5446SOL     OW27970   1.366   4.450  10.072 -0.0791 -0.7369  0.0095
 5446SOL    HW127971   1.325   4.511  10.134  3.2819  0.3475  1.1833
 5446SOL    HW227972   1.305   4.376  10.075 -0.3191 -0.5563 -0.5308
 5447SOL     OW27973   0.995   3.687  13.736  0.1148 -0.2069  0.2979
 5447SOL    HW127974   1.058   3.673  13.807 -0.7403 -1.9959  0.7171
 5447SOL    HW227975   1.031   3.615  13.684 -1.0743 -0.5773 -0.0045
 5448SOL     OW27976   1.757   1.458  15.771 -0.5176 -0.1374  0.0717
 5448SOL    HW127977   1.733   1.365  15.774  0.3076 -0.3479  0.1066
 5448SOL    HW227978   1.709   1.495  15.845  1.0878  1.0811  0.4976
 5449SOL     OW27979   3.294   1.990   0.610 -0.7256 -0.1791 -0.0427
 5449SOL    HW127980   3.231   1.973   0.680  2.2252  1.2248  2.9438
 5449SOL    HW227981   3.324   2.078   0.633 -1.2900 -0.3695  1.3970
 5450SOL     OW27982   2.242   2.041   8.013  0.1759  0.7143  0.1218
 5450SOL    HW127983   2.274   2.059   8.101  2.1361  0.2185 -0.4781
 5450SOL    HW227984   2.189   2.116   7.984 -1.1885 -0.1821  0.3302
 5451SOL     OW27985   3.742   2.218  11.269  0.1315 -0.3074  0.1654
 5451SOL    HW127986   3.681   2.291  11.257  2.0395  1.3131  0.2399
 5451SOL    HW227987   3.710   2.158  11.202  2.7083 -3.1699  1.4737
 5452SOL     OW27988   3.756   3.933  16.266 -0.1244  0.2053  0.2047
 5452SOL    HW127989   3.789   4.013  16.225 -1.7750 -0.0778 -1.6868
 5452SOL    HW227990   3.746   3.873  16.192 -0.5358  1.6621 -0.9178
 5453SOL     OW27991   4.028   2.429  16.301 -0.2975 -0.1470 -0.0599
 5453SOL    HW127992   3.945   2.382  16.302  1.2075 -2.8567 -2.2276
 5453SOL    HW227993   4.067   2.425  16.389  0.1662  2.0493 -0.1692
 5454SOL     OW27994   0.035   0.800   5.818  0.3722  0.6850  0.7193
 5454SOL    HW127995   4.730   0.779   5.901  0.5154 -2.5552 -0.0453
 5454SOL    HW227996   0.024   0.721   5.765 -0.8273  0.2390  1.6474
 5455SOL     OW27997   0.215   0.181   6.113 -0.5000  0.0102  0.1011
 5455SOL    HW127998   0.179   0.179   6.024 -0.4215  1.9009  0.0230
 5455SOL    HW227999   0.285   0.115   6.114  0.1909  0.7363 -0.8366
 5456SOL     OW28000   3.053   2.292   5.883  0.8554  0.1144 -0.5710
 5456SOL    HW128001   3.140   2.298   5.843  0.5296  0.1584 -1.2788
 5456SOL    HW228002   3.019   2.221   5.828  0.4181  1.0709 -1.5296
 5457SOL     OW28003   3.213   2.513   7.443 -0.2587  0.0822  0.6117
 5457SOL    HW128004   3.308   2.508   7.435 -0.5040 -2.5288 -0.6058
 5457SOL    HW228005   3.219   2.567   7.522  0.2206  0.3402  0.3988
 5458SOL     OW28006   2.939   1.518   5.000  0.1430 -0.2844 -0.2264
 5458SOL    HW128007   3.028   1.552   5.003  0.7591 -1.8539 -0.8416
 5458SOL    HW228008   2.949   1.440   4.946  0.4142 -1.9807  2.2504
 5459SOL     OW28009   4.024   2.233  12.671 -0.2481  0.5952 -0.7469
 5459SOL    HW128010   3.966   2.294  12.626 -1.3107  0.7639  0.8608
 5459SOL    HW228011   4.066   2.197  12.593 -0.5942 -0.6197 -0.3757
 5460SOL     OW28012   0.079   2.878  16.687 -0.3508  0.8569 -0.0779
 5460SOL    HW128013   0.093   2.813  16.617 -1.0748  0.2429  0.3443
 5460SOL    HW228014   0.045   2.819  16.754 -0.3804  2.2252  1.0959
 5461SOL     OW28015   2.838   4.655   8.370 -0.2803 -0.1002  0.4366
 5461SOL    HW128016   2.805   4.567   8.352  1.3289 -0.2930 -1.5960
 5461SOL    HW228017   2.923   4.643   8.326 -0.1342  2.2067  0.0785
 5462SOL     OW28018   3.152   2.514   1.609  0.0253  0.4236 -0.2879
 5462SOL    HW128019   3.224   2.452   1.622 -0.0647  0.7273  1.6846
 5462SOL    HW228020   3.089   2.454   1.571 -0.8584  0.9805  0.2925
 5463SOL     OW28021   4.289   3.475   4.229  0.3171  0.1598  0.2521
 5463SOL    HW128022   4.226   3.427   4.174 -0.5141  1.0706  0.3906
 5463SOL    HW228023   4.290   3.562   4.189 -0.5808 -0.4265 -1.0799
 5464SOL     OW28024   3.296   4.040  15.088  0.3988  0.1484  0.0515
 5464SOL    HW128025   3.223   4.095  15.116  0.5696  1.1701 -1.5083
 5464SOL    HW228026   3.361   4.060  15.155 -0.0222  0.4848  0.3587
 5465SOL     OW28027   2.686   3.769   3.751 -0.1216  0.3689  0.8053
 5465SOL    HW128028   2.592   3.785   3.757 -0.4640 -1.1112 -0.6102
 5465SOL    HW228029   2.710   3.770   3.844  0.6667  0.0736  0.6029
 5466SOL     OW28030   2.845   4.103   3.214 -0.4650 -0.1771  0.0739
 5466SOL    HW128031   2.892   4.158   3.278  1.6986  0.2056 -1.8674
 5466SOL    HW228032   2.901   4.125   3.140  2.2105  0.8712  2.4229
 5467SOL     OW28033   3.483   2.212  12.837 -0.0715 -0.0585  0.3757
 5467SOL    HW128034   3.538   2.283  12.870 -0.4500  0.7103 -0.6456
 5467SOL    HW228035   3.546   2.141  12.850 -0.0295 -0.0709  0.1171
 5468SOL     OW28036   1.511   0.198  16.156 -0.3894 -0.0511  0.4127
 5468SOL    HW128037   1.468   0.238  16.081  0.2161 -1.6324 -0.7785
 5468SOL    HW228038   1.482   0.254  16.228 -0.7682 -0.0435  0.2512
 5469SOL     OW28039   4.616   2.769  15.585 -0.7162  0.2611 -0.0928
 5469SOL    HW128040   4.614   2.678  15.614  1.6665  0.4993  0.8067
 5469SOL    HW228041   4.705   2.794  15.608 -0.5739 -0.9666  0.6974
 5470SOL     OW28042   1.234   2.004   4.791 -0.1925  0.3018  0.0380
 5470SOL    HW128043   1.248   1.933   4.728  0.2999  0.0613  0.4233
 5470SOL    HW228044   1.172   2.054   4.738  0.6967 -0.2917 -1.5440
 5471SOL     OW28045   2.145   0.094   2.780  0.1172  0.3088 -0.2008
 5471SOL    HW128046   2.059   0.130   2.800 -1.3914 -2.9813 -0.6806
 5471SOL    HW228047   2.210   0.139   2.834  0.3152 -2.4145  1.8630
 5472SOL     OW28048   2.068   2.641  12.468 -0.2240 -0.0408  0.3674
 5472SOL    HW128049   2.127   2.715  12.452 -0.2903  0.1340  0.9086
 5472SOL    HW228050   1.995   2.684  12.513  0.0127  1.3160 -0.5482
 5473SOL     OW28051   0.606   3.479   0.036  0.2160  0.6742  0.0160
 5473SOL    HW128052   0.564   3.399   0.067  0.1205 -0.1999 -2.3443
 5473SOL    HW228053   0.530   3.535   0.019 -0.8067  0.4000  3.6477
 5474SOL     OW28054   4.078   4.607   2.645 -0.5180 -0.0053 -0.2171
 5474SOL    HW128055   4.061   4.701   2.635  2.3445  0.3181 -2.0870
 5474SOL    HW228056   4.169   4.612   2.673 -0.0480 -0.7463 -1.6371
 5475SOL     OW28057   1.155   0.828  13.882  0.0627  0.0061  0.0030
 5475SOL    HW128058   1.161   0.867  13.969 -0.5051  1.2642 -0.5227
 5475SOL    HW228059   1.105   0.747  13.896 -0.1335  0.2158  0.5056
 5476SOL     OW28060   3.720   0.314  16.583  0.3254  0.6540  0.5468
 5476SOL    HW128061   3.736   0.305  16.489  1.2987 -1.4151  0.8935
 5476SOL    HW228062   3.766   0.233  16.608 -0.7177 -1.1684 -3.3967
 5477SOL     OW28063   4.315   0.616   2.745 -0.1523 -0.3871  0.1224
 5477SOL    HW128064   4.341   0.569   2.825  3.0343 -0.0315 -0.7155
 5477SOL    HW228065   4.342   0.557   2.675 -0.4580 -1.2268  0.7134
 5478SOL     OW28066   4.136   0.067   8.189 -0.3884  0.1487  0.4854
 5478SOL    HW128067   4.121   0.149   8.144  0.0393  0.0548  0.1812
 5478SOL    HW228068   4.219   0.036   8.154  0.0006  0.9990  0.6687
 5479SOL     OW28069   4.484   3.117  16.704  0.1588  0.2838 -0.2272
 5479SOL    HW128070   4.537   3.183  16.748 -0.1712  1.2134 -1.2251
 5479SOL    HW228071   4.544   3.090  16.634  0.2509 -1.4236  0.5165
 5480SOL     OW28072   2.992   1.213   7.014 -0.1053 -0.1650  0.5615
 5480SOL    HW128073   3.080   1.199   6.979  0.4833  2.6068  0.9144
 5480SOL    HW228074   3.002   1.303   7.046 -1.1991 -0.0659  0.6078
 5481SOL     OW28075   4.501   3.102   1.522 -0.2795 -0.0976  0.2753
 5481SOL    HW128076   4.444   3.056   1.461 -2.5925  0.6284  1.8407
 5481SOL    HW228077   4.518   3.180   1.469  1.2479 -1.3630 -1.0444
 5482SOL     OW28078   3.496   2.553  10.456  0.4661  0.3165  0.0215
 5482SOL    HW128079   3.563   2.520  10.517  1.0946  2.3921  0.4343
 5482SOL    HW228080   3.493   2.478  10.396 -0.2226 -0.3218  0.8593
 5483SOL     OW28081   2.057   1.245   2.859 -0.1514 -0.1709  0.1871
 5483SOL    HW128082   2.014   1.327   2.885  2.1894  1.9460 -2.6868
 5483SOL    HW228083   1.999   1.211   2.791 -0.5837  1.8629 -0.4551
 5484SOL     OW28084   0.765   4.017  12.194  0.5497 -0.0003  0.1778
 5484SOL    HW128085   0.735   4.102  12.160  1.9609  0.3004 -0.3146
 5484SOL    HW228086   0.836   4.004  12.132 -0.3779  0.1285 -0.9064
 5485SOL     OW28087   2.840   0.818   4.317  0.2174 -0.5675 -0.3973
 5485SOL    HW128088   2.761   0.819   4.370 -0.7501 -0.4305 -1.8195
 5485SOL    HW228089   2.900   0.826   4.390 -0.0475 -1.4343 -0.0939
 5486SOL     OW28090   1.376   4.353   6.562 -0.6033 -0.2218 -0.1004
 5486SOL    HW128091   1.298   4.359   6.507  0.2549  1.0847 -1.1790
 5486SOL    HW228092   1.331   4.327   6.642  0.7430 -0.3096  0.6237
 5487SOL     OW28093   1.491   2.163   5.935  0.4578  0.1385 -0.2165
 5487SOL    HW128094   1.507   2.184   6.027  1.3386  1.9478 -0.7808
 5487SOL    HW228095   1.581   2.161   5.901  0.0640  1.0779 -1.3195
 5488SOL     OW28096   3.508   2.901   0.614  0.3046  0.2315  0.1373
 5488SOL    HW128097   3.526   2.991   0.643 -0.8001  0.8058 -0.9677
 5488SOL    HW228098   3.559   2.853   0.679  0.5593 -1.1277 -1.0797
 5489SOL     OW28099   0.908   1.484   9.069  0.2376 -0.3893  0.1482
 5489SOL    HW128100   0.926   1.549   9.137 -0.2584  0.0970 -0.1822
 5489SOL    HW228101   0.816   1.460   9.084 -0.2647  0.9615 -0.7478
 5490SOL     OW28102   1.896   3.574   6.939 -0.1820 -0.0274  0.5388
 5490SOL    HW128103   1.926   3.662   6.917  0.6421 -0.7078 -1.0918
 5490SOL    HW228104   1.806   3.598   6.963 -0.8685 -1.5926 -0.4376
 5491SOL     OW28105   3.771   2.324   6.198 -0.3174 -0.1061  0.6159
 5491SOL    HW128106   3.720   2.243   6.190 -0.0976 -0.0211 -1.8139
 5491SOL    HW228107   3.718   2.372   6.260  3.0522 -1.0160  4.1743
 5492SOL     OW28108   4.004   0.485   5.558  0.1465 -0.4372 -0.2333
 5492SOL    HW128109   4.089   0.506   5.597 -1.3602 -0.1179  2.8787
 5492SOL    HW228110   3.950   0.562   5.576  1.6906  1.4053 -3.5604
 5493SOL     OW28111   2.591   2.420  13.183 -0.1814 -0.2079 -0.4639
 5493SOL    HW128112   2.505   2.462  13.192 -0.0692 -0.4193  1.6082
 5493SOL    HW228113   2.608   2.439  13.091  3.0292  1.5171  0.4383
 5494SOL     OW28114   0.648   1.611   8.499  0.2740 -0.8165 -0.3538
 5494SOL    HW128115   0.576   1.566   8.544  0.9141 -0.0247  1.4513
 5494SOL    HW228116   0.716   1.548   8.524  0.4186 -0.1538  0.9196
 5495SOL     OW28117   1.203   2.304  10.411 -0.0313 -0.1385 -0.1832
 5495SOL    HW128118   1.160   2.389  10.403  0.3279  0.1796  1.2426
 5495SOL    HW228119   1.294   2.334  10.420  0.1577 -0.7855  0.1166
 5496SOL     OW28120   0.669   1.516   1.808  0.0002  0.1089 -0.5825
 5496SOL    HW128121   0.612   1.439   1.806 -2.0752  1.5818  1.9195
 5496SOL    HW228122   0.610   1.583   1.843  1.7179  1.3126  0.0058
 5497SOL     OW28123   2.384   4.227   7.151  0.3437 -0.5005 -0.1039
 5497SOL    HW128124   2.295   4.220   7.117 -0.5883 -1.4622  2.5289
 5497SOL    HW228125   2.432   4.207   7.071  0.6574  1.3683 -0.3851
 5498SOL     OW28126   2.694   4.736  11.483 -0.1348 -0.0622 -0.1280
 5498SOL    HW128127   2.602   4.709  11.477  0.4849 -1.9870 -1.0549
 5498SOL    HW228128   2.689   0.040  11.397 -1.5850 -1.0750 -0.5553
 5499SOL     OW28129   0.491   2.911   6.203 -0.0176  0.1364 -0.0206
 5499SOL    HW128130   0.399   2.887   6.212  0.0086  0.7710  1.9981
 5499SOL    HW228131   0.522   2.824   6.178 -2.0475 -0.7126  0.4347
 5500SOL     OW28132   0.545   2.901  11.855 -0.5675  0.0714 -0.3911
 5500SOL    HW128133   0.580   2.872  11.939  0.1254  1.0456 -0.3429
 5500SOL    HW228134   0.465   2.946  11.883 -1.3094 -0.5736 -1.4716
 5501SOL     OW28135   0.619   4.226   9.594  0.0342 -0.0192 -0.2939
 5501SOL    HW128136   0.618   4.322   9.599 -2.0421  0.0260 -1.6864
 5501SOL    HW228137   0.698   4.218   9.540 -0.6231 -0.1369 -1.2352
 5502SOL     OW28138   4.637   0.777   4.682  0.2213 -0.3707  0.6972
 5502SOL    HW128139   4.727   0.777   4.650 -0.3792  0.7726 -0.9456
 5502SOL    HW228140   4.628   0.692   4.726  1.4056 -0.0790  1.4961
 5503SOL     OW28141   2.851   3.866   0.737 -0.5622  0.4484 -0.2717
 5503SOL    HW128142   2.776   3.917   0.706 -0.7817  1.7875  2.4254
 5503SOL    HW228143   2.909   3.929   0.780  0.5823  0.8106 -2.3898
 5504SOL     OW28144   2.861   1.086   2.710 -0.2455 -0.3406 -0.1623
 5504SOL    HW128145   2.816   1.167   2.684 -0.4258 -0.1318  0.8044
 5504SOL    HW228146   2.838   1.027   2.637  0.2377  2.5336 -2.6575
 5505SOL     OW28147   3.068   1.310   3.895 -0.0735  0.4031  0.6915
 5505SOL    HW128148   3.095   1.399   3.916  2.2376 -0.4733  1.4740
 5505SOL    HW228149   3.152   1.271   3.867 -0.0154  0.7317  0.4116
 5506SOL     OW28150   1.583   3.479  10.386  0.2246  0.0761 -1.1608
 5506SOL    HW128151   1.649   3.426  10.430  0.3516  1.3876  0.2337
 5506SOL    HW228152   1.503   3.434  10.411  0.0697  0.6870 -0.5605
 5507SOL     OW28153   4.186   1.696   2.557 -0.1737  0.2072  0.0342
 5507SOL    HW128154   4.124   1.762   2.526  0.7026  1.2361  0.4881
 5507SOL    HW228155   4.251   1.751   2.600 -0.2755  0.2818  0.0949
 5508SOL     OW28156   0.616   3.734   2.158 -0.2211 -0.5159 -0.1424
 5508SOL    HW128157   0.608   3.696   2.246  0.7669  1.1067  0.6507
 5508SOL    HW228158   0.586   3.823   2.179  1.7683  0.5105 -1.6059
 5509SOL     OW28159   2.749   3.891   6.251  0.2063  0.1927  0.2872
 5509SOL    HW128160   2.812   3.937   6.307 -0.6242  0.3116  1.1215
 5509SOL    HW228161   2.725   3.823   6.314  2.0469  0.4526  1.2649
 5510SOL     OW28162   3.491   1.686  13.901  0.5107 -0.4287  0.2210
 5510SOL    HW128163   3.578   1.665  13.867  1.6840  1.7813  1.8259
 5510SOL    HW228164   3.492   1.781  13.890  1.7913 -0.3422  1.0246
 5511SOL     OW28165   2.643   3.555  12.291  0.6688 -0.7367 -0.2016
 5511SOL    HW128166   2.557   3.550  12.333  0.7010 -1.0558 -0.1752
 5511SOL    HW228167   2.707   3.578  12.358 -1.7221  0.3240  1.7122
 5512SOL     OW28168   0.420   4.641   0.551  0.4064 -0.6961 -0.5796
 5512SOL    HW128169   0.441   4.725   0.593 -3.1435 -0.9624  1.7071
 5512SOL    HW228170   0.511   4.619   0.532  0.5324 -0.0031 -0.7626
 5513SOL     OW28171   0.636   2.802  16.410  0.1722  0.4489  0.4904
 5513SOL    HW128172   0.709   2.741  16.419 -0.8304 -0.6112  1.4565
 5513SOL    HW228173   0.688   2.883  16.411 -0.6495  0.9868 -3.9585
 5514SOL     OW28174   1.818   4.260   8.901  0.0886  0.6591  0.0659
 5514SOL    HW128175   1.786   4.321   8.834 -1.5952 -1.1768 -0.7893
 5514SOL    HW228176   1.771   4.179   8.881 -0.4245  0.6313  1.4351
 5515SOL     OW28177   2.008   0.059  11.293  0.2046  0.3668  0.3538
 5515SOL    HW128178   1.960   0.138  11.316  1.3677  0.8174  1.2318
 5515SOL    HW228179   2.058   0.054  11.375  0.3363  2.5731  0.3856
 5516SOL     OW28180   1.128   1.281   9.077  0.3509  0.0213  0.2014
 5516SOL    HW128181   1.198   1.325   9.029 -1.6748  1.5477 -1.3309
 5516SOL    HW228182   1.058   1.342   9.052  0.0289  0.4186  2.1397
 5517SOL     OW28183   0.894   1.384   4.411 -0.1237 -0.3687  0.3307
 5517SOL    HW128184   0.933   1.371   4.498  0.6973 -1.2207 -0.1543
 5517SOL    HW228185   0.944   1.461   4.385 -1.3420 -0.4784 -2.3659
 5518SOL     OW28186   4.530   1.890   3.011  0.1113  0.2330  0.3090
 5518SOL    HW128187   4.600   1.907   3.074  0.2186  0.5822  0.0975
 5518SOL    HW228188   4.544   1.951   2.938 -0.6133  0.4282  0.3363
 5519SOL     OW28189   2.848   2.454   6.990 -0.5355  0.3431 -0.1141
 5519SOL    HW128190   2.756   2.455   6.966 -0.6594 -1.3581  0.2710
 5519SOL    HW228191   2.870   2.362   7.006  2.7809  1.1554  0.1811
 5520SOL     OW28192   4.597   3.292   9.439 -0.4135  0.4591 -0.4073
 5520SOL    HW128193   4.566   3.366   9.386 -1.7884  1.5425  1.9417
 5520SOL    HW228194   4.573   3.213   9.390 -1.5567  0.7127 -0.2443
 5521SOL     OW28195   1.945   2.726   7.960  0.4410 -0.0999  0.6686
 5521SOL    HW128196   1.851   2.717   7.945  0.6502  0.6425 -1.0592
 5521SOL    HW228197   1.956   2.764   8.048 -2.3090 -1.7363  1.7326
 5522SOL     OW28198   2.071   2.014   3.690  0.5012  0.4562 -0.1511
 5522SOL    HW128199   2.157   2.010   3.647  1.0533 -2.4201  1.2041
 5522SOL    HW228200   2.046   2.105   3.676 -0.9761  0.1953  0.8396
 5523SOL     OW28201   0.737   4.180   5.385 -0.0324  0.1728 -0.6896
 5523SOL    HW128202   0.791   4.177   5.464  0.6121 -2.9286 -1.2464
 5523SOL    HW228203   0.809   4.190   5.322  0.4386  1.2273 -0.0013
 5524SOL     OW28204   1.669   1.116   7.570  0.5273  0.3954  0.3802
 5524SOL    HW128205   1.617   1.067   7.507  1.2379 -0.9435  0.8364
 5524SOL    HW228206   1.759   1.097   7.543  0.1095 -0.5498 -0.3019
 5525SOL     OW28207   1.582   1.359   8.865 -0.4404  0.2854 -0.3144
 5525SOL    HW128208   1.487   1.345   8.857 -0.4574 -0.3213  0.9114
 5525SOL    HW228209   1.626   1.326   8.787  0.9391 -2.3783  1.6286
 5526SOL     OW28210   0.215   3.746   6.021  0.4911  0.0112  0.2999
 5526SOL    HW128211   0.127   3.784   6.024  0.6748  0.2822  2.8307
 5526SOL    HW228212   0.200   3.684   5.950 -0.5649 -1.4225  1.7427
 5527SOL     OW28213   4.135   2.048   7.137 -0.0871 -1.0595 -0.5713
 5527SOL    HW128214   4.045   2.079   7.144  0.8987  2.0636 -1.9968
 5527SOL    HW228215   4.172   2.071   7.223 -1.9968  1.3127 -0.3734
 5528SOL     OW28216   0.919   3.269   2.931  0.6902 -0.5841  0.0060
 5528SOL    HW128217   0.830   3.305   2.930  0.3036 -1.5669 -2.0234
 5528SOL    HW228218   0.904   3.176   2.914  2.3507 -1.0335  1.0061
 5529SOL     OW28219   2.788   0.918  17.290 -0.2232 -0.4201  0.4557
 5529SOL    HW128220   2.809   0.963  17.372  0.8146  1.2415 -0.7176
 5529SOL    HW228221   2.822   0.831  17.310 -0.3089 -0.8513 -1.2591
 5530SOL     OW28222   0.171   0.065   5.315 -0.1655 -0.1506  0.7245
 5530SOL    HW128223   0.217   4.719   5.303  0.0047  0.2413 -1.3631
 5530SOL    HW228224   0.222   0.100   5.388  2.4655 -0.6603 -0.8759
 5531SOL     OW28225   4.245   1.672  16.457  0.2131  0.3277 -0.4416
 5531SOL    HW128226   4.303   1.737  16.417 -1.5291  1.6546 -0.7914
 5531SOL    HW228227   4.172   1.733  16.468 -0.3966 -0.1336 -1.9414
 5532SOL     OW28228   0.766   2.143   3.914 -0.5042 -0.9730 -0.1518
 5532SOL    HW128229   0.674   2.117   3.919 -1.8035  3.0951 -2.6956
 5532SOL    HW228230   0.789   2.152   3.821  0.7303  1.9986  0.4455
 5533SOL     OW28231   1.080   3.445   5.094  0.1708 -0.2153  0.0551
 5533SOL    HW128232   1.085   3.391   5.015 -0.1831  0.4379 -0.4114
 5533SOL    HW228233   0.986   3.437   5.113  0.3979  1.2486  1.8572
 5534SOL     OW28234   4.065   4.448   7.597 -0.5654  0.2173  0.7613
 5534SOL    HW128235   4.122   4.407   7.662  1.1921  1.3147 -0.0900
 5534SOL    HW228236   3.993   4.385   7.606  0.8727 -1.1271  2.9501
 5535SOL     OW28237   1.610   1.500   1.799  0.1717  0.2194  0.1439
 5535SOL    HW128238   1.679   1.466   1.743  0.0986  0.7311 -0.2518
 5535SOL    HW228239   1.576   1.570   1.744  3.0853 -1.0985 -3.3580
 5536SOL     OW28240   3.047   0.391   9.056  0.1500  0.3957 -0.4879
 5536SOL    HW128241   3.133   0.388   9.015  1.4542 -0.4053  2.2899
 5536SOL    HW228242   3.048   0.311   9.108  3.4961  1.5734  1.3051
 5537SOL     OW28243   0.975   1.722   8.524 -0.3140 -0.4181  0.1705
 5537SOL    HW128244   0.902   1.754   8.471  1.0882  0.8341 -1.0128
 5537SOL    HW228245   0.954   1.629   8.515 -2.0655  0.1379 -1.4287
 5538SOL     OW28246   2.189   4.238  13.723  0.4207  0.8936 -0.3525
 5538SOL    HW128247   2.261   4.229  13.661  2.1873 -3.1274  2.2594
 5538SOL    HW228248   2.115   4.207  13.671 -0.3442 -0.8970  1.8189
 5539SOL     OW28249   1.222   1.988  15.136  0.0731 -0.2976  0.0409
 5539SOL    HW128250   1.170   2.009  15.214  1.8078  2.6773  0.4116
 5539SOL    HW228251   1.240   1.895  15.146  2.3782 -0.0861 -1.9988
 5540SOL     OW28252   0.609   2.019  12.927  0.1629 -0.2271 -0.2324
 5540SOL    HW128253   0.531   2.070  12.949  0.5656  0.2007  0.1984
 5540SOL    HW228254   0.653   2.018  13.011 -0.4220  0.1911  0.0840
 5541SOL     OW28255   1.067   3.474  17.482  0.4970 -0.4544  0.5703
 5541SOL    HW128256   1.013   3.427  17.545  0.3054  1.0077  1.5020
 5541SOL    HW228257   1.098   3.404  17.425 -1.6405 -1.3098  0.4724
 5542SOL     OW28258   4.701   1.587   2.473  0.5324 -0.1289 -0.0076
 5542SOL    HW128259   4.664   1.628   2.395  1.4228 -1.0308 -0.8991
 5542SOL    HW228260   4.652   1.619   2.549 -1.6841 -2.3493 -0.5199
 5543SOL     OW28261   0.325   4.304   4.900  0.2617 -0.1137 -0.1080
 5543SOL    HW128262   0.288   4.225   4.860 -0.3605  0.0741  0.1102
 5543SOL    HW228263   0.393   4.331   4.838  1.3267  0.7713  1.4474
 5544SOL     OW28264   2.502   4.465   7.048 -0.9095  0.3445 -0.2609
 5544SOL    HW128265   2.449   4.435   7.122  2.4129  0.4746  2.1747
 5544SOL    HW228266   2.478   4.397   6.984  1.6907 -1.4876  0.7120
 5545SOL     OW28267   4.729   3.989  13.202 -0.6247  0.0079  0.6188
 5545SOL    HW128268   4.716   4.076  13.238  3.6245  1.0682 -0.3456
 5545SOL    HW228269   4.683   3.938  13.269  0.4599 -1.5332  0.2146
 5546SOL     OW28270   2.229   3.393   7.809  0.2560  0.4880 -0.2015
 5546SOL    HW128271   2.244   3.463   7.745 -1.8468  1.7821  0.7216
 5546SOL    HW228272   2.243   3.314   7.757 -0.2899  1.2696 -1.5208
 5547SOL     OW28273   3.948   0.271   7.176 -0.2484 -0.2268 -0.6528
 5547SOL    HW128274   3.944   0.362   7.205 -2.4157 -0.7445  0.6607
 5547SOL    HW228275   3.854   0.252   7.167 -0.3938 -0.6052  1.7152
 5548SOL     OW28276   2.750   4.738   7.565 -0.2583  0.3324 -0.1038
 5548SOL    HW128277   2.709   0.060   7.627 -1.3964  1.0333 -1.5409
 5548SOL    HW228278   2.841   0.002   7.593  0.0846 -1.3757 -1.0608
 5549SOL     OW28279   3.570   0.609   8.747 -0.0355 -0.6744  0.5301
 5549SOL    HW128280   3.478   0.619   8.770  0.5606  1.0590  2.0975
 5549SOL    HW228281   3.562   0.580   8.656  0.0023  0.9952  0.0010
 5550SOL     OW28282   2.190   0.162   3.684  0.3416  0.8339 -0.6822
 5550SOL    HW128283   2.203   0.068   3.702  0.0757  1.0254  0.4756
 5550SOL    HW228284   2.180   0.152   3.589  3.0961  2.4143 -1.1534
 5551SOL     OW28285   3.710   1.384   6.272 -0.3288  0.1153 -0.1326
 5551SOL    HW128286   3.622   1.401   6.237  1.3414  0.2388 -4.2389
 5551SOL    HW228287   3.691   1.291   6.281  0.3089  0.1434  1.4778
 5552SOL     OW28288   1.628   3.649  16.927  0.3816  0.4336  0.7159
 5552SOL    HW128289   1.549   3.703  16.937  0.8969  1.3829 -0.3267
 5552SOL    HW228290   1.624   3.641  16.832 -0.3520 -1.1767  0.8896
 5553SOL     OW28291   3.359   3.310   4.091  0.3426 -0.2550  0.2891
 5553SOL    HW128292   3.430   3.248   4.102  0.2300 -0.5969 -0.8687
 5553SOL    HW228293   3.283   3.259   4.118  1.8118 -0.9995  2.9849
 5554SOL     OW28294   3.802   0.891   0.930  0.0595 -0.3854 -0.5334
 5554SOL    HW128295   3.716   0.912   0.893  0.0374  0.0052 -0.2607
 5554SOL    HW228296   3.771   0.855   1.013  0.2270  0.4123 -0.1219
 5555SOL     OW28297   3.113   3.516   5.311  0.1878  0.3119  0.1473
 5555SOL    HW128298   3.116   3.600   5.266 -0.4682  0.5387  0.5292
 5555SOL    HW228299   3.124   3.550   5.399 -0.8414  0.3360  0.2738
 5556SOL     OW28300   3.443   2.317   4.101  0.3305  0.1147 -0.4320
 5556SOL    HW128301   3.481   2.382   4.043 -0.9488  0.3186 -1.0517
 5556SOL    HW228302   3.519   2.261   4.115 -0.7583 -1.0530  0.8219
 5557SOL     OW28303   2.204   1.815   4.618  0.1534 -0.2032  0.3653
 5557SOL    HW128304   2.242   1.766   4.545  1.1417 -2.4077  2.3718
 5557SOL    HW228305   2.276   1.832   4.679 -0.4398  0.4087  0.8897
 5558SOL     OW28306   3.955   4.160   9.385  0.6749 -0.0124  0.2414
 5558SOL    HW128307   3.990   4.104   9.316 -0.7956  0.2750 -0.7499
 5558SOL    HW228308   3.866   4.168   9.351 -0.5634 -0.1445  3.4510
 5559SOL     OW28309   3.681   3.442  14.715 -0.2202 -0.9652  0.6017
 5559SOL    HW128310   3.716   3.520  14.759  0.6006 -1.1426  0.2671
 5559SOL    HW228311   3.688   3.476  14.626 -0.9046 -0.5054  0.7219
 5560SOL     OW28312   2.797   0.856   3.238 -0.0108  0.5594 -0.2924
 5560SOL    HW128313   2.878   0.907   3.235  0.9412 -1.1633 -3.3369
 5560SOL    HW228314   2.745   0.909   3.178 -0.6452  1.8735  1.3962
 5561SOL     OW28315   3.330   3.904   3.629  0.5990  0.1889 -0.3051
 5561SOL    HW128316   3.240   3.885   3.656  1.2809 -2.8333 -0.0957
 5561SOL    HW228317   3.372   3.836   3.682 -1.2413  0.9821  2.1687
 5562SOL     OW28318   0.157   3.067   4.719 -0.1419 -0.1101  0.3021
 5562SOL    HW128319   0.122   3.086   4.805 -1.8192 -0.6330 -0.2624
 5562SOL    HW228320   0.249   3.053   4.740  0.0240 -2.7290 -2.1191
 5563SOL     OW28321   0.064   1.558   6.018 -0.3516  0.2089  0.1399
 5563SOL    HW128322   0.131   1.625   6.022 -0.2261  0.1080 -0.3912
 5563SOL    HW228323   0.014   1.563   6.100  5.2342 -0.0186  3.5519
 5564SOL     OW28324   2.820   4.727   8.783 -0.2047  0.3425 -0.5979
 5564SOL    HW128325   2.755   4.672   8.739 -0.5934  1.6364 -1.6688
 5564SOL    HW228326   2.890   4.723   8.719 -1.2000  2.0084 -1.8143
 5565SOL     OW28327   3.948   4.438   3.943 -0.6192 -0.0452  0.2335
 5565SOL    HW128328   3.956   4.519   3.892  0.9392 -0.5362 -0.3059
 5565SOL    HW228329   3.898   4.385   3.881 -1.0964  1.4865 -0.6826
 5566SOL     OW28330   1.608   0.729   9.132 -0.2239  0.1795  0.0836
 5566SOL    HW128331   1.703   0.727   9.138 -0.2905 -1.6038  0.6231
 5566SOL    HW228332   1.588   0.787   9.058 -0.4709  1.2423  0.9810
 5567SOL     OW28333   3.147   0.734  12.736 -0.3952 -0.1127  0.7986
 5567SOL    HW128334   3.228   0.714  12.689  0.7266  1.2572  2.1993
 5567SOL    HW228335   3.102   0.784  12.668  0.9214  0.1610  0.1353
 5568SOL     OW28336   1.726   4.250   5.576 -0.0947  0.3789  0.2165
 5568SOL    HW128337   1.717   4.203   5.659  3.2290 -0.2050  0.2798
 5568SOL    HW228338   1.639   4.283   5.558 -0.0353  1.2747  1.5845
 5569SOL     OW28339   2.720   1.860   6.444 -0.3534  0.1692  0.1963
 5569SOL    HW128340   2.813   1.864   6.465 -0.9491  1.7386  2.4653
 5569SOL    HW228341   2.684   1.861   6.532 -3.3119 -1.0991 -0.9801
 5570SOL     OW28342   3.688   4.139   4.286  0.2251  0.5096  0.0468
 5570SOL    HW128343   3.699   4.156   4.379  0.4132  1.6244 -0.1801
 5570SOL    HW228344   3.775   4.102   4.271 -0.4539 -0.8005 -0.6221
 5571SOL     OW28345   3.455   4.628   9.080  0.7499  0.4120  0.4873
 5571SOL    HW128346   3.454   4.566   9.152 -1.5089 -0.1852 -0.0841
 5571SOL    HW228347   3.368   4.620   9.042 -0.3807 -0.2650  3.2212
 5572SOL     OW28348   0.675   1.845  11.551  0.4158  0.0990  0.7277
 5572SOL    HW128349   0.608   1.784  11.582  0.5808 -0.7003 -0.4735
 5572SOL    HW228350   0.640   1.864  11.464  1.4402 -1.2401  0.0478
 5573SOL     OW28351   3.594   2.627  13.114  0.3687 -0.5101  0.1778
 5573SOL    HW128352   3.617   2.719  13.130  0.5362 -0.4784 -0.2628
 5573SOL    HW228353   3.533   2.653  13.045  0.6658  0.0990  0.1486
 5574SOL     OW28354   4.595   1.088   2.093  0.7823  0.1620 -0.1540
 5574SOL    HW128355   4.663   1.024   2.072 -1.0071 -1.2560 -1.6226
 5574SOL    HW228356   4.648   1.168   2.094  2.2719 -0.8591  1.8937
 5575SOL     OW28357   4.384   0.060   7.291  0.5617  0.2532  0.0137
 5575SOL    HW128358   4.400   0.151   7.316 -0.7602  0.4294  0.1969
 5575SOL    HW228359   4.388   0.022   7.379 -0.6751  0.7375  0.2819
 5576SOL     OW28360   2.812   2.416   0.373 -0.5819 -0.2458  0.2910
 5576SOL    HW128361   2.780   2.469   0.300 -0.1141 -0.1963  0.1264
 5576SOL    HW228362   2.826   2.333   0.327 -0.0295  0.1055 -0.1636
 5577SOL     OW28363   1.717   0.416   7.967 -0.2009 -0.3229  0.4965
 5577SOL    HW128364   1.677   0.452   8.046  0.7059 -0.5587  1.0642
 5577SOL    HW228365   1.762   0.491   7.928  0.2500 -0.7392  0.2271
 5578SOL     OW28366   3.994   3.528   5.956 -0.1202  0.2752  0.5525
 5578SOL    HW128367   4.045   3.567   5.884  1.0797 -0.2207  1.1346
 5578SOL    HW228368   3.905   3.544   5.926 -0.0949  0.2550  0.4645
 5579SOL     OW28369   1.926   1.187   3.521  0.6037  0.1109 -0.2210
 5579SOL    HW128370   1.938   1.114   3.461 -0.7863 -0.5847  0.3474
 5579SOL    HW228371   1.994   1.158   3.581  0.2412 -1.0158 -0.3555
 5580SOL     OW28372   3.077   1.551   1.510 -0.0274 -0.0025  0.1151
 5580SOL    HW128373   3.008   1.558   1.576 -0.4748 -0.2707 -0.3204
 5580SOL    HW228374   3.112   1.463   1.518  0.9115  0.5750  2.4316
 5581SOL     OW28375   1.399   0.534   6.710 -0.1127 -0.3125  0.0951
 5581SOL    HW128376   1.333   0.477   6.750 -2.1139  1.3761 -0.7791
 5581SOL    HW228377   1.333   0.583   6.660 -1.9770 -0.9295  1.9564
 5582SOL     OW28378   0.385   3.124   6.960  0.0893  0.3310  0.0031
 5582SOL    HW128379   0.460   3.180   6.943  0.2594 -0.5190 -1.9681
 5582SOL    HW228380   0.312   3.160   6.910  1.1860  1.4272 -0.7887
 5583SOL     OW28381   1.702   1.744  16.342 -0.4656  0.2844 -0.0615
 5583SOL    HW128382   1.643   1.702  16.404 -0.9534  1.7920  0.4871
 5583SOL    HW228383   1.686   1.839  16.346 -1.7909  0.0433  0.2797
 5584SOL     OW28384   1.783   2.686   9.461 -0.0623  0.5995  0.3774
 5584SOL    HW128385   1.717   2.624   9.429  0.8813  0.8142 -2.0081
 5584SOL    HW228386   1.747   2.769   9.429 -0.5644  0.5429  0.7991
 5585SOL     OW28387   2.485   0.004  12.547  0.5727  0.5397  0.7892
 5585SOL    HW128388   2.392   0.016  12.568  0.3127  1.9153 -1.1297
 5585SOL    HW228389   2.485   4.719  12.454  0.6735  0.6923  0.7514
 5586SOL     OW28390   1.678   3.648   3.040 -0.2837 -0.9676 -0.0090
 5586SOL    HW128391   1.672   3.557   3.008 -1.8382 -1.2571  1.1073
 5586SOL    HW228392   1.708   3.688   2.958 -0.0278 -1.3250 -0.0892
 5587SOL     OW28393   3.308   0.646   4.995 -0.2271  0.1501 -0.1174
 5587SOL    HW128394   3.294   0.731   4.954  0.6419 -1.3725 -3.5358
 5587SOL    HW228395   3.395   0.662   5.032 -1.4207  2.0064  1.8486
 5588SOL     OW28396   2.097   1.033   1.573  0.6544  0.7278  0.2786
 5588SOL    HW128397   2.107   1.025   1.668  1.0354 -1.2516  0.0696
 5588SOL    HW228398   2.009   1.008   1.546  0.3436  3.2096 -1.0653
 5589SOL     OW28399   3.937   1.990   4.460 -0.0622  0.6104 -0.5687
 5589SOL    HW128400   3.843   1.995   4.444  0.0289 -0.1583 -1.3423
 5589SOL    HW228401   3.954   1.899   4.436 -0.6513  0.1320  0.8138
 5590SOL     OW28402   0.826   4.275   9.928  0.5251  0.1075 -0.1374
 5590SOL    HW128403   0.860   4.226  10.002  1.4603 -1.1212 -1.3715
 5590SOL    HW228404   0.904   4.318   9.890  1.1079  1.5403  2.7088
 5591SOL     OW28405   0.804   4.015   3.253  0.0066  0.5632 -0.4665
 5591SOL    HW128406   0.817   3.941   3.312 -1.1046 -0.0454 -0.9788
 5591SOL    HW228407   0.894   4.044   3.244  0.5467 -0.5356  1.4172
 5592SOL     OW28408   2.322   3.898   8.447  0.1082 -0.1668 -0.7916
 5592SOL    HW128409   2.234   3.924   8.421 -0.5488 -1.2842  0.3149
 5592SOL    HW228410   2.301   3.812   8.484 -0.5193  0.4105  0.1773
 5593SOL     OW28411   4.258   3.963  15.218  0.5332 -0.6293 -0.5674
 5593SOL    HW128412   4.269   3.892  15.282 -0.2034 -0.5736 -0.3812
 5593SOL    HW228413   4.172   3.994  15.245 -0.0357 -1.6744 -1.1736
 5594SOL     OW28414   3.144   3.794   2.110  0.3861 -0.0461  0.4703
 5594SOL    HW128415   3.091   3.840   2.044  0.9261 -1.2242 -0.7697
 5594SOL    HW228416   3.196   3.730   2.062  0.7882 -0.2875  1.2316
 5595SOL     OW28417   3.209   3.931   9.017 -0.0764 -0.3032 -0.0582
 5595SOL    HW128418   3.241   4.021   9.013 -1.0055 -0.0007 -0.9941
 5595SOL    HW228419   3.244   3.890   9.096 -1.6773  1.2150  1.4478
 5596SOL     OW28420   2.075   1.417  14.558 -0.1518  0.1422 -0.2785
 5596SOL    HW128421   2.086   1.332  14.514  1.2632  0.0025  0.3480
 5596SOL    HW228422   2.023   1.468  14.496 -0.1778  1.6613  0.9997
 5597SOL     OW28423   1.777   1.970   6.982 -0.2193  0.3381 -0.3021
 5597SOL    HW128424   1.863   1.928   6.968 -0.1100  0.1106  1.0830
 5597SOL    HW228425   1.784   2.012   7.067 -3.3773 -1.5490  0.8620
 5598SOL     OW28426   1.287   0.637  16.162 -0.1325  0.0750 -0.2250
 5598SOL    HW128427   1.366   0.606  16.118 -1.4524  0.8363 -3.1141
 5598SOL    HW228428   1.237   0.673  16.089 -1.4238 -2.3880 -0.5552
 5599SOL     OW28429   1.928   3.940   0.700  0.4672  0.3318  0.1371
 5599SOL    HW128430   1.940   3.847   0.679 -0.6583 -0.6135  3.6757
 5599SOL    HW228431   1.852   3.928   0.757  0.9836 -1.9704  0.3769
 5600SOL     OW28432   3.375   2.806   3.926 -0.1270  0.6227  0.3278
 5600SOL    HW128433   3.371   2.831   4.018 -0.0288  0.7774  0.2915
 5600SOL    HW228434   3.291   2.761   3.917  0.4740 -0.2527 -0.8261
 5601SOL     OW28435   1.321   2.303   2.642  0.5299 -0.8136 -0.6247
 5601SOL    HW128436   1.358   2.381   2.602 -2.1083  0.6828 -0.1521
 5601SOL    HW228437   1.304   2.254   2.561  1.6059 -1.1688 -0.6361
 5602SOL     OW28438   0.717   0.156  17.344  0.3428 -0.2534  0.6596
 5602SOL    HW128439   0.706   0.159  17.249  2.3870  0.7860  0.4403
 5602SOL    HW228440   0.652   0.219  17.374  1.1875  0.2410  1.4605
 5603SOL     OW28441   0.163   3.342  14.947 -0.7061  0.6410 -0.3990
 5603SOL    HW128442   0.104   3.329  14.872 -1.7332  1.7854  0.2096
 5603SOL    HW228443   0.103   3.326  15.019  2.8209 -1.0326  2.1551
 5604SOL     OW28444   2.395   2.481   6.609  0.2257 -0.4676  0.0704
 5604SOL    HW128445   2.363   2.493   6.698  0.3695  0.1391  0.0357
 5604SOL    HW228446   2.402   2.572   6.582  0.1466 -0.6276 -0.4991
 5605SOL     OW28447   0.531   3.966  17.337  0.6506 -0.0324 -0.0089
 5605SOL    HW128448   0.566   3.944  17.251 -2.3848  0.9315 -1.5142
 5605SOL    HW228449   0.599   3.942  17.399  0.5878 -0.7348 -0.2069
 5606SOL     OW28450   3.171   4.451  13.576  0.0760 -0.3133 -0.2490
 5606SOL    HW128451   3.133   4.434  13.662 -0.5821  0.9710 -0.2942
 5606SOL    HW228452   3.235   4.520  13.593  1.3163 -1.6707  0.6943
 5607SOL     OW28453   1.207   3.713   9.382 -0.4343 -0.3760 -0.0097
 5607SOL    HW128454   1.152   3.682   9.310 -1.7011 -0.7976  1.1217
 5607SOL    HW228455   1.152   3.767   9.439 -0.5252  1.0743 -1.4699
 5608SOL     OW28456   3.112   2.227   4.553  0.8471  0.3850 -0.1193
 5608SOL    HW128457   3.194   2.250   4.597 -0.5892  1.8630  1.7918
 5608SOL    HW228458   3.048   2.231   4.624  0.8167 -0.5942 -0.1025
 5609SOL     OW28459   2.565   0.575   3.562  0.6376  0.9562  0.7642
 5609SOL    HW128460   2.515   0.495   3.548  2.4762 -0.2985  1.2318
 5609SOL    HW228461   2.583   0.599   3.471  1.2981 -0.5488  0.5046
 5610SOL     OW28462   3.043   2.981   8.884 -0.0041 -0.4197  0.0110
 5610SOL    HW128463   2.984   2.986   8.809 -1.2282  0.7966  1.0595
 5610SOL    HW228464   3.087   2.900   8.858  1.8091  0.6992 -0.4126
 5611SOL     OW28465   0.394   4.364   3.893  0.6740  0.3892 -0.1006
 5611SOL    HW128466   0.466   4.314   3.854  0.3054 -0.0517 -0.2198
 5611SOL    HW228467   0.429   4.453   3.887 -0.3776  0.7376 -1.1156
 5612SOL     OW28468   2.089   0.352   2.440  0.2832 -0.3104 -0.3957
 5612SOL    HW128469   1.994   0.343   2.448  0.7263 -3.3107  1.1634
 5612SOL    HW228470   2.099   0.397   2.356  1.9077  0.0125 -0.0326
 5613SOL     OW28471   4.000   0.901  13.561 -0.4921 -0.2933  0.3284
 5613SOL    HW128472   3.909   0.927  13.568 -0.3916  0.1585 -0.0355
 5613SOL    HW228473   4.048   0.983  13.573  0.2126 -0.6322 -0.1419
 5614SOL     OW28474   1.900   4.332  17.655  0.0006  0.1953 -0.5442
 5614SOL    HW128475   1.972   4.381  17.694  1.1369 -2.5661  0.8091
 5614SOL    HW228476   1.837   4.324  17.727  0.2145  0.3723 -0.3387
 5615SOL     OW28477   1.610   1.381  11.089 -0.0129  0.3556 -0.0139
 5615SOL    HW128478   1.539   1.325  11.120  0.8235 -0.6841  0.0518
 5615SOL    HW228479   1.687   1.334  11.122 -1.5175 -2.8571 -1.1125
 5616SOL     OW28480   4.680   0.727  13.789  0.2312 -0.1935 -0.5843
 5616SOL    HW128481   0.004   0.658  13.811 -2.1586 -1.8803  0.8113
 5616SOL    HW228482   4.635   0.739  13.872  1.7443 -2.0361  0.4919
 5617SOL     OW28483   3.287   2.526   7.879 -0.6284  0.9766 -0.8570
 5617SOL    HW128484   3.339   2.469   7.936 -0.5379  1.9713  0.0625
 5617SOL    HW228485   3.260   2.599   7.934  0.2180  0.8314 -0.2504
 5618SOL     OW28486   3.243   2.016   4.926  0.0321 -0.5237 -0.0260
 5618SOL    HW128487   3.310   2.083   4.939  0.6180 -1.1096 -0.0377
 5618SOL    HW228488   3.299   1.951   4.884 -2.6679 -1.6021 -1.9644
 5619SOL     OW28489   1.239   0.876   3.756  0.4571  0.0776  0.4360
 5619SOL    HW128490   1.318   0.837   3.793  1.9783  2.8702  0.0860
 5619SOL    HW228491   1.237   0.961   3.799  1.3951  0.6423 -0.6338
 5620SOL     OW28492   1.629   0.960   5.914 -0.1800 -0.0820  0.1185
 5620SOL    HW128493   1.709   0.950   5.862 -1.1680  1.0586 -1.6077
 5620SOL    HW228494   1.568   0.986   5.846  1.0648 -0.3599 -1.0922
 5621SOL     OW28495   1.036   1.116   4.209 -1.0166 -0.0928  0.5864
 5621SOL    HW128496   1.056   1.023   4.212  2.3234  0.6060 -0.1250
 5621SOL    HW228497   0.949   1.109   4.249 -1.0627 -2.8865  0.0074
 5622SOL     OW28498   1.104   1.959   1.453  0.1677  0.1498  0.6121
 5622SOL    HW128499   1.093   1.874   1.411  1.6131 -0.1476  0.8258
 5622SOL    HW228500   1.123   1.946   1.545 -1.5882  0.1227  0.9663
 5623SOL     OW28501   3.882   3.792   8.406  0.0587  0.1449 -0.1569
 5623SOL    HW128502   3.849   3.708   8.373 -3.7997  0.7557  2.0916
 5623SOL    HW228503   3.950   3.810   8.341 -0.2904 -0.7720 -0.7773
 5624SOL     OW28504   2.208   3.706   9.308 -0.3225 -0.4057 -0.1511
 5624SOL    HW128505   2.177   3.638   9.368 -0.3247 -0.5265 -0.2913
 5624SOL    HW228506   2.154   3.780   9.336 -1.4915 -0.4948 -2.2385
 5625SOL     OW28507   0.695   0.023   5.739  0.2911 -0.4930  0.4576
 5625SOL    HW128508   0.745   0.101   5.763  1.7046 -1.4935  0.7941
 5625SOL    HW228509   0.736   4.696   5.796  0.5762 -1.2164 -0.5570
 5626SOL     OW28510   4.272   1.208  15.385  0.2081  0.1254 -0.3392
 5626SOL    HW128511   4.187   1.209  15.429 -1.0284  0.0491 -2.7657
 5626SOL    HW228512   4.329   1.218  15.461 -1.0460 -0.0395  0.6361
 5627SOL     OW28513   1.992   2.239   9.494 -0.2266  0.1799  0.1331
 5627SOL    HW128514   1.925   2.281   9.548  0.0084 -2.6480  2.6289
 5627SOL    HW228515   2.065   2.300   9.503 -0.5327  0.5281  0.2986
 5628SOL     OW28516   1.447   3.720   9.213 -0.2946  0.3297  0.1436
 5628SOL    HW128517   1.533   3.750   9.243 -0.1782  0.2529 -0.1096
 5628SOL    HW228518   1.384   3.716   9.285 -0.2563 -4.2663 -0.0968
 5629SOL     OW28519   1.318   4.114   8.002  0.0425 -0.4199 -0.0129
 5629SOL    HW128520   1.225   4.118   8.024 -0.0540  0.1634 -0.5151
 5629SOL    HW228521   1.308   4.168   7.924 -1.4524  0.2737  0.6620
 5630SOL     OW28522   0.383   1.692   3.650  0.1871 -0.2493  0.4871
 5630SOL    HW128523   0.404   1.638   3.726  1.5372  1.1587  1.1191
 5630SOL    HW228524   0.406   1.630   3.581  1.1359  2.2823 -1.4422
 5631SOL     OW28525   2.703   3.769   7.266 -0.8623 -0.0193 -0.0469
 5631SOL    HW128526   2.742   3.754   7.180 -0.5980  3.5500 -0.5394
 5631SOL    HW228527   2.776   3.790   7.323  0.7867 -1.9478 -1.4569
 5632SOL     OW28528   1.162   1.282   8.305 -0.4728  0.1712  0.3211
 5632SOL    HW128529   1.185   1.372   8.329  0.5293  0.7728 -2.8949
 5632SOL    HW228530   1.231   1.275   8.239  0.6593 -2.3240  1.7743
 5633SOL     OW28531   3.839   1.701   9.401  0.0893  0.0380  0.4072
 5633SOL    HW128532   3.822   1.757   9.326  0.7393 -0.7215 -0.3022
 5633SOL    HW228533   3.863   1.770   9.464 -0.3728 -0.9544  1.6766
 5634SOL     OW28534   4.321   4.382   7.912 -0.2743 -0.0857 -0.0880
 5634SOL    HW128535   4.405   4.403   7.954 -0.9510  1.7959  0.3234
 5634SOL    HW228536   4.258   4.417   7.975 -3.0529 -0.7186 -2.5113
 5635SOL     OW28537   2.979   3.507   9.460  0.1641 -0.5330  0.1162
 5635SOL    HW128538   3.074   3.494   9.469  0.5255  0.2892 -2.6077
 5635SOL    HW228539   2.940   3.440   9.516 -0.7494  1.1144  1.4893
 5636SOL     OW28540   0.805   1.381  15.473  0.1871 -0.1671 -0.1049
 5636SOL    HW128541   0.858   1.356  15.398 -2.3571 -0.1639 -1.9211
 5636SOL    HW228542   0.841   1.315  15.532  2.9928 -1.1684 -3.0023
 5637SOL     OW28543   0.674   0.553   4.627 -0.2997 -0.9175 -0.0361
 5637SOL    HW128544   0.745   0.516   4.575 -1.7895 -0.8496 -2.1109
 5637SOL    HW228545   0.699   0.644   4.645 -2.2409 -0.6403  1.3379
 5638SOL     OW28546   1.545   0.250   3.772  0.2430 -0.2989 -0.1501
 5638SOL    HW128547   1.478   0.192   3.736  0.8486 -1.4932  0.6414
 5638SOL    HW228548   1.580   0.279   3.688 -0.5614 -0.8469 -0.6778
 5639SOL     OW28549   1.119   3.944   7.727  0.1210 -0.6412  0.2097
 5639SOL    HW128550   1.142   3.956   7.635  0.0931 -0.8269  0.1781
 5639SOL    HW228551   1.033   3.902   7.730  0.3855 -1.3652 -2.0191
 5640SOL     OW28552   4.693   4.471  13.656 -0.1675 -0.0282 -0.9237
 5640SOL    HW128553   0.016   4.411  13.612  2.7594  0.6280  2.2183
 5640SOL    HW228554   4.618   4.414  13.675  0.4494 -0.9742 -1.2875
 5641SOL     OW28555   3.592   0.363   5.197  0.2300 -0.1327 -0.0457
 5641SOL    HW128556   3.597   0.275   5.234  2.7758 -0.0669 -0.2214
 5641SOL    HW228557   3.503   0.387   5.222 -0.2098  0.1877 -1.9247
 5642SOL     OW28558   0.316   2.155   8.185  0.0890  0.3189  0.2272
 5642SOL    HW128559   0.228   2.119   8.196  0.8635 -1.5731  0.2544
 5642SOL    HW228560   0.320   2.127   8.094  1.1108  1.2470 -0.0142
 5643SOL     OW28561   4.589   4.331  12.436 -0.0466 -0.0302  0.5879
 5643SOL    HW128562   4.669   4.358  12.481 -0.4938  2.3201  0.0047
 5643SOL    HW228563   4.522   4.331  12.505 -1.1749  1.9159 -0.5109
 5644SOL     OW28564   4.244   2.151  12.825  0.1489  0.0562 -1.0477
 5644SOL    HW128565   4.158   2.168  12.786 -1.3704 -1.6916  1.4963
 5644SOL    HW228566   4.239   2.057  12.842  1.3256  0.0417 -0.7553
 5645SOL     OW28567   1.971   4.489  13.108 -0.0308 -0.4939 -0.4302
 5645SOL    HW128568   1.977   4.400  13.144  1.1986 -0.7277 -1.2166
 5645SOL    HW228569   1.916   4.539  13.169 -0.5973 -1.5693 -0.0696
 5646SOL     OW28570   2.936   1.200   5.238  0.2227  0.8083 -0.3500
 5646SOL    HW128571   3.031   1.206   5.243  0.3253 -1.9013  1.2142
 5646SOL    HW228572   2.903   1.290   5.240  0.2483  0.8246 -0.6469
 5647SOL     OW28573   0.467   1.313   7.325  0.3787 -0.1137  0.3619
 5647SOL    HW128574   0.425   1.340   7.406  0.5980  0.7735  0.1770
 5647SOL    HW228575   0.399   1.260   7.282  0.8870 -0.6935  0.2766
 5648SOL     OW28576   2.149   2.012   3.071 -0.1067 -0.1878 -0.1268
 5648SOL    HW128577   2.188   2.045   2.990  0.3855  1.5741  0.8180
 5648SOL    HW228578   2.201   1.936   3.097 -0.0913 -0.1770 -0.1259
 5649SOL     OW28579   2.890   1.766   0.613 -0.2258 -0.0597  0.0845
 5649SOL    HW128580   2.861   1.830   0.547  0.4336 -0.3910 -0.5213
 5649SOL    HW228581   2.809   1.757   0.664  0.4703  1.9823  1.5281
 5650SOL     OW28582   2.530   0.182   5.536  0.1648  0.1506  0.4458
 5650SOL    HW128583   2.508   0.175   5.443  1.8643  3.8177 -0.2237
 5650SOL    HW228584   2.493   0.270   5.547  0.6479  0.4072  0.0017
 5651SOL     OW28585   1.118   0.860   7.795 -0.3836 -0.7059 -0.0060
 5651SOL    HW128586   1.154   0.878   7.882 -2.9710  0.8936  0.7268
 5651SOL    HW228587   1.180   0.900   7.734 -1.2680 -0.7575 -0.9440
 5652SOL     OW28588   0.227   3.811   7.191  0.7949 -0.2939 -0.2811
 5652SOL    HW128589   0.193   3.852   7.112 -1.5124  0.9041  1.3431
 5652SOL    HW228590   0.157   3.750   7.215  2.3248 -0.2627  4.1939
 5653SOL     OW28591   0.001   2.338   7.128  0.3693  0.0168 -0.4768
 5653SOL    HW128592   4.713   2.418   7.174  0.8264 -0.1889  0.1350
 5653SOL    HW228593   4.658   2.299   7.094  0.9144 -1.1446 -0.4657
 5654SOL     OW28594   2.243   1.844   8.830 -0.1264 -0.0999 -0.2470
 5654SOL    HW128595   2.225   1.772   8.769 -0.6307 -0.0863 -0.1064
 5654SOL    HW228596   2.197   1.913   8.782  0.5541  0.6678  0.2079
 5655SOL     OW28597   0.588   0.017  14.710  0.5283 -0.2264  0.1132
 5655SOL    HW128598   0.664   0.016  14.652  0.8339 -0.5839  0.5288
 5655SOL    HW228599   0.623   4.709  14.786 -1.1131 -1.2184  0.2903
 5656SOL     OW28600   3.780   0.456   9.337 -0.0119  0.9598  0.1788
 5656SOL    HW128601   3.863   0.456   9.385 -0.3475 -1.1033  0.7454
 5656SOL    HW228602   3.756   0.369   9.368  0.7089 -0.2327 -2.6698
 5657SOL     OW28603   0.113   2.110   1.807 -0.0555  0.1924  0.0916
 5657SOL    HW128604   0.152   2.186   1.851 -0.3083  0.0313  0.6006
 5657SOL    HW228605   0.139   2.126   1.716 -1.5603  0.1775 -0.3333
 5658SOL     OW28606   1.016   0.255   4.822  0.1487  0.1987 -0.1571
 5658SOL    HW128607   1.028   0.178   4.766 -0.8419 -0.6845  0.8471
 5658SOL    HW228608   0.922   0.244   4.838  0.0416  1.2626 -0.0334
 5659SOL     OW28609   3.552   4.554   3.809 -0.0546  0.1649 -0.4060
 5659SOL    HW128610   3.547   4.472   3.760 -4.0980 -0.5200  1.1534
 5659SOL    HW228611   3.582   4.519   3.893  1.0000 -0.9648 -1.2531
 5660SOL     OW28612   0.631   1.364  11.065  0.3763  0.3105  0.3455
 5660SOL    HW128613   0.692   1.295  11.038  1.8239  1.5512  0.4017
 5660SOL    HW228614   0.544   1.324  11.059  0.3470  0.4935 -0.4788
 5661SOL     OW28615   0.266   2.257  13.913  0.5501  0.1731 -0.0711
 5661SOL    HW128616   0.240   2.270  13.821  2.7869 -2.2990 -1.0477
 5661SOL    HW228617   0.239   2.168  13.933  1.7298  0.3228  2.1500
 5662SOL     OW28618   1.505   2.139  13.887  0.0368  0.3492 -0.2869
 5662SOL    HW128619   1.469   2.185  13.964  0.1387  1.6095 -0.9836
 5662SOL    HW228620   1.485   2.204  13.820  0.0641  0.9293  0.2626
 5663SOL     OW28621   3.451   0.375  16.792  0.0638 -0.0640  0.0769
 5663SOL    HW128622   3.486   0.443  16.734  0.5673 -0.9273 -0.6244
 5663SOL    HW228623   3.514   0.385  16.863 -0.1805 -4.1322  0.8446
 5664SOL     OW28624   2.849   3.315   8.155  0.3539 -0.3856  0.2298
 5664SOL    HW128625   2.786   3.299   8.085  3.2254 -1.0363 -2.2289
 5664SOL    HW228626   2.789   3.355   8.217 -0.7443 -0.7296 -0.6222
 5665SOL     OW28627   0.642   3.783   9.735 -0.0033  0.0114 -0.5787
 5665SOL    HW128628   0.578   3.841   9.693  2.0371  1.6505 -1.4520
 5665SOL    HW228629   0.597   3.747   9.812 -1.9045  0.0852 -1.6459
 5666SOL     OW28630   3.714   4.705   5.776 -0.1023 -0.2210  0.2537
 5666SOL    HW128631   3.708   4.611   5.758  1.5211 -0.7325  2.3966
 5666SOL    HW228632   3.648   4.710   5.845  0.9746 -3.1460  1.4865
 5667SOL     OW28633   0.392   1.615   2.855  0.0068 -0.0201 -0.3639
 5667SOL    HW128634   0.384   1.521   2.837 -1.3198  0.2798 -1.3086
 5667SOL    HW228635   0.307   1.627   2.898 -1.0950  0.0148 -2.5572
 5668SOL     OW28636   1.285   2.993   2.291 -0.9462  0.1722  0.0870
 5668SOL    HW128637   1.288   3.084   2.261 -0.8619 -0.5528 -2.0993
 5668SOL    HW228638   1.238   2.954   2.217 -1.0141  0.9853 -0.3046
 5669SOL     OW28639   2.435   3.707   1.504  0.4713  0.4971 -0.0447
 5669SOL    HW128640   2.354   3.658   1.495 -0.0375  1.1067  1.1770
 5669SOL    HW228641   2.494   3.643   1.464  0.9952  0.3187  1.0046
 5670SOL     OW28642   2.880   2.324  12.383 -0.4739  0.2194  0.0616
 5670SOL    HW128643   2.810   2.261  12.366  0.6080 -0.8101 -0.5774
 5670SOL    HW228644   2.946   2.269  12.426 -1.1365 -0.8408 -0.2806
 5671SOL     OW28645   0.788   4.560   5.880  0.1329  0.1959 -0.1576
 5671SOL    HW128646   0.844   4.485   5.901  0.7296  0.2664 -1.5220
 5671SOL    HW228647   0.707   4.526   5.917 -0.2924  0.6693 -0.6544
 5672SOL     OW28648   2.433   4.496   6.437 -0.1423 -0.2380 -0.2915
 5672SOL    HW128649   2.462   4.432   6.372 -0.5759  0.0538 -0.7737
 5672SOL    HW228650   2.344   4.520   6.409 -0.5943 -0.4657  0.9362
 5673SOL     OW28651   1.483   3.967   1.106 -0.0621  0.3151  0.1564
 5673SOL    HW128652   1.445   3.895   1.056  0.5205  0.7286 -0.8866
 5673SOL    HW228653   1.408   4.012   1.145  1.0925  0.6231  2.0056
 5674SOL     OW28654   2.639   1.272   3.790  0.0902  0.6740 -0.0898
 5674SOL    HW128655   2.573   1.215   3.750 -0.0679  0.5682  0.3193
 5674SOL    HW228656   2.715   1.213   3.783 -0.8858 -0.6776  0.5835
 5675SOL     OW28657   4.684   4.167   4.939 -0.2203  0.0617 -0.1927
 5675SOL    HW128658   4.655   4.084   4.975  1.5115 -0.1944  0.5701
 5675SOL    HW228659   0.022   4.172   4.997 -0.1666 -1.9352 -0.1015
 5676SOL     OW28660   4.186   1.484   7.169  0.6342 -0.1214  0.1806
 5676SOL    HW128661   4.273   1.464   7.135  0.5757  0.0846 -0.0868
 5676SOL    HW228662   4.205   1.474   7.263 -0.5500  2.1488  0.6796
 5677SOL     OW28663   0.272   4.422   8.708 -0.0494 -0.2372 -0.5406
 5677SOL    HW128664   0.259   4.502   8.759  0.4255 -1.6453  1.8091
 5677SOL    HW228665   0.187   4.393   8.677 -0.2990  0.7621 -0.7985
 5678SOL     OW28666   2.640   0.896   6.726 -0.4091 -0.6214  0.2255
 5678SOL    HW128667   2.695   0.866   6.654  0.5720  0.7602  0.4050
 5678SOL    HW228668   2.560   0.928   6.684  0.3265  1.9555  0.7875
 5679SOL     OW28669   0.031   1.333   9.037 -0.3876 -0.3079  0.2346
 5679SOL    HW128670   0.082   1.414   9.031 -0.7550 -0.3743 -3.4003
 5679SOL    HW228671   4.685   1.361   9.003 -1.4574  0.1375  3.2167
 5680SOL     OW28672   2.285   2.939   4.890 -0.8559 -0.3101 -0.3284
 5680SOL    HW128673   2.298   2.845   4.903 -0.1125 -0.0243  0.9873
 5680SOL    HW228674   2.373   2.959   4.858 -0.4894 -1.0241  0.2342
 5681SOL     OW28675   0.896   2.448   4.573  0.2445 -0.5578 -0.1203
 5681SOL    HW128676   0.807   2.416   4.553  0.4334 -1.4160  0.3832
 5681SOL    HW228677   0.937   2.476   4.492 -2.6063 -0.5977 -1.5882
 5682SOL     OW28678   2.597   3.491   9.669  0.8910  0.5392 -0.6585
 5682SOL    HW128679   2.669   3.552   9.683  1.7937 -0.8575  0.7337
 5682SOL    HW228680   2.582   3.447   9.752 -0.3238  1.8404 -0.1776
 5683SOL     OW28681   4.114   0.785  14.040 -0.3117  0.5526 -0.1108
 5683SOL    HW128682   4.117   0.774  13.945  0.2840 -0.4692  0.0249
 5683SOL    HW228683   4.139   0.877  14.044  3.8719 -0.4896 -2.1165
 5684SOL     OW28684   4.224   4.233   0.064  0.7821 -0.6014  0.1980
 5684SOL    HW128685   4.308   4.243   0.018  1.1744  0.1331  1.0597
 5684SOL    HW228686   4.177   4.306   0.024 -0.6121 -1.3566  0.4695
 5685SOL     OW28687   2.204   0.930   2.381 -0.6990 -0.1714 -0.5042
 5685SOL    HW128688   2.135   0.864   2.377 -1.3618  0.4914 -0.0172
 5685SOL    HW228689   2.217   0.920   2.475  3.7896 -0.7703 -1.2237
 5686SOL     OW28690   0.250   0.734  13.159  0.1648 -0.5655  0.3661
 5686SOL    HW128691   0.253   0.791  13.082 -3.0973  0.9982  1.4149
 5686SOL    HW228692   0.179   0.674  13.135  1.7904 -2.3209 -0.1009
 5687SOL     OW28693   0.658   2.527   8.418 -0.6778 -0.6395 -0.5014
 5687SOL    HW128694   0.629   2.443   8.382 -0.6295 -0.5830 -0.6720
 5687SOL    HW228695   0.713   2.556   8.345  1.9752  0.6778  2.0401
 5688SOL     OW28696   3.918   4.280   5.382 -0.3813  0.0801 -0.3447
 5688SOL    HW128697   3.992   4.260   5.439 -1.0838  0.8684  0.8456
 5688SOL    HW228698   3.891   4.190   5.361 -3.0806  0.6490  0.6295
 5689SOL     OW28699   3.663   0.211   3.996 -0.0995 -0.4401 -0.4804
 5689SOL    HW128700   3.658   0.124   3.957  0.7088 -0.7351  0.0700
 5689SOL    HW228701   3.756   0.223   4.014 -0.0943  0.5512 -1.1451
 5690SOL     OW28702   4.536   1.632   2.247  0.5168 -0.7786 -0.2679
 5690SOL    HW128703   4.581   1.634   2.162 -1.1563  0.0036 -1.1261
 5690SOL    HW228704   4.474   1.704   2.244  0.6327 -0.5263  3.1213
 5691SOL     OW28705   3.320   2.526   6.034 -0.0395  0.4115 -0.0826
 5691SOL    HW128706   3.395   2.504   5.979 -0.8092 -1.8759 -0.2161
 5691SOL    HW228707   3.297   2.440   6.069 -0.9917  0.5813 -0.2841
 5692SOL     OW28708   1.916   3.472  12.785 -0.0758  0.0939 -0.0332
 5692SOL    HW128709   1.864   3.552  12.793 -2.3310 -1.4929  1.2771
 5692SOL    HW228710   1.908   3.444  12.694 -0.5390 -0.6161  0.2255
 5693SOL     OW28711   0.582   1.484  15.368  0.0544 -0.6343 -0.0061
 5693SOL    HW128712   0.658   1.452  15.416  0.7855  0.9420 -0.1191
 5693SOL    HW228713   0.635   1.512  15.293 -0.2294 -1.0905 -0.3815
 5694SOL     OW28714   0.153   4.031  12.463  0.2159 -0.3049 -0.5986
 5694SOL    HW128715   0.106   4.006  12.543  1.5859  1.8808  0.8972
 5694SOL    HW228716   0.189   4.111  12.500 -1.1806  0.1285 -0.1758
 5695SOL     OW28717   1.432   1.919   6.442  0.8426  0.6899 -0.3206
 5695SOL    HW128718   1.439   1.918   6.538 -0.8511 -1.1010 -0.2086
 5695SOL    HW228719   1.521   1.902   6.411  0.0549  0.1271 -2.2695
 5696SOL     OW28720   1.525   0.122   2.649  0.2972  0.3006 -0.0321
 5696SOL    HW128721   1.595   0.099   2.589  1.1864  0.3852  0.9579
 5696SOL    HW228722   1.533   0.216   2.633 -2.0150 -0.0874 -3.3897
 5697SOL     OW28723   4.194   2.312  10.278  0.0633  0.0840  0.1376
 5697SOL    HW128724   4.281   2.274  10.261  0.0641  0.8281 -1.5016
 5697SOL    HW228725   4.161   2.237  10.328  1.7290 -0.9537 -0.3091
 5698SOL     OW28726   1.462   0.698   9.610 -0.1564 -0.3927  0.2480
 5698SOL    HW128727   1.491   0.671   9.523  0.6199 -0.6500  0.5828
 5698SOL    HW228728   1.367   0.687   9.608 -0.4404  2.2972 -2.1420
 5699SOL     OW28729   2.412   2.773   2.051 -0.8051 -0.3012 -0.6251
 5699SOL    HW128730   2.444   2.857   2.085  0.2372 -0.6352 -0.7748
 5699SOL    HW228731   2.398   2.727   2.134  2.3431  0.4575  0.3445
 5700SOL     OW28732   4.048   0.342   2.754  0.2133  0.2476  0.1667
 5700SOL    HW128733   4.023   0.427   2.792 -2.9606 -1.5678  2.1178
 5700SOL    HW228734   4.089   0.302   2.831 -2.9137  1.1866  2.3207
 5701SOL     OW28735   3.904   3.317   0.012  0.7086 -0.3628 -0.0708
 5701SOL    HW128736   3.941   3.242  17.716  1.1888 -0.5715  0.6436
 5701SOL    HW228737   3.917   3.290   0.103  2.5021  1.3611  0.1945
 5702SOL     OW28738   1.085   3.598   2.057  0.4107  0.1150  0.3071
 5702SOL    HW128739   1.076   3.532   1.988  0.8088 -0.0970  0.4558
 5702SOL    HW228740   0.993   3.610   2.078  0.3361  0.5982 -0.2907
 5703SOL     OW28741   1.979   2.625  12.175  0.0769  0.0265  0.5603
 5703SOL    HW128742   1.947   2.678  12.247 -2.2432 -0.7050  0.0625
 5703SOL    HW228743   2.062   2.672  12.171 -0.3136  0.6695 -0.0371
 5704SOL     OW28744   3.469   3.082   3.189  1.2234 -0.2710 -0.0349
 5704SOL    HW128745   3.514   3.006   3.153 -2.5392 -0.9384 -3.3610
 5704SOL    HW228746   3.532   3.152   3.204  1.5131 -0.4114 -0.6020
 5705SOL     OW28747   4.432   2.924  15.122 -0.1282  0.2165  0.1089
 5705SOL    HW128748   4.483   2.850  15.089 -3.8308 -1.7465 -1.2766
 5705SOL    HW228749   4.448   2.898  15.213 -2.6927  2.0047  1.0558
 5706SOL     OW28750   1.183   2.711   2.603  0.0800 -0.0151  0.3164
 5706SOL    HW128751   1.133   2.655   2.543 -0.7545  0.2896  0.7273
 5706SOL    HW228752   1.197   2.648   2.674  2.0453  0.0688  0.0227
 5707SOL     OW28753   1.650   4.486   1.780 -0.1269  0.4566 -0.2475
 5707SOL    HW128754   1.672   4.411   1.835  0.0113  0.1492 -0.7249
 5707SOL    HW228755   1.577   4.531   1.823 -0.5180 -2.4577  2.1898
 5708SOL     OW28756   4.360   3.562   7.440 -0.2192  0.6759 -0.6605
 5708SOL    HW128757   4.292   3.586   7.377 -2.8724 -3.0606  0.7827
 5708SOL    HW228758   4.381   3.653   7.464 -1.9162  1.3244 -1.5727
 5709SOL     OW28759   4.440   0.804  10.250  0.2358  0.2041  0.1763
 5709SOL    HW128760   4.506   0.856  10.205  1.6237 -2.8927 -1.3811
 5709SOL    HW228761   4.488   0.732  10.291 -1.1705 -0.8319  0.0182
 5710SOL     OW28762   3.123   2.426   2.666 -0.3067 -0.1421 -0.4897
 5710SOL    HW128763   3.197   2.428   2.605  0.1591 -1.0356  0.0391
 5710SOL    HW228764   3.084   2.510   2.645  0.4051  0.7947  1.9817
 5711SOL     OW28765   1.566   4.089   2.288  0.1648  0.5396  0.1793
 5711SOL    HW128766   1.492   4.046   2.245  0.7552  1.4096 -1.7301
 5711SOL    HW228767   1.512   4.135   2.352 -1.2824 -0.7505 -0.1101
 5712SOL     OW28768   1.870   4.381  16.462 -0.0329 -0.3087  0.4895
 5712SOL    HW128769   1.774   4.384  16.465 -0.0584 -0.4304 -0.2953
 5712SOL    HW228770   1.876   4.319  16.534  0.7221 -0.2910  0.4442
 5713SOL     OW28771   3.225   0.103   0.568  0.6931  0.3772  0.6010
 5713SOL    HW128772   3.203   0.173   0.506  1.1525  0.5951  0.6816
 5713SOL    HW228773   3.141   0.057   0.576  0.2139  0.7629 -2.3093
 5714SOL     OW28774   4.658   0.388   3.771 -0.4827 -0.0432 -0.1381
 5714SOL    HW128775   4.615   0.473   3.770  0.6550  0.5338 -0.1055
 5714SOL    HW228776   0.013   0.406   3.784 -0.0385 -0.1430 -3.1374
 5715SOL     OW28777   1.325   0.817   5.386  0.1962  0.0577 -0.9389
 5715SOL    HW128778   1.320   0.849   5.296 -0.8249  0.6547 -0.6779
 5715SOL    HW228779   1.417   0.791   5.393  0.1682 -0.2350 -1.6948
 5716SOL     OW28780   0.261   3.190   4.397 -0.6154 -0.2753  0.0171
 5716SOL    HW128781   0.185   3.133   4.411 -1.1423  0.5341  0.4835
 5716SOL    HW228782   0.225   3.279   4.401  0.1321  0.0546 -0.4202
 5717SOL     OW28783   3.788   1.139   9.059 -0.3354  0.1162 -0.0724
 5717SOL    HW128784   3.706   1.153   9.107 -0.9835 -3.4597 -0.1586
 5717SOL    HW228785   3.831   1.065   9.101 -1.6736 -1.4461 -1.4551
 5718SOL     OW28786   2.497   2.490   7.586 -0.4474 -0.3141 -0.4970
 5718SOL    HW128787   2.488   2.409   7.536  1.6692 -1.1680  0.4662
 5718SOL    HW228788   2.555   2.456   7.655  0.5212 -1.5693 -1.9331
 5719SOL     OW28789   1.529   0.999   7.390 -0.2885 -0.5765  0.3411
 5719SOL    HW128790   1.540   1.067   7.323  0.6322 -2.9062 -1.8799
 5719SOL    HW228791   1.451   0.950   7.364 -1.9454  1.7175  1.0165
 5720SOL     OW28792   3.598   3.204  14.615 -0.5371 -0.3888  0.8864
 5720SOL    HW128793   3.509   3.215  14.583  0.2367  0.7770 -0.8619
 5720SOL    HW228794   3.606   3.287  14.662 -1.6651  1.0662 -1.5489
 5721SOL     OW28795   2.594   4.737   6.024 -0.4997 -0.4294  0.7421
 5721SOL    HW128796   2.586   4.663   5.964  4.0999  0.0239 -0.4294
 5721SOL    HW228797   2.582   0.074   5.966 -1.9499 -0.8732  0.4817
 5722SOL     OW28798   0.915   0.184   1.283  0.4392  0.1721 -0.1724
 5722SOL    HW128799   0.939   0.241   1.357  1.3111  0.4227 -0.6536
 5722SOL    HW228800   0.936   0.098   1.319  0.7743  0.4182  0.2272
 5723SOL     OW28801   3.154   4.511   2.231 -0.3061  0.0548 -0.1304
 5723SOL    HW128802   3.188   4.569   2.163 -1.3057  1.6309  0.7331
 5723SOL    HW228803   3.231   4.499   2.287 -0.4788  1.9046  0.4989
 5724SOL     OW28804   1.405   4.496  15.003  0.0212  0.3850 -0.2221
 5724SOL    HW128805   1.463   4.530  15.072  0.7359 -1.2713  0.0164
 5724SOL    HW228806   1.457   4.416  14.993  1.1984  1.2268 -0.7615
 5725SOL     OW28807   2.434   1.302   6.852  0.2514 -0.0210  0.0263
 5725SOL    HW128808   2.434   1.365   6.780  1.8089  1.9861  1.7944
 5725SOL    HW228809   2.489   1.352   6.911  2.4726  0.9365 -2.8300
 5726SOL     OW28810   1.931   2.291   3.809 -0.2831  0.0771 -0.3762
 5726SOL    HW128811   1.870   2.251   3.747  0.9835  0.1908 -1.6830
 5726SOL    HW228812   1.894   2.273   3.896  1.6125  0.2823  0.4714
 5727SOL     OW28813   2.341   3.844  17.094  0.0527 -0.0063 -0.2474
 5727SOL    HW128814   2.267   3.788  17.121  1.4576 -0.2934  3.0947
 5727SOL    HW228815   2.324   3.922  17.146  1.7761  1.3695 -1.7586
 5728SOL     OW28816   1.709   0.799   4.356  0.6064  0.1507  0.1351
 5728SOL    HW128817   1.748   0.735   4.416  3.3267  0.9856 -0.7550
 5728SOL    HW228818   1.691   0.872   4.415  4.5229 -0.9018  2.5987
 5729SOL     OW28819   4.384   3.620   3.872 -0.9241  0.2796  0.1804
 5729SOL    HW128820   4.447   3.609   3.801 -0.6941  1.7741  0.1580
 5729SOL    HW228821   4.414   3.555   3.935 -2.3415 -0.2821  0.2795
 5730SOL     OW28822   0.598   2.423   4.474 -0.7347 -0.3249 -0.4236
 5730SOL    HW128823   0.538   2.451   4.405  1.2523  0.4884 -1.8234
 5730SOL    HW228824   0.546   2.432   4.554  2.2095  2.2509  1.2670
 5731SOL     OW28825   3.777   2.567   7.042  0.4223 -0.2558  0.2092
 5731SOL    HW128826   3.734   2.652   7.054  1.5887  0.4965 -0.9930
 5731SOL    HW228827   3.869   2.586   7.026 -0.1497  0.5999 -2.0939
 5732SOL     OW28828   0.737   0.951   8.145  0.4510  0.0090 -0.6377
 5732SOL    HW128829   0.702   0.983   8.228 -0.4210 -2.4129 -0.0841
 5732SOL    HW228830   0.785   1.029   8.116  1.8078 -0.9422 -0.9372
 5733SOL     OW28831   3.085   4.280   4.341  0.4228  0.1615  0.4861
 5733SOL    HW128832   3.018   4.342   4.314  1.3065  0.7259 -0.3938
 5733SOL    HW228833   3.163   4.328   4.314 -0.9394  0.9788 -2.0329
 5734SOL     OW28834   0.929   0.481  11.706 -0.2285 -0.2100  0.0929
 5734SOL    HW128835   0.836   0.481  11.685 -0.6396  0.9526  1.9589
 5734SOL    HW228836   0.933   0.489  11.801 -0.1015 -0.8711  0.1401
 5735SOL     OW28837   2.377   3.991  16.859  0.5702 -0.8417  0.2216
 5735SOL    HW128838   2.339   3.963  16.942 -0.5267 -0.6811 -0.2123
 5735SOL    HW228839   2.466   3.966  16.880  1.4057  1.5297 -0.4257
 5736SOL     OW28840   3.829   0.544   1.572  0.0233  0.3893  0.3102
 5736SOL    HW128841   3.810   0.507   1.658 -3.5601  2.1949  0.2579
 5736SOL    HW228842   3.815   0.638   1.580 -2.3645  0.1025 -0.5147
 5737SOL     OW28843   2.945   0.519   2.750 -0.2744 -0.6562 -0.0226
 5737SOL    HW128844   2.900   0.603   2.760  1.2988  0.3529 -1.3724
 5737SOL    HW228845   2.906   0.498   2.665  0.1276 -0.6212 -0.2137
 5738SOL     OW28846   2.531   3.234  10.711 -0.3164  0.3099 -0.3273
 5738SOL    HW128847   2.595   3.304  10.706 -0.3073  0.4187  1.4299
 5738SOL    HW228848   2.455   3.291  10.704  0.5742  1.5186 -0.0070
 5739SOL     OW28849   0.425   0.190  16.006  0.3588  0.2890  0.0726
 5739SOL    HW128850   0.472   0.152  15.931  2.4983  2.2176  0.4580
 5739SOL    HW228851   0.346   0.136  16.012  0.9508 -0.5993 -0.0976
 5740SOL     OW28852   3.329   2.656   9.136 -0.7071  0.4037  0.6973
 5740SOL    HW128853   3.355   2.679   9.047 -1.2532  0.9336  0.6696
 5740SOL    HW228854   3.234   2.669   9.142 -1.4141 -4.6895  0.7056
 5741SOL     OW28855   3.842   1.143   6.796  0.5522 -0.3828 -0.0160
 5741SOL    HW128856   3.907   1.163   6.728  0.7846 -1.9593 -0.2565
 5741SOL    HW228857   3.812   1.059   6.762  0.2931  0.0865 -0.9411
 5742SOL     OW28858   2.484   1.655   5.353 -0.2075  0.3436  0.3484
 5742SOL    HW128859   2.430   1.581   5.326 -0.0381  0.8468 -1.3648
 5742SOL    HW228860   2.435   1.725   5.308 -0.2851  0.9790  1.4288
 5743SOL     OW28861   2.599   0.658   6.915  0.0880 -0.7785 -0.9631
 5743SOL    HW128862   2.521   0.691   6.958  2.6246  0.6881  2.5283
 5743SOL    HW228863   2.551   0.643   6.833  0.6847 -1.8342 -1.1180
 5744SOL     OW28864   2.150   0.918  16.425  1.0398  0.4494 -0.3902
 5744SOL    HW128865   2.101   0.853  16.476  2.0268  2.7650  3.5488
 5744SOL    HW228866   2.234   0.919  16.472  0.8412  1.0687 -0.0425
 5745SOL     OW28867   2.983   2.171   9.102 -0.6572  0.0347 -0.3764
 5745SOL    HW128868   3.050   2.110   9.134 -0.8759 -0.5027 -0.9499
 5745SOL    HW228869   2.996   2.155   9.009 -1.2314 -2.0766 -0.1022
 5746SOL     OW28870   0.032   4.550   4.969  0.3865  0.3917  0.4204
 5746SOL    HW128871   0.013   4.617   5.036 -1.7650  0.9768 -0.7680
 5746SOL    HW228872   0.104   4.597   4.927 -1.1827 -1.1636 -3.9601
 5747SOL     OW28873   3.572   1.543   7.781 -0.5757 -0.0081 -0.0212
 5747SOL    HW128874   3.519   1.623   7.781  0.8078  0.8972  1.0490
 5747SOL    HW228875   3.507   1.475   7.801  0.8514 -1.9197 -1.8942
 5748SOL     OW28876   4.495   4.171   1.925 -0.3733  0.9055 -0.2265
 5748SOL    HW128877   4.493   4.086   1.970 -1.5990  1.5803  0.9921
 5748SOL    HW228878   4.426   4.213   1.976 -1.0216  0.4803 -0.7486
 5749SOL     OW28879   2.221   1.187   4.682  0.0629  0.5410 -0.1310
 5749SOL    HW128880   2.131   1.155   4.673 -0.7699  1.9222  2.9140
 5749SOL    HW228881   2.262   1.118   4.631 -0.3836 -2.0934  3.0830
 5750SOL     OW28882   1.926   4.393   3.384 -1.0023  0.5504 -0.9847
 5750SOL    HW128883   1.862   4.455   3.349 -0.5734  0.6322 -1.6213
 5750SOL    HW228884   1.924   4.426   3.474 -0.2462  1.6350 -1.3727
 5751SOL     OW28885   1.370   4.517   2.075  0.4449  0.4026  0.1923
 5751SOL    HW128886   1.324   4.434   2.088 -0.4505  0.9389  0.3864
 5751SOL    HW228887   1.295   4.576   2.084 -0.7156 -1.2311  1.0852
 5752SOL     OW28888   1.028   2.859   6.353 -0.0608 -0.3068  0.3781
 5752SOL    HW128889   0.983   2.783   6.315 -0.5932  0.0185  0.3619
 5752SOL    HW228890   1.078   2.812   6.420 -0.1704 -0.7813  0.1308
 5753SOL     OW28891   2.078   0.680   9.389 -0.1039 -0.4748 -0.3005
 5753SOL    HW128892   2.144   0.690   9.320 -0.5848 -2.4466 -1.0373
 5753SOL    HW228893   2.106   0.733   9.464  0.8609 -0.7507 -0.4641
 5754SOL     OW28894   3.833   0.257  11.879 -0.2057 -0.3536 -0.1867
 5754SOL    HW128895   3.858   0.179  11.830 -0.7965  0.2965 -1.5359
 5754SOL    HW228896   3.882   0.240  11.959 -3.0362 -1.9976  1.1801
 5755SOL     OW28897   4.381   2.836   2.333  0.1101  0.4341  0.1252
 5755SOL    HW128898   4.439   2.880   2.271  1.5015 -2.0655 -0.3329
 5755SOL    HW228899   4.431   2.840   2.415 -1.5072  2.3347  1.0495
 5756SOL     OW28900   0.059   0.826  12.507 -0.0116 -0.4394  0.4971
 5756SOL    HW128901   0.083   0.754  12.566  1.3933 -0.4254 -0.0655
 5756SOL    HW228902   0.095   0.899  12.557 -0.1310  1.3902 -2.0995
 5757SOL     OW28903   1.729   0.903  11.543  0.2638 -0.3311 -0.2485
 5757SOL    HW128904   1.668   0.834  11.514 -0.0217 -0.0842 -0.2436
 5757SOL    HW228905   1.718   0.972  11.478  3.4371  0.1006 -0.3065
 5758SOL     OW28906   3.983   1.849  15.781  0.4107  0.4835 -0.0157
 5758SOL    HW128907   4.075   1.821  15.779 -0.4855 -2.4467  0.7796
 5758SOL    HW228908   3.945   1.763  15.797  2.5579 -0.4446  0.1417
 5759SOL     OW28909   0.488   1.672  15.142  0.1053  0.4444  0.4428
 5759SOL    HW128910   0.422   1.656  15.074  1.2974 -0.4140 -0.4982
 5759SOL    HW228911   0.537   1.590  15.145 -2.4956 -1.0348  2.5946
 5760SOL     OW28912   3.705   2.879   0.027 -0.0015  0.4626 -0.4101
 5760SOL    HW128913   3.774   2.823   0.062  0.5382  1.7155  0.5538
 5760SOL    HW228914   3.707   2.848  17.687 -0.5464  2.3973 -1.0997
 5761SOL     OW28915   3.378   0.718   2.016 -0.0509 -0.3854 -0.3126
 5761SOL    HW128916   3.390   0.708   2.110  1.3957  0.5098 -0.4044
 5761SOL    HW228917   3.427   0.640   1.988 -1.4054 -1.6095  0.7165
 5762SOL     OW28918   3.471   2.804   6.189 -0.3249  0.2786 -0.4319
 5762SOL    HW128919   3.450   2.725   6.238 -0.5975  1.7163  1.7620
 5762SOL    HW228920   3.566   2.794   6.182 -0.2275  2.2282 -1.6914
 5763SOL     OW28921   3.684   3.473   6.895  0.2033 -0.7705 -0.6633
 5763SOL    HW128922   3.607   3.428   6.860 -0.0051  0.1969 -1.4363
 5763SOL    HW228923   3.731   3.466   6.812  1.9753  0.0877  0.2769
 5764SOL     OW28924   4.314   2.217   8.122  0.1047 -0.2213 -0.1174
 5764SOL    HW128925   4.345   2.126   8.119 -0.5835 -0.4900  0.7132
 5764SOL    HW228926   4.220   2.201   8.131  0.1638 -0.7005 -0.3267
 5765SOL     OW28927   3.315   2.166  12.637  0.1144  0.4244 -0.0226
 5765SOL    HW128928   3.379   2.192  12.703  1.4548 -2.2150 -0.2895
 5765SOL    HW228929   3.363   2.164  12.554  1.6865 -0.5329  0.9136
 5766SOL     OW28930   3.810   2.230   3.508  0.1368 -0.0914  0.0533
 5766SOL    HW128931   3.716   2.209   3.510  0.3096 -0.9328 -0.8173
 5766SOL    HW228932   3.805   2.312   3.459 -1.5737  0.1184  0.5640
 5767SOL     OW28933   2.582   3.198   2.736  0.1651  0.4763  0.2536
 5767SOL    HW128934   2.555   3.160   2.820  2.0509 -0.3086  0.5076
 5767SOL    HW228935   2.674   3.171   2.742  0.4656  1.4856  0.1736
 5768SOL     OW28936   2.563   2.740  13.325  0.5492  0.2103 -0.2285
 5768SOL    HW128937   2.627   2.708  13.261  2.4271 -2.1392  2.7629
 5768SOL    HW228938   2.622   2.755  13.399  0.8651 -0.8855 -0.2597
 5769SOL     OW28939   4.277   0.365   8.277  0.4759 -0.3398  0.1358
 5769SOL    HW128940   4.336   0.290   8.288  2.0404  0.9649  0.5402
 5769SOL    HW228941   4.341   0.433   8.258 -0.8820  0.8264 -0.2657
 5770SOL     OW28942   0.195   0.822   5.590  0.3065  0.0231  0.2428
 5770SOL    HW128943   0.261   0.757   5.613  1.0057  0.6774  0.1024
 5770SOL    HW228944   0.159   0.834   5.678  0.6278  0.7477  0.2726
 5771SOL     OW28945   0.864   4.338   7.635  0.1864  0.5392  0.4294
 5771SOL    HW128946   0.776   4.352   7.599  0.2120  0.0853  0.1921
 5771SOL    HW228947   0.913   4.379   7.564  0.0249  0.4324  0.2581
 5772SOL     OW28948   0.923   3.422   5.468  0.1908 -0.2075  0.7992
 5772SOL    HW128949   0.936   3.495   5.529  0.0421  0.2456  0.2943
 5772SOL    HW228950   0.985   3.357   5.499  0.4350 -1.1233 -1.7018
 5773SOL     OW28951   2.210   0.016  14.490  0.0718  0.2054 -0.7195
 5773SOL    HW128952   2.205   0.019  14.586 -2.6991 -1.7167 -0.8202
 5773SOL    HW228953   2.271   4.682  14.476 -2.1117 -1.1144 -3.2831
 5774SOL     OW28954   0.957   1.372   3.030 -0.5199 -0.0613  0.2704
 5774SOL    HW128955   0.929   1.418   2.951 -3.2345 -2.7233 -0.2998
 5774SOL    HW228956   0.926   1.439   3.091  0.5482  2.0837 -1.5276
 5775SOL     OW28957   3.683   1.034   2.519  0.4700 -0.0430  0.1315
 5775SOL    HW128958   3.751   1.088   2.477  0.6728 -0.3828  0.0207
 5775SOL    HW228959   3.698   1.066   2.608  2.3995 -1.1543  0.2086
 5776SOL     OW28960   0.029   3.972   4.166  0.4704 -0.0934  0.2597
 5776SOL    HW128961   0.011   4.008   4.079  1.4268  0.4409  0.2815
 5776SOL    HW228962   4.696   3.909   4.177  0.5326  0.2922  2.7921
 5777SOL     OW28963   1.662   0.137   0.455 -0.0875 -0.0917 -0.1823
 5777SOL    HW128964   1.640   0.095   0.539  0.1683  1.6476  0.7496
 5777SOL    HW228965   1.623   0.082   0.388 -2.2239  1.4893 -0.2279
 5778SOL     OW28966   2.035   2.707   5.729 -0.3930  0.2364  0.0219
 5778SOL    HW128967   2.064   2.619   5.752 -0.5643 -0.3626 -2.0620
 5778SOL    HW228968   2.113   2.750   5.694  0.8993 -1.7661  0.4553
 5779SOL     OW28969   2.771   4.016  13.930  0.0213  0.4689 -0.0605
 5779SOL    HW128970   2.819   3.937  13.957  2.0923  0.2457 -4.4938
 5779SOL    HW228971   2.757   4.061  14.014 -0.8051  1.1281 -0.5510
 5780SOL     OW28972   2.756   1.885  17.163  0.1588  0.1721 -0.2568
 5780SOL    HW128973   2.709   1.820  17.111 -1.9803  1.4818  0.0482
 5780SOL    HW228974   2.691   1.955  17.165 -1.2377 -1.0877 -2.4769
 5781SOL     OW28975   0.541   0.422  16.027 -0.7041  0.0477 -0.0795
 5781SOL    HW128976   0.501   0.339  16.052  1.3159 -1.0185 -0.3463
 5781SOL    HW228977   0.511   0.414  15.937  0.8216 -2.0616 -0.3991
 5782SOL     OW28978   1.963   1.085   4.613  0.3847 -0.2259  0.0351
 5782SOL    HW128979   1.970   1.129   4.529  2.6308  0.6029  0.6417
 5782SOL    HW228980   1.879   1.042   4.599  0.8412 -0.8402 -0.7839
 5783SOL     OW28981   1.034   4.043  10.920  0.7002  0.0741  0.7461
 5783SOL    HW128982   1.120   4.079  10.939  0.8940 -1.6463  3.1081
 5783SOL    HW228983   0.979   4.098  10.975 -1.2789  0.8068 -1.9603
 5784SOL     OW28984   3.443   0.996  16.267 -0.1008  0.1495 -0.4083
 5784SOL    HW128985   3.387   1.066  16.299 -0.7824 -1.0656  1.0718
 5784SOL    HW228986   3.387   0.948  16.207  0.7572 -0.4129 -0.7493
 5785SOL     OW28987   2.172   3.614   1.484 -0.2910 -0.3584 -0.0377
 5785SOL    HW128988   2.092   3.583   1.440  1.8795 -0.1474 -4.0939
 5785SOL    HW228989   2.174   3.556   1.560 -0.8694 -1.8401 -1.1559
 5786SOL     OW28990   1.143   1.042   9.499  0.3645  0.6930  0.0120
 5786SOL    HW128991   1.063   1.018   9.452  1.2329 -1.5608 -0.3305
 5786SOL    HW228992   1.154   1.135   9.481  1.8315  0.3048 -1.1345
 5787SOL     OW28993   3.080   2.273  14.504 -0.0653  0.0583  0.1342
 5787SOL    HW128994   3.104   2.292  14.594  0.0647  2.0256 -0.3101
 5787SOL    HW228995   3.000   2.325  14.493  0.2451  0.2227 -1.3624
 5788SOL     OW28996   1.432   1.212   5.817  0.0975  0.0529 -0.1411
 5788SOL    HW128997   1.414   1.144   5.752 -2.1992 -0.5386  1.1220
 5788SOL    HW228998   1.364   1.273   5.788 -0.4552  0.1617  1.3904
 5789SOL     OW28999   1.834   1.841   4.170 -0.2081  0.0613 -0.3697
 5789SOL    HW129000   1.858   1.748   4.182 -1.8106 -0.0308  2.1297
 5789SOL    HW229001   1.866   1.855   4.081  0.5168  0.0214 -0.1222
 5790SOL     OW29002   1.577   3.024   8.207 -0.0833  0.6531  0.3675
 5790SOL    HW129003   1.486   3.014   8.234 -0.4163  0.1592 -0.9441
 5790SOL    HW229004   1.571   3.064   8.120  0.5125  0.1069  0.0699
 5791SOL     OW29005   0.770   1.837  12.560 -0.1478 -0.7260  0.0730
 5791SOL    HW129006   0.706   1.802  12.498 -0.9794  1.2230 -0.1661
 5791SOL    HW229007   0.827   1.883  12.500  0.1497 -1.0984  0.0717
 5792SOL     OW29008   1.502   2.544   5.574 -0.2664 -0.1659  0.5228
 5792SOL    HW129009   1.562   2.538   5.648 -1.4869  0.0935  1.5415
 5792SOL    HW229010   1.442   2.614   5.600  1.1655  0.2106  2.7911
 5793SOL     OW29011   4.700   2.517  15.672  0.0682  0.1623  0.3432
 5793SOL    HW129012   4.676   2.476  15.589  4.6624 -1.3699 -0.2720
 5793SOL    HW229013   0.057   2.504  15.676 -0.7562 -5.2620  2.4890
 5794SOL     OW29014   4.462   1.646   4.015 -0.4814  0.0978  0.5255
 5794SOL    HW129015   4.438   1.682   3.929  0.2935 -2.2056 -0.6784
 5794SOL    HW229016   4.512   1.566   3.999 -0.3822  0.1234  0.7105
 5795SOL     OW29017   3.867   2.163  17.030  0.2717  0.0950  0.8243
 5795SOL    HW129018   3.787   2.137  16.986  0.7409 -0.1242  0.0970
 5795SOL    HW229019   3.867   2.251  16.993  1.6754 -0.4768 -0.5476
 5796SOL     OW29020   1.479   2.379   7.119 -0.1436 -0.2616 -0.4539
 5796SOL    HW129021   1.402   2.322   7.120  1.0790 -1.8677  1.2240
 5796SOL    HW229022   1.550   2.316   7.133 -0.1651  0.1060  1.2546
 5797SOL     OW29023   3.680   2.466   4.164 -0.1042  0.4558 -0.6090
 5797SOL    HW129024   3.668   2.426   4.251  1.5746 -1.3051 -1.1966
 5797SOL    HW229025   3.726   2.545   4.192  1.9672 -0.7415 -0.6178
 5798SOL     OW29026   2.837   1.462   5.242  0.4907  0.2978 -0.1570
 5798SOL    HW129027   2.856   1.480   5.150 -0.3097  0.3650 -0.3142
 5798SOL    HW229028   2.878   1.542   5.276  0.8714 -0.1888  0.5183
 5799SOL     OW29029   3.165   2.405   7.057  0.2115  0.1041  1.0958
 5799SOL    HW129030   3.197   2.494   7.073 -1.4222  0.2179  3.6775
 5799SOL    HW229031   3.126   2.393   7.144  1.6946  1.0001  1.8707
 5800SOL     OW29032   4.564   1.823  12.638 -0.5139  0.4292  0.1872
 5800SOL    HW129033   4.571   1.814  12.733 -0.9366  0.5580  0.2313
 5800SOL    HW229034   4.549   1.917  12.638 -1.7906  0.2328  1.8265
 5801SOL     OW29035   1.252   0.070  14.153  0.2972 -0.7097  0.3338
 5801SOL    HW129036   1.277   0.116  14.233  1.3900  1.5965 -1.3286
 5801SOL    HW229037   1.165   0.039  14.178 -0.4560 -1.7471 -3.6534
 5802SOL     OW29038   1.704   1.262   5.578  0.1176 -0.2075  0.1116
 5802SOL    HW129039   1.641   1.289   5.512 -0.6771  0.7506  1.2847
 5802SOL    HW229040   1.730   1.174   5.548  1.0232  0.1483 -0.1493
 5803SOL     OW29041   3.106   1.145  17.174  0.0633 -0.1360  0.3123
 5803SOL    HW129042   3.093   1.236  17.145  0.5965 -0.3132 -0.4664
 5803SOL    HW229043   3.036   1.098  17.129 -0.9204  2.3950 -0.8124
 5804SOL     OW29044   0.306   2.967   2.646 -0.6271  0.2525  0.5920
 5804SOL    HW129045   0.267   2.929   2.568  1.4073 -1.2987  0.3052
 5804SOL    HW229046   0.324   2.890   2.700  2.7267  1.4232  1.1696
 5805SOL     OW29047   1.445   3.715   8.326  0.2270 -0.2838  0.1673
 5805SOL    HW129048   1.464   3.633   8.372  0.2435  0.5816  1.6979
 5805SOL    HW229049   1.438   3.679   8.237  1.4363  0.3041 -0.1503
 5806SOL     OW29050   2.201   0.422   8.675 -0.2023  0.2369 -0.2772
 5806SOL    HW129051   2.280   0.393   8.630  0.4513  1.0264  0.3631
 5806SOL    HW229052   2.236   0.425   8.764 -0.6177  0.4290 -0.1206
 5807SOL     OW29053   2.789   2.677  17.523 -0.0190 -0.1166 -0.6237
 5807SOL    HW129054   2.766   2.593  17.484 -2.2181  0.0774  0.2683
 5807SOL    HW229055   2.703   2.702  17.556  0.3768 -0.5759  0.7458
 5808SOL     OW29056   2.192   2.643   7.092  0.0052 -0.4016  0.0797
 5808SOL    HW129057   2.200   2.689   7.176 -1.9046  4.0786 -2.1793
 5808SOL    HW229058   2.237   2.695   7.026  0.3107 -1.1671 -0.3125
 5809SOL     OW29059   3.985   2.462   7.310 -0.7984  0.0335 -0.5501
 5809SOL    HW129060   3.909   2.500   7.267  0.0543 -1.3085 -3.1941
 5809SOL    HW229061   3.951   2.419   7.389 -0.5316 -1.0720 -1.0446
 5810SOL     OW29062   4.724   0.835   4.300 -0.8544 -0.0725  0.4263
 5810SOL    HW129063   0.018   0.754   4.261 -2.4296 -0.2536 -0.5347
 5810SOL    HW229064   4.630   0.830   4.279 -0.8325 -2.0867  0.8501
 5811SOL     OW29065   1.635   0.184   7.071  0.1178  0.4200  0.7248
 5811SOL    HW129066   1.577   0.170   6.997 -1.9760 -0.4655  2.5449
 5811SOL    HW229067   1.717   0.137   7.054  0.2107  2.1993 -3.7454
 5812SOL     OW29068   1.813   0.769  10.636  0.5578  0.2389  0.1254
 5812SOL    HW129069   1.757   0.697  10.605 -1.1386  1.1941  0.9681
 5812SOL    HW229070   1.869   0.785  10.560  0.9026 -0.2099  0.2810
 5813SOL     OW29071   2.881   4.033   4.294  0.1154  0.2052  0.4798
 5813SOL    HW129072   2.879   4.117   4.339 -1.4475  0.8815 -0.8400
 5813SOL    HW229073   2.975   4.017   4.298 -0.1625 -0.9738  2.2649
 5814SOL     OW29074   4.311   0.139   9.251 -0.4590 -0.1459  0.1637
 5814SOL    HW129075   4.333   0.113   9.340 -2.7401 -1.3648  0.3586
 5814SOL    HW229076   4.387   0.195   9.231 -0.0251 -1.1925 -1.1595
 5815SOL     OW29077   3.792   0.579  16.727 -0.5879 -0.5078  0.5953
 5815SOL    HW129078   3.841   0.513  16.678 -0.1359 -0.7297  1.3385
 5815SOL    HW229079   3.707   0.551  16.694 -0.4137 -1.1821  0.7172
 5816SOL     OW29080   4.104   3.315   4.643 -0.1831  0.5099 -0.2447
 5816SOL    HW129081   4.161   3.370   4.589  0.9062 -0.0497  0.3409
 5816SOL    HW229082   4.068   3.380   4.704 -3.3998 -1.0271 -0.5365
 5817SOL     OW29083   1.076   3.678   1.030  0.1422 -0.2331 -0.1260
 5817SOL    HW129084   1.142   3.655   1.095  0.6964  0.8203 -0.3233
 5817SOL    HW229085   0.994   3.673   1.079  0.9257 -1.4996  1.0524
 5818SOL     OW29086   4.197   2.013   4.778 -0.1775 -0.8346  0.5431
 5818SOL    HW129087   4.275   2.045   4.734 -1.8342  2.3385 -0.0897
 5818SOL    HW229088   4.232   1.931   4.812 -0.8162 -0.4723  2.0875
 5819SOL     OW29089   2.600   2.833   7.536 -0.6494  0.4883  0.1371
 5819SOL    HW129090   2.599   2.743   7.504  0.2174  0.0057  1.4656
 5819SOL    HW229091   2.508   2.830   7.562 -0.2448 -2.3995  1.1547
 5820SOL     OW29092   0.536   0.754  16.133 -0.8309 -0.6013 -0.2628
 5820SOL    HW129093   0.557   0.837  16.174  2.3592 -2.2055  1.3168
 5820SOL    HW229094   0.588   0.697  16.189 -1.3097 -1.2775 -0.4949
 5821SOL     OW29095   1.353   0.372   7.764  0.4228  0.1706  0.2004
 5821SOL    HW129096   1.441   0.333   7.761 -0.2338 -1.3532  0.5835
 5821SOL    HW229097   1.309   0.291   7.790 -0.4587  0.1835 -1.2672
 5822SOL     OW29098   1.567   1.651   4.129 -0.3206 -0.6787  0.0478
 5822SOL    HW129099   1.656   1.679   4.149 -0.2586 -1.1137  0.3898
 5822SOL    HW229100   1.560   1.653   4.033  1.4553  0.9289 -0.0599
 5823SOL     OW29101   1.079   2.416   3.154  0.5112 -0.8143  0.2616
 5823SOL    HW129102   1.133   2.374   3.087  0.1413  0.6470 -0.9621
 5823SOL    HW229103   1.118   2.500   3.178 -1.5488  0.5660 -1.1826
 5824SOL     OW29104   3.295   3.676   7.962  0.1668 -0.4547 -0.5849
 5824SOL    HW129105   3.255   3.690   7.876 -1.6689 -1.2456  0.1343
 5824SOL    HW229106   3.217   3.645   8.009 -1.6235  0.1509 -3.1333
 5825SOL     OW29107   0.547   4.696   4.816 -0.1862 -0.0326 -0.5072
 5825SOL    HW129108   0.496   4.666   4.891  1.9253  1.0905  1.3514
 5825SOL    HW229109   0.480   4.727   4.754  0.5221  1.9144 -0.3005
 5826SOL     OW29110   3.846   2.121   7.138 -0.0141 -0.0616  0.0969
 5826SOL    HW129111   3.796   2.187   7.090  1.7978  1.2056 -0.0548
 5826SOL    HW229112   3.785   2.090   7.205 -0.6738  1.3126  0.1280
 5827SOL     OW29113   0.897   3.606   7.928 -0.3066 -0.4584  0.5146
 5827SOL    HW129114   0.891   3.691   7.883  0.3663  0.0546  1.4013
 5827SOL    HW229115   0.803   3.590   7.938 -0.4829  0.0632 -0.2491
 5828SOL     OW29116   1.906   4.099   6.058  0.0132 -0.5060  0.2801
 5828SOL    HW129117   1.990   4.141   6.075  0.0765  0.4682 -2.3826
 5828SOL    HW229118   1.862   4.175   6.020  0.5808 -0.5611 -0.4862
 5829SOL     OW29119   0.860   4.232   5.615  0.0809 -0.2283 -0.8132
 5829SOL    HW129120   0.784   4.219   5.670 -1.2953 -1.8394 -3.1055
 5829SOL    HW229121   0.851   4.322   5.581 -1.4424  0.8293  2.4626
 5830SOL     OW29122   1.874   0.648  12.910 -0.8169 -0.0706  0.4628
 5830SOL    HW129123   1.930   0.713  12.952 -0.2824 -0.1017 -0.1988
 5830SOL    HW229124   1.844   0.691  12.830  0.0848 -0.2327  0.0319
 5831SOL     OW29125   4.406   2.235   3.068  0.7652  0.4907 -0.4732
 5831SOL    HW129126   4.348   2.214   2.995 -0.2930  0.0487  0.4909
 5831SOL    HW229127   4.350   2.190   3.132  0.0197  1.4574 -0.4525
 5832SOL     OW29128   3.352   3.078  13.560  0.1155 -0.6333  0.7103
 5832SOL    HW129129   3.400   3.019  13.501  1.6593  1.2923  0.0272
 5832SOL    HW229130   3.402   3.051  13.637 -0.3758 -0.8203  0.9602
 5833SOL     OW29131   2.238   0.112   6.414  0.0987  0.0067 -0.5500
 5833SOL    HW129132   2.191   0.115   6.331 -2.5504  0.4353  0.9471
 5833SOL    HW229133   2.329   0.125   6.387  1.4797 -0.5115  3.9009
 5834SOL     OW29134   2.629   4.314   3.648  0.2970 -0.7225  0.0900
 5834SOL    HW129135   2.581   4.316   3.565  1.0177  0.6721 -0.3133
 5834SOL    HW229136   2.720   4.300   3.619 -0.8389  0.0097 -3.8883
 5835SOL     OW29137   2.963   4.045  14.874 -0.5350  0.0859  0.0081
 5835SOL    HW129138   2.925   3.962  14.902 -2.4728 -0.0431 -2.9909
 5835SOL    HW229139   2.900   4.068  14.806 -0.4970 -0.2166 -0.1316
 5836SOL     OW29140   3.180   4.140   1.393 -0.1978  0.1421  0.3116
 5836SOL    HW129141   3.209   4.194   1.467 -1.4321 -1.5028  1.9569
 5836SOL    HW229142   3.089   4.120   1.414 -0.2421 -1.2541 -1.2125
 5837SOL     OW29143   1.445   1.903  14.409 -0.1175 -0.0323 -0.3358
 5837SOL    HW129144   1.497   1.858  14.342 -0.5535  2.1784 -2.1569
 5837SOL    HW229145   1.405   1.966  14.350  2.2105  1.3874 -0.4099
 5838SOL     OW29146   4.168   3.917  12.534 -0.3462 -0.2063 -0.1647
 5838SOL    HW129147   4.127   3.964  12.461 -0.3509 -0.7004 -0.4741
 5838SOL    HW229148   4.123   3.955  12.610  0.2838 -0.7405  0.4744
 5839SOL     OW29149   4.248   3.031   9.630  0.0720 -0.1714 -0.0379
 5839SOL    HW129150   4.249   2.949   9.581 -1.3782 -0.4740  0.4331
 5839SOL    HW229151   4.166   3.075   9.608 -0.7062 -2.7646 -2.4587
 5840SOL     OW29152   4.208   4.367   6.675 -0.2144  0.2960  0.3611
 5840SOL    HW129153   4.245   4.370   6.586  1.7441  2.8992  1.2639
 5840SOL    HW229154   4.230   4.275   6.692  1.5246  0.1725 -2.5339
 5841SOL     OW29155   1.706   0.016  17.071 -0.2275  0.1888 -0.2494
 5841SOL    HW129156   1.769   0.010  17.142  0.3046 -0.3900 -0.7720
 5841SOL    HW229157   1.627   0.046  17.117 -1.4661 -3.0841 -0.2584
 5842SOL     OW29158   4.218   4.083   3.228 -0.3663  0.1295  0.6618
 5842SOL    HW129159   4.147   4.019   3.217 -0.6383  0.2499  1.7697
 5842SOL    HW229160   4.228   4.076   3.323  2.5219  0.8713  0.4116
 5843SOL     OW29161   3.069   2.292   7.380 -0.6423  0.0798  0.0281
 5843SOL    HW129162   3.120   2.372   7.398  0.3979  0.3948 -4.4363
 5843SOL    HW229163   3.138   2.236   7.414 -0.1728  0.2278 -0.6848
 5844SOL     OW29164   2.310   1.330   8.870  0.5780 -0.2820  0.4082
 5844SOL    HW129165   2.292   1.404   8.812  0.1564 -2.1731 -1.8794
 5844SOL    HW229166   2.293   1.372   8.954  1.1097 -0.1588  0.4537
 5845SOL     OW29167   3.400   2.456   9.297 -0.2081 -0.0343  0.6137
 5845SOL    HW129168   3.404   2.526   9.232 -0.0726 -1.3116 -0.7531
 5845SOL    HW229169   3.339   2.499   9.357 -2.3379 -1.3120 -0.6526
 5846SOL     OW29170   2.768   3.830   1.376 -0.8119  0.0356 -0.5656
 5846SOL    HW129171   2.850   3.783   1.392 -0.4154  1.2247  0.8162
 5846SOL    HW229172   2.744   3.786   1.294 -0.0492  1.2448 -1.4413
 5847SOL     OW29173   2.718   2.634   1.360 -0.0944  0.1844  0.2093
 5847SOL    HW129174   2.758   2.550   1.338  1.5710  1.2627 -0.9406
 5847SOL    HW229175   2.798   2.666   1.401 -0.2869  0.5082  0.3362
 5848SOL     OW29176   1.525   0.127   8.706  0.2388  0.6336 -0.7491
 5848SOL    HW129177   1.499   0.219   8.706  2.4367  1.2806 -1.9163
 5848SOL    HW229178   1.620   0.140   8.707  0.0979  1.5314  0.1424
 5849SOL     OW29179   3.714   3.931   3.004  0.2829 -0.0859 -0.2269
 5849SOL    HW129180   3.667   3.903   3.082  0.3596 -2.1667 -0.9338
 5849SOL    HW229181   3.743   3.850   2.962 -0.5815  0.5205 -2.0249
 5850SOL     OW29182   1.358   0.684   1.721 -0.1921 -0.0195  0.6552
 5850SOL    HW129183   1.262   0.688   1.718 -0.0760  0.6361 -1.5117
 5850SOL    HW229184   1.384   0.762   1.673  1.8006 -1.5480 -0.7100
 5851SOL     OW29185   3.634   1.509   6.635  0.4549  0.5451 -0.1559
 5851SOL    HW129186   3.695   1.475   6.701 -4.0085 -0.1020  3.6969
 5851SOL    HW229187   3.682   1.487   6.556  1.4803 -3.2681  1.4950
 5852SOL     OW29188   1.479   1.511   2.355 -0.1110 -0.0100 -0.1448
 5852SOL    HW129189   1.474   1.501   2.260 -1.0852 -1.7724  0.0937
 5852SOL    HW229190   1.451   1.425   2.386  1.2793 -0.6028 -0.5175
 5853SOL     OW29191   0.773   4.509  17.120  0.1934 -0.0660  0.2343
 5853SOL    HW129192   0.685   4.477  17.139 -0.5793  2.1864  0.4934
 5853SOL    HW229193   0.782   4.570  17.193 -2.1076 -0.2040  0.6378
 5854SOL     OW29194   1.816   3.678   1.514  0.1386  0.0811  0.2156
 5854SOL    HW129195   1.851   3.596   1.479 -0.0213 -0.7767  2.0432
 5854SOL    HW229196   1.896   3.720   1.546  1.3005 -1.8416 -0.1227
 5855SOL     OW29197   0.235   4.092   0.389  0.1279  0.1414  0.0212
 5855SOL    HW129198   0.274   4.134   0.312 -1.7357 -1.1136 -1.6336
 5855SOL    HW229199   0.282   4.131   0.463  0.5261 -2.0187  0.8839
 5856SOL     OW29200   0.235   0.595   8.520  0.2458 -0.4089 -0.0519
 5856SOL    HW129201   0.294   0.602   8.595 -0.4286  0.2018  0.4104
 5856SOL    HW229202   0.239   0.680   8.477  1.5647 -0.6211 -0.3653
 5857SOL     OW29203   2.547   1.771   5.009 -0.2159  0.0716  0.1869
 5857SOL    HW129204   2.618   1.790   5.070 -0.6030  0.2462  0.5926
 5857SOL    HW229205   2.597   1.711   4.954 -1.7687 -0.3274 -0.7875
 5858SOL     OW29206   3.354   4.651   8.743 -0.2440 -0.0945 -0.2850
 5858SOL    HW129207   3.299   4.637   8.820  0.9461  0.7557  0.7370
 5858SOL    HW229208   3.383   0.004   8.755  0.9630 -0.6629  1.0690
 5859SOL     OW29209   4.501   1.010   3.890  0.2503  0.2123 -0.2350
 5859SOL    HW129210   4.415   1.008   3.931  0.3020  1.6680 -0.0334
 5859SOL    HW229211   4.536   0.925   3.916 -0.9061  0.5351  2.4037
 5860SOL     OW29212   0.537   4.312   7.814 -0.4916  0.0133 -0.5606
 5860SOL    HW129213   0.541   4.275   7.726  0.9573 -2.0659  0.3736
 5860SOL    HW229214   0.518   4.237   7.870  2.5280 -0.4072 -0.0973
 5861SOL     OW29215   2.407   3.099   1.178 -0.0190  0.3437  0.3833
 5861SOL    HW129216   2.412   3.028   1.242 -0.9746  0.4242  0.5508
 5861SOL    HW229217   2.349   3.163   1.220 -0.0414 -0.7157  1.9674
 5862SOL     OW29218   0.418   1.986   6.110  0.2118 -0.1358 -0.0619
 5862SOL    HW129219   0.455   2.000   6.197  0.5159  1.1115 -0.3875
 5862SOL    HW229220   0.398   2.078   6.095 -1.1440 -0.3120  0.6724
 5863SOL     OW29221   1.250   1.708   4.356  0.7148 -0.3948 -0.4770
 5863SOL    HW129222   1.312   1.636   4.345  2.0542  0.3253  2.4671
 5863SOL    HW229223   1.161   1.673   4.347  0.5740 -0.1398 -0.0649
 5864SOL     OW29224   3.130   2.155   7.945  0.7370 -0.4612 -0.4926
 5864SOL    HW129225   3.149   2.203   7.864 -1.8361  1.6371  0.1384
 5864SOL    HW229226   3.209   2.102   7.950 -0.7138 -2.6977 -1.0118
 5865SOL     OW29227   4.633   3.056   3.385 -0.0601 -0.2865  0.2748
 5865SOL    HW129228   4.622   3.132   3.441 -0.4028 -1.4462  1.7940
 5865SOL    HW229229   4.586   3.085   3.307  2.7657  1.8372 -0.6228
 5866SOL     OW29230   0.794   0.481   8.090  0.2025 -0.2784 -0.1762
 5866SOL    HW129231   0.797   0.427   8.011 -2.0113  1.4141 -1.4166
 5866SOL    HW229232   0.703   0.509   8.095  0.8289  1.5342  1.1786
 5867SOL     OW29233   2.515   2.303  16.868 -0.1668  0.7442 -0.5046
 5867SOL    HW129234   2.495   2.396  16.858  0.6968  0.8351 -1.3992
 5867SOL    HW229235   2.448   2.267  16.810  0.2665 -1.4285  0.3289
 5868SOL     OW29236   3.044   0.976  12.904 -0.1268 -0.2915  0.0390
 5868SOL    HW129237   3.107   1.029  12.855  0.5544 -1.4577 -0.3719
 5868SOL    HW229238   3.066   0.887  12.875 -0.7881 -0.1705 -0.8223
 5869SOL     OW29239   0.310   0.654  17.456  0.5001  0.3015  0.6404
 5869SOL    HW129240   0.272   0.688  17.376  2.8200  1.1582 -0.1036
 5869SOL    HW229241   0.248   0.697  17.514 -1.1547 -0.7270 -0.3944
 5870SOL     OW29242   0.160   3.707   9.749 -0.6161  0.3540  0.1936
 5870SOL    HW129243   0.071   3.734   9.726 -1.0514 -1.0926  0.1476
 5870SOL    HW229244   0.152   3.663   9.833  1.9520 -2.9890 -1.3137
 5871SOL     OW29245   1.419   2.492   5.276  0.5048 -0.3708  0.1225
 5871SOL    HW129246   1.496   2.484   5.331  1.6271 -0.4230 -1.4776
 5871SOL    HW229247   1.423   2.420   5.213 -1.3763  0.2314 -0.7205
 5872SOL     OW29248   4.227   0.579   5.648  0.5290  0.0045 -0.1776
 5872SOL    HW129249   4.265   0.666   5.663 -0.0421  0.3758 -0.9022
 5872SOL    HW229250   4.301   0.520   5.638  1.0617  0.5237  0.7051
 5873SOL     OW29251   4.495   0.799   1.141  0.3016  0.0074 -0.3527
 5873SOL    HW129252   4.478   0.868   1.205 -0.5446  1.1705 -1.8431
 5873SOL    HW229253   4.455   0.719   1.175  1.7337  0.9886  3.6078
 5874SOL     OW29254   0.952   4.121   2.835 -0.9602  0.5809  0.0095
 5874SOL    HW129255   0.859   4.119   2.856 -0.2041  0.0562  3.2999
 5874SOL    HW229256   0.984   4.095   2.921  0.0001  1.1305 -0.1735
 5875SOL     OW29257   2.720   1.477  11.082 -0.0865  0.4662 -0.5688
 5875SOL    HW129258   2.691   1.399  11.129  1.4200  0.4819  0.3694
 5875SOL    HW229259   2.774   1.511  11.154 -2.8116  1.7131  0.9070
 5876SOL     OW29260   1.345   0.809  10.446  0.2387  0.1903  0.2307
 5876SOL    HW129261   1.422   0.759  10.419  0.1213  1.0817 -1.7222
 5876SOL    HW229262   1.342   0.776  10.536 -2.4328 -2.0553 -0.6734
 5877SOL     OW29263   2.078   0.464   4.488  0.5845  0.0962  0.4780
 5877SOL    HW129264   2.036   0.529   4.433  1.2702 -1.2131 -1.5974
 5877SOL    HW229265   2.097   0.393   4.426 -1.2254  0.8968 -0.9819
 5878SOL     OW29266   3.350   1.586   4.671  0.3255 -0.0971 -0.2094
 5878SOL    HW129267   3.415   1.655   4.686 -0.0330 -0.3491  2.5129
 5878SOL    HW229268   3.400   1.509   4.696  0.1826  0.1375  0.8128
 5879SOL     OW29269   1.025   2.888   5.545 -0.0420  0.6292 -0.2557
 5879SOL    HW129270   1.085   2.927   5.609  1.4214  0.4827 -1.5508
 5879SOL    HW229271   1.057   2.798   5.542 -1.9834 -0.1794  3.2959
 5880SOL     OW29272   1.996   2.050   8.978  0.0074  0.7548 -0.2841
 5880SOL    HW129273   2.045   2.116   9.027 -0.4334  0.8316  0.0525
 5880SOL    HW229274   1.912   2.079   9.014 -0.9012 -1.3300 -0.7466
 5881SOL     OW29275   2.016   0.679   3.127  0.3068  0.3827  0.2634
 5881SOL    HW129276   2.004   0.772   3.149  0.0109  0.2221  0.7756
 5881SOL    HW229277   2.110   0.671   3.115  0.2157  0.5188 -0.5734
 5882SOL     OW29278   3.727   4.028   9.724 -0.2830 -0.2681  0.2129
 5882SOL    HW129279   3.710   4.082   9.646  0.1388 -1.1953 -0.5250
 5882SOL    HW229280   3.811   3.997   9.690 -0.3782 -0.8862  0.5577
 5883SOL     OW29281   0.395   3.291   2.912  0.0010 -0.2724 -0.5315
 5883SOL    HW129282   0.386   3.306   3.007 -2.1114  2.1129 -1.1224
 5883SOL    HW229283   0.410   3.196   2.907 -3.6780 -0.7741 -2.1020
 5884SOL     OW29284   2.106   0.148   7.872 -0.2058  0.1258 -0.2729
 5884SOL    HW129285   2.163   0.211   7.826 -0.6541  0.0374 -0.9486
 5884SOL    HW229286   2.133   0.163   7.962 -0.8096  1.3291 -0.2969
 5885SOL     OW29287   0.347   2.788   6.568  0.3524 -0.5799  0.2105
 5885SOL    HW129288   0.279   2.720   6.566  0.4529 -0.6604 -0.5546
 5885SOL    HW229289   0.292   2.866   6.562 -0.9606 -1.6826 -2.0823
 5886SOL     OW29290   1.292   1.637   7.253  0.1292 -0.1385 -0.4346
 5886SOL    HW129291   1.256   1.548   7.244  1.3595 -0.6915  0.0577
 5886SOL    HW229292   1.357   1.622   7.184  0.3324 -0.6327 -0.1395
 5887SOL     OW29293   0.119   0.758   9.022 -0.1874  0.0290  0.3474
 5887SOL    HW129294   0.108   0.853   9.026 -1.6044 -0.1637  1.0166
 5887SOL    HW229295   0.140   0.755   8.929 -3.0049  0.5268 -0.3037
 5888SOL     OW29296   0.373   1.764   8.344 -0.2837  0.0911  0.0526
 5888SOL    HW129297   0.425   1.786   8.422  0.6538  2.2235 -1.1866
 5888SOL    HW229298   0.419   1.692   8.300 -2.2637 -0.3172 -1.3226
 5889SOL     OW29299   1.720   2.376  15.233 -0.3463 -0.0446 -0.3853
 5889SOL    HW129300   1.670   2.315  15.178  2.3933 -2.1384 -0.5439
 5889SOL    HW229301   1.743   2.439  15.165 -1.0517 -0.0644 -0.6461
 5890SOL     OW29302   1.137   4.071   6.999  0.2077 -0.1560  0.0978
 5890SOL    HW129303   1.135   3.988   7.046  0.0302  0.5612  1.3657
 5890SOL    HW229304   1.143   4.134   7.071 -0.4728  0.0408 -0.0195
 5891SOL     OW29305   4.366   1.628   1.989 -0.4415 -0.0467  0.6261
 5891SOL    HW129306   4.379   1.537   1.962 -1.8879  0.0792 -0.4675
 5891SOL    HW229307   4.452   1.668   2.003 -0.0715 -0.6803  0.1654
 5892SOL     OW29308   0.860   3.187   7.503 -0.1776  0.2628  0.1994
 5892SOL    HW129309   0.858   3.216   7.412  0.0091 -0.3209  0.0105
 5892SOL    HW229310   0.939   3.133   7.507  0.2249  0.9016  0.9436
 5893SOL     OW29311   2.650   3.471  12.784 -0.6309  0.5827  0.3771
 5893SOL    HW129312   2.631   3.396  12.840  1.1068 -0.3100 -0.2091
 5893SOL    HW229313   2.738   3.497  12.810  0.6132 -1.4822 -1.7287
 5894SOL     OW29314   2.826   3.356   3.650 -0.2896 -0.1891 -0.6776
 5894SOL    HW129315   2.910   3.397   3.672  0.5712 -2.2987  0.0570
 5894SOL    HW229316   2.766   3.426   3.627 -1.0799 -0.4867  0.5244
 5895SOL     OW29317   3.156   3.449   3.060  0.5797 -0.1431 -0.2289
 5895SOL    HW129318   3.173   3.355   3.058 -0.1482 -0.3352  1.7659
 5895SOL    HW229319   3.237   3.494   3.086  0.8680 -0.0700 -1.2651
 5896SOL     OW29320   3.782   1.490   1.398 -0.0762  0.3106  0.3088
 5896SOL    HW129321   3.828   1.410   1.373 -0.3315 -0.6095  2.7788
 5896SOL    HW229322   3.808   1.505   1.489 -0.7923  2.2774  0.1941
 5897SOL     OW29323   4.044   1.084   8.705  0.1813  0.0720  0.0759
 5897SOL    HW129324   4.096   1.051   8.778  3.9457 -1.1938 -3.1609
 5897SOL    HW229325   3.970   1.024   8.697  0.1323  0.1653 -0.1749
 5898SOL     OW29326   0.383   1.802   6.475  0.1660 -0.5974  0.6326
 5898SOL    HW129327   0.446   1.763   6.535  1.3533 -1.5566 -1.2253
 5898SOL    HW229328   0.299   1.767   6.507 -0.8940 -0.7929 -2.3110
 5899SOL     OW29329   2.049   3.641   8.272  0.7187 -0.4068  0.3953
 5899SOL    HW129330   1.958   3.626   8.300 -0.6125  2.0513 -2.6734
 5899SOL    HW229331   2.033   3.642   8.178 -1.9199 -1.3322  0.8243
 5900SOL     OW29332   3.415   4.725   4.157  0.2837 -0.4112  0.4674
 5900SOL    HW129333   3.474   0.006   4.230 -0.6596  0.8712  0.9108
 5900SOL    HW229334   3.474   0.005   4.084 -1.3678  1.1579 -0.5047
 5901SOL     OW29335   1.344   2.487   3.031  0.0970  0.1272 -0.1483
 5901SOL    HW129336   1.410   2.418   3.043  0.7829  0.8585  0.2561
 5901SOL    HW229337   1.356   2.529   3.116 -0.9191 -0.2217  0.1626
 5902SOL     OW29338   2.056   3.412   2.634 -0.2366  0.1145  0.3625
 5902SOL    HW129339   2.133   3.356   2.633  0.1023  0.6674 -3.4967
 5902SOL    HW229340   2.057   3.467   2.555  0.6836 -0.6397 -0.1375
 5903SOL     OW29341   0.332   2.834   1.982 -1.0021  0.2598  0.2985
 5903SOL    HW129342   0.313   2.756   2.035 -1.4365 -1.0438 -1.7539
 5903SOL    HW229343   0.322   2.900   2.050  1.5787 -0.2650  1.1871
 5904SOL     OW29344   1.211   3.892  14.694 -0.1379  0.5144  0.3356
 5904SOL    HW129345   1.276   3.910  14.761 -0.5202  0.3326  0.7549
 5904SOL    HW229346   1.212   3.976  14.648  3.4063  0.6931  0.7939
 5905SOL     OW29347   0.463   0.582   2.324 -0.1074 -0.2254 -0.2457
 5905SOL    HW129348   0.370   0.560   2.317 -0.7530  2.1576  0.6164
 5905SOL    HW229349   0.457   0.649   2.392 -2.4177 -0.7377  0.0546
 5906SOL     OW29350   1.042   1.015   1.782  0.3946 -0.4277 -0.2253
 5906SOL    HW129351   0.967   0.958   1.796 -0.2954  0.5008 -0.1432
 5906SOL    HW229352   1.015   1.099   1.821  0.7646 -2.1469  3.7568
 5907SOL     OW29353   1.079   2.373   7.487  0.2106  0.3375  0.0223
 5907SOL    HW129354   1.137   2.302   7.514  0.7098  0.7153 -0.0532
 5907SOL    HW229355   1.133   2.417   7.422 -1.6263 -0.1497 -1.8166
 5908SOL     OW29356   1.213   2.246   6.619 -0.3218  0.5073  0.9466
 5908SOL    HW129357   1.231   2.281   6.532  0.9022  0.2426  1.0984
 5908SOL    HW229358   1.298   2.248   6.663 -1.5327  0.6358  3.2902
 5909SOL     OW29359   1.763   1.918  11.553  0.3287  0.1762 -0.5779
 5909SOL    HW129360   1.786   1.996  11.504  1.4683 -0.4412 -1.0206
 5909SOL    HW229361   1.733   1.859  11.484  0.8555 -0.5703 -0.1732
 5910SOL     OW29362   2.200   0.790  10.630  0.1924  0.3385 -0.3307
 5910SOL    HW129363   2.144   0.717  10.605 -2.4798  1.5962  1.9915
 5910SOL    HW229364   2.212   0.832  10.545 -0.8635  0.2288 -0.5246
 5911SOL     OW29365   0.345   1.977   6.862 -0.4919 -0.6718  0.1395
 5911SOL    HW129366   0.318   1.885   6.862  3.2966 -1.7753 -1.7048
 5911SOL    HW229367   0.280   2.020   6.807  0.7931  1.0589 -0.0134
 5912SOL     OW29368   2.616   1.335   9.840 -0.3375 -0.6783  0.1759
 5912SOL    HW129369   2.576   1.267   9.894 -2.6540  2.2672  2.2048
 5912SOL    HW229370   2.598   1.411   9.897  0.3957  1.1797 -2.0952
 5913SOL     OW29371   2.175   1.905  15.385  0.4375  0.6501 -0.1717
 5913SOL    HW129372   2.148   1.867  15.302  0.5355 -2.4172  1.2018
 5913SOL    HW229373   2.096   1.959  15.389  1.0681  1.6328 -0.9377
 5914SOL     OW29374   0.612   3.555   8.694 -0.1728 -0.4032 -0.7190
 5914SOL    HW129375   0.669   3.629   8.669  0.9281 -0.3393  1.9812
 5914SOL    HW229376   0.677   3.487   8.711 -0.4954 -0.7949 -1.0441
 5915SOL     OW29377   3.407   2.022  11.209  0.0396  0.1695 -0.3395
 5915SOL    HW129378   3.422   2.073  11.289 -1.6758  1.8094 -1.0607
 5915SOL    HW229379   3.480   2.046  11.153  1.4070 -2.1086  0.4820
 5916SOL     OW29380   1.363   2.903   6.094  0.3064 -0.5169 -0.6171
 5916SOL    HW129381   1.426   2.878   6.161 -0.0482  0.4688  0.0799
 5916SOL    HW229382   1.367   2.998   6.099 -1.1016 -0.5066  0.2048
 5917SOL     OW29383   4.071   3.973   8.795 -0.1020  0.6016 -0.3644
 5917SOL    HW129384   4.148   4.027   8.814  0.2696  0.2451 -0.8368
 5917SOL    HW229385   4.106   3.930   8.716  0.8514  0.9563 -0.1357
 5918SOL     OW29386   0.333   0.131  12.739 -0.3509 -0.0392  0.2777
 5918SOL    HW129387   0.364   0.202  12.795 -0.6100 -0.2913  0.7332
 5918SOL    HW229388   0.280   0.080  12.800  0.1305 -0.6931  0.1455
 5919SOL     OW29389   3.602   2.084   6.213 -0.3679 -0.2204 -0.6835
 5919SOL    HW129390   3.629   2.028   6.287 -0.8721  0.4262 -0.0091
 5919SOL    HW229391   3.511   2.056   6.207 -1.2640  2.4746  0.2798
 5920SOL     OW29392   1.955   0.463   9.848 -0.1738  0.6900  0.6952
 5920SOL    HW129393   1.975   0.369   9.849  1.1997  0.9859  1.1742
 5920SOL    HW229394   2.009   0.489   9.922  1.3841 -2.0959  0.5446
 5921SOL     OW29395   3.062   4.134   8.652  0.0778 -0.0426  0.3889
 5921SOL    HW129396   3.092   4.215   8.610 -2.0571  0.0372 -0.9771
 5921SOL    HW229397   2.970   4.136   8.626  0.1000 -0.5266  0.2754
 5922SOL     OW29398   3.356   2.212   6.819  0.2796  0.4262 -0.2441
 5922SOL    HW129399   3.264   2.235   6.830  0.2613 -0.3303  1.0535
 5922SOL    HW229400   3.387   2.224   6.908 -0.9982 -0.1006  0.2712
 5923SOL     OW29401   1.540   4.547   9.301 -0.2709 -0.5966  0.0207
 5923SOL    HW129402   1.597   4.499   9.360 -2.1387  1.1831  3.2898
 5923SOL    HW229403   1.597   4.531   9.226 -1.5989 -1.1937 -0.8482
 5924SOL     OW29404   0.948   0.220  10.740 -0.8249  0.2890  0.0569
 5924SOL    HW129405   0.959   0.314  10.751  0.5001 -0.0612  1.6559
 5924SOL    HW229406   0.918   0.226  10.649 -0.5251  1.1416  0.0169
 5925SOL     OW29407   3.537   3.352   2.348 -0.0208  0.0025  0.1514
 5925SOL    HW129408   3.623   3.361   2.308  0.8923 -2.2169  1.6253
 5925SOL    HW229409   3.486   3.418   2.300  0.2198  0.7796  0.9760
 5926SOL     OW29410   3.134   1.280   2.297 -0.0269 -0.1398 -0.1179
 5926SOL    HW129411   3.100   1.352   2.350 -1.8076 -0.9489 -0.1671
 5926SOL    HW229412   3.057   1.270   2.242 -0.2736  1.5292 -0.0729
 5927SOL     OW29413   0.106   0.245   2.111 -0.0089  0.1935 -0.9272
 5927SOL    HW129414   0.048   0.289   2.174  0.3052 -0.5179 -0.1360
 5927SOL    HW229415   0.108   0.306   2.038  0.2716  0.0658 -1.0260
 5928SOL     OW29416   0.884   1.178   8.246 -0.2410 -0.1078 -0.0506
 5928SOL    HW129417   0.964   1.231   8.240  0.0265 -0.6792 -1.3869
 5928SOL    HW229418   0.916   1.090   8.262  0.9204  0.0876 -1.3279
 5929SOL     OW29419   0.606   2.904   2.882  0.5523 -0.2222 -0.1013
 5929SOL    HW129420   0.684   2.898   2.825  1.0733  0.0491  0.5877
 5929SOL    HW229421   0.574   2.814   2.872 -0.2685 -0.3638  3.8383
 5930SOL     OW29422   0.185   3.794   3.267 -0.0811 -0.2015 -0.1664
 5930SOL    HW129423   0.220   3.732   3.203 -0.5903 -0.2907 -0.3584
 5930SOL    HW229424   0.111   3.829   3.218  0.2664 -2.6245 -2.3899
 5931SOL     OW29425   4.110   0.131   4.192  0.0936 -0.5590  0.1604
 5931SOL    HW129426   4.074   0.042   4.188 -1.0550 -0.1063  0.3809
 5931SOL    HW229427   4.181   0.125   4.256 -0.9753 -1.8567  1.2361
 5932SOL     OW29428   1.788   3.340   1.986  0.2939 -0.7438 -0.4539
 5932SOL    HW129429   1.809   3.247   1.995  2.3880 -0.1467  0.7598
 5932SOL    HW229430   1.703   3.332   1.942  0.6348 -4.3378 -0.4587
 5933SOL     OW29431   4.476   1.027   1.316 -0.0209 -0.1796 -0.5147
 5933SOL    HW129432   4.431   1.017   1.400  1.7904 -1.0086  0.3591
 5933SOL    HW229433   4.557   1.074   1.332  0.6301 -1.6072  0.3849
 5934SOL     OW29434   4.709   1.829   8.805  0.6387 -0.0689 -0.0349
 5934SOL    HW129435   4.630   1.794   8.763  0.0726  0.1917  0.8156
 5934SOL    HW229436   0.050   1.788   8.770  1.9673  1.6931  0.8626
 5935SOL     OW29437   2.999   4.349  17.240 -0.2191 -0.1918 -0.4280
 5935SOL    HW129438   2.991   4.434  17.196 -2.3325 -0.7060 -1.0326
 5935SOL    HW229439   3.093   4.348  17.260 -0.2145  0.3969 -0.4246
 5936SOL     OW29440   1.457   3.707   0.984 -0.4948 -0.2430  0.6692
 5936SOL    HW129441   1.449   3.617   0.951 -0.9346 -0.4229  1.2666
 5936SOL    HW229442   1.369   3.734   0.960 -0.2713 -2.3198 -2.5527
 5937SOL     OW29443   1.170   3.779   0.167 -0.2690 -0.1982 -0.1823
 5937SOL    HW129444   1.127   3.709   0.119  0.9040 -0.6054 -0.6442
 5937SOL    HW229445   1.116   3.796   0.244 -1.3462 -2.5362 -0.4211
 5938SOL     OW29446   4.053   1.187   3.703 -0.1629  0.5614  0.2343
 5938SOL    HW129447   4.098   1.227   3.778 -0.1361  2.1574 -0.6366
 5938SOL    HW229448   4.130   1.158   3.655  0.5599  2.1912  0.4076
 5939SOL     OW29449   4.614   1.078   9.307 -0.2436  0.1098 -0.1203
 5939SOL    HW129450   4.676   1.137   9.350 -0.0011 -0.4319  0.2695
 5939SOL    HW229451   4.533   1.073   9.358 -0.4548  1.1042 -0.3465
 5940SOL     OW29452   2.884   2.838   8.271  0.4712  0.4436 -0.7578
 5940SOL    HW129453   2.793   2.864   8.256 -0.0233  0.0918  1.5658
 5940SOL    HW229454   2.896   2.760   8.216 -1.6653  0.0932 -0.7577
 5941SOL     OW29455   1.677   3.375   2.950  0.4303 -0.3946 -0.5391
 5941SOL    HW129456   1.588   3.409   2.950 -0.2220 -2.1249 -0.4961
 5941SOL    HW229457   1.696   3.350   2.860 -0.8007  1.3498 -1.2824
 5942SOL     OW29458   0.649   3.421   2.920  0.1595 -0.0429 -0.0646
 5942SOL    HW129459   0.646   3.516   2.915  0.2106  0.0162  1.0381
 5942SOL    HW229460   0.560   3.393   2.896 -0.1083 -0.9008  1.9367
 5943SOL     OW29461   3.188   1.579  15.693  0.0412 -0.0784  0.3425
 5943SOL    HW129462   3.150   1.494  15.669  0.6318 -0.3554  0.3760
 5943SOL    HW229463   3.263   1.570  15.634 -2.3927 -0.0655 -2.7644
 5944SOL     OW29464   4.046   2.807   8.187 -0.4599 -0.6262 -0.1266
 5944SOL    HW129465   4.132   2.799   8.147  0.1856 -0.2657  1.1727
 5944SOL    HW229466   4.077   2.811   8.278 -1.1019 -0.1396  0.0668
 5945SOL     OW29467   2.103   4.657  15.660 -0.0703  0.0406 -0.6850
 5945SOL    HW129468   2.111   4.735  15.715 -2.0710 -0.9964  1.0843
 5945SOL    HW229469   2.171   4.664  15.593  0.6596  1.3422  0.1741
 5946SOL     OW29470   3.561   0.849   3.246  0.1926 -0.1720  0.0655
 5946SOL    HW129471   3.516   0.765   3.255  1.7597 -1.3200 -2.9123
 5946SOL    HW229472   3.628   0.850   3.314 -0.7402 -0.3169  0.9952
 5947SOL     OW29473   0.930   1.666  13.680 -0.4525 -0.0234 -0.4880
 5947SOL    HW129474   0.861   1.601  13.691 -1.2699  0.6458 -1.6199
 5947SOL    HW229475   1.010   1.619  13.657  0.0187  1.4741 -1.8842
 5948SOL     OW29476   3.261   3.920  12.271  0.1471 -0.4169  0.2854
 5948SOL    HW129477   3.344   3.963  12.295 -1.4692  0.5342  4.2240
 5948SOL    HW229478   3.217   3.982  12.213  1.2976 -1.6924 -1.9360
 5949SOL     OW29479   1.644   0.064   2.206  0.6358  0.4539  0.4907
 5949SOL    HW129480   1.689   0.016   2.136  0.6566 -1.0888  1.5624
 5949SOL    HW229481   1.624   0.144   2.156 -2.9823  0.4601  1.9651
 5950SOL     OW29482   2.491   0.971   9.563 -0.1387 -0.3898  0.3573
 5950SOL    HW129483   2.581   1.004   9.560 -1.0583  2.0501 -0.7977
 5950SOL    HW229484   2.476   0.952   9.470 -2.2924  1.5721  0.2967
 5951SOL     OW29485   2.618   1.104  16.932 -0.6511 -0.2096 -0.0280
 5951SOL    HW129486   2.605   1.189  16.974  0.9217  1.1484 -2.2844
 5951SOL    HW229487   2.587   1.042  16.998  2.6047 -2.9986 -1.1166
 5952SOL     OW29488   1.847   3.446   7.790 -0.5283  0.3784  0.0586
 5952SOL    HW129489   1.788   3.419   7.721 -1.9734  1.8518  0.7233
 5952SOL    HW229490   1.777   3.468   7.851  0.8353 -0.5161  1.9781
 5953SOL     OW29491   0.502   4.291   4.697  0.1849 -0.0556 -0.0640
 5953SOL    HW129492   0.430   4.324   4.644  1.6632  2.4251 -0.5096
 5953SOL    HW229493   0.575   4.320   4.642 -0.8771  0.1809 -1.3540
 5954SOL     OW29494   3.639   2.785   3.445 -0.4599 -0.1703 -0.4318
 5954SOL    HW129495   3.577   2.782   3.518 -1.5350 -0.2776 -1.3447
 5954SOL    HW229496   3.599   2.837   3.375  0.0978 -0.4778 -0.9763
 5955SOL     OW29497   3.447   0.778   4.182 -0.5370  0.0388 -0.5103
 5955SOL    HW129498   3.433   0.788   4.088  2.2249  2.4352 -0.6572
 5955SOL    HW229499   3.416   0.688   4.194 -0.0531  0.2488  2.4505
 5956SOL     OW29500   0.285   3.600   3.092 -0.0229  0.3307  0.0502
 5956SOL    HW129501   0.225   3.525   3.094 -1.5426  1.5077 -0.7589
 5956SOL    HW229502   0.290   3.639   3.005 -0.5008  0.0853 -0.0904
 5957SOL     OW29503   3.600   4.099   6.687  0.2195 -0.0501  0.2270
 5957SOL    HW129504   3.643   4.015   6.700 -1.3665 -0.8861  0.0415
 5957SOL    HW229505   3.672   4.147   6.646 -0.4221  1.7860  1.2395
 5958SOL     OW29506   2.069   1.818   5.573  0.1491  0.1634  0.0675
 5958SOL    HW129507   2.098   1.737   5.615  2.5596  1.4477  0.8814
 5958SOL    HW229508   2.153   1.862   5.579 -0.2207  0.8667  0.0968
 5959SOL     OW29509   3.093   2.575   2.144  0.5832  0.0053 -0.3429
 5959SOL    HW129510   3.069   2.609   2.058 -2.3391  2.2208  1.3172
 5959SOL    HW229511   3.142   2.643   2.189 -0.1727 -1.2320  2.3637
 5960SOL     OW29512   4.607   0.579   6.418  0.2441  0.0884 -0.1971
 5960SOL    HW129513   4.624   0.514   6.486 -1.0528  1.7303  1.7039
 5960SOL    HW229514   4.592   0.529   6.338  1.2675  2.2460 -1.7608
 5961SOL     OW29515   3.521   2.066   2.395  0.9701 -0.5850  0.9835
 5961SOL    HW129516   3.529   2.158   2.369  2.1587 -0.6788  1.0111
 5961SOL    HW229517   3.522   2.031   2.306  1.4052  0.6324  0.5114
 5962SOL     OW29518   2.842   0.636   4.106 -0.1026 -0.1709 -0.2194
 5962SOL    HW129519   2.840   0.708   4.169 -0.5452  0.3548 -0.8415
 5962SOL    HW229520   2.827   0.682   4.024 -1.2202 -2.6271 -1.4111
 5963SOL     OW29521   4.583   0.177  13.603 -0.1746 -0.1046  0.1788
 5963SOL    HW129522   4.510   0.229  13.569 -0.1656  1.1791  2.1359
 5963SOL    HW229523   4.582   0.120  13.527  2.0992  1.5523 -1.0770
 5964SOL     OW29524   0.405   0.215   4.689  0.0058  0.1931  0.2393
 5964SOL    HW129525   0.383   0.275   4.617  0.8580 -1.0601 -1.0560
 5964SOL    HW229526   0.401   0.282   4.758 -0.2144 -0.9813  1.3627
 5965SOL     OW29527   3.109   1.669  15.936 -0.7243 -0.0876  0.5213
 5965SOL    HW129528   3.135   1.623  15.856  0.8435  1.8671 -0.0962
 5965SOL    HW229529   3.181   1.730  15.953  0.0800 -0.9373  0.1897
 5966SOL     OW29530   3.478   2.223  11.872 -0.2900 -0.3724 -0.1267
 5966SOL    HW129531   3.562   2.237  11.829 -0.3029 -0.3596 -0.1476
 5966SOL    HW229532   3.411   2.219  11.804 -0.9290 -1.7433  0.5772
 5967SOL     OW29533   4.433   4.174   5.825  0.1978 -0.0148 -0.7364
 5967SOL    HW129534   4.461   4.153   5.914  2.1027  1.6083 -0.9698
 5967SOL    HW229535   4.455   4.092   5.781  1.0222 -0.2348  0.0870
 5968SOL     OW29536   4.366   1.926  15.659 -0.5549  0.6550  0.6954
 5968SOL    HW129537   4.432   1.874  15.613 -4.0914 -2.3966 -0.9293
 5968SOL    HW229538   4.339   1.990  15.593  1.2357  0.6923  0.0049
 5969SOL     OW29539   1.542   4.723   0.286  0.1371  0.4414  0.0874
 5969SOL    HW129540   1.598   4.725   0.209 -0.9150 -0.2459 -0.6849
 5969SOL    HW229541   1.477   4.661   0.252 -1.4156  2.8642 -1.3493
 5970SOL     OW29542   3.547   1.252   5.056 -0.0347  0.3940  0.0493
 5970SOL    HW129543   3.540   1.202   4.975  1.5572 -0.6726  0.5599
 5970SOL    HW229544   3.528   1.340   5.025 -1.0079  0.5448  1.0640
 5971SOL     OW29545   0.680   2.687   5.081  0.3042  0.3029 -0.2999
 5971SOL    HW129546   0.627   2.705   5.159  1.7717 -1.3267  1.0984
 5971SOL    HW229547   0.750   2.751   5.092  0.6827 -0.7753  3.6609
 5972SOL     OW29548   2.601   1.487   6.100 -0.7362 -0.2574 -0.2456
 5972SOL    HW129549   2.513   1.518   6.120 -0.3990  2.1122 -2.3925
 5972SOL    HW229550   2.656   1.565   6.108  0.0819 -0.7066 -1.5242
 5973SOL     OW29551   0.289   0.297  17.194 -0.5342  0.2362 -0.2549
 5973SOL    HW129552   0.377   0.321  17.166 -0.6275  1.7710  0.7344
 5973SOL    HW229553   0.285   0.338  17.280  3.6838  0.2856 -0.0888
 5974SOL     OW29554   2.305   2.816  14.761  0.4876  0.3859  0.1178
 5974SOL    HW129555   2.215   2.821  14.728  0.7968  0.5053 -0.7154
 5974SOL    HW229556   2.326   2.726  14.737  1.4444  0.8276 -0.7258
 5975SOL     OW29557   3.413   1.217   1.868  0.4285 -0.2571  0.4376
 5975SOL    HW129558   3.369   1.228   1.953 -2.3007 -1.7607 -0.7605
 5975SOL    HW229559   3.501   1.220   1.907 -0.1019  0.8409  1.5515
 5976SOL     OW29560   3.718   2.064   2.640  0.2916  0.2411  0.0632
 5976SOL    HW129561   3.635   2.021   2.662  0.4655  0.3889  1.0359
 5976SOL    HW229562   3.690   2.112   2.563  1.4892 -1.8517 -1.7096
 5977SOL     OW29563   0.211   4.555   5.956  0.0904  0.6543 -0.3334
 5977SOL    HW129564   0.117   4.552   5.973 -0.1023 -0.4470 -1.6031
 5977SOL    HW229565   0.244   4.482   6.008  0.8250  0.8749 -0.4873
 5978SOL     OW29566   4.531   4.369   5.623  0.2465  0.4662 -0.0427
 5978SOL    HW129567   4.537   4.322   5.539 -0.6751  1.6942 -0.7911
 5978SOL    HW229568   4.485   4.308   5.681  0.5163 -0.2195 -0.5398
 5979SOL     OW29569   1.259   2.182  16.921  0.2360  0.0643 -0.0349
 5979SOL    HW129570   1.164   2.176  16.923  0.2770  0.3600  2.6377
 5979SOL    HW229571   1.279   2.190  17.014 -0.7126 -0.3797  0.1999
 5980SOL     OW29572   2.404   0.822   4.721 -0.1010  0.1662 -0.2393
 5980SOL    HW129573   2.425   0.738   4.680  2.5166  0.9698 -0.5200
 5980SOL    HW229574   2.353   0.800   4.799 -0.1335 -0.3847 -0.4086
 5981SOL     OW29575   3.971   2.427  11.728 -0.4672 -0.0074 -0.1048
 5981SOL    HW129576   3.958   2.517  11.756 -1.9279 -0.4449  0.6525
 5981SOL    HW229577   4.030   2.433  11.654 -0.5199  1.9933  0.0111
 5982SOL     OW29578   3.370   1.479   9.858  0.1171  0.0815  0.0243
 5982SOL    HW129579   3.392   1.407   9.798 -1.9502 -0.0980 -0.5082
 5982SOL    HW229580   3.321   1.435   9.927 -0.2536 -1.0688 -0.9676
 5983SOL     OW29581   1.795   2.706   2.502 -0.1079 -0.8102  0.2324
 5983SOL    HW129582   1.861   2.745   2.560 -1.4065  1.1339  0.3960
 5983SOL    HW229583   1.782   2.778   2.441 -2.0820 -0.7767  0.6966
 5984SOL     OW29584   2.429   0.583  10.210 -0.6970  0.3547  0.2263
 5984SOL    HW129585   2.485   0.659  10.221 -0.5247  0.4784 -1.4786
 5984SOL    HW229586   2.417   0.591  10.115  0.9654 -2.7347 -0.2541
 5985SOL     OW29587   0.463   0.875   7.483  0.7478 -0.5160 -0.1199
 5985SOL    HW129588   0.368   0.868   7.476  0.7220  1.5444 -1.6047
 5985SOL    HW229589   0.478   0.847   7.574 -2.0183 -1.7580 -0.0427
 5986SOL     OW29590   1.390   0.139   7.504  0.3678  0.1409  0.0104
 5986SOL    HW129591   1.465   0.194   7.482  1.0085  0.0932  2.0534
 5986SOL    HW229592   1.418   0.103   7.588 -0.7997 -0.4989  0.1322
 5987SOL     OW29593   0.325   3.535   5.637  0.2207  0.1290 -0.8402
 5987SOL    HW129594   0.365   3.621   5.644  0.7196 -0.1650 -0.0628
 5987SOL    HW229595   0.268   3.537   5.560 -0.9993 -0.6611  0.0429
 5988SOL     OW29596   2.827   0.674   0.652  0.3567 -0.1574 -0.2176
 5988SOL    HW129597   2.744   0.627   0.651 -0.1608  0.8355 -3.6851
 5988SOL    HW229598   2.794   0.748   0.702  3.1979 -0.0571  1.5326
 5989SOL     OW29599   0.103   0.628   7.694 -0.5310 -0.1951 -0.3465
 5989SOL    HW129600   0.157   0.645   7.771 -0.3555  0.8387 -0.7061
 5989SOL    HW229601   0.090   0.534   7.707  4.7955 -0.5267  2.7251
 5990SOL     OW29602   1.048   3.945  13.612  0.4662 -0.1980  0.4519
 5990SOL    HW129603   1.132   3.932  13.656  0.7302  0.9390  0.2757
 5990SOL    HW229604   0.989   3.887  13.660 -2.0362  1.5645 -0.4990
 5991SOL     OW29605   0.663   4.035  13.635  0.0290 -0.6434 -0.1727
 5991SOL    HW129606   0.713   3.991  13.704  0.4642  0.4588  0.2111
 5991SOL    HW229607   0.675   4.129  13.644 -1.5090 -0.2767 -1.9572
 5992SOL     OW29608   2.341   2.965   5.942  0.4679 -0.2242  0.2809
 5992SOL    HW129609   2.408   2.931   6.001  0.9801 -0.0543 -0.2010
 5992SOL    HW229610   2.325   2.896   5.877 -0.3311 -0.6875  0.9762
 5993SOL     OW29611   3.248   4.248   9.272  0.3040  0.1643  0.1784
 5993SOL    HW129612   3.205   4.313   9.327  1.7765  0.8017  0.5516
 5993SOL    HW229613   3.184   4.178   9.286 -0.9627  1.4152  0.6193
 5994SOL     OW29614   0.427   4.617   5.114 -0.2967 -0.0484  0.4963
 5994SOL    HW129615   0.466   4.530   5.108 -1.7331 -0.5027 -2.1631
 5994SOL    HW229616   0.398   4.613   5.205 -2.7217 -1.7995 -0.3751
 5995SOL     OW29617   1.463   0.098  13.045 -0.2604  0.0503  0.4441
 5995SOL    HW129618   1.471   0.018  13.097  0.1316 -0.2930 -0.1391
 5995SOL    HW229619   1.542   0.142  13.076  0.5643  0.6988 -2.5852
 5996SOL     OW29620   2.415   2.426   8.388 -0.1398 -0.1447 -0.2100
 5996SOL    HW129621   2.327   2.410   8.354 -0.5977  2.5499 -0.3251
 5996SOL    HW229622   2.393   2.475   8.468  0.4970 -0.5337  0.1985
 5997SOL     OW29623   2.957   4.077  16.347 -0.6477 -0.4152 -1.0968
 5997SOL    HW129624   2.866   4.067  16.375 -0.4568  2.4925  0.6440
 5997SOL    HW229625   2.952   4.166  16.312 -0.8764  0.0750  0.1609
 5998SOL     OW29626   0.190   1.619   2.191  0.2637 -0.0504  0.3231
 5998SOL    HW129627   0.180   1.546   2.252  1.4016  0.1364  0.7433
 5998SOL    HW229628   0.160   1.573   2.113 -2.2476 -0.4343  1.5152
 5999SOL     OW29629   2.771   1.871   2.787  0.2842  0.4324  0.5622
 5999SOL    HW129630   2.825   1.945   2.760  0.9569 -0.1497  0.3348
 5999SOL    HW229631   2.690   1.920   2.806  1.3838  1.1073  3.5035
 6000SOL     OW29632   1.250   1.581   4.021 -0.2078  0.2391  0.1457
 6000SOL    HW129633   1.190   1.555   4.091 -1.5742  0.2785 -1.0135
 6000SOL    HW229634   1.217   1.670   4.012 -0.8699 -0.2242 -2.0142
 6001SOL     OW29635   2.030   0.905   5.212 -0.6133  0.5491  0.6249
 6001SOL    HW129636   1.988   0.963   5.149  2.1465  0.4362 -1.3430
 6001SOL    HW229637   2.062   0.980   5.263  1.3937 -0.1270  0.3895
 6002SOL     OW29638   2.910   2.120   2.728  0.3141  0.1456 -0.0312
 6002SOL    HW129639   2.827   2.158   2.698  0.2119 -2.6696 -3.3013
 6002SOL    HW229640   2.950   2.189   2.782  0.3832 -0.4374  0.6622
 6003SOL     OW29641   0.082   4.620   7.447  0.3240 -0.0273  0.0872
 6003SOL    HW129642   0.084   4.562   7.523  2.4195 -2.0493 -1.5024
 6003SOL    HW229643   0.031   4.569   7.384 -2.0486  0.0826  1.9149
 6004SOL     OW29644   3.883   3.596   5.532 -0.3286 -0.7779 -0.2537
 6004SOL    HW129645   3.800   3.595   5.578  0.2169 -0.8015  0.7199
 6004SOL    HW229646   3.887   3.502   5.512 -0.9968 -0.9523  0.4300
 6005SOL     OW29647   3.400   3.285   2.822  0.6243  0.2135  0.0079
 6005SOL    HW129648   3.310   3.316   2.816  0.4849 -0.1141  0.4943
 6005SOL    HW229649   3.431   3.322   2.739 -2.0183  2.8017  0.1925
 6006SOL     OW29650   2.293   3.710   3.510 -0.1114  0.1057 -0.5025
 6006SOL    HW129651   2.213   3.668   3.479 -0.1093 -0.7024  0.5711
 6006SOL    HW229652   2.282   3.716   3.605  2.2980 -0.1106 -0.2192
 6007SOL     OW29653   4.669   2.583   4.063  0.1620  0.3584  0.1853
 6007SOL    HW129654   4.624   2.585   4.148  1.9043  0.8699  1.0936
 6007SOL    HW229655   4.673   2.678   4.048  0.3625  0.4255  0.6545
 6008SOL     OW29656   0.056   4.672   4.008 -0.5800 -0.3356 -0.1415
 6008SOL    HW129657   0.072   4.617   3.931 -2.4359 -0.5741 -0.3447
 6008SOL    HW229658   0.140   4.712   4.032 -1.8188  1.0171  1.9657
 6009SOL     OW29659   2.322   1.775   8.084 -0.8101 -0.0207 -0.1169
 6009SOL    HW129660   2.280   1.720   8.018 -0.5077  0.4891 -0.7333
 6009SOL    HW229661   2.306   1.863   8.051 -2.5693  0.2914  1.6344
 6010SOL     OW29662   3.283   0.884   8.299  0.2096 -0.1037 -0.7878
 6010SOL    HW129663   3.308   0.907   8.210  1.1392 -1.0379 -0.7598
 6010SOL    HW229664   3.194   0.920   8.294 -0.6252 -2.1925 -1.0882
 6011SOL     OW29665   3.729   2.639   1.158  0.5116  0.3686 -0.1478
 6011SOL    HW129666   3.634   2.635   1.154  0.5310 -0.4349  0.3137
 6011SOL    HW229667   3.748   2.547   1.176  0.0007  0.8427  2.7267
 6012SOL     OW29668   1.995   0.292   6.617  0.0371 -0.1486 -0.7290
 6012SOL    HW129669   2.051   0.262   6.689  0.5189 -2.0887 -1.8999
 6012SOL    HW229670   2.058   0.337   6.561 -0.9966 -0.6701 -2.3308
 6013SOL     OW29671   3.276   2.136   2.004 -0.1591  0.1151  0.2645
 6013SOL    HW129672   3.361   2.169   1.976  0.5400  2.2862  5.0947
 6013SOL    HW229673   3.239   2.200   2.065 -1.2145 -0.2110 -0.0276
 6014SOL     OW29674   4.163   3.276   1.817  0.2290 -0.1586  0.2805
 6014SOL    HW129675   4.166   3.263   1.912  0.6596 -0.2599  0.2523
 6014SOL    HW229676   4.256   3.270   1.795 -0.1563  0.3330 -1.4712
 6015SOL     OW29677   4.500   2.121   5.146 -0.1553 -0.0651  0.7900
 6015SOL    HW129678   4.566   2.189   5.161  1.8114 -1.8674  0.3798
 6015SOL    HW229679   4.451   2.131   5.227  1.6979  0.4006  1.8448
 6016SOL     OW29680   3.571   1.799   2.736  0.1642  0.3111 -0.4231
 6016SOL    HW129681   3.520   1.803   2.655  1.4045  2.9135 -1.0637
 6016SOL    HW229682   3.637   1.736   2.705  1.0905  0.5407  1.0812
 6017SOL     OW29683   2.921   3.659   5.754 -0.0730 -0.4397 -0.1179
 6017SOL    HW129684   2.832   3.626   5.757  0.4783 -1.8497  0.3206
 6017SOL    HW229685   2.904   3.743   5.710  0.6352 -1.3866 -2.2096
 6018SOL     OW29686   2.020   2.412   5.779  0.1509 -0.2828 -0.8509
 6018SOL    HW129687   1.975   2.373   5.854  0.3851  1.3296  0.1296
 6018SOL    HW229688   2.111   2.390   5.798  0.8710  3.6693  0.2703
 6019SOL     OW29689   0.535   2.773   5.725  0.0085 -0.0162 -0.2230
 6019SOL    HW129690   0.512   2.838   5.659 -1.6878  0.8081  1.1626
 6019SOL    HW229691   0.612   2.727   5.691 -0.2016 -0.4701 -0.0920
 6020SOL     OW29692   4.200   1.471   7.420 -0.3276  0.3924 -0.5789
 6020SOL    HW129693   4.115   1.479   7.463  0.0975  1.1853  0.1305
 6020SOL    HW229694   4.253   1.518   7.486 -1.3728  0.4049  0.2481
 6021SOL     OW29695   0.526   0.214   8.350 -0.1046  0.0432  0.2092
 6021SOL    HW129696   0.531   0.248   8.261  0.3087 -3.2897 -1.0545
 6021SOL    HW229697   0.441   0.171   8.360  1.1461 -2.1435  1.3794
 6022SOL     OW29698   1.137   1.115   8.505 -0.2213 -0.2272 -0.3424
 6022SOL    HW129699   1.144   1.168   8.425  0.5949  2.5033  1.5312
 6022SOL    HW229700   1.076   1.051   8.468 -0.2998 -1.1481  1.3867
 6023SOL     OW29701   3.457   0.378  11.299  0.3317  0.1062 -0.2238
 6023SOL    HW129702   3.384   0.318  11.314  0.1475 -0.0485 -1.7924
 6023SOL    HW229703   3.489   0.342  11.217 -4.0631 -1.3122 -1.3059
 6024SOL     OW29704   4.421   2.288   9.060  0.1709 -0.3604 -0.2171
 6024SOL    HW129705   4.408   2.368   9.111  4.1458 -0.4562  0.9877
 6024SOL    HW229706   4.509   2.311   9.031 -0.7771 -0.2349 -2.9397
 6025SOL     OW29707   0.587   0.935   6.968 -0.0569  0.1312  0.7472
 6025SOL    HW129708   0.600   0.886   7.049  0.6879 -4.2540 -1.9701
 6025SOL    HW229709   0.675   0.972   6.966  0.8855 -2.1527 -0.8784
 6026SOL     OW29710   3.954   1.278   1.314  0.3356  0.1672  0.5025
 6026SOL    HW129711   4.025   1.235   1.362  0.9846 -0.3581 -0.9416
 6026SOL    HW229712   3.973   1.288   1.221  1.1593  0.2949  0.6844
 6027SOL     OW29713   2.640   3.101  15.337  0.5149 -0.1686 -0.4493
 6027SOL    HW129714   2.732   3.079  15.323  0.1060 -1.4538 -1.1017
 6027SOL    HW229715   2.598   3.047  15.270  1.2606 -0.0688 -0.9942
 6028SOL     OW29716   2.920   0.278   2.042 -0.0208  0.3755 -0.6086
 6028SOL    HW129717   2.973   0.202   2.066  1.4044  1.6517  0.2707
 6028SOL    HW229718   2.858   0.247   1.976  0.7999  1.0481 -1.6665
 6029SOL     OW29719   2.713   3.261   0.640 -0.2178  0.2895 -0.0225
 6029SOL    HW129720   2.736   3.258   0.547  1.1508 -2.3117  0.3963
 6029SOL    HW229721   2.687   3.169   0.650 -1.4521  0.6097 -0.3534
 6030SOL     OW29722   4.059   2.502   5.748 -0.7386  0.0484 -0.7594
 6030SOL    HW129723   4.073   2.411   5.774  0.3440  1.1855  2.6997
 6030SOL    HW229724   4.125   2.513   5.679  0.9370  0.3896  0.8859
 6031SOL     OW29725   1.217   1.500   8.664 -0.1066  0.6530  0.0427
 6031SOL    HW129726   1.219   1.596   8.664  1.0066  0.6419  2.2538
 6031SOL    HW229727   1.133   1.490   8.709 -1.1678 -0.0773 -2.1294
 6032SOL     OW29728   3.500   2.471  11.683 -0.4303 -0.6559  0.4760
 6032SOL    HW129729   3.481   2.483  11.590  1.0859  1.5981  0.4781
 6032SOL    HW229730   3.431   2.528  11.715  0.5226  1.7122 -1.7005
 6033SOL     OW29731   0.849   2.884   5.160 -0.3993 -0.1893 -0.7608
 6033SOL    HW129732   0.862   2.924   5.246  0.9578 -0.0274 -1.0425
 6033SOL    HW229733   0.922   2.823   5.149  1.1846  1.4178  0.5838
 6034SOL     OW29734   3.293   4.147  11.949  0.0690  0.0239  0.7484
 6034SOL    HW129735   3.359   4.164  12.017  1.0279 -2.5206  0.4803
 6034SOL    HW229736   3.239   4.225  11.951 -1.1104 -0.7541 -1.3649
 6035SOL     OW29737   2.691   2.672  15.421 -0.3539 -0.2036 -0.6281
 6035SOL    HW129738   2.603   2.680  15.384 -0.5400 -1.1840 -0.4011
 6035SOL    HW229739   2.718   2.763  15.431 -0.8097 -0.2261  0.7856
 6036SOL     OW29740   4.599   4.169  13.906 -0.0147  0.1249  0.2899
 6036SOL    HW129741   4.541   4.237  13.872 -0.0591 -0.5599 -0.9925
 6036SOL    HW229742   4.556   4.143  13.987 -2.1442 -1.8904 -1.4815
 6037SOL     OW29743   4.598   1.389   9.582  0.1012  0.2727 -0.2038
 6037SOL    HW129744   4.601   1.474   9.625 -1.0617  0.7455 -1.0494
 6037SOL    HW229745   4.543   1.338   9.642 -1.3197  1.1541 -0.7540
 6038SOL     OW29746   3.453   4.009   0.104  0.6063  0.0436 -0.1133
 6038SOL    HW129747   3.434   3.954   0.028 -0.9234  0.4070  0.0097
 6038SOL    HW229748   3.535   3.967   0.128  0.6620  1.5241  2.3090
 6039SOL     OW29749   0.914   1.714  15.121 -0.2253  0.3903  0.1276
 6039SOL    HW129750   0.922   1.765  15.040 -1.6069  0.0962 -0.1972
 6039SOL    HW229751   1.006   1.719  15.145 -0.1761 -0.3562  0.0824
 6040SOL     OW29752   2.954   0.532   9.604 -0.3290  0.0266  0.0061
 6040SOL    HW129753   2.918   0.455   9.648 -0.1485 -0.5407 -0.8448
 6040SOL    HW229754   3.012   0.493   9.538  0.1066 -0.6929  0.8088
 6041SOL     OW29755   2.865   4.284  11.944  0.1846 -0.3081  0.0281
 6041SOL    HW129756   2.854   4.327  11.859 -0.6972 -1.1376 -0.2755
 6041SOL    HW229757   2.951   4.314  11.974 -0.6732  2.1442  0.0559
 6042SOL     OW29758   4.363   3.668   2.271 -0.2042 -0.0031 -0.3151
 6042SOL    HW129759   4.350   3.655   2.365  0.8751  0.0110 -0.1572
 6042SOL    HW229760   4.309   3.746   2.259 -0.3410  0.0058  0.3563
 6043SOL     OW29761   2.750   1.258   8.775 -0.7778 -0.3663 -0.1545
 6043SOL    HW129762   2.727   1.274   8.684  1.8959  0.9451 -0.5967
 6043SOL    HW229763   2.815   1.323   8.800 -0.3950 -1.7040  2.3206
 6044SOL     OW29764   1.171   3.109   6.311 -0.0013 -0.3109  0.0968
 6044SOL    HW129765   1.085   3.069   6.295 -0.2768  0.6867 -0.9200
 6044SOL    HW229766   1.232   3.047   6.273 -2.1403 -2.2808 -0.1323
 6045SOL     OW29767   1.292   0.038  15.380  0.3242  0.5564  0.1984
 6045SOL    HW129768   1.368   4.730  15.417 -0.1693 -1.7810 -1.6406
 6045SOL    HW229769   1.296   0.120  15.429  2.0861  0.1983  0.6743
 6046SOL     OW29770   4.506   4.421   4.946  0.2690  0.1490  0.0445
 6046SOL    HW129771   4.590   4.467   4.937  0.7849 -0.5799  1.0927
 6046SOL    HW229772   4.534   4.331   4.926 -1.5423 -0.2866 -0.5197
 6047SOL     OW29773   1.751   1.160   5.231  0.1828 -0.1820 -0.1529
 6047SOL    HW129774   1.841   1.149   5.201  0.8553 -0.5342  2.0433
 6047SOL    HW229775   1.740   1.095   5.300 -2.2938 -0.9128 -1.2196
 6048SOL     OW29776   3.968   4.578   7.171 -0.7415  0.1090  0.6119
 6048SOL    HW129777   4.055   4.612   7.148 -1.8340  1.5697 -1.4127
 6048SOL    HW229778   3.956   4.634   7.248 -1.4994 -0.6113  1.0112
 6049SOL     OW29779   0.467   0.917   5.826  0.2709  0.5253 -0.0909
 6049SOL    HW129780   0.381   0.953   5.845 -0.1166 -0.6291  0.3423
 6049SOL    HW229781   0.495   0.966   5.749  2.1315  0.3555  0.4818
 6050SOL     OW29782   0.436   3.454   8.382 -0.0422  0.5791 -0.0162
 6050SOL    HW129783   0.351   3.444   8.339 -0.3153 -2.1990  1.1605
 6050SOL    HW229784   0.406   3.445   8.473  0.3999  3.1079  0.3789
 6051SOL     OW29785   2.785   1.973   0.485 -0.4510 -0.6182 -0.3917
 6051SOL    HW129786   2.737   1.965   0.402  1.3616 -1.0351 -1.3895
 6051SOL    HW229787   2.777   2.066   0.506  0.2396 -0.6103 -0.1955
 6052SOL     OW29788   3.816   2.765   8.057  0.2045 -0.0565  0.0823
 6052SOL    HW129789   3.751   2.831   8.082 -0.9707 -0.5536 -1.6415
 6052SOL    HW229790   3.890   2.779   8.115  0.1955 -3.6796  0.9282
 6053SOL     OW29791   0.040   1.332   6.208 -0.0673  0.6075 -0.3266
 6053SOL    HW129792   4.684   1.328   6.191  0.2567  1.8701 -2.2974
 6053SOL    HW229793   0.054   1.425   6.223  1.3039  0.5446 -1.2245
 6054SOL     OW29794   1.535   0.741   6.844  0.2644  0.0002  0.1135
 6054SOL    HW129795   1.477   0.669   6.819  0.8102  0.5231 -2.6374
 6054SOL    HW229796   1.553   0.778   6.758  0.6671 -0.9457 -0.2103
 6055SOL     OW29797   3.873   1.912   8.266  0.1914  0.1953 -0.0257
 6055SOL    HW129798   3.877   1.858   8.345  0.8329  1.6125  0.9181
 6055SOL    HW229799   3.964   1.915   8.236  1.4799  2.2587  4.0387
 6056SOL     OW29800   3.081   1.220   8.081 -0.2825  0.6246  0.2139
 6056SOL    HW129801   3.044   1.170   8.154  1.4859  1.0619  1.4120
 6056SOL    HW229802   3.091   1.300   8.134  0.2816  2.4497 -2.6834
 6057SOL     OW29803   2.322   0.214   4.856  0.0383 -0.1650  0.1135
 6057SOL    HW129804   2.416   0.230   4.863  0.1460 -0.9197  0.3741
 6057SOL    HW229805   2.294   0.263   4.779 -1.1211 -0.6870  0.1964
 6058SOL     OW29806   0.975   0.967   9.878  0.0529  0.1684 -0.0612
 6058SOL    HW129807   1.070   0.966   9.866  0.0346  0.1737 -0.2149
 6058SOL    HW229808   0.978   0.964   9.973  1.0638  0.3978 -0.0876
 6059SOL     OW29809   1.370   3.932   2.197  0.3091 -0.4125  0.1636
 6059SOL    HW129810   1.364   3.883   2.115 -1.2330 -0.3698  0.2498
 6059SOL    HW229811   1.350   3.855   2.250 -0.6027 -0.1545  0.2041
 6060SOL     OW29812   4.240   2.077  11.116 -1.0806 -0.2858 -0.0823
 6060SOL    HW129813   4.228   2.169  11.096  3.2362  0.7339  1.9140
 6060SOL    HW229814   4.157   2.040  11.085 -2.9752  2.6598  1.5489
 6061SOL     OW29815   4.232   2.459   7.397 -0.3774  0.2027 -0.0053
 6061SOL    HW129816   4.245   2.542   7.351 -0.2060 -0.0880 -0.4712
 6061SOL    HW229817   4.139   2.451   7.375 -0.5009  1.9172 -0.1409
 6062SOL     OW29818   2.964   3.850   7.715 -0.4641  0.3885 -0.3911
 6062SOL    HW129819   2.975   3.900   7.796  1.2269  1.5198 -1.3381
 6062SOL    HW229820   3.031   3.782   7.726 -0.6061  0.3670  0.3542
 6063SOL     OW29821   3.379   2.532   3.448  0.2587  0.1750  0.3199
 6063SOL    HW129822   3.311   2.487   3.397  0.1201 -1.6250  2.1010
 6063SOL    HW229823   3.370   2.625   3.428 -3.9339  0.1431  2.0152
 6064SOL     OW29824   2.037   3.985   2.940 -0.6400 -0.6060  0.0525
 6064SOL    HW129825   1.985   4.065   2.925  0.2376 -0.5199 -2.5048
 6064SOL    HW229826   2.127   4.017   2.933 -1.0039  0.2326 -0.8400
 6065SOL     OW29827   0.597   2.014   6.793  0.4485  0.7132  0.5811
 6065SOL    HW129828   0.504   1.994   6.796  0.1802  1.6887 -1.6811
 6065SOL    HW229829   0.632   2.000   6.705 -1.0163  1.5930 -0.1354
 6066SOL     OW29830   3.801   3.349   8.102  0.1441 -0.4528 -0.2774
 6066SOL    HW129831   3.814   3.269   8.153 -1.2304 -0.0293  0.7299
 6066SOL    HW229832   3.878   3.359   8.046  1.2098  0.8961  1.4319
 6067SOL     OW29833   0.093   2.367   2.176  0.5716 -0.1079 -0.3475
 6067SOL    HW129834   0.092   2.378   2.271 -3.2143 -0.6739 -0.3450
 6067SOL    HW229835   4.737   2.349   2.168  0.7981 -1.7988  0.8262
 6068SOL     OW29836   3.673   0.835   2.349  0.1298 -0.1230 -0.0225
 6068SOL    HW129837   3.700   0.770   2.415  1.9671  2.4790  1.7912
 6068SOL    HW229838   3.687   0.917   2.397  0.3908  0.4134 -1.0221
 6069SOL     OW29839   4.306   3.408   7.823  0.0561  0.1010 -0.3841
 6069SOL    HW129840   4.235   3.391   7.885  1.8610 -0.3060  1.5452
 6069SOL    HW229841   4.378   3.356   7.858  1.2565  0.8251 -1.7644
 6070SOL     OW29842   1.477   3.445   3.457  0.0849 -0.2619  0.1643
 6070SOL    HW129843   1.503   3.492   3.377 -2.0675 -2.5197 -1.8832
 6070SOL    HW229844   1.555   3.430   3.510 -0.2585  0.5418  0.9075
 6071SOL     OW29845   2.551   4.143   2.800  0.0442  0.1905 -0.0359
 6071SOL    HW129846   2.615   4.107   2.738 -0.4615  0.3905 -0.6805
 6071SOL    HW229847   2.584   4.109   2.883  1.1488 -1.8023 -1.2818
 6072SOL     OW29848   0.814   2.976   8.359  0.2271 -0.3123  0.5225
 6072SOL    HW129849   0.725   3.006   8.340  1.1777  1.8557 -0.5155
 6072SOL    HW229850   0.798   2.889   8.397 -2.2706 -0.2864 -0.5211
 6073SOL     OW29851   1.972   1.958   8.440  0.6001  0.3660 -0.2565
 6073SOL    HW129852   2.043   1.957   8.505  1.2094  1.2998 -0.9104
 6073SOL    HW229853   2.009   2.016   8.374  1.9880 -0.9314 -0.6052
 6074SOL     OW29854   3.096   1.957   4.471  0.0981  0.4259 -0.4387
 6074SOL    HW129855   3.101   2.053   4.477 -1.2871  0.2976  3.2427
 6074SOL    HW229856   3.113   1.942   4.564  0.9609 -1.2781 -0.8825
 6075SOL     OW29857   0.230   3.351   5.363  0.3754 -0.1666  0.0381
 6075SOL    HW129858   0.312   3.399   5.357  0.2778 -0.1419 -1.1922
 6075SOL    HW229859   0.173   3.423   5.389 -0.4162 -0.8226  0.1248
 6076SOL     OW29860   0.136   4.126  15.481  0.1223  0.2610 -0.2524
 6076SOL    HW129861   0.075   4.056  15.504  0.5035 -0.2942 -0.9244
 6076SOL    HW229862   0.152   4.115  15.388  0.2914 -1.1736 -0.0665
 6077SOL     OW29863   2.797   0.811   0.151  1.1412  0.3014 -0.1698
 6077SOL    HW129864   2.739   0.815   0.227  0.0456  0.2366 -1.0000
 6077SOL    HW229865   2.883   0.784   0.182  0.2943 -2.4833 -0.2509
 6078SOL     OW29866   3.420   4.491  15.964  0.6511  0.3642 -0.2251
 6078SOL    HW129867   3.337   4.457  15.996  1.3079 -0.6386  0.3947
 6078SOL    HW229868   3.401   4.482  15.870 -0.0162  1.6437 -0.2093
 6079SOL     OW29869   2.477   1.455   3.942  0.3262 -0.8028  0.3308
 6079SOL    HW129870   2.538   1.412   3.882 -1.7252 -1.4906 -1.2619
 6079SOL    HW229871   2.421   1.499   3.878 -0.5403 -0.0256  1.6130
 6080SOL     OW29872   3.043   1.655  11.989  0.6724 -0.3031 -0.1515
 6080SOL    HW129873   3.095   1.724  12.030  1.8437 -1.4431  0.2930
 6080SOL    HW229874   3.023   1.710  11.914  0.5939 -0.9854 -0.6306
 6081SOL     OW29875   2.025   2.979   5.273  0.5970  0.0312 -0.5103
 6081SOL    HW129876   2.005   2.905   5.330  0.1099  0.7503  0.2545
 6081SOL    HW229877   2.094   2.934   5.225 -1.9673 -2.2575 -1.9832
 6082SOL     OW29878   0.555   4.204   9.961  0.7099  0.1766 -0.5033
 6082SOL    HW129879   0.638   4.232   9.922  0.5705 -0.6968 -1.4110
 6082SOL    HW229880   0.589   4.159  10.039 -1.3122 -0.1918  0.1701
 6083SOL     OW29881   3.390   0.045  14.719  0.5809  0.0022  0.5979
 6083SOL    HW129882   3.310   0.021  14.672  0.0077 -2.3745  2.8028
 6083SOL    HW229883   3.428   0.110  14.660  0.0811 -1.1083 -0.9632
 6084SOL     OW29884   3.904   0.078   4.932  0.0549  0.4117 -0.0693
 6084SOL    HW129885   3.884   0.170   4.950 -0.7755 -0.2227  2.1682
 6084SOL    HW229886   3.872   0.038   5.012 -0.7826  2.3074  0.5303
 6085SOL     OW29887   2.874   2.261  13.105  0.3277 -0.1257  0.3829
 6085SOL    HW129888   2.820   2.223  13.035 -1.6213  2.1304  0.6431
 6085SOL    HW229889   2.912   2.338  13.063 -1.8421 -0.2016 -1.7836
 6086SOL     OW29890   3.881   2.315   4.350 -0.0769  0.0212 -0.5189
 6086SOL    HW129891   3.899   2.374   4.276 -0.0752 -0.1219 -0.6330
 6086SOL    HW229892   3.952   2.251   4.345 -0.0860 -0.1045  0.9449
 6087SOL     OW29893   3.114   2.534   1.181  0.2846 -0.2353  0.0593
 6087SOL    HW129894   3.136   2.545   1.089 -0.1762 -1.3781 -0.1813
 6087SOL    HW229895   3.044   2.468   1.182  0.3104 -0.2631 -0.1149
 6088SOL     OW29896   3.591   3.036  11.699  0.3362 -0.2187  0.0018
 6088SOL    HW129897   3.640   3.029  11.617  0.2954 -1.2618  0.0752
 6088SOL    HW229898   3.513   3.092  11.690  0.3571  0.1116  1.8509
 6089SOL     OW29899   2.061   2.873   1.070  1.1578  0.1528  0.1676
 6089SOL    HW129900   2.100   2.869   1.158  0.1445  0.6653  0.6389
 6089SOL    HW229901   2.140   2.896   1.020  0.8211  2.6011  0.7563
 6090SOL     OW29902   2.775   2.767   1.777 -0.7176  0.6745 -0.2489
 6090SOL    HW129903   2.767   2.760   1.872 -0.3467  1.3980 -0.1609
 6090SOL    HW229904   2.803   2.676   1.769  0.4750  0.9782  0.4365
 6091SOL     OW29905   3.988   1.149   6.579 -0.0637 -0.0240 -0.2690
 6091SOL    HW129906   4.035   1.207   6.520  0.8142 -0.2704  0.1973
 6091SOL    HW229907   4.008   1.063   6.543 -0.0295 -0.6527  1.2836
 6092SOL     OW29908   1.935   2.101  11.428 -0.3199 -0.2308 -0.4689
 6092SOL    HW129909   1.892   2.185  11.412 -1.8714 -0.8800  0.2548
 6092SOL    HW229910   2.016   2.110  11.379 -1.7621 -0.9941 -3.0210
 6093SOL     OW29911   3.225   2.939  16.823  0.0964 -0.0584 -0.1021
 6093SOL    HW129912   3.181   2.985  16.751  0.2331 -1.1664 -0.8837
 6093SOL    HW229913   3.266   3.013  16.867 -1.3561  1.0286 -0.5583
 6094SOL     OW29914   3.589   1.300   4.369 -0.0355  0.1590 -0.3626
 6094SOL    HW129915   3.684   1.315   4.365  0.0292 -0.6682 -1.7359
 6094SOL    HW229916   3.542   1.384   4.376  0.1651  0.2595 -0.2235
 6095SOL     OW29917   2.922   3.546   7.929 -0.0654  0.4841  0.5124
 6095SOL    HW129918   2.991   3.533   7.993  1.2902  1.3543 -0.7496
 6095SOL    HW229919   2.850   3.583   7.980  0.1085  1.9021 -0.2487
 6096SOL     OW29920   1.475   2.798  17.629 -0.2156  0.0489 -0.3915
 6096SOL    HW129921   1.497   2.831  17.716 -2.5171  1.6157 -0.3852
 6096SOL    HW229922   1.531   2.865  17.591 -2.0184  2.9119  1.9400
 6097SOL     OW29923   2.807   0.700  17.656  0.4182 -0.5492 -0.6097
 6097SOL    HW129924   2.846   0.763  17.596 -2.1615  2.6746  1.0824
 6097SOL    HW229925   2.805   0.742  17.742 -0.4303 -1.0533 -0.3853
 6098SOL     OW29926   2.656   0.784   9.782 -0.2593  0.4573 -0.5916
 6098SOL    HW129927   2.724   0.828   9.834 -1.5283  1.6705  0.0307
 6098SOL    HW229928   2.693   0.792   9.694  2.1375  1.3401  0.4700
 6099SOL     OW29929   3.668   2.003   3.897 -0.0424  0.0422 -0.3784
 6099SOL    HW129930   3.574   2.001   3.880  0.3782  0.8435 -2.7634
 6099SOL    HW229931   3.673   2.098   3.907  0.2069  0.0381 -0.4527
 6100SOL     OW29932   0.745   0.231   1.031 -0.0798  0.1544 -0.4804
 6100SOL    HW129933   0.818   0.247   0.971  0.1052  0.2266 -0.2366
 6100SOL    HW229934   0.696   0.169   0.976  1.2008 -0.3203 -1.0986
 6101SOL     OW29935   0.512   3.757   4.177 -0.1435 -0.7235  0.5465
 6101SOL    HW129936   0.508   3.761   4.273 -0.9304 -2.2815  0.5757
 6101SOL    HW229937   0.423   3.785   4.156  0.0010  0.6481  1.7395
 6102SOL     OW29938   2.862   3.350   2.901 -0.3723  0.1904  0.5463
 6102SOL    HW129939   2.805   3.335   2.976 -2.0652 -3.3848 -1.4445
 6102SOL    HW229940   2.846   3.275   2.844 -0.9217  0.4674  0.3287
 6103SOL     OW29941   2.116   2.576   4.954  0.0334  0.0074 -0.3690
 6103SOL    HW129942   2.166   2.518   5.012 -0.3052  0.0564 -0.0268
 6103SOL    HW229943   2.175   2.587   4.880  1.1701 -1.4741  0.3204
 6104SOL     OW29944   4.088   1.224   1.086  0.0116  0.3410  0.8148
 6104SOL    HW129945   4.055   1.135   1.072  1.2788  0.3738 -2.4737
 6104SOL    HW229946   4.182   1.219   1.102  0.1527 -2.6483 -1.0069
 6105SOL     OW29947   4.130   1.853   3.477 -0.6399  0.0799  0.3699
 6105SOL    HW129948   4.108   1.772   3.431 -0.5779 -0.3359  1.0637
 6105SOL    HW229949   4.048   1.903   3.473 -0.4503  0.2213 -1.4091
 6106SOL     OW29950   3.435   2.136   1.196 -0.0356 -0.4180 -0.0396
 6106SOL    HW129951   3.428   2.086   1.114 -1.9759 -0.8094  0.3600
 6106SOL    HW229952   3.364   2.095   1.246 -1.4023  0.1662 -1.4647
 6107SOL     OW29953   1.088   1.811   6.463 -0.3762  0.1111  0.7863
 6107SOL    HW129954   1.137   1.860   6.396 -1.9847 -0.3527 -0.7479
 6107SOL    HW229955   1.050   1.886   6.508  1.5519  1.3486  0.3357
 6108SOL     OW29956   3.097   4.068   5.468  0.2126  0.3911  0.5528
 6108SOL    HW129957   3.082   4.142   5.409 -1.8234 -0.8665 -0.4957
 6108SOL    HW229958   3.174   4.095   5.518 -0.3239  0.7272  1.2028
 6109SOL     OW29959   3.407   3.935   1.989  0.0025 -0.4211 -0.2782
 6109SOL    HW129960   3.496   3.917   2.020  0.1932  0.1614 -0.4848
 6109SOL    HW229961   3.367   4.004   2.043  2.0736 -0.5401  1.4147
 6110SOL     OW29962   4.039   4.245   8.651  0.7108  0.3978  0.0385
 6110SOL    HW129963   4.073   4.248   8.741 -0.9092 -0.2598  0.6738
 6110SOL    HW229964   3.965   4.304   8.663 -0.3971 -0.9651 -0.1781
 6111SOL     OW29965   2.172   1.160   8.345 -0.0504 -0.0032  0.7780
 6111SOL    HW129966   2.173   1.095   8.416  0.8787  0.8121  1.5001
 6111SOL    HW229967   2.145   1.239   8.392 -0.0682  0.7702 -0.5477
 6112SOL     OW29968   4.172   3.186   5.358  0.5163  0.0396  0.8973
 6112SOL    HW129969   4.256   3.153   5.389  0.6945 -0.1554  0.2037
 6112SOL    HW229970   4.186   3.190   5.263  0.8574 -0.8365  0.9087
 6113SOL     OW29971   0.474   2.022   9.089  0.0690 -0.0913 -0.5930
 6113SOL    HW129972   0.567   2.012   9.110 -0.1785  1.9568  1.4841
 6113SOL    HW229973   0.433   2.045   9.173  0.4915  0.3745 -0.5138
 6114SOL     OW29974   0.099   1.029   7.075 -0.4490 -0.1874  0.5936
 6114SOL    HW129975   0.072   0.939   7.089  1.9867 -1.2111 -1.2859
 6114SOL    HW229976   0.131   1.024   6.985 -4.0091 -0.1770 -0.6702
 6115SOL     OW29977   3.669   0.890  11.605  0.2066  0.1775 -0.1874
 6115SOL    HW129978   3.711   0.839  11.674 -0.2520  1.0407  0.7400
 6115SOL    HW229979   3.576   0.865  11.600 -0.0781  1.0608  0.6987
 6116SOL     OW29980   1.642   4.157   3.250 -0.6522  0.3209 -0.3850
 6116SOL    HW129981   1.608   4.208   3.176 -1.1122 -0.1348 -0.4855
 6116SOL    HW229982   1.652   4.066   3.222  0.2452  0.5901 -0.9452
 6117SOL     OW29983   3.392   3.110   3.722  0.1795 -0.0466  0.4029
 6117SOL    HW129984   3.402   3.090   3.629  0.7783 -1.3010  0.7435
 6117SOL    HW229985   3.359   3.200   3.718  0.2818 -0.0145  0.2873
 6118SOL     OW29986   2.480   3.876   2.379  0.1721  0.0413 -0.9996
 6118SOL    HW129987   2.467   3.871   2.284  1.0764  0.9802 -1.1679
 6118SOL    HW229988   2.516   3.965   2.379 -1.9739  0.8991 -0.5025
 6119SOL     OW29989   3.540   1.601   2.965  0.0636  0.0029 -0.1991
 6119SOL    HW129990   3.616   1.643   3.005 -0.7575 -0.0834  1.4552
 6119SOL    HW229991   3.520   1.668   2.899  2.2073  1.7556  0.9559
 6120SOL     OW29992   0.010   4.411  15.279 -0.4653  0.0160  0.0817
 6120SOL    HW129993   0.085   4.461  15.249 -0.0233 -0.8567 -0.2876
 6120SOL    HW229994   4.673   4.469  15.267 -0.3659 -0.1420 -1.3062
 6121SOL     OW29995   0.886   0.149  14.163  0.6908  0.0694  0.0248
 6121SOL    HW129996   0.792   0.133  14.156  0.3370  2.6098 -1.0213
 6121SOL    HW229997   0.926   0.062  14.173  1.1285  0.2215 -0.4020
 6122SOL     OW29998   0.151   2.531   8.538  0.4466  0.2356  0.3746
 6122SOL    HW129999   0.152   2.517   8.443 -1.3007 -1.6175  0.6166
 6122SOL    HW230000   0.128   2.623   8.551 -0.1424 -0.0977  1.6798
 6123SOL     OW30001   2.589   2.921   2.239  0.6553 -0.2293 -0.3776
 6123SOL    HW130002   2.550   3.007   2.225  0.2362 -0.2060  0.9967
 6123SOL    HW230003   2.676   2.932   2.200 -0.0167  4.0457 -0.6591
 6124SOL     OW30004   0.152   3.294  11.005 -0.1049  0.1838 -0.4618
 6124SOL    HW130005   0.204   3.353  10.950  0.8063  1.0358  1.3287
 6124SOL    HW230006   0.219   3.227  11.022  0.3150  1.0577  1.3332
 6125SOL     OW30007   0.888   0.291   7.015  0.0615  0.1398  0.0846
 6125SOL    HW130008   0.920   0.353   7.081  1.7280  0.9087 -1.4508
 6125SOL    HW230009   0.795   0.283   7.034 -0.2306  1.7041 -0.7252
 6126SOL     OW30010   1.538   1.006   9.298  0.1682  0.3958 -0.5497
 6126SOL    HW130011   1.472   1.056   9.346  1.0481 -0.0007  1.0843
 6126SOL    HW230012   1.519   0.918   9.329 -0.1480  0.2897 -1.0522
 6127SOL     OW30013   0.673   2.785   3.625 -0.3483  0.0759  0.4940
 6127SOL    HW130014   0.634   2.871   3.614 -2.2274 -0.9997 -1.2397
 6127SOL    HW230015   0.742   2.808   3.687  0.3926  0.8714 -0.6288
 6128SOL     OW30016   4.246   2.054   6.231 -0.4799 -0.0334 -0.4689
 6128SOL    HW130017   4.172   2.052   6.169 -0.8702 -0.6117  0.0155
 6128SOL    HW230018   4.284   1.967   6.219 -1.7445 -0.9810  2.4263
 6129SOL     OW30019   3.057   1.276   6.474 -0.2245  0.4152  0.2406
 6129SOL    HW130020   3.087   1.269   6.384  1.3672  1.2496  0.7211
 6129SOL    HW230021   2.984   1.333   6.450 -0.5479  0.2692  0.8752
 6130SOL     OW30022   2.630   3.330   2.014  0.3576  0.0255 -0.0956
 6130SOL    HW130023   2.712   3.331   1.965  1.1817 -0.6172  1.2900
 6130SOL    HW230024   2.619   3.420   2.044  1.2952  0.1475 -0.1310
 6131SOL     OW30025   0.179   1.455   4.679  0.2270 -0.8354  0.2966
 6131SOL    HW130026   0.229   1.408   4.612 -2.1237 -0.0044 -2.0429
 6131SOL    HW230027   0.252   1.506   4.714 -0.3912  1.5113 -1.8167
 6132SOL     OW30028   4.359   3.669   4.995  0.1268  0.1924 -0.0839
 6132SOL    HW130029   4.300   3.601   5.027 -0.7465  0.0086 -2.0971
 6132SOL    HW230030   4.300   3.744   4.987  0.1941  0.3901  1.2517
 6133SOL     OW30031   2.033   1.424   5.822  1.2422 -0.3235  0.1924
 6133SOL    HW130032   2.103   1.485   5.800  0.2641  0.5615 -0.4382
 6133SOL    HW230033   1.987   1.477   5.887  2.4299  0.6378  0.2640
 6134SOL     OW30034   3.415   0.676   2.299  0.6645  0.1891  0.4097
 6134SOL    HW130035   3.466   0.617   2.354  0.3922 -2.5086 -2.2650
 6134SOL    HW230036   3.449   0.759   2.332 -0.2789  1.1404 -0.9933
 6135SOL     OW30037   2.286   4.148  11.225  0.1643  0.3944  0.0098
 6135SOL    HW130038   2.208   4.112  11.183  2.0477 -3.3799 -0.1754
 6135SOL    HW230039   2.245   4.176  11.307  1.0457  2.2701 -0.1726
 6136SOL     OW30040   2.092   2.742  14.148 -0.0804 -0.3113 -0.1882
 6136SOL    HW130041   2.009   2.750  14.101  0.9273  2.3260 -1.4940
 6136SOL    HW230042   2.107   2.651  14.123 -1.1361 -0.4109 -0.4689
 6137SOL     OW30043   0.914   1.584   2.293  0.2904 -0.3634 -0.9047
 6137SOL    HW130044   0.856   1.652   2.259  0.6688 -1.1355 -3.1319
 6137SOL    HW230045   0.897   1.508   2.237 -0.5603 -0.3804 -0.6227
 6138SOL     OW30046   4.207   3.190   6.724 -0.4737 -0.3418  0.0607
 6138SOL    HW130047   4.115   3.208   6.701 -0.7920 -1.5067  0.4338
 6138SOL    HW230048   4.243   3.168   6.638 -1.4631  2.9302 -1.1596
 6139SOL     OW30049   0.058   4.185   8.722 -0.2477 -0.0650  0.3833
 6139SOL    HW130050   0.046   4.266   8.772 -0.4396  0.3373 -0.3112
 6139SOL    HW230051   0.135   4.142   8.757  0.8781  2.5035  1.0516
 6140SOL     OW30052   3.864   0.499   1.280  0.0962 -0.0133 -0.4305
 6140SOL    HW130053   3.834   0.508   1.370 -0.8010  0.1925 -0.7432
 6140SOL    HW230054   3.809   0.573   1.254 -0.3962 -0.6218 -1.1278
 6141SOL     OW30055   2.347   0.076   6.849 -0.1160  0.0318  0.1564
 6141SOL    HW130056   2.395   0.013   6.796  0.5272  0.5701  0.1055
 6141SOL    HW230057   2.367   0.027   6.929  0.6506  0.0691 -0.0176
 6142SOL     OW30058   4.521   0.716  14.096 -0.2913 -1.1867  0.0481
 6142SOL    HW130059   4.444   0.659  14.103 -0.5584 -0.9441 -0.8638
 6142SOL    HW230060   4.591   0.653  14.110  0.1824 -0.9884 -1.3867
 6143SOL     OW30061   2.593   0.729   7.430 -0.1211  0.2508 -0.6897
 6143SOL    HW130062   2.660   0.665   7.455 -3.1125 -2.0220  1.5234
 6143SOL    HW230063   2.652   0.802   7.409  0.1556 -0.0596 -1.0012
 6144SOL     OW30064   2.339   2.095  16.421 -0.8725  0.1102  0.1232
 6144SOL    HW130065   2.268   2.064  16.365  1.6334 -1.2886 -2.3009
 6144SOL    HW230066   2.380   2.157  16.360  0.1979 -1.1628 -0.4515
 6145SOL     OW30067   3.882   3.327   5.700  0.0042  0.1137 -0.0082
 6145SOL    HW130068   3.795   3.313   5.662  0.8610 -0.3647 -1.7689
 6145SOL    HW230069   3.861   3.375   5.780  1.2400 -1.0521  1.0215
 6146SOL     OW30070   4.100   3.077  12.817  0.1684  0.0673  0.1409
 6146SOL    HW130071   4.126   3.022  12.743 -2.2350  1.0210 -1.3728
 6146SOL    HW230072   4.043   3.018  12.866  0.7601 -1.3297 -0.8559
 6147SOL     OW30073   3.222   4.484   6.261  0.3936  0.3478 -0.0535
 6147SOL    HW130074   3.236   4.481   6.356  0.4888 -0.2464 -0.0884
 6147SOL    HW230075   3.161   4.412   6.250  1.6410 -0.9682  1.6934
 6148SOL     OW30076   2.882   3.575  15.128 -0.4256  0.1266  0.3133
 6148SOL    HW130077   2.827   3.508  15.169 -1.6898  0.6016 -0.5875
 6148SOL    HW230078   2.819   3.617  15.070  0.5837 -0.8009 -1.4568
 6149SOL     OW30079   0.845   4.382  13.396  0.1064  0.4176 -0.2967
 6149SOL    HW130080   0.896   4.304  13.373  0.0383 -0.4484  2.4926
 6149SOL    HW230081   0.799   4.403  13.314 -2.0872 -0.8130  0.5988
 6150SOL     OW30082   2.589   4.722   2.098  0.1247 -0.1404 -0.2038
 6150SOL    HW130083   2.522   0.046   2.069 -1.8075 -2.2405 -0.2556
 6150SOL    HW230084   2.589   0.007   2.191 -0.5663 -1.0224  0.0101
 6151SOL     OW30085   0.983   0.922  10.153 -0.0303  0.4338 -0.1645
 6151SOL    HW130086   1.037   0.851  10.186 -0.0698  0.2013 -0.6005
 6151SOL    HW230087   0.943   0.953  10.234 -1.3536 -0.3968 -0.5032
 6152SOL     OW30088   1.931   1.896   0.875  0.2628  0.5330 -0.4526
 6152SOL    HW130089   1.890   1.949   0.807 -1.4935  0.2440  0.3660
 6152SOL    HW230090   1.850   1.857   0.907  0.4926 -1.0558 -1.8321
 6153SOL     OW30091   3.751   2.808   8.683 -0.5593  0.2215  0.3922
 6153SOL    HW130092   3.729   2.870   8.613  0.9115  0.1404 -0.1279
 6153SOL    HW230093   3.747   2.720   8.645  0.2059  0.8834 -1.2213
 6154SOL     OW30094   0.416   3.813   3.770 -0.1457  0.2837 -0.2964
 6154SOL    HW130095   0.365   3.740   3.806  1.6534 -0.8313 -0.0364
 6154SOL    HW230096   0.506   3.786   3.756  0.3951  1.5317  0.7856
 6155SOL     OW30097   2.995   0.021   7.666 -0.0171  0.6303 -0.0807
 6155SOL    HW130098   3.019   4.708   7.743  2.0597  1.0488 -0.4583
 6155SOL    HW230099   3.072   0.002   7.613  0.2051  0.2793  0.3748
 6156SOL     OW30100   2.687   2.561   5.206 -0.4670  0.2066 -0.0544
 6156SOL    HW130101   2.651   2.587   5.121 -2.4703  0.0663  0.7477
 6156SOL    HW230102   2.727   2.481   5.173  0.8620  0.9956 -0.3765
 6157SOL     OW30103   0.476   2.479   7.583 -0.5675  0.4324 -0.2287
 6157SOL    HW130104   0.567   2.502   7.570  0.5189 -2.4987  1.9858
 6157SOL    HW230105   0.463   2.409   7.519  0.3475  1.2542 -1.2932
 6158SOL     OW30106   1.027   1.355   4.658 -0.5803 -0.3528 -0.6822
 6158SOL    HW130107   1.122   1.357   4.666 -0.4807 -2.6040 -1.2666
 6158SOL    HW230108   1.013   1.403   4.740  0.0448 -0.8093 -0.3099
 6159SOL     OW30109   3.601   3.825  10.027 -0.3542  0.3313 -0.6148
 6159SOL    HW130110   3.596   3.786  10.114  0.1631  1.9552  0.1431
 6159SOL    HW230111   3.553   3.757   9.980 -0.0123 -0.0602 -0.3958
 6160SOL     OW30112   4.630   0.536   4.798 -0.0202 -0.3243  0.2417
 6160SOL    HW130113   4.650   0.490   4.717 -0.4388  0.1405 -0.1247
 6160SOL    HW230114   4.571   0.480   4.849 -0.3058  0.6202  0.9666
 6161SOL     OW30115   0.514   0.199   5.262  0.1275 -0.3418 -0.0622
 6161SOL    HW130116   0.570   0.128   5.295  0.4503  0.6214  1.4570
 6161SOL    HW230117   0.466   0.157   5.191  0.8398 -2.1108  0.5103
 6162SOL     OW30118   2.943   3.919   5.629  0.7794  0.4227  0.1086
 6162SOL    HW130119   2.862   3.922   5.577  0.9687  1.4180 -0.1254
 6162SOL    HW230120   2.999   3.970   5.571 -0.4504 -0.7584 -2.1495
 6163SOL     OW30121   3.832   0.553   3.721 -0.0643 -0.3165 -0.0887
 6163SOL    HW130122   3.760   0.545   3.783 -1.8151  4.7490 -1.4515
 6163SOL    HW230123   3.871   0.635   3.749  0.2951  0.0256 -1.5805
 6164SOL     OW30124   2.756   3.377   9.313  0.1441  0.6013 -0.1464
 6164SOL    HW130125   2.802   3.423   9.384  0.1508  0.8688 -0.3268
 6164SOL    HW230126   2.667   3.401   9.338  0.1411  0.3905  0.0472
 6165SOL     OW30127   4.087   3.053   8.918  0.0982  0.1131  0.3811
 6165SOL    HW130128   4.111   3.061   8.825 -0.8184  2.1078  0.3000
 6165SOL    HW230129   4.141   3.123   8.955  0.7053 -0.4264  0.5005
 6166SOL     OW30130   1.672   1.144   3.646 -0.4009  0.5414 -0.2246
 6166SOL    HW130131   1.631   1.108   3.567 -0.4482 -0.2871  0.1755
 6166SOL    HW230132   1.760   1.145   3.608 -0.8479  1.3962 -1.2469
 6167SOL     OW30133   1.779   3.249   8.522 -0.6416 -0.0769  0.0029
 6167SOL    HW130134   1.806   3.338   8.501  0.1530 -0.2177  0.4376
 6167SOL    HW230135   1.724   3.267   8.599 -0.5878 -1.3109  0.3350
 6168SOL     OW30136   4.643   2.421  15.915 -0.2820 -0.8876 -0.4355
 6168SOL    HW130137   4.638   2.507  15.956 -1.2124 -0.8414 -0.6533
 6168SOL    HW230138   4.663   2.455  15.828  0.5403  0.8779  0.4394
 6169SOL     OW30139   0.462   3.583  14.310 -0.1342 -0.1687  0.3226
 6169SOL    HW130140   0.540   3.536  14.279 -0.1093 -0.5409  0.9428
 6169SOL    HW230141   0.400   3.529  14.261  1.1757  0.2698 -1.8260
 6170SOL     OW30142   4.037   4.338   2.679 -0.4208 -0.6241  0.0491
 6170SOL    HW130143   4.055   4.425   2.646 -0.3424 -0.5147  0.3785
 6170SOL    HW230144   4.062   4.352   2.771 -4.0099 -0.1109  0.9301
 6171SOL     OW30145   3.522   3.960   5.897 -0.0862 -0.1122 -0.0368
 6171SOL    HW130146   3.520   3.921   5.985  2.2090  0.4575  0.2763
 6171SOL    HW230147   3.433   3.994   5.891 -0.2828 -1.0905 -2.3495
 6172SOL     OW30148   4.665   4.177  15.185 -0.0625 -0.6670 -0.4659
 6172SOL    HW130149   4.691   4.257  15.230  1.3373 -0.8691 -0.9340
 6172SOL    HW230150   0.015   4.144  15.167  0.4031  1.1278 -1.4967
 6173SOL     OW30151   1.132   3.012   3.286  0.0638 -0.2711  0.3800
 6173SOL    HW130152   1.040   2.985   3.288  0.7640 -2.6386  1.0986
 6173SOL    HW230153   1.122   3.087   3.344  1.0636 -0.9306  1.4067
 6174SOL     OW30154   2.856   3.909   9.855 -0.6885 -0.0406 -0.1278
 6174SOL    HW130155   2.787   3.963   9.816 -0.7927  1.7623  2.5550
 6174SOL    HW230156   2.923   3.966   9.890 -1.7149  0.6339  0.7489
 6175SOL     OW30157   4.298   2.828   3.221 -0.5005  0.4031 -0.6564
 6175SOL    HW130158   4.349   2.787   3.290  0.0103 -0.8400 -1.7910
 6175SOL    HW230159   4.302   2.767   3.148 -1.7879  1.2504 -1.4430
 6176SOL     OW30160   2.329   4.252   7.782 -0.0965 -0.3270 -0.5444
 6176SOL    HW130161   2.260   4.318   7.786  0.0474 -0.3557  2.1994
 6176SOL    HW230162   2.399   4.293   7.731 -0.9001  0.9182 -0.6553
 6177SOL     OW30163   4.187   0.059  11.108 -0.3909 -0.1057  0.0718
 6177SOL    HW130164   4.177   0.098  11.194  1.0009  2.2762 -0.8533
 6177SOL    HW230165   4.094   0.047  11.089 -0.2725 -2.0255  0.7231
 6178SOL     OW30166   3.738   4.339   4.528  0.1996  0.0519 -0.3166
 6178SOL    HW130167   3.661   4.370   4.481  1.2117  3.0161 -0.0162
 6178SOL    HW230168   3.714   4.356   4.619 -2.1389 -0.0817 -0.8907
 6179SOL     OW30169   0.194   0.193   2.459  0.0661 -0.1137  0.0279
 6179SOL    HW130170   0.110   0.224   2.494  0.4816  0.0258  0.9104
 6179SOL    HW230171   0.195   0.106   2.499  0.3590  0.9241  2.3036
 6180SOL     OW30172   0.889   2.907   4.779 -0.0729 -0.5077 -0.4093
 6180SOL    HW130173   0.935   2.867   4.705  0.1869  0.2739 -0.6814
 6180SOL    HW230174   0.966   2.947   4.819 -0.8094  2.2701 -1.7437
 6181SOL     OW30175   0.587   4.661   9.009  0.4237  0.5130 -0.2266
 6181SOL    HW130176   0.672   4.618   9.022 -0.3384 -1.0766 -0.5890
 6181SOL    HW230177   0.524   4.594   9.032  1.1984 -0.4840 -1.0297
 6182SOL     OW30178   4.436   0.198   3.401 -0.0115 -0.2430  0.1334
 6182SOL    HW130179   4.389   0.202   3.484 -0.6707  0.4786 -0.2717
 6182SOL    HW230180   4.450   0.103   3.404  0.2983 -0.2398 -0.9382
 6183SOL     OW30181   3.018   3.019   5.691  0.2260 -0.2486 -0.1775
 6183SOL    HW130182   3.016   3.045   5.598 -1.2146  3.5330  0.9147
 6183SOL    HW230183   2.947   2.954   5.689 -1.2508  1.3872 -1.0849
 6184SOL     OW30184   1.373   2.038  14.635 -0.3195 -0.1065 -0.5158
 6184SOL    HW130185   1.291   2.019  14.590 -0.4387  0.9617 -0.7491
 6184SOL    HW230186   1.429   2.000  14.567 -0.4744 -0.5583 -0.3952
 6185SOL     OW30187   0.597   4.428   2.642  0.2953 -0.3457 -0.5541
 6185SOL    HW130188   0.595   4.467   2.555  2.9072  0.0597 -0.4578
 6185SOL    HW230189   0.632   4.503   2.691  0.3395  0.6443 -2.1195
 6186SOL     OW30190   1.268   3.218   1.440  0.1050  0.7094  0.2132
 6186SOL    HW130191   1.325   3.283   1.398  1.1405 -0.7078 -0.5495
 6186SOL    HW230192   1.303   3.212   1.528 -0.2021 -1.1879  0.1984
 6187SOL     OW30193   4.309   1.701   9.288  0.1123 -0.5696  0.0772
 6187SOL    HW130194   4.344   1.614   9.306 -1.6323 -1.4895 -0.9711
 6187SOL    HW230195   4.215   1.687   9.278 -0.2125  2.4289 -1.1338
 6188SOL     OW30196   1.987   1.009  15.178  0.4045  0.0817 -0.6591
 6188SOL    HW130197   2.040   1.007  15.257  1.2070 -1.1270 -1.2288
 6188SOL    HW230198   1.964   0.916  15.177  2.2454 -0.4043  3.1765
 6189SOL     OW30199   2.464   2.759   9.865 -0.0374  0.2905  0.3735
 6189SOL    HW130200   2.431   2.669   9.854 -0.2921  0.5309 -0.8393
 6189SOL    HW230201   2.422   2.800   9.790 -0.8193  0.7525  1.0723
 6190SOL     OW30202   1.165   2.042  10.338 -0.0500 -0.3678  0.1858
 6190SOL    HW130203   1.096   2.055  10.272  2.0618  1.4829 -1.6442
 6190SOL    HW230204   1.177   2.135  10.355  2.4992 -0.9815  1.6579
 6191SOL     OW30205   3.948   4.654   5.583 -0.1117  0.0074 -0.2971
 6191SOL    HW130206   3.900   4.598   5.522  0.8421 -1.0802 -0.0445
 6191SOL    HW230207   3.894   4.732   5.575 -1.3317 -0.9185 -1.0327
 6192SOL     OW30208   1.803   2.029   4.641  0.4373  0.3787 -0.6646
 6192SOL    HW130209   1.834   2.075   4.563 -1.2113 -0.4600 -1.8102
 6192SOL    HW230210   1.844   1.948   4.612 -1.7456 -0.3623 -1.6319
 6193SOL     OW30211   2.305   1.253  13.193 -0.0290 -0.4609  0.2426
 6193SOL    HW130212   2.236   1.319  13.185  0.0930 -0.5497 -1.4913
 6193SOL    HW230213   2.280   1.214  13.276 -0.2837 -2.4718 -0.7840
 6194SOL     OW30214   0.174   0.360  13.583  0.1516 -0.1633 -0.4345
 6194SOL    HW130215   0.131   0.284  13.623  0.2511 -1.0666 -2.0360
 6194SOL    HW230216   0.175   0.340  13.489  1.1631  2.4015 -0.9529
 6195SOL     OW30217   4.419   2.109   6.438 -0.4505 -0.2332 -0.2625
 6195SOL    HW130218   4.423   2.014   6.450 -1.1799 -0.5771 -2.7291
 6195SOL    HW230219   4.373   2.114   6.354  0.8446  1.9850 -0.8398
 6196SOL     OW30220   0.593   3.647   2.415  0.0495  0.0301 -0.4345
 6196SOL    HW130221   0.537   3.716   2.451 -0.3115  0.0286 -0.9924
 6196SOL    HW230222   0.677   3.676   2.451  1.3007 -3.4531 -0.6115
 6197SOL     OW30223   4.135   2.423   7.036  0.3591  0.4721  0.0610
 6197SOL    HW130224   4.109   2.401   7.126  3.0632  2.3913  1.2904
 6197SOL    HW230225   4.089   2.506   7.031  1.2489  0.9358 -0.4374
 6198SOL     OW30226   2.287   2.894  10.688  0.1480  0.1891  0.4096
 6198SOL    HW130227   2.325   2.807  10.698 -0.3124 -0.1234 -0.5548
 6198SOL    HW230228   2.234   2.903  10.767  0.9184  1.5316  0.7622
 6199SOL     OW30229   2.704   3.863   1.713  0.3810  0.6822 -0.1255
 6199SOL    HW130230   2.643   3.795   1.684  1.2938 -0.1321 -0.1684
 6199SOL    HW230231   2.793   3.831   1.694  0.2994 -0.1059  0.7998
 6200SOL     OW30232   3.436   1.517   4.392 -0.2716  0.0774 -0.2541
 6200SOL    HW130233   3.406   1.565   4.469  1.9730  1.0606 -0.0064
 6200SOL    HW230234   3.458   1.593   4.338  1.3200 -0.2466 -0.0374
 6201SOL     OW30235   2.303   3.254  17.417 -0.0884 -0.0490  0.2155
 6201SOL    HW130236   2.311   3.167  17.377 -1.3324 -1.0282  2.1149
 6201SOL    HW230237   2.222   3.287  17.377 -0.9398 -1.8480  0.4604
 6202SOL     OW30238   2.886   3.299  10.032  0.2585  0.6174 -0.3128
 6202SOL    HW130239   2.978   3.280  10.017  0.6266 -0.4422  3.2571
 6202SOL    HW230240   2.882   3.336  10.120  1.9609  0.6291 -0.2382
 6203SOL     OW30241   3.475   2.894   1.033  0.4419  0.4776 -0.4405
 6203SOL    HW130242   3.447   2.804   1.018 -0.3958  0.5133  0.8904
 6203SOL    HW230243   3.391   2.940   1.028  1.2166  2.0853  1.2320
 6204SOL     OW30244   1.189   4.461  12.201 -0.1804 -0.4122  0.2493
 6204SOL    HW130245   1.099   4.432  12.212 -0.6687  1.0370  0.0925
 6204SOL    HW230246   1.206   4.509  12.283 -1.2332 -1.1129  0.8672
 6205SOL     OW30247   4.491   3.978   6.568 -0.8813  0.2146 -0.2597
 6205SOL    HW130248   4.559   3.928   6.524 -1.3833  0.1117 -0.9117
 6205SOL    HW230249   4.520   3.962   6.658  2.7527  1.3819 -1.2305
 6206SOL     OW30250   4.534   4.290   8.092  0.4397  0.0784 -0.3294
 6206SOL    HW130251   4.497   4.280   8.180 -0.8234 -2.4267 -1.1622
 6206SOL    HW230252   4.622   4.317   8.117  1.3500 -2.7460 -0.5095
 6207SOL     OW30253   0.715   2.580   3.860 -0.4715 -0.1102 -0.5471
 6207SOL    HW130254   0.630   2.554   3.826 -0.5018 -0.4528 -0.2053
 6207SOL    HW230255   0.772   2.586   3.783  0.3224  0.4460  0.0759
 6208SOL     OW30256   4.558   1.089   2.657  0.4239 -0.2699 -0.4223
 6208SOL    HW130257   4.476   1.041   2.671  0.2368  0.3400  0.5932
 6208SOL    HW230258   4.590   1.061   2.572 -0.2130 -0.5481 -0.5657
 6209SOL     OW30259   4.205   1.736   6.730  0.0503  0.5503 -0.1052
 6209SOL    HW130260   4.263   1.754   6.804  0.3093 -3.3609  0.6375
 6209SOL    HW230261   4.118   1.755   6.765  0.5883  0.5357  1.2333
 6210SOL     OW30262   2.110   3.617   3.965 -0.0084 -0.3978 -0.3100
 6210SOL    HW130263   2.033   3.560   3.965 -0.5295  0.3152 -1.0587
 6210SOL    HW230264   2.166   3.567   3.906  0.1530 -1.6384  0.9029
 6211SOL     OW30265   3.777   4.684   4.476 -0.2036  0.6659  0.2544
 6211SOL    HW130266   3.821   0.031   4.467  2.6982 -0.7439  1.2149
 6211SOL    HW230267   3.822   4.646   4.551  1.6111  2.0028 -0.1579
 6212SOL     OW30268   3.892   1.280   7.978 -0.0464 -0.2559 -0.2070
 6212SOL    HW130269   3.985   1.260   7.987  0.0023 -0.9042 -2.3414
 6212SOL    HW230270   3.842   1.267   8.059 -0.4515  1.4420 -0.1890
 6213SOL     OW30271   2.446   1.514  11.188 -0.5753  0.2238  0.6933
 6213SOL    HW130272   2.440   1.591  11.132  3.0330  0.2504  0.3051
 6213SOL    HW230273   2.492   1.466  11.119  2.1958  1.3471  1.7654
 6214SOL     OW30274   2.657   3.241   9.887  0.4721 -0.1904 -0.1565
 6214SOL    HW130275   2.750   3.239   9.912  0.7921 -0.9246 -1.3834
 6214SOL    HW230276   2.648   3.332   9.917 -0.0973 -0.5069  0.6229
 6215SOL     OW30277   4.339   4.165   6.848  0.9326 -0.4160  0.4034
 6215SOL    HW130278   4.373   4.079   6.872 -0.5623 -0.7302  1.3795
 6215SOL    HW230279   4.405   4.227   6.878 -0.7204  0.2441  2.6553
 6216SOL     OW30280   3.191   0.356  10.862 -0.5472 -0.0708  0.6654
 6216SOL    HW130281   3.269   0.365  10.916  1.3104 -2.8805 -1.5347
 6216SOL    HW230282   3.223   0.410  10.790  1.0815 -1.5615  0.2790
 6217SOL     OW30283   1.995   3.055  13.608 -0.2103  0.4048 -0.0966
 6217SOL    HW130284   1.996   2.986  13.674 -2.2491 -0.5198 -1.0454
 6217SOL    HW230285   2.087   3.053  13.582 -0.0393 -0.0064  0.5329
 6218SOL     OW30286   2.445   1.624  16.778 -0.4186  0.5412 -0.0751
 6218SOL    HW130287   2.360   1.582  16.760  0.0252 -0.8095  0.9880
 6218SOL    HW230288   2.456   1.667  16.693 -1.9212 -0.2743 -0.6899
 6219SOL     OW30289   3.716   2.175   1.154 -0.1216  0.7292 -0.2478
 6219SOL    HW130290   3.663   2.125   1.216 -1.6489  1.9577 -0.5741
 6219SOL    HW230291   3.799   2.185   1.201  0.9152 -1.6231 -1.6236
 6220SOL     OW30292   1.985   4.352   5.641 -0.2632  0.4692 -0.2878
 6220SOL    HW130293   2.006   4.259   5.657 -1.7687 -0.0217 -1.1688
 6220SOL    HW230294   1.894   4.345   5.612  0.0327 -2.4620 -0.5299
 6221SOL     OW30295   1.000   1.574   6.368  0.0374  0.0221 -0.3239
 6221SOL    HW130296   1.040   1.656   6.400  4.0669 -1.5162 -1.3450
 6221SOL    HW230297   0.967   1.545   6.452 -0.2684  2.3695  0.3805
 6222SOL     OW30298   0.994   0.126   5.997  0.0179 -0.1068  0.6845
 6222SOL    HW130299   1.027   0.210   6.029 -0.8877 -0.1516  1.7093
 6222SOL    HW230300   0.951   0.156   5.917  0.3934 -1.8481 -0.1888
 6223SOL     OW30301   0.244   1.855   9.051 -0.4803  0.4411 -0.9086
 6223SOL    HW130302   0.177   1.904   9.002  0.2980 -0.1258 -2.5515
 6223SOL    HW230303   0.315   1.920   9.051 -2.6593  2.8181  1.3191
 6224SOL     OW30304   2.167   1.568   8.737  0.0261 -0.2581 -0.0308
 6224SOL    HW130305   2.074   1.572   8.755  0.3699 -2.5531  2.2522
 6224SOL    HW230306   2.170   1.516   8.657 -1.4585  0.5328 -0.5924
 6225SOL     OW30307   0.924   2.200   5.791 -0.0447 -0.0929 -0.2844
 6225SOL    HW130308   0.979   2.245   5.727  0.0149 -0.1142 -0.2486
 6225SOL    HW230309   0.871   2.151   5.729  0.1603 -0.2414 -0.3440
 6226SOL     OW30310   0.481   1.730   5.057  0.2453 -0.2688 -0.1840
 6226SOL    HW130311   0.557   1.675   5.076  0.6949  0.1709 -0.7027
 6226SOL    HW230312   0.510   1.783   4.983 -1.3829  1.2591  0.2919
 6227SOL     OW30313   2.085   1.242  10.195 -0.6292  0.3265  0.1735
 6227SOL    HW130314   1.992   1.230  10.179 -0.7886 -2.7739  3.4422
 6227SOL    HW230315   2.124   1.223  10.110 -0.1303  0.5507  0.3518
 6228SOL     OW30316   3.470   3.508   8.089  1.0721 -0.0312 -0.4394
 6228SOL    HW130317   3.484   3.545   8.176 -0.3250  1.8671 -1.0242
 6228SOL    HW230318   3.395   3.563   8.069  1.5013  0.4060 -0.8610
 6229SOL     OW30319   2.201   0.978   6.298 -0.1768  0.0791 -0.8879
 6229SOL    HW130320   2.157   1.057   6.268 -0.6599  0.2410  0.2626
 6229SOL    HW230321   2.192   0.980   6.393 -2.2494  0.3969 -1.0825
 6230SOL     OW30322   3.279   3.201   0.704 -0.1388  0.0509 -0.0453
 6230SOL    HW130323   3.323   3.191   0.788 -1.9112 -1.5124  0.6961
 6230SOL    HW230324   3.250   3.292   0.711 -0.9018 -0.1312 -0.7481
 6231SOL     OW30325   0.950   2.976   8.872 -0.1574  0.2332  0.1371
 6231SOL    HW130326   1.015   2.913   8.839 -0.1331  0.7463 -0.7925
 6231SOL    HW230327   1.009   3.050   8.883 -2.1767  1.9408 -0.5502
 6232SOL     OW30328   1.238   3.204   5.194  0.4240  0.4754  0.2527
 6232SOL    HW130329   1.328   3.223   5.165  0.6353 -0.9586 -0.0783
 6232SOL    HW230330   1.186   3.275   5.157 -0.6943  0.9206  2.7103
 6233SOL     OW30331   4.722   2.174   8.824 -0.2777  0.0689 -0.4563
 6233SOL    HW130332   0.073   2.147   8.846 -0.3760  0.8384  0.8404
 6233SOL    HW230333   4.718   2.254   8.876 -1.5194 -0.9327  1.0043
 6234SOL     OW30334   1.002   1.338   0.374 -0.5723  0.0198  0.5720
 6234SOL    HW130335   0.983   1.351   0.281  0.8017  2.8398  0.6678
 6234SOL    HW230336   0.915   1.332   0.413 -0.3285 -0.4003  1.0385
 6235SOL     OW30337   2.765   0.493   8.214  1.0803 -0.0022 -0.4097
 6235SOL    HW130338   2.807   0.410   8.192  0.7326 -0.2483 -0.1372
 6235SOL    HW230339   2.675   0.476   8.185  0.5795  1.7085  0.1089
 6236SOL     OW30340   1.939   3.332   5.959 -0.4048  0.1763  0.0432
 6236SOL    HW130341   1.919   3.322   6.052  1.2297  1.2962  0.5027
 6236SOL    HW230342   2.026   3.293   5.952 -0.2267  0.1519  2.4694
 6237SOL     OW30343   4.645   4.126  12.248 -0.0526  0.1900  0.1763
 6237SOL    HW130344   4.635   4.200  12.309 -2.7285 -0.2463  0.2515
 6237SOL    HW230345   4.617   4.052  12.301  0.8019 -0.2090  0.0643
 6238SOL     OW30346   0.614   1.486  16.989  0.0091 -0.3118 -0.0190
 6238SOL    HW130347   0.706   1.462  17.003 -0.5039 -2.6702 -0.7606
 6238SOL    HW230348   0.587   1.424  16.922 -1.5489 -0.6763  0.9467
 6239SOL     OW30349   0.258   3.700  12.657  0.0388 -0.0040 -0.1107
 6239SOL    HW130350   0.193   3.653  12.605 -0.0076 -0.6721  0.5561
 6239SOL    HW230351   0.203   3.745  12.722 -0.3523 -0.0219 -0.4335
 6240SOL     OW30352   1.583   2.954   9.045  0.3386 -0.5180 -0.0656
 6240SOL    HW130353   1.522   2.908   9.103 -1.4894  1.3103 -0.4934
 6240SOL    HW230354   1.527   3.032   9.040 -1.8367 -1.9243  1.8684
 6241SOL     OW30355   4.116   3.355  10.469  0.2717 -0.1241 -0.3164
 6241SOL    HW130356   4.108   3.428  10.530  4.0278 -0.9967  1.1680
 6241SOL    HW230357   4.204   3.368  10.435  0.1055 -0.2246 -0.7995
 6242SOL     OW30358   0.607   0.093   9.675 -0.0242 -0.6953 -0.0746
 6242SOL    HW130359   0.646   0.174   9.644 -0.6459 -1.2704 -2.3940
 6242SOL    HW230360   0.523   0.122   9.709  0.8559  1.5991  0.0993
 6243SOL     OW30361   3.171   0.696  11.485  0.3198  0.3633 -0.5210
 6243SOL    HW130362   3.223   0.660  11.413  2.4259  2.1277  0.0996
 6243SOL    HW230363   3.091   0.655  11.453  0.6217  0.1107 -0.9600
 6244SOL     OW30364   4.353   1.803   4.884  0.2526 -0.4928 -0.0350
 6244SOL    HW130365   4.386   1.717   4.857 -2.9082 -1.3148 -1.2593
 6244SOL    HW230366   4.432   1.833   4.928  0.1182  1.7156 -1.3255
 6245SOL     OW30367   1.825   3.054   1.544 -0.0323  0.2425 -0.0612
 6245SOL    HW130368   1.902   3.050   1.488 -2.6442  1.0217 -3.6833
 6245SOL    HW230369   1.765   3.000   1.493 -1.0664  0.5040  0.8871
 6246SOL     OW30370   2.281   2.536   7.453 -0.0695  0.0818 -0.4717
 6246SOL    HW130371   2.212   2.558   7.516 -0.4891 -0.9546 -0.5666
 6246SOL    HW230372   2.353   2.509   7.511 -0.8699  1.1215  0.9929
 6247SOL     OW30373   0.389   0.639   6.435 -0.2832  0.0778 -0.1413
 6247SOL    HW130374   0.363   0.675   6.350 -1.5755 -2.2293 -0.7052
 6247SOL    HW230375   0.322   0.573   6.451  1.0569 -1.2024  0.1422
 6248SOL     OW30376   4.485   2.169   4.108 -0.1084  0.1783 -0.1923
 6248SOL    HW130377   4.443   2.102   4.053  0.0418  0.0995 -0.2097
 6248SOL    HW230378   4.566   2.123   4.131  0.5312  0.5248 -1.7392
 6249SOL     OW30379   1.452   0.021   7.757  0.0083  0.4448 -0.2983
 6249SOL    HW130380   1.476   4.667   7.750 -1.3040  0.0368  0.6538
 6249SOL    HW230381   1.387   0.016   7.827  2.1447 -0.8676  1.5811
 6250SOL     OW30382   3.493   1.668   5.953 -0.2529  0.0285  0.4698
 6250SOL    HW130383   3.568   1.660   5.895 -0.1593  0.4923  0.5314
 6250SOL    HW230384   3.532   1.715   6.026  1.1811  0.1536 -0.3773
 6251SOL     OW30385   3.008   1.467  12.337  0.2454 -0.2752  0.2537
 6251SOL    HW130386   3.073   1.397  12.341  0.6817  0.1429  0.5007
 6251SOL    HW230387   2.950   1.453  12.412  0.5667  1.0462  0.7559
 6252SOL     OW30388   2.528   1.673   2.986  0.2885  0.2638  0.0829
 6252SOL    HW130389   2.456   1.708   3.038  1.0678 -1.7734  2.5070
 6252SOL    HW230390   2.581   1.753   2.991  0.4936  0.2701 -2.1916
 6253SOL     OW30391   4.175   1.408   2.696 -0.4024  0.1028 -0.4297
 6253SOL    HW130392   4.179   1.501   2.673  2.0258 -0.3029 -1.5777
 6253SOL    HW230393   4.267   1.384   2.694 -0.3808  0.0597  0.8547
 6254SOL     OW30394   3.337   2.929  10.759  0.1515  0.8536  0.3899
 6254SOL    HW130395   3.275   2.931  10.831  0.5753 -0.1918  0.7904
 6254SOL    HW230396   3.345   3.021  10.733  3.4306  1.1020  2.3446
 6255SOL     OW30397   4.641   4.273   7.823 -0.3122 -0.0170  0.2367
 6255SOL    HW130398   4.583   4.237   7.756  1.1327  0.1301 -1.0892
 6255SOL    HW230399   4.593   4.273   7.906  0.9000 -1.1070  0.9446
 6256SOL     OW30400   1.757   3.895   1.902  0.1070 -0.7388  0.2537
 6256SOL    HW130401   1.750   3.802   1.883 -1.4528 -0.9679  1.8265
 6256SOL    HW230402   1.713   3.940   1.829  1.1892  1.2713  0.8392
 6257SOL     OW30403   4.060   3.709  15.157  0.0686 -0.7518 -0.1355
 6257SOL    HW130404   3.976   3.755  15.170  1.3082  1.0843  1.3903
 6257SOL    HW230405   4.064   3.670  15.244  0.7378  0.9006  0.5714
 6258SOL     OW30406   1.158   0.038  10.531  0.0768 -0.4777 -0.3782
 6258SOL    HW130407   1.181   0.085  10.611  1.2888 -0.4265 -0.7483
 6258SOL    HW230408   1.154   0.110  10.469  0.6987 -0.9084 -0.9205
 6259SOL     OW30409   0.064   3.132   6.897  0.4541 -0.0745 -0.0233
 6259SOL    HW130410   0.010   3.152   6.820  0.3998  0.4088  0.1395
 6259SOL    HW230411   0.036   3.201   6.957  0.1383  0.6300 -0.9894
 6260SOL     OW30412   0.543   0.908   4.765 -0.4580 -0.0442 -0.3143
 6260SOL    HW130413   0.623   0.889   4.716 -0.8083 -0.8373 -0.5869
 6260SOL    HW230414   0.486   0.941   4.696 -1.5905  0.6450  0.9588
 6261SOL     OW30415   2.565   1.074   9.942 -0.2183  0.5806  0.3177
 6261SOL    HW130416   2.524   1.001   9.896 -1.8912  0.8618  1.3570
 6261SOL    HW230417   2.656   1.045   9.944 -0.3782  0.2160  2.5961
 6262SOL     OW30418   4.656   4.715   9.146  0.2402  0.5127 -0.7684
 6262SOL    HW130419   4.590   4.682   9.206  0.0712 -2.2546 -2.4722
 6262SOL    HW230420   4.654   0.072   9.159  0.1666  0.2865  0.8381
 6263SOL     OW30421   1.064   1.404   4.129 -0.5341  0.0898  0.0680
 6263SOL    HW130422   1.028   1.359   4.052 -0.5073 -1.0203  0.7046
 6263SOL    HW230423   1.049   1.346   4.203 -1.1506  0.8738  0.5546
 6264SOL     OW30424   2.953   0.119   3.384 -0.3442  0.1204 -0.1871
 6264SOL    HW130425   2.982   0.172   3.459  1.1527  0.4698 -1.0295
 6264SOL    HW230426   2.983   0.165   3.306  0.5674 -0.0433  0.0675
 6265SOL     OW30427   0.732   2.140   9.316 -0.1906  0.0170 -0.1335
 6265SOL    HW130428   0.780   2.113   9.238 -0.4145 -0.2840 -0.1671
 6265SOL    HW230429   0.744   2.067   9.376 -2.0184  1.7358  2.3446
 6266SOL     OW30430   3.922   2.780   1.010  0.7640 -0.2316 -0.1403
 6266SOL    HW130431   3.981   2.720   0.964 -0.2037 -1.5910  0.3796
 6266SOL    HW230432   3.876   2.729   1.077  2.9614 -0.2976  1.3253
 6267SOL     OW30433   2.599   4.415   7.989 -0.0319  0.2733 -1.1772
 6267SOL    HW130434   2.603   4.405   7.894  1.5638  0.8183 -1.1698
 6267SOL    HW230435   2.690   4.436   8.011  0.0727  1.8505 -3.0919
 6268SOL     OW30436   2.534   0.049   8.624  0.1410  0.4355  0.0881
 6268SOL    HW130437   2.521   0.136   8.661 -1.4519 -0.5259  1.7932
 6268SOL    HW230438   2.535   4.730   8.701 -0.0155  0.2550 -0.0437
 6269SOL     OW30439   1.171   2.531  13.806  0.0927  0.1578 -0.0521
 6269SOL    HW130440   1.091   2.521  13.755  1.2121 -1.5192 -1.4747
 6269SOL    HW230441   1.133   2.567  13.886  2.0481  0.4826  0.7154
 6270SOL     OW30442   4.078   3.087  10.442  0.3932 -0.0430 -0.5041
 6270SOL    HW130443   4.168   3.055  10.451  0.0003 -1.5502 -2.0490
 6270SOL    HW230444   4.092   3.179  10.464 -0.6173 -0.2665  1.0855
 6271SOL     OW30445   3.907   0.790   3.826  0.0007 -0.0601  0.5296
 6271SOL    HW130446   3.868   0.861   3.774 -1.7932 -1.6443 -0.3190
 6271SOL    HW230447   3.887   0.811   3.917 -0.3874 -1.4684  0.7654
 6272SOL     OW30448   3.656   2.786   7.153 -0.2406  0.0540 -0.1014
 6272SOL    HW130449   3.579   2.749   7.198  0.2127  0.3019  0.8834
 6272SOL    HW230450   3.609   2.867   7.134  0.5641  1.2347  2.9506
 6273SOL     OW30451   3.217   1.716  13.417 -0.7568  0.0310 -0.1415
 6273SOL    HW130452   3.265   1.646  13.460  2.6444  1.7103 -1.1721
 6273SOL    HW230453   3.282   1.745  13.354  0.0620 -0.9697  0.2485
 6274SOL     OW30454   2.086   1.782   2.509 -0.3705  0.2884 -0.3461
 6274SOL    HW130455   2.080   1.763   2.603  0.4988  3.7307  0.4123
 6274SOL    HW230456   2.058   1.699   2.472 -2.8992  1.2865 -0.6938
 6275SOL     OW30457   2.561   0.514   3.076  0.5280  0.2194  0.1381
 6275SOL    HW130458   2.626   0.488   3.011 -1.4138 -0.2232 -1.6473
 6275SOL    HW230459   2.515   0.432   3.090 -0.7675  1.2174  1.7404
 6276SOL     OW30460   1.695   0.967   4.590 -0.1902  0.0353  0.2780
 6276SOL    HW130461   1.648   0.953   4.672 -1.8451  2.2844 -0.2860
 6276SOL    HW230462   1.656   1.048   4.559  1.7949 -0.2194 -2.8576
 6277SOL     OW30463   1.420   1.840   5.915 -0.0370 -0.1642  0.0664
 6277SOL    HW130464   1.342   1.807   5.959  0.1505  0.1857  0.6509
 6277SOL    HW230465   1.404   1.932   5.893  1.3541  0.3910  1.4162
 6278SOL     OW30466   2.178   3.474   6.590 -0.3451 -0.0353 -0.0916
 6278SOL    HW130467   2.181   3.560   6.547 -0.2920 -0.8123 -1.6204
 6278SOL    HW230468   2.088   3.480   6.623 -0.8136  1.0291 -1.5488
 6279SOL     OW30469   0.916   4.010  12.803 -0.5917 -0.4672 -0.4703
 6279SOL    HW130470   0.914   4.020  12.898 -0.5817 -1.6642 -0.3455
 6279SOL    HW230471   0.824   3.992  12.783 -0.9388 -1.0190  1.5970
 6280SOL     OW30472   4.225   3.799   6.922 -0.8178 -0.1403  0.3860
 6280SOL    HW130473   4.189   3.876   6.965 -2.6406 -1.9772  2.1592
 6280SOL    HW230474   4.236   3.739   6.996 -0.6469 -1.6868 -0.9056
 6281SOL     OW30475   2.177   0.106   2.530  0.1669  0.1593 -0.1295
 6281SOL    HW130476   2.139   0.188   2.499 -1.0266 -0.2824  0.1800
 6281SOL    HW230477   2.170   0.113   2.625 -1.6562  0.6959 -0.2993
 6282SOL     OW30478   3.807   2.270   9.973 -0.0433  0.2586  0.4630
 6282SOL    HW130479   3.883   2.221   9.941  0.3299  0.4734  1.0123
 6282SOL    HW230480   3.838   2.275  10.063  1.2612  2.3716 -0.1037
 6283SOL     OW30481   1.770   0.113   6.725  0.2892  0.4174 -0.4937
 6283SOL    HW130482   1.852   0.145   6.688  0.3282  0.0137 -0.7556
 6283SOL    HW230483   1.724   0.197   6.715  4.2812  2.1707 -3.7156
 6284SOL     OW30484   2.167   0.586   5.405  0.3028 -0.0747 -0.3673
 6284SOL    HW130485   2.156   0.508   5.460  0.6006 -0.1779 -0.4598
 6284SOL    HW230486   2.261   0.601   5.414  0.3928  1.6674 -4.5068
 6285SOL     OW30487   1.412   2.861   6.938  0.2343 -0.0929  0.4752
 6285SOL    HW130488   1.418   2.836   7.030 -0.0716  1.3157  0.8692
 6285SOL    HW230489   1.381   2.951   6.940  0.9416  0.1423  0.9282
 6286SOL     OW30490   3.383   0.857   5.184 -0.4731  0.0981  0.2829
 6286SOL    HW130491   3.458   0.804   5.209 -0.1248 -0.4186 -1.8222
 6286SOL    HW230492   3.350   0.888   5.268 -0.1734 -1.4608  0.9622
 6287SOL     OW30493   1.676   1.221   4.186 -0.2962 -0.1355  0.0688
 6287SOL    HW130494   1.679   1.226   4.091 -0.5137 -1.8110 -0.0373
 6287SOL    HW230495   1.599   1.164   4.193 -0.3037 -0.3283 -1.6181
 6288SOL     OW30496   2.731   3.436   7.419 -1.0214 -0.0837 -0.0816
 6288SOL    HW130497   2.652   3.423   7.472 -0.3074 -2.2919  0.4540
 6288SOL    HW230498   2.794   3.465   7.485  1.4350  1.7137 -3.2643
 6289SOL     OW30499   4.702   2.771   6.410 -0.0243  0.4179 -0.6431
 6289SOL    HW130500   4.694   2.684   6.371  0.4481 -0.3860  1.0570
 6289SOL    HW230501   0.027   2.750   6.479 -0.3849  0.2745 -0.3577
 6290SOL     OW30502   1.166   4.559   8.017 -0.2638 -0.5408 -0.1471
 6290SOL    HW130503   1.261   4.571   8.030 -0.6803  1.4752  1.1430
 6290SOL    HW230504   1.149   4.583   7.926 -2.8928 -2.0183 -0.0429
 6291SOL     OW30505   2.645   4.014   0.684 -0.1428 -0.1823 -0.2034
 6291SOL    HW130506   2.566   3.982   0.728 -0.9371 -2.0036 -2.9383
 6291SOL    HW230507   2.652   4.091   0.741 -1.5105  0.5481 -1.0223
 6292SOL     OW30508   2.953   1.334   4.733 -0.0306 -0.7672  0.0965
 6292SOL    HW130509   2.924   1.244   4.718  0.8712 -0.9403 -0.5734
 6292SOL    HW230510   3.003   1.353   4.654  1.4720 -2.3011  0.6814
 6293SOL     OW30511   3.488   0.085   7.840 -0.1838 -0.2655 -0.4707
 6293SOL    HW130512   3.580   0.067   7.818  0.9420  2.4794  2.0893
 6293SOL    HW230513   3.506   0.111   7.930  0.4219  0.9312 -0.9403
 6294SOL     OW30514   1.386   4.133   2.775 -0.1903 -0.1067 -0.3000
 6294SOL    HW130515   1.425   4.065   2.830 -2.5357  2.0809  4.0653
 6294SOL    HW230516   1.445   4.139   2.700  2.3737  0.0099  1.7240
 6295SOL     OW30517   3.271   4.302  11.133  0.4870 -0.1814 -0.5688
 6295SOL    HW130518   3.277   4.211  11.104 -0.8759 -0.1168 -1.0763
 6295SOL    HW230519   3.191   4.292  11.185  0.6368  0.1221 -0.2766
 6296SOL     OW30520   3.114   1.478   0.833  0.1483  0.3160 -0.5237
 6296SOL    HW130521   3.165   1.397   0.825 -0.3083 -0.2150  1.7867
 6296SOL    HW230522   3.104   1.498   0.740  0.0777 -2.0801 -1.0402
 6297SOL     OW30523   0.520   1.781   7.936 -0.0992  0.1449  0.0079
 6297SOL    HW130524   0.435   1.785   7.980 -0.0741 -1.4592  0.2062
 6297SOL    HW230525   0.568   1.719   7.991  0.1011  1.6813  1.5602
 6298SOL     OW30526   2.383   1.127   2.657  0.2926  0.1568  0.4755
 6298SOL    HW130527   2.403   1.035   2.636 -1.1098  0.0250 -0.3309
 6298SOL    HW230528   2.449   1.146   2.723  0.1455 -0.5133  0.8208
 6299SOL     OW30529   3.874   1.937  15.337  0.4412 -0.1318  0.2001
 6299SOL    HW130530   3.873   1.923  15.432 -0.9787  1.3916  0.4218
 6299SOL    HW230531   3.809   2.004  15.317  1.4647  1.1262  1.0143
 6300SOL     OW30532   2.971   2.165  17.690  0.0806  0.9774  0.1922
 6300SOL    HW130533   2.911   2.106  17.645  1.1985 -0.9475  1.1940
 6300SOL    HW230534   3.039   2.178  17.624 -1.2784  0.3842 -1.3277
 6301SOL     OW30535   2.513   1.467   0.909  0.4944  0.3030  0.2023
 6301SOL    HW130536   2.532   1.413   0.986 -2.1506 -0.8001  0.1101
 6301SOL    HW230537   2.425   1.431   0.893 -0.2628  1.3515  1.9365
 6302SOL     OW30538   1.066   3.836   9.610  0.4260  0.0658  0.1772
 6302SOL    HW130539   1.059   3.766   9.674 -2.2623  2.2088  2.2660
 6302SOL    HW230540   1.117   3.897   9.664  0.7143 -1.1743  1.2949
 6303SOL     OW30541   4.566   2.617   2.860  0.4479 -0.5190  0.1217
 6303SOL    HW130542   4.562   2.566   2.941 -0.7947  0.1334  0.4694
 6303SOL    HW230543   4.591   2.705   2.888 -1.8419  0.1598 -0.0179
 6304SOL     OW30544   4.364   1.214   1.121 -0.2235 -0.8693  0.2663
 6304SOL    HW130545   4.388   1.183   1.034 -3.8434  2.2851 -1.8084
 6304SOL    HW230546   4.399   1.137   1.166  1.2667  0.0584  0.7119
 6305SOL     OW30547   4.344   0.667  13.694 -0.6673 -0.2730  0.0626
 6305SOL    HW130548   4.388   0.751  13.703  0.3567 -0.5533 -2.2132
 6305SOL    HW230549   4.408   0.628  13.635 -0.4089 -0.7565  0.6676
 6306SOL     OW30550   1.094   3.224   1.218 -0.0004 -0.0060 -0.4668
 6306SOL    HW130551   1.153   3.203   1.291  0.8099 -0.3171 -1.2139
 6306SOL    HW230552   1.046   3.297   1.259 -0.7019 -1.5388  1.4375
 6307SOL     OW30553   3.403   1.992   3.770  0.2345 -0.1088  0.4863
 6307SOL    HW130554   3.310   1.999   3.789  0.1470 -0.3170  0.1431
 6307SOL    HW230555   3.409   1.907   3.726 -0.6760 -0.6245  1.3893
 6308SOL     OW30556   4.718   1.994   9.035 -0.1485 -0.1237  0.5619
 6308SOL    HW130557   4.705   1.943   8.955  0.8087 -0.2721  0.5048
 6308SOL    HW230558   4.705   2.085   9.008 -0.0222 -0.3292 -0.1881
 6309SOL     OW30559   0.176   2.999   6.519  0.5822  0.1317  0.0886
 6309SOL    HW130560   0.190   2.968   6.430  1.4724  0.4268  0.1234
 6309SOL    HW230561   0.081   3.008   6.524  0.3868 -1.3882 -0.9460
 6310SOL     OW30562   2.639   4.213   6.495 -0.4856 -0.6690  0.8211
 6310SOL    HW130563   2.584   4.138   6.473 -1.5964  0.0633  1.0833
 6310SOL    HW230564   2.591   4.284   6.452  2.9607 -0.0476 -1.9589
 6311SOL     OW30565   0.311   1.514   0.433 -0.3118  0.2662  0.3870
 6311SOL    HW130566   0.339   1.435   0.387 -1.9204  0.1880 -0.4410
 6311SOL    HW230567   0.312   1.575   0.360 -0.7024 -0.3991 -0.1754
 6312SOL     OW30568   3.065   3.958   5.053  0.0270 -0.2418  0.2942
 6312SOL    HW130569   3.022   4.033   5.012 -0.4673 -0.3276  0.6583
 6312SOL    HW230570   3.050   3.894   4.984 -0.5170 -0.0082  0.1959
 6313SOL     OW30571   0.618   0.872   3.414  0.0371  0.2912  0.0363
 6313SOL    HW130572   0.528   0.839   3.418  0.2141 -0.1116  0.5878
 6313SOL    HW230573   0.666   0.823   3.480 -0.1765 -0.6459 -0.4940
 6314SOL     OW30574   1.471   1.017   7.727  0.3037 -0.1989  0.1426
 6314SOL    HW130575   1.532   1.061   7.668  0.8288 -0.7397  0.2766
 6314SOL    HW230576   1.436   0.953   7.665  1.5230  0.1933 -0.9549
 6315SOL     OW30577   2.810   1.462   4.275  0.6564 -0.3467 -0.0403
 6315SOL    HW130578   2.733   1.465   4.332  0.9816  1.8539  0.3002
 6315SOL    HW230579   2.785   1.396   4.211  0.5981  1.3556 -1.7719
 6316SOL     OW30580   2.124   0.860  15.961 -0.0232  0.3175 -0.5153
 6316SOL    HW130581   2.135   0.895  16.050  0.0245 -0.0792 -0.3654
 6316SOL    HW230582   2.200   0.901  15.921 -1.2061  0.5988 -2.4479
 6317SOL     OW30583   4.411   2.837   3.897 -0.0682 -0.6526 -0.7716
 6317SOL    HW130584   4.462   2.892   3.838  1.5245 -3.1402 -1.6835
 6317SOL    HW230585   4.323   2.875   3.896  0.1364 -0.1316  0.1538
 6318SOL     OW30586   4.457   0.182   2.012 -0.1384 -0.2444 -0.4231
 6318SOL    HW130587   4.488   0.181   1.921  0.6651 -2.8726 -0.1321
 6318SOL    HW230588   4.515   0.112   2.043 -1.8953 -1.2235  0.6714
 6319SOL     OW30589   0.440   0.935  12.859  0.0300  0.0520 -0.5108
 6319SOL    HW130590   0.505   0.870  12.886 -0.1514  0.2187  0.3126
 6319SOL    HW230591   0.360   0.892  12.890  0.4079  0.5122  1.1029
 6320SOL     OW30592   4.510   2.070   5.985  0.0450  0.6903 -0.3199
 6320SOL    HW130593   4.499   1.991   6.039  1.0790  0.6874 -0.1016
 6320SOL    HW230594   4.603   2.085   6.004 -0.0812  0.6103  0.3681
 6321SOL     OW30595   3.434   0.718  11.587 -0.6233  0.5449  0.1264
 6321SOL    HW130596   3.425   0.659  11.662  1.0540  1.0902  0.7612
 6321SOL    HW230597   3.340   0.736  11.582 -1.1495 -1.0309  3.6849
 6322SOL     OW30598   1.820   1.083   9.607  0.4586 -0.1815  0.4204
 6322SOL    HW130599   1.841   1.152   9.669  1.2382  1.8704 -2.1248
 6322SOL    HW230600   1.759   1.140   9.560 -2.1300 -0.4946  3.4077
 6323SOL     OW30601   1.986   2.731   5.444 -0.1204  0.6852 -0.1053
 6323SOL    HW130602   1.976   2.646   5.400 -2.2257  0.2312  1.2683
 6323SOL    HW230603   1.900   2.731   5.485  0.3026 -1.0435  0.8164
 6324SOL     OW30604   3.340   3.165   2.264  0.4561  0.4394 -0.0194
 6324SOL    HW130605   3.405   3.095   2.268 -1.3788 -1.3409 -1.5434
 6324SOL    HW230606   3.392   3.238   2.298 -2.7146  2.2615  0.8974
 6325SOL     OW30607   3.128   2.282   2.915 -0.0655 -0.2894  0.1990
 6325SOL    HW130608   3.182   2.203   2.914  1.0606  0.5058 -1.3638
 6325SOL    HW230609   3.155   2.323   2.833  1.0929  1.0149  1.2412
 6326SOL     OW30610   0.169   4.270   5.795  0.1826 -0.1767 -0.2968
 6326SOL    HW130611   0.129   4.218   5.726 -4.2313  0.8940  1.4626
 6326SOL    HW230612   0.221   4.338   5.752 -1.0529  0.7570 -0.2982
 6327SOL     OW30613   3.156   1.391  10.020  0.6779 -0.0171  0.3004
 6327SOL    HW130614   3.156   1.463  10.082  0.0755 -0.0478  0.3393
 6327SOL    HW230615   3.074   1.412   9.973  0.5359 -1.7312 -0.2113
 6328SOL     OW30616   0.896   4.544   3.996  0.8130 -0.1724 -0.2158
 6328SOL    HW130617   0.920   4.596   4.073  0.0784  0.7017 -0.5861
 6328SOL    HW230618   0.840   4.606   3.948 -2.5120 -2.6749  0.4441
 6329SOL     OW30619   4.347   1.454  16.275  0.0326 -0.2762  0.3329
 6329SOL    HW130620   4.439   1.441  16.298  0.1315  0.9849  0.6647
 6329SOL    HW230621   4.313   1.528  16.325 -0.9749  1.0739 -2.3624
 6330SOL     OW30622   3.696   4.530   7.662  0.2696 -0.5436  0.3916
 6330SOL    HW130623   3.671   4.458   7.721  0.9547  0.2635  1.6611
 6330SOL    HW230624   3.664   4.486   7.583  2.1408 -2.7209  0.8378
 6331SOL     OW30625   4.283   0.402   3.247 -0.4925  0.3323  0.4632
 6331SOL    HW130626   4.192   0.391   3.274 -0.1268  0.1996  1.6761
 6331SOL    HW230627   4.324   0.321   3.277  0.9746  0.5448 -0.9601
 6332SOL     OW30628   2.842   4.411   9.470  0.1869 -0.5172  0.0581
 6332SOL    HW130629   2.755   4.375   9.484  1.9715 -3.9643  2.1005
 6332SOL    HW230630   2.851   4.443   9.560 -0.0588  0.9056 -0.4194
 6333SOL     OW30631   0.012   3.045   9.007 -0.2003 -0.3294 -0.3069
 6333SOL    HW130632   4.736   2.953   9.027  1.7237 -0.5601 -0.0128
 6333SOL    HW230633   0.106   3.038   9.025 -0.7890 -1.5541  2.2735
 6334SOL     OW30634   0.158   1.122  12.612  0.7054 -0.0030  0.7666
 6334SOL    HW130635   0.163   1.207  12.568 -1.3991 -0.4124 -0.2978
 6334SOL    HW230636   0.078   1.145  12.660 -0.6427  1.2722 -2.0334
 6335SOL     OW30637   3.350   3.051   9.923 -0.1181  0.4299  0.2484
 6335SOL    HW130638   3.315   3.001   9.849  0.6332  0.7923 -0.3514
 6335SOL    HW230639   3.384   2.972   9.965 -1.1440  0.7039  1.5740
 6336SOL     OW30640   3.431   3.679   8.433  0.6321 -0.4356 -0.4109
 6336SOL    HW130641   3.350   3.666   8.384 -0.6428 -0.3437  1.7140
 6336SOL    HW230642   3.472   3.593   8.437  2.9440  0.6706 -0.0491
 6337SOL     OW30643   4.723   3.256  15.130  0.4502 -0.0235  0.3118
 6337SOL    HW130644   4.727   3.200  15.208 -1.2801  0.2691  0.6140
 6337SOL    HW230645   4.636   3.228  15.102  0.8329  1.0690 -1.9972
 6338SOL     OW30646   0.029   4.183  17.352  0.0108  0.4411  0.8421
 6338SOL    HW130647   0.084   4.116  17.392 -1.8603 -0.1164  2.4796
 6338SOL    HW230648   0.033   4.162  17.259 -0.2877 -1.3842  1.2373
 6339SOL     OW30649   1.477   0.652   9.906 -0.2931  0.2727 -0.3172
 6339SOL    HW130650   1.507   0.699   9.828  0.6398 -1.2292 -0.8679
 6339SOL    HW230651   1.493   0.558   9.892 -1.2946  0.2849 -1.5302
 6340SOL     OW30652   2.573   0.559   0.618 -0.0161 -0.2478  0.2844
 6340SOL    HW130653   2.523   0.598   0.690  1.5826 -1.8459  2.2656
 6340SOL    HW230654   2.496   0.547   0.562 -1.3268  0.3565  1.9502
 6341SOL     OW30655   2.858   2.877   0.954 -0.1097  0.3687  0.1861
 6341SOL    HW130656   2.899   2.957   0.986 -0.9548  0.0034  2.1727
 6341SOL    HW230657   2.925   2.846   0.893 -2.1733 -0.8463 -1.4849
 6342SOL     OW30658   1.349   2.346  16.600  0.4572 -0.2229  0.4594
 6342SOL    HW130659   1.291   2.400  16.654  2.6474  1.9456  0.6522
 6342SOL    HW230660   1.311   2.259  16.614 -0.7394  0.4799  1.4910
 6343SOL     OW30661   0.885   3.796  15.540 -0.1719  0.3979 -0.2940
 6343SOL    HW130662   0.834   3.810  15.620 -1.1887 -1.6711 -0.5906
 6343SOL    HW230663   0.904   3.886  15.514 -1.7443  1.2348  1.4871
 6344SOL     OW30664   2.684   1.960   9.528 -0.6040 -0.3931 -0.5022
 6344SOL    HW130665   2.602   1.987   9.569  0.5827 -1.6750  2.7383
 6344SOL    HW230666   2.718   2.048   9.511 -1.3945 -0.1388 -0.7514
 6345SOL     OW30667   4.548   0.789   7.928  0.8365  0.1036 -0.2966
 6345SOL    HW130668   4.636   0.800   7.964  1.0363 -0.0519 -0.7382
 6345SOL    HW230669   4.502   0.743   7.999 -1.2537  1.1212 -0.9874
 6346SOL     OW30670   2.281   4.350   9.494 -1.0183 -0.4467 -0.2061
 6346SOL    HW130671   2.203   4.403   9.477  1.2094  1.7755 -3.5520
 6346SOL    HW230672   2.345   4.421   9.484 -1.1608 -0.2078  0.5676
 6347SOL     OW30673   3.214   0.403   2.809 -0.2148 -0.2988 -0.1982
 6347SOL    HW130674   3.142   0.457   2.776 -0.9442 -0.5614  0.9375
 6347SOL    HW230675   3.244   0.450   2.886 -0.2483  1.3663 -1.2135
 6348SOL     OW30676   3.719   2.626   7.408 -0.7229  0.5035  0.1450
 6348SOL    HW130677   3.751   2.693   7.347 -0.5561  0.3894  0.1075
 6348SOL    HW230678   3.731   2.666   7.494  0.8852  1.5374 -0.5591
 6349SOL     OW30679   1.973   2.125   8.726  0.1681 -0.1595 -0.1979
 6349SOL    HW130680   2.005   2.110   8.815 -1.2563 -0.3624  0.2761
 6349SOL    HW230681   1.936   2.038   8.708 -2.1548  0.7096  0.3160
 6350SOL     OW30682   0.778   0.256   8.443 -0.3794  0.4016 -0.2755
 6350SOL    HW130683   0.692   0.265   8.402 -0.6714  1.6707  0.6164
 6350SOL    HW230684   0.780   0.165   8.476 -2.0670  0.3622 -0.2538
 6351SOL     OW30685   0.074   1.247   5.354 -0.6509  0.3632 -0.0363
 6351SOL    HW130686   0.114   1.183   5.296 -0.1432 -0.5164  1.2954
 6351SOL    HW230687   0.099   1.223   5.443 -1.3035 -0.9183 -0.1960
 6352SOL     OW30688   0.182   2.775   9.794 -0.5989 -0.5544  0.3833
 6352SOL    HW130689   0.096   2.784   9.835 -0.2181  1.3955  0.7633
 6352SOL    HW230690   0.211   2.866   9.793  3.2455 -1.8114 -0.1765
 6353SOL     OW30691   2.357   4.239   3.448  0.8140  0.1548 -0.0890
 6353SOL    HW130692   2.300   4.170   3.414 -0.9184  1.3931  0.3374
 6353SOL    HW230693   2.431   4.243   3.387  1.2885 -0.5102  0.4368
 6354SOL     OW30694   4.613   4.531   7.306  0.3503 -0.2450  0.1391
 6354SOL    HW130695   4.565   4.460   7.349  0.5323  0.5887  1.6756
 6354SOL    HW230696   4.548   4.601   7.299 -0.9916 -1.2225  3.0627
 6355SOL     OW30697   2.405   1.657   1.268 -0.8527  0.1395  0.0612
 6355SOL    HW130698   2.382   1.569   1.297 -0.8834  0.8566  2.2180
 6355SOL    HW230699   2.487   1.643   1.220 -0.6362  0.2861  0.3868
 6356SOL     OW30700   1.570   2.936   2.415  0.0600  0.2185  0.5708
 6356SOL    HW130701   1.476   2.925   2.399 -0.1600  0.9927  1.3722
 6356SOL    HW230702   1.573   3.031   2.420 -2.3004  0.1699  2.5351
 6357SOL     OW30703   0.114   3.290   7.985  0.1234 -0.7811 -0.3285
 6357SOL    HW130704   0.052   3.330   7.924  2.5608  0.8403 -1.7393
 6357SOL    HW230705   0.156   3.224   7.931  1.6827  0.4468 -0.5933
 6358SOL     OW30706   0.044   3.376   0.649  0.2378  0.1657  0.4242
 6358SOL    HW130707   4.688   3.362   0.658  0.3777 -1.2668 -0.4216
 6358SOL    HW230708   0.085   3.297   0.612 -1.0046 -1.2209  1.9738
 6359SOL     OW30709   2.184   0.328  17.357 -0.0428 -0.0666  0.7503
 6359SOL    HW130710   2.100   0.313  17.401 -1.4315  1.0861 -1.5651
 6359SOL    HW230711   2.178   0.423  17.344  2.0754  0.0996  0.9279
 6360SOL     OW30712   4.489   4.354   6.942 -0.4677  0.3443 -0.3802
 6360SOL    HW130713   4.490   4.447   6.965  2.0162  1.0983 -3.4150
 6360SOL    HW230714   4.510   4.319   7.029 -0.9486  1.7463  0.2908
 6361SOL     OW30715   3.837   2.509   3.916  0.5261 -0.1398 -0.2594
 6361SOL    HW130716   3.790   2.468   3.989 -0.4014 -0.3173 -0.9451
 6361SOL    HW230717   3.762   2.498   3.857  0.3634 -2.0477  0.2924
 6362SOL     OW30718   4.643   2.907   8.290  0.1314  0.1900  0.5388
 6362SOL    HW130719   4.706   2.838   8.267  0.9622  0.9055  0.6594
 6362SOL    HW230720   4.567   2.874   8.243 -1.4341  1.7548  2.0108
 6363SOL     OW30721   0.249   3.857   6.754  0.8408 -0.4921 -0.4491
 6363SOL    HW130722   0.331   3.838   6.709  0.8487  2.1991 -1.5571
 6363SOL    HW230723   0.206   3.917   6.693 -0.0371  1.6158  2.2613
 6364SOL     OW30724   4.542   3.922  14.413 -0.0135 -0.1160 -0.8392
 6364SOL    HW130725   4.624   3.952  14.452 -2.2770  1.5064  2.6797
 6364SOL    HW230726   4.552   3.830  14.436 -0.2240  0.2792  0.8246
 6365SOL     OW30727   1.344   4.072   6.094  0.0088 -0.5296 -0.2888
 6365SOL    HW130728   1.410   4.141   6.091 -1.0724  0.5807  1.0387
 6365SOL    HW230729   1.383   4.021   6.164  3.5228  0.0829 -1.8331
 6366SOL     OW30730   2.052   4.419  11.001 -0.5983  0.0196 -0.1006
 6366SOL    HW130731   2.003   4.475  10.942  0.5651  0.6822 -0.4400
 6366SOL    HW230732   2.128   4.395  10.949 -0.1439 -0.5749  0.8204
 6367SOL     OW30733   0.047   0.097   1.389 -0.3641 -0.2451 -0.2884
 6367SOL    HW130734   0.113   0.097   1.458 -0.8360  0.3312  0.1616
 6367SOL    HW230735   0.018   0.187   1.377 -2.3356 -1.2708 -3.2364
 6368SOL     OW30736   0.589   1.184   5.354  0.1525 -0.4037  0.2843
 6368SOL    HW130737   0.541   1.148   5.279 -0.1647  3.2283 -1.2540
 6368SOL    HW230738   0.671   1.206   5.309 -0.6444  0.2374 -0.8432
 6369SOL     OW30739   1.360   1.819   7.891 -0.2535  0.4617  0.3511
 6369SOL    HW130740   1.369   1.873   7.970  1.8562 -1.6283  1.5021
 6369SOL    HW230741   1.279   1.772   7.912  0.5591 -1.1934 -0.2399
 6370SOL     OW30742   2.306   4.717  15.488  0.0839 -0.0621 -0.1037
 6370SOL    HW130743   2.391   4.681  15.463 -1.1848 -1.8730 -1.6756
 6370SOL    HW230744   2.258   4.723  15.406  0.1691  0.7561 -0.0946
 6371SOL     OW30745   0.987   2.400   4.822 -0.7550 -0.0599  0.0661
 6371SOL    HW130746   1.038   2.480   4.838  0.0382 -0.1924 -1.8176
 6371SOL    HW230747   0.956   2.421   4.734  0.2378 -1.0617 -0.5307
 6372SOL     OW30748   2.569   3.982   1.449 -0.5893  0.2830  0.2865
 6372SOL    HW130749   2.651   3.937   1.427  0.2127  1.1461  1.5147
 6372SOL    HW230750   2.515   3.914   1.489  2.7418 -1.2813  2.1853
 6373SOL     OW30751   0.336   1.424   7.544 -0.3485 -0.5981  0.0530
 6373SOL    HW130752   0.246   1.393   7.543 -0.7661  0.6695 -0.1180
 6373SOL    HW230753   0.317   1.517   7.550  1.0552 -0.4085  1.5624
 6374SOL     OW30754   4.125   2.614   4.577 -0.1904 -0.2672 -0.4934
 6374SOL    HW130755   4.067   2.543   4.606 -2.0556  2.3375  2.1995
 6374SOL    HW230756   4.164   2.571   4.502  0.3160 -2.4565  1.0377
 6375SOL     OW30757   2.006   0.561   1.141  0.3483  0.1895  0.4418
 6375SOL    HW130758   1.958   0.512   1.207  0.2196 -0.2218  0.0454
 6375SOL    HW230759   2.007   0.489   1.077  1.5355  0.3664  0.2590
 6376SOL     OW30760   1.829   0.310   6.208  0.3180 -0.2455  0.4321
 6376SOL    HW130761   1.736   0.305   6.187  1.1200 -0.2079 -3.1341
 6376SOL    HW230762   1.825   0.306   6.304 -1.6547  1.9698  0.4415
 6377SOL     OW30763   2.065   0.622   9.059 -0.0809  0.2109 -0.3218
 6377SOL    HW130764   2.158   0.622   9.036 -0.1880 -1.8295 -0.7621
 6377SOL    HW230765   2.061   0.540   9.108 -0.9468  1.2780  1.3681
 6378SOL     OW30766   3.854   4.446   6.212 -0.0959 -0.1033 -0.2052
 6378SOL    HW130767   3.948   4.432   6.227 -0.6318 -0.4496  2.7623
 6378SOL    HW230768   3.860   4.504   6.136 -2.4662 -1.5018 -1.4594
 6379SOL     OW30769   3.539   2.620   1.477  0.0155  0.0178 -0.4561
 6379SOL    HW130770   3.565   2.528   1.472  0.2868  0.0977 -0.5080
 6379SOL    HW230771   3.445   2.607   1.471 -0.1179 -1.4024  4.8871
 6380SOL     OW30772   4.653   3.138   8.139  0.8086 -0.2707 -0.9225
 6380SOL    HW130773   4.676   3.057   8.185 -1.6234 -2.3850 -3.4189
 6380SOL    HW230774   0.001   3.150   8.098  0.6418  2.4692 -0.4551
 6381SOL     OW30775   4.616   3.899  12.680  0.2372 -0.2908  0.2459
 6381SOL    HW130776   4.548   3.895  12.748  0.4729  0.3688  0.5151
 6381SOL    HW230777   4.700   3.907  12.725 -0.2037  2.5688  0.5839
 6382SOL     OW30778   2.045   2.064   5.820  0.0924  0.1911  0.0901
 6382SOL    HW130779   2.020   2.042   5.731  1.0848  0.0701 -0.1650
 6382SOL    HW230780   2.139   2.045   5.822 -0.1678 -0.9556  1.3276
 6383SOL     OW30781   2.161   1.631   7.098  0.0702  0.2961  0.4422
 6383SOL    HW130782   2.178   1.725   7.107  0.6988  0.3464 -1.3371
 6383SOL    HW230783   2.092   1.612   7.163 -0.1970 -0.2305  0.0080
 6384SOL     OW30784   2.179   2.723   7.805  0.2892  0.1270 -0.1035
 6384SOL    HW130785   2.153   2.633   7.783 -0.0399  0.2665 -0.2783
 6384SOL    HW230786   2.093   2.760   7.825  0.0226 -0.8383  0.5516
 6385SOL     OW30787   3.465   0.047   1.129 -0.2432 -0.5271  0.5861
 6385SOL    HW130788   3.552   0.087   1.134 -1.4257  2.0466  0.5853
 6385SOL    HW230789   3.478   0.014   1.040  1.3370  3.3270 -0.5765
 6386SOL     OW30790   1.353   1.248  12.822 -0.9869  0.7406  0.0915
 6386SOL    HW130791   1.278   1.297  12.856 -1.2855  0.9430 -0.8634
 6386SOL    HW230792   1.409   1.248  12.899 -1.2327  1.5157  0.2618
 6387SOL     OW30793   1.240   1.788   2.210 -0.2167 -0.4492  0.3068
 6387SOL    HW130794   1.172   1.847   2.178 -1.5789 -1.7091  0.8673
 6387SOL    HW230795   1.234   1.706   2.160 -0.3005 -0.4960  0.3931
 6388SOL     OW30796   3.964   1.839   6.802 -0.1336  0.4977 -0.3737
 6388SOL    HW130797   3.903   1.805   6.737 -0.4648 -0.1536  0.2872
 6388SOL    HW230798   3.969   1.933   6.782 -2.2027  1.1638  2.1156
 6389SOL     OW30799   3.821   2.273   2.426  0.3018 -0.8029 -0.2275
 6389SOL    HW130800   3.838   2.238   2.338  2.2205  1.3595 -0.6962
 6389SOL    HW230801   3.798   2.365   2.415  0.1422 -0.8265 -0.0881
 6390SOL     OW30802   3.293   0.422  11.654  0.1733  0.2725  0.4011
 6390SOL    HW130803   3.341   0.341  11.672 -0.1698  0.1266  0.6452
 6390SOL    HW230804   3.204   0.388  11.648  0.6624 -0.6064 -2.2436
 6391SOL     OW30805   1.543   2.206  11.708  1.1174  0.3840  0.1469
 6391SOL    HW130806   1.529   2.114  11.731 -2.1086  0.7866 -0.2077
 6391SOL    HW230807   1.605   2.229  11.777  1.4618  0.1125 -0.0693
 6392SOL     OW30808   2.515   1.232   7.958 -0.7051 -0.0168  0.4468
 6392SOL    HW130809   2.455   1.267   8.024 -2.5956 -0.4825 -1.0370
 6392SOL    HW230810   2.491   1.139   7.959  0.9641 -0.4444 -0.1611
 6393SOL     OW30811   1.324   3.453   6.721  0.1388  0.0324 -0.1949
 6393SOL    HW130812   1.277   3.508   6.659 -0.9064 -2.0712 -1.2551
 6393SOL    HW230813   1.323   3.517   6.793  0.1101 -1.2569  0.9638
 6394SOL     OW30814   4.620   1.743   5.573 -0.1808  0.2753  0.0039
 6394SOL    HW130815   4.639   1.671   5.513  0.6602  3.0209 -3.0163
 6394SOL    HW230816   4.701   1.732   5.623 -0.0068 -0.2376 -0.3951
 6395SOL     OW30817   0.066   1.870   9.271 -0.0554 -0.0591 -0.0473
 6395SOL    HW130818   0.147   1.839   9.230 -0.5858 -2.3707  0.6277
 6395SOL    HW230819   0.028   1.916   9.197  0.8921  1.3272  0.3273
 6396SOL     OW30820   1.865   2.786   7.314 -0.4048 -0.2268  0.1967
 6396SOL    HW130821   1.771   2.768   7.310 -0.3204 -0.9638  1.6198
 6396SOL    HW230822   1.903   2.699   7.326 -1.1217 -0.2710  2.1351
 6397SOL     OW30823   3.115   4.160   2.600  0.3479  0.5781 -0.2681
 6397SOL    HW130824   3.141   4.102   2.528  1.0788 -1.1208  1.3660
 6397SOL    HW230825   3.204   4.164   2.635 -0.0975  2.0899  0.6794
 6398SOL     OW30826   0.318   2.262   3.932 -0.3006 -0.6884  0.0030
 6398SOL    HW130827   0.254   2.222   3.873  1.1821  1.4912 -3.0991
 6398SOL    HW230828   0.270   2.336   3.969  1.1329  0.0926  0.3072
 6399SOL     OW30829   2.070   1.230  14.777 -0.6451  0.4638  0.6446
 6399SOL    HW130830   2.075   1.310  14.725 -1.4610  1.6028  2.2895
 6399SOL    HW230831   2.151   1.187  14.752  0.3636  2.1936  0.8900
 6400SOL     OW30832   4.690   2.432   8.251  0.4839 -0.2891  0.0367
 6400SOL    HW130833   0.045   2.415   8.235  0.3077 -0.9152 -0.3269
 6400SOL    HW230834   4.677   2.387   8.334 -2.5574  1.1919  0.3449
 6401SOL     OW30835   1.718   0.806   1.481 -0.1482  0.6699  0.4016
 6401SOL    HW130836   1.664   0.732   1.509 -1.8821  0.5157 -3.3478
 6401SOL    HW230837   1.706   0.794   1.386 -0.0056  0.4315  0.4146
 6402SOL     OW30838   3.889   3.141   2.097  0.1839  0.0029 -0.3173
 6402SOL    HW130839   3.857   3.064   2.049  1.7986 -1.7696  1.4412
 6402SOL    HW230840   3.970   3.109   2.137 -0.1269 -0.2754  0.0816
 6403SOL     OW30841   0.017   1.217   8.269  0.6811 -0.0871 -0.5390
 6403SOL    HW130842   4.722   1.298   8.308  0.7696 -0.6868  0.7730
 6403SOL    HW230843   4.696   1.151   8.304  0.0629 -1.0043 -3.2633
 6404SOL     OW30844   0.084   3.258  13.906  0.1096 -0.1994 -0.0943
 6404SOL    HW130845   0.018   3.189  13.900 -0.9887  1.0004 -1.9371
 6404SOL    HW230846   0.120   3.235  13.991 -0.5760 -2.0653 -0.3059
 6405SOL     OW30847   0.166   1.176   5.644  0.2773 -0.2199  0.5135
 6405SOL    HW130848   0.079   1.181   5.683  0.0725  1.6070 -0.1774
 6405SOL    HW230849   0.204   1.110   5.701 -1.6734 -0.5569  1.4239
 6406SOL     OW30850   3.197   4.313   3.639  0.2267 -0.0012 -0.4639
 6406SOL    HW130851   3.193   4.267   3.723 -0.1696 -1.7377 -1.4426
 6406SOL    HW230852   3.148   4.389   3.670 -4.3880 -2.9131 -0.6842
 6407SOL     OW30853   2.350   1.910   7.798  0.2026  0.6846  0.3029
 6407SOL    HW130854   2.422   1.967   7.768  1.7844 -1.0255  0.8604
 6407SOL    HW230855   2.315   1.966   7.868  1.9246  2.3919 -0.1813
 6408SOL     OW30856   4.091   4.029   0.536 -0.1857  0.0427  0.2289
 6408SOL    HW130857   4.110   4.079   0.457  0.9570  1.8091  1.6175
 6408SOL    HW230858   4.068   4.104   0.591  0.0507  1.2713 -1.3808
 6409SOL     OW30859   0.880   0.126  11.265 -0.1518  0.1456  0.0526
 6409SOL    HW130860   0.895   0.042  11.221  0.5175  0.8528 -1.0617
 6409SOL    HW230861   0.810   0.105  11.326  0.5534 -0.4143  0.6657
 6410SOL     OW30862   2.750   3.770   0.501  0.0726 -0.2657 -0.3326
 6410SOL    HW130863   2.808   3.810   0.566 -0.2821 -0.0620 -0.1388
 6410SOL    HW230864   2.711   3.696   0.549  0.3641  0.4259  0.9718
 6411SOL     OW30865   1.675   2.274  12.850  0.2708  0.4863  0.5438
 6411SOL    HW130866   1.728   2.198  12.874  1.0704  0.9619  0.2846
 6411SOL    HW230867   1.590   2.230  12.842 -0.1628  1.1289  1.6954
 6412SOL     OW30868   1.751   1.027   3.236  0.1530 -0.1955 -0.6187
 6412SOL    HW130869   1.716   1.010   3.149  0.4567 -0.1598 -0.7486
 6412SOL    HW230870   1.842   1.001   3.221  1.2057  1.7288  2.4016
 6413SOL     OW30871   2.216   2.056  10.967  0.2300  0.3265 -0.0901
 6413SOL    HW130872   2.191   1.995  11.036  2.2002  0.0216  0.3395
 6413SOL    HW230873   2.128   2.091  10.953 -0.2341  0.5650  3.3266
 6414SOL     OW30874   3.788   0.976   7.866  0.1658  0.1603 -0.0281
 6414SOL    HW130875   3.874   1.015   7.882  0.9833 -1.9489  0.7737
 6414SOL    HW230876   3.790   0.895   7.918  0.4296  0.4867  0.4688
 6415SOL     OW30877   3.966   2.174   3.191  0.0459 -0.1838  0.1650
 6415SOL    HW130878   3.944   2.266   3.179 -0.4161 -0.2847  0.2369
 6415SOL    HW230879   3.876   2.145   3.203  0.9139 -2.5057  1.1059
 6416SOL     OW30880   1.084   2.998   4.986  0.1747 -0.7155 -0.2653
 6416SOL    HW130881   1.100   2.986   5.079 -0.9850  1.8595  0.2618
 6416SOL    HW230882   1.102   3.091   4.972 -2.6904 -0.1964 -0.6482
 6417SOL     OW30883   3.129   3.834  15.234 -0.0894  0.4983 -0.0224
 6417SOL    HW130884   3.170   3.892  15.170 -1.3628 -0.0990 -1.3778
 6417SOL    HW230885   3.191   3.853  15.304 -1.0099  2.1682  0.3554
 6418SOL     OW30886   3.393   1.814   7.065 -0.2666  0.5412 -0.1057
 6418SOL    HW130887   3.393   1.849   6.976 -0.1751  0.1794 -0.2476
 6418SOL    HW230888   3.486   1.823   7.086 -0.0883 -1.5865 -0.0201
 6419SOL     OW30889   1.043   3.630   9.165 -0.4801  0.3281 -0.4142
 6419SOL    HW130890   0.994   3.548   9.158  0.0909  0.0900 -1.5222
 6419SOL    HW230891   0.995   3.683   9.102 -2.5732 -1.3847 -0.2514
 6420SOL     OW30892   4.409   3.611  17.444  0.5062 -0.2553  0.3352
 6420SOL    HW130893   4.463   3.534  17.425 -0.7526 -0.6536 -1.6799
 6420SOL    HW230894   4.325   3.575  17.414 -0.0727 -0.2955  2.0453
 6421SOL     OW30895   2.141   4.608   8.198 -0.0056 -0.1566 -0.3321
 6421SOL    HW130896   2.090   4.548   8.251 -3.1471  3.4274  0.6591
 6421SOL    HW230897   2.196   4.546   8.149  0.5231 -0.0981  0.1903
 6422SOL     OW30898   3.382   2.324   4.596 -0.0223 -0.1806 -0.4111
 6422SOL    HW130899   3.341   2.410   4.589 -0.8068 -0.4778  0.5755
 6422SOL    HW230900   3.467   2.336   4.553 -0.2929 -0.3399 -0.9874
 6423SOL     OW30901   1.986   2.239   6.032  0.2653 -0.2227 -0.3837
 6423SOL    HW130902   1.977   2.174   5.962  2.3557 -0.7657 -0.1536
 6423SOL    HW230903   1.981   2.182   6.109 -1.6035  0.2625 -0.1455
 6424SOL     OW30904   1.643   3.293  15.704  0.1708  0.2926  0.0309
 6424SOL    HW130905   1.622   3.353  15.776  0.6156  1.0796 -0.5033
 6424SOL    HW230906   1.713   3.340  15.659 -0.0028  0.5621  0.0432
 6425SOL     OW30907   2.141   3.556  14.991  0.5962 -0.4363  0.3604
 6425SOL    HW130908   2.155   3.566  15.086 -0.9658  0.3742  0.5047
 6425SOL    HW230909   2.152   3.648  14.965  2.3193 -1.3096 -1.9066
 6426SOL     OW30910   3.253   2.138   2.500  0.7434  0.1989  0.0242
 6426SOL    HW130911   3.333   2.121   2.452 -0.6897 -1.3817 -1.8004
 6426SOL    HW230912   3.274   2.216   2.552  1.0489 -1.5400  2.4981
 6427SOL     OW30913   1.834   0.999   9.200 -0.5621  0.1376  0.0621
 6427SOL    HW130914   1.741   1.008   9.220 -0.3495 -0.3814  1.2821
 6427SOL    HW230915   1.849   0.905   9.211  0.8008  0.4955  1.2830
 6428SOL     OW30916   4.537   0.243  14.079  0.3958  0.4751 -0.0121
 6428SOL    HW130917   4.582   0.327  14.078 -0.0406  0.7261  1.6510
 6428SOL    HW230918   4.568   0.195  14.002  0.1384 -0.3351  0.3782
 6429SOL     OW30919   0.553   3.535  16.165  0.2374  0.2711  0.1777
 6429SOL    HW130920   0.528   3.444  16.179 -1.4808  1.3354  3.9887
 6429SOL    HW230921   0.502   3.568  16.239  1.8237  1.1515  0.8946
 6430SOL     OW30922   3.620   2.411  16.202  0.2038  0.1173  0.7030
 6430SOL    HW130923   3.692   2.408  16.139  0.1148 -2.3489  0.7357
 6430SOL    HW230924   3.624   2.504  16.226 -2.8971 -0.4444  3.3821
 6431SOL     OW30925   3.803   0.442   6.327  0.0172  0.5851  0.3980
 6431SOL    HW130926   3.859   0.495   6.270  0.9070 -0.7544  0.0219
 6431SOL    HW230927   3.863   0.404   6.391  0.9986 -0.3701 -1.0964
 6432SOL     OW30928   3.257   0.070   7.468 -0.4360 -0.9149 -0.1659
 6432SOL    HW130929   3.311   0.035   7.397 -0.1933  0.8732 -0.8577
 6432SOL    HW230930   3.181   0.090   7.413 -0.2351 -1.0396 -0.4833
 6433SOL     OW30931   0.110   1.564   3.037  0.3121 -0.2963  0.5036
 6433SOL    HW130932   0.020   1.539   3.059 -0.2853  1.8895  0.4921
 6433SOL    HW230933   0.109   1.653   3.071 -0.4859  0.1553 -0.7038
 6434SOL     OW30934   0.874   0.410   3.472 -0.8729 -0.0904 -0.3817
 6434SOL    HW130935   0.875   0.413   3.567  0.4036  0.3506 -0.4159
 6434SOL    HW230936   0.802   0.471   3.455 -2.0941 -1.1718  0.9779
 6435SOL     OW30937   4.405   2.973   4.556  0.0080 -0.2820 -0.2620
 6435SOL    HW130938   4.460   3.049   4.536 -1.3778  0.6388 -0.5916
 6435SOL    HW230939   4.433   2.968   4.647  2.1155  2.0407 -0.7639
 6436SOL     OW30940   3.861   2.249   3.770 -0.3302  0.6066 -0.1459
 6436SOL    HW130941   3.831   2.246   3.679  0.2792  3.6852 -0.4353
 6436SOL    HW230942   3.903   2.335   3.772 -0.6634  0.7178  2.5970
 6437SOL     OW30943   3.151   2.019   9.225  0.1595 -0.3298 -0.1304
 6437SOL    HW130944   3.150   1.924   9.239  2.4419 -0.3561 -0.1450
 6437SOL    HW230945   3.242   2.031   9.251  0.0033 -0.0925  0.3059
 6438SOL     OW30946   3.010   2.515   7.863  0.9453  0.2920  0.0191
 6438SOL    HW130947   3.095   2.500   7.821  0.6709 -1.2319  0.0281
 6438SOL    HW230948   2.986   2.429   7.896 -1.8188  2.7497  4.3726
 6439SOL     OW30949   1.419   4.198  10.711  0.1908  0.1235 -0.1451
 6439SOL    HW130950   1.422   4.102  10.709 -3.3935  0.0393 -0.3906
 6439SOL    HW230951   1.329   4.214  10.683 -0.0683 -4.6988 -2.1048
 6440SOL     OW30952   1.633   2.418   0.762 -0.6568 -0.5117  0.1253
 6440SOL    HW130953   1.687   2.469   0.703 -0.0622 -0.9179  0.3137
 6440SOL    HW230954   1.681   2.428   0.845  0.5112  0.5658 -0.6950
 6441SOL     OW30955   1.274   1.068   0.474 -0.4496  0.6815 -0.3916
 6441SOL    HW130956   1.293   0.980   0.441  1.8947  1.9523 -2.4559
 6441SOL    HW230957   1.327   1.055   0.553  0.1246 -0.8897 -1.0232
 6442SOL     OW30958   4.608   0.038   4.376  0.0524  0.1347 -0.0684
 6442SOL    HW130959   4.582   0.129   4.392  1.5788  0.3325  1.2795
 6442SOL    HW230960   4.577   4.728   4.453 -2.4738  1.0038 -0.5430
 6443SOL     OW30961   4.224   2.248   9.340 -0.3847  0.0341  0.1491
 6443SOL    HW130962   4.263   2.313   9.400  1.9560 -1.3024  0.0963
 6443SOL    HW230963   4.157   2.217   9.401 -0.8137  2.4879  0.9240
 6444SOL     OW30964   1.585   1.475   4.995  0.3071  0.0668  0.0264
 6444SOL    HW130965   1.649   1.528   5.043  0.1118 -0.3844  0.7649
 6444SOL    HW230966   1.554   1.546   4.938  1.5501 -0.7455 -1.6588
 6445SOL     OW30967   3.905   0.997  13.822  0.1576 -0.0141  0.2283
 6445SOL    HW130968   3.909   0.911  13.862  2.1757  0.3631  0.8441
 6445SOL    HW230969   3.960   1.053  13.878  1.6821 -1.6994  0.3983
 6446SOL     OW30970   1.468   2.385   6.479 -0.0142 -0.6611 -0.1409
 6446SOL    HW130971   1.476   2.339   6.563  0.2467 -0.8470 -0.2680
 6446SOL    HW230972   1.436   2.471   6.505  1.5961  0.2720 -1.2257
 6447SOL     OW30973   3.034   4.369   3.952 -0.0732 -0.2410  0.1073
 6447SOL    HW130974   2.981   4.415   3.887 -0.8477 -0.3188  0.6705
 6447SOL    HW230975   3.126   4.390   3.937  0.2258 -1.0171  0.8265
 6448SOL     OW30976   0.268   1.585   5.292  0.3737  0.1703  0.0435
 6448SOL    HW130977   0.307   1.500   5.314 -0.8477 -0.2500  0.6575
 6448SOL    HW230978   0.297   1.624   5.374 -2.4698  1.9292  0.1979
 6449SOL     OW30979   3.056   4.458   8.858 -0.5716  0.1134 -0.3255
 6449SOL    HW130980   2.980   4.402   8.847 -0.0311 -0.7820  0.4848
 6449SOL    HW230981   3.121   4.421   8.798 -0.1470 -0.3895  0.4410
 6450SOL     OW30982   2.807   2.751  12.722 -0.1899  0.0035  0.2860
 6450SOL    HW130983   2.793   2.689  12.652  1.5703  1.8923 -1.7430
 6450SOL    HW230984   2.766   2.711  12.799  0.0085  2.2519  1.5583
 6451SOL     OW30985   1.560   1.700   7.686 -0.1069  0.4164  0.2599
 6451SOL    HW130986   1.535   1.734   7.600 -1.3544 -0.5054  0.2518
 6451SOL    HW230987   1.476   1.701   7.731 -0.9988 -1.8261 -1.3137
 6452SOL     OW30988   3.305   2.263  14.968 -0.4372 -0.8560 -0.0174
 6452SOL    HW130989   3.378   2.204  14.988 -1.0291 -1.0431  1.5846
 6452SOL    HW230990   3.255   2.252  15.049 -2.8978 -0.7308 -1.5133
 6453SOL     OW30991   2.685   2.654  15.708  0.5871  0.3986  0.0225
 6453SOL    HW130992   2.714   2.606  15.630 -0.1949  2.2016 -1.3850
 6453SOL    HW230993   2.749   2.624  15.773  0.1345  2.1707  1.2928
 6454SOL     OW30994   4.545   2.339   0.935  0.1989 -0.9110  0.4035
 6454SOL    HW130995   4.608   2.376   0.873 -0.9768  1.1873  0.4569
 6454SOL    HW230996   4.554   2.251   0.900 -0.0661 -0.7910  0.0281
 6455SOL     OW30997   3.379   1.753   7.798  0.4314 -0.4130 -0.1286
 6455SOL    HW130998   3.299   1.700   7.792  0.4989 -0.4809 -0.4198
 6455SOL    HW230999   3.358   1.808   7.874 -1.4945 -2.2856  0.6933
 6456SOL     OW31000   1.208   4.222  10.064  0.6077  0.4908  0.1972
 6456SOL    HW131001   1.249   4.182  10.141 -0.3100 -0.0576  0.3981
 6456SOL    HW231002   1.120   4.184  10.064  0.0579  1.7769 -3.6504
 6457SOL     OW31003   2.639   3.935   6.901  0.2221 -0.3939 -0.3207
 6457SOL    HW131004   2.561   3.958   6.850 -0.5725 -3.1979 -0.3720
 6457SOL    HW231005   2.607   3.866   6.957  0.8412 -2.0388 -1.9975
 6458SOL     OW31006   1.499   0.389   2.649 -0.0021 -0.3721 -0.0048
 6458SOL    HW131007   1.572   0.410   2.708 -0.4253 -1.2126  0.8139
 6458SOL    HW231008   1.477   0.480   2.627  1.9271 -0.1448 -1.0371
 6459SOL     OW31009   2.963   4.585  11.421 -0.6383  0.1459  0.5688
 6459SOL    HW131010   2.874   4.621  11.421 -0.0012  1.7864 -0.8686
 6459SOL    HW231011   3.021   4.660  11.433  0.9042 -0.8414 -0.8679
 6460SOL     OW31012   1.046   0.842   4.259  0.7211  0.1087  0.5212
 6460SOL    HW131013   1.139   0.824   4.251  0.9881  0.6696  2.4821
 6460SOL    HW231014   1.007   0.755   4.269  1.4665 -0.5179 -2.1664
 6461SOL     OW31015   3.417   4.034   7.450 -0.5730 -0.1617  0.1557
 6461SOL    HW131016   3.378   4.073   7.528  1.5085  2.9095 -0.3507
 6461SOL    HW231017   3.499   3.994   7.479  0.7696  1.0246 -1.9947
 6462SOL     OW31018   3.618   0.667   5.227  0.0314 -0.4244 -0.7030
 6462SOL    HW131019   3.643   0.584   5.188 -1.1893 -1.6300  1.0948
 6462SOL    HW231020   3.683   0.681   5.295 -1.0589  0.5753  0.1416
 6463SOL     OW31021   0.846   3.725   2.495  0.3082 -0.2643 -0.1627
 6463SOL    HW131022   0.873   3.800   2.547  0.1919  1.1252 -2.1262
 6463SOL    HW231023   0.882   3.768   2.418  2.4258  0.5052  1.2419
 6464SOL     OW31024   3.160   1.255  12.381 -0.2236 -0.1484 -0.0293
 6464SOL    HW131025   3.156   1.161  12.361  1.2347 -0.1003 -0.4675
 6464SOL    HW231026   3.244   1.268  12.425 -0.5277  0.3113  0.4190
 6465SOL     OW31027   0.847   1.489   6.584  0.1598  0.2116  0.2191
 6465SOL    HW131028   0.777   1.529   6.635  0.6751  3.1258 -1.3598
 6465SOL    HW231029   0.799   1.414   6.550  0.6251  0.2762 -0.5783
 6466SOL     OW31030   1.668   4.062   3.864 -0.0806 -0.1673  0.1006
 6466SOL    HW131031   1.748   4.101   3.829 -1.1183  1.5394 -0.3882
 6466SOL    HW231032   1.638   4.024   3.782  0.0826  2.3105 -1.0995
 6467SOL     OW31033   3.285   3.760   2.359 -0.3363 -0.6040  0.2340
 6467SOL    HW131034   3.367   3.722   2.328  0.0021  0.6300 -0.3588
 6467SOL    HW231035   3.232   3.751   2.280 -0.5459  1.0744  0.1862
 6468SOL     OW31036   4.620   3.583   6.724 -0.2052 -0.2247 -0.7493
 6468SOL    HW131037   4.711   3.559   6.703 -0.2658 -1.6654  0.5810
 6468SOL    HW231038   4.581   3.589   6.637 -0.2106  1.3603 -0.6340
 6469SOL     OW31039   2.737   4.667   3.644 -0.0855 -0.4984  0.7932
 6469SOL    HW131040   2.815   4.703   3.686 -0.0858 -1.3270  1.5002
 6469SOL    HW231041   2.770   4.625   3.564 -2.2393 -1.8015  0.5939
 6470SOL     OW31042   2.819   4.223   6.740  0.0828 -0.0125  0.3867
 6470SOL    HW131043   2.883   4.167   6.696 -1.0159 -0.1111 -1.0559
 6470SOL    HW231044   2.740   4.188   6.701 -1.2187  1.3447  1.7939
 6471SOL     OW31045   1.594   3.369   8.703  0.0259  0.2602 -0.1303
 6471SOL    HW131046   1.632   3.445   8.747 -0.4538 -0.1245  0.9343
 6471SOL    HW231047   1.541   3.403   8.631  0.6973  0.3539 -0.5756
 6472SOL     OW31048   2.981   0.735   5.978  0.0923  0.0717 -0.4932
 6472SOL    HW131049   2.913   0.801   5.964 -1.9343 -1.7109  0.9404
 6472SOL    HW231050   3.061   0.788   5.979 -1.3991  2.3281 -1.3303
 6473SOL     OW31051   3.000   4.591   4.643  0.2945  0.0046  0.1786
 6473SOL    HW131052   2.937   4.527   4.678  0.2876 -1.0247 -1.7157
 6473SOL    HW231053   3.067   4.526   4.619  0.3553 -0.5115  1.7507
 6474SOL     OW31054   3.793   3.898  10.392 -0.2189  0.2053  0.5721
 6474SOL    HW131055   3.796   3.955  10.469  0.4250 -0.2215  0.8626
 6474SOL    HW231056   3.885   3.874  10.383 -0.0380  0.8792  0.5977
 6475SOL     OW31057   4.538   2.654  14.431  0.8507  0.4817  0.6519
 6475SOL    HW131058   4.554   2.586  14.497  2.1496  1.0589  0.9436
 6475SOL    HW231059   4.580   2.730  14.471  2.3716  0.1401 -0.3044
 6476SOL     OW31060   4.520   2.635   0.326 -0.2923 -0.1156  0.4828
 6476SOL    HW131061   4.584   2.665   0.262 -0.3547 -0.9464  0.0320
 6476SOL    HW231062   4.440   2.630   0.274 -0.1928  0.7901  0.2486
 6477SOL     OW31063   0.459   0.105   3.546 -0.2276 -0.0309  0.2759
 6477SOL    HW131064   0.539   0.139   3.587 -0.0069 -1.2753  0.8714
 6477SOL    HW231065   0.492   0.104   3.456 -0.5407 -2.4916  0.1826
 6478SOL     OW31066   1.259   3.571   3.331 -0.2743  0.1347  0.0660
 6478SOL    HW131067   1.327   3.624   3.290  0.3288  0.3148  1.2974
 6478SOL    HW231068   1.310   3.521   3.395 -0.9857 -0.5745  0.0879
 6479SOL     OW31069   0.433   4.545   7.898 -0.5226  0.0476 -0.3222
 6479SOL    HW131070   0.516   4.592   7.907 -0.2012 -1.2140  3.3005
 6479SOL    HW231071   0.466   4.465   7.857 -0.5573  0.5126 -1.2557
 6480SOL     OW31072   1.159   2.945   5.238  0.0100  0.4489 -0.1752
 6480SOL    HW131073   1.184   3.036   5.252  1.9733 -0.1943  0.5906
 6480SOL    HW231074   1.100   2.922   5.309 -1.1174 -3.1110 -2.2425
 6481SOL     OW31075   0.413   4.167  14.202  0.1591 -0.5050  0.0542
 6481SOL    HW131076   0.346   4.234  14.215  1.1936  0.9306 -1.8652
 6481SOL    HW231077   0.378   4.137  14.119  0.1894  0.3397 -0.2693
 6482SOL     OW31078   4.298   0.362   6.428  0.1293  0.0358 -0.0356
 6482SOL    HW131079   4.374   0.303   6.435  1.1148  1.2915 -0.0594
 6482SOL    HW231080   4.250   0.349   6.509  0.7454 -1.3431  0.1092
 6483SOL     OW31081   4.472   4.608   3.137 -0.2674  0.1670  0.7606
 6483SOL    HW131082   4.433   4.628   3.052  0.7274 -1.0528  0.0322
 6483SOL    HW231083   4.563   4.613   3.108 -1.0196  0.9480 -1.4440
 6484SOL     OW31084   1.252   4.574   8.400 -0.2762 -0.2394 -0.2751
 6484SOL    HW131085   1.247   4.647   8.461  0.8380  0.4764 -1.0198
 6484SOL    HW231086   1.172   4.525   8.414  0.8682 -1.1295  3.1622
 6485SOL     OW31087   0.358   4.416   7.510  0.3163 -0.0903 -0.1123
 6485SOL    HW131088   0.270   4.437   7.541  0.3033 -0.6040  0.1905
 6485SOL    HW231089   0.372   4.498   7.463 -1.2709 -0.6122 -1.4982
 6486SOL     OW31090   0.168   1.557   7.139 -0.1837 -0.0108 -1.2076
 6486SOL    HW131091   0.232   1.516   7.081  1.2470 -0.7923  0.8940
 6486SOL    HW231092   0.229   1.611   7.189  0.1961 -1.4160 -0.1724
 6487SOL     OW31093   0.881   3.996  14.456  0.1130  0.2813  0.1529
 6487SOL    HW131094   0.953   4.053  14.429  0.7417 -0.6642 -0.2078
 6487SOL    HW231095   0.840   3.968  14.374 -0.0079  1.7692 -0.2839
 6488SOL     OW31096   2.869   3.309   1.902 -0.1401  0.1577  0.0619
 6488SOL    HW131097   2.924   3.385   1.919 -0.4765 -0.1396  2.5317
 6488SOL    HW231098   2.924   3.252   1.850  2.4319  0.7462  2.1549
 6489SOL     OW31099   0.192   2.346   7.659  0.9275 -0.1294 -0.0815
 6489SOL    HW131100   0.122   2.409   7.641 -0.1861 -1.7776 -1.5533
 6489SOL    HW231101   0.269   2.404   7.665  1.4360 -0.7893 -0.2073
 6490SOL     OW31102   1.275   4.473   1.636  0.1698  0.2866  0.5518
 6490SOL    HW131103   1.266   4.549   1.693  1.4580  0.9516 -0.1336
 6490SOL    HW231104   1.276   4.509   1.548 -1.1650 -1.5454 -0.2136
 6491SOL     OW31105   0.128   3.451   9.495  0.1918  0.6425  0.0561
 6491SOL    HW131106   0.050   3.464   9.548  0.6732 -1.2881  1.2512
 6491SOL    HW231107   0.200   3.457   9.558 -0.3824 -1.7604  0.9347
 6492SOL     OW31108   1.803   1.010  15.607  0.2554 -0.2317  0.2674
 6492SOL    HW131109   1.832   0.972  15.690  1.0298 -1.3826 -0.5206
 6492SOL    HW231110   1.793   1.101  15.636  0.1457 -0.3839  0.7059
 6493SOL     OW31111   1.368   1.402   6.535 -0.1051 -0.2153 -0.0991
 6493SOL    HW131112   1.394   1.420   6.444  2.0312  1.7850  0.9001
 6493SOL    HW231113   1.318   1.482   6.550  0.3859  0.1463 -0.3740
 6494SOL     OW31114   4.541   0.494   5.191 -0.2567 -0.1419  0.4093
 6494SOL    HW131115   4.600   0.569   5.185 -0.3309  0.0313  1.9423
 6494SOL    HW231116   4.603   0.423   5.210 -0.4061 -0.4766 -0.3627
 6495SOL     OW31117   4.506   1.343   6.211  0.1699  0.9799 -0.2327
 6495SOL    HW131118   4.478   1.328   6.301  1.3261 -1.1577 -0.2417
 6495SOL    HW231119   4.427   1.323   6.161 -0.5088 -1.4282  1.7818
 6496SOL     OW31120   1.962   1.488   6.821 -0.5410  0.2535  0.1696
 6496SOL    HW131121   2.027   1.537   6.872 -1.7110  0.9655  0.9784
 6496SOL    HW231122   2.015   1.420   6.779 -2.3669 -0.8320 -0.3474
 6497SOL     OW31123   4.651   0.626   2.641 -0.6345  0.3936  0.1380
 6497SOL    HW131124   4.711   0.679   2.694 -2.4408  1.1194  1.4501
 6497SOL    HW231125   4.712   0.595   2.573  0.6566  1.8773  0.6036
 6498SOL     OW31126   2.932   3.148   1.024 -0.0373  0.1849  0.1521
 6498SOL    HW131127   2.938   3.207   0.950 -0.0083  0.6348  0.5130
 6498SOL    HW231128   2.837   3.143   1.039  0.2124 -3.8425  0.3570
 6499SOL     OW31129   0.410   0.423  16.838 -0.0864  0.1283  0.0882
 6499SOL    HW131130   0.458   0.360  16.892  0.2881 -0.7415 -1.2778
 6499SOL    HW231131   0.359   0.359  16.788 -0.4972 -0.0405  0.7212
 6500SOL     OW31132   3.450   4.479   3.235  0.2071 -0.3750 -0.4998
 6500SOL    HW131133   3.423   4.498   3.325  0.8525  2.0259 -0.8129
 6500SOL    HW231134   3.387   4.518   3.174 -0.5444 -0.3641  0.2712
 6501SOL     OW31135   1.440   4.602   4.483 -0.7232 -0.2740 -0.5149
 6501SOL    HW131136   1.491   4.536   4.530  0.2103 -0.1380 -1.3525
 6501SOL    HW231137   1.362   4.547   4.473 -0.3344 -0.7526 -0.9064
 6502SOL     OW31138   0.633   1.018  10.232 -0.1037 -0.7391  0.5524
 6502SOL    HW131139   0.574   1.059  10.168 -0.2263  0.5160  1.4709
 6502SOL    HW231140   0.686   1.095  10.255 -0.9115  0.7291 -2.4686
 6503SOL     OW31141   4.661   1.899   2.535  0.1731  0.0757 -0.0055
 6503SOL    HW131142   4.657   1.819   2.588  3.0839 -0.2128 -0.2305
 6503SOL    HW231143   0.007   1.895   2.489  0.4375 -1.1975  0.5797
 6504SOL     OW31144   3.120   3.168   6.524 -1.0666  0.5862 -0.5361
 6504SOL    HW131145   3.191   3.134   6.579  0.6703  2.3823 -1.6761
 6504SOL    HW231146   3.170   3.214   6.456 -1.5950  1.1353 -0.5492
 6505SOL     OW31147   0.796   3.214   3.588  0.1832 -0.3454  0.0236
 6505SOL    HW131148   0.767   3.174   3.507 -1.0685 -0.3365  0.4617
 6505SOL    HW231149   0.744   3.295   3.586 -0.0416 -0.4451  1.3283
 6506SOL     OW31150   0.919   4.132   5.110 -0.5127 -0.1498 -0.5339
 6506SOL    HW131151   0.858   4.060   5.127 -1.0281  0.2757 -0.5899
 6506SOL    HW231152   0.908   4.125   5.015 -0.6504 -0.0861 -0.5222
 6507SOL     OW31153   2.008   4.212   7.783  0.4676  0.1060  0.0606
 6507SOL    HW131154   2.053   4.199   7.700 -0.9171 -1.3555 -0.4812
 6507SOL    HW231155   1.976   4.124   7.802 -1.0882  0.0895 -2.6108
 6508SOL     OW31156   3.827   1.331   3.793  0.0485  0.4231  0.5975
 6508SOL    HW131157   3.906   1.292   3.756 -0.7308  1.1082 -1.7934
 6508SOL    HW231158   3.864   1.365   3.874  1.3045 -0.8158  0.5423
 6509SOL     OW31159   3.418   2.243  16.237 -0.3321 -1.1588  0.0897
 6509SOL    HW131160   3.453   2.183  16.304  0.9751  1.2251  1.5379
 6509SOL    HW231161   3.485   2.310  16.230 -2.2976  0.7666 -0.2568
 6510SOL     OW31162   2.646   2.670   8.123 -0.4255 -0.0441  0.2126
 6510SOL    HW131163   2.558   2.653   8.090 -0.7933 -1.4415  1.8959
 6510SOL    HW231164   2.634   2.760   8.156  0.9567  0.4422 -0.6489
 6511SOL     OW31165   4.277   3.217   5.111  0.2007  0.0675 -0.1050
 6511SOL    HW131166   4.360   3.258   5.086  1.3843 -0.1619  3.4299
 6511SOL    HW231167   4.239   3.179   5.032  0.5947  0.3137 -0.4212
 6512SOL     OW31168   1.440   2.599   7.940 -0.0477  0.6565  0.0739
 6512SOL    HW131169   1.409   2.676   7.892 -1.1207 -1.6792 -2.9036
 6512SOL    HW231170   1.420   2.518   7.894  0.8459  0.8223 -0.6018
 6513SOL     OW31171   3.081   0.832   7.187 -0.5616  0.2347 -0.0590
 6513SOL    HW131172   3.157   0.876   7.226 -1.3115  0.0957  1.5747
 6513SOL    HW231173   3.120   0.762   7.136 -1.3613 -0.2062 -0.0513
 6514SOL     OW31174   0.047   0.793   8.089  0.5647 -0.8313  0.7912
 6514SOL    HW131175   0.107   0.865   8.108 -0.0675  0.0218 -0.4654
 6514SOL    HW231176   0.109   0.726   8.061  0.0076 -0.3029 -1.6716
 6515SOL     OW31177   3.626   0.528   2.370 -0.4449 -0.1422 -0.3901
 6515SOL    HW131178   3.716   0.499   2.390 -0.8409 -0.0910  1.4054
 6515SOL    HW231179   3.618   0.501   2.278  0.9048 -0.4355 -0.4243
 6516SOL     OW31180   0.950   1.334  15.241  0.2032  0.3060 -0.0074
 6516SOL    HW131181   0.938   1.310  15.149 -1.8827 -1.8949  0.8377
 6516SOL    HW231182   1.033   1.289  15.259 -0.0380 -0.1550 -0.0543
 6517SOL     OW31183   1.698   1.413   9.917 -0.4019  0.0005 -0.0090
 6517SOL    HW131184   1.669   1.477   9.852  0.9491  2.1445  1.5225
 6517SOL    HW231185   1.616   1.363   9.915  0.0592 -0.8573  1.9211
 6518SOL     OW31186   3.935   4.023   4.849  0.0191  0.1663 -0.1029
 6518SOL    HW131187   4.015   4.075   4.850  0.2268 -0.0887 -3.7452
 6518SOL    HW231188   3.873   4.067   4.907 -0.8703  0.2771 -1.1448
 6519SOL     OW31189   1.646   2.984   4.560 -1.1363  0.2730  0.7881
 6519SOL    HW131190   1.557   2.995   4.593 -0.6393 -1.0806  2.5981
 6519SOL    HW231191   1.639   2.992   4.465 -0.9059 -1.5514  0.6102
 6520SOL     OW31192   1.624   4.644  13.587  0.1526 -0.2750 -0.2499
 6520SOL    HW131193   1.566   4.619  13.659  0.4887 -0.4884 -0.0535
 6520SOL    HW231194   1.572   4.716  13.551 -0.1330  0.2516  1.1914
 6521SOL     OW31195   4.029   1.175  15.491  0.6052  0.0906 -0.3541
 6521SOL    HW131196   3.951   1.225  15.469 -0.6942 -1.3897  0.9667
 6521SOL    HW231197   4.012   1.088  15.455 -1.2194  0.2830  0.0496
 6522SOL     OW31198   3.830   0.989   3.660  0.5605 -0.1394  0.1533
 6522SOL    HW131199   3.753   1.024   3.704 -1.0244 -3.9182  0.3670
 6522SOL    HW231200   3.893   1.061   3.666 -0.2479  0.5084  0.8322
 6523SOL     OW31201   4.460   3.247  13.124  0.0472  0.0830  0.2803
 6523SOL    HW131202   4.385   3.250  13.064  1.4829 -1.4502 -1.6076
 6523SOL    HW231203   4.516   3.315  13.087  1.1938 -1.0348 -0.0195
 6524SOL     OW31204   3.758   3.736   7.317  0.0809 -0.2285 -0.2593
 6524SOL    HW131205   3.764   3.830   7.302 -1.7169 -0.2691 -1.2186
 6524SOL    HW231206   3.742   3.701   7.229  0.4946 -1.4454  0.1492
 6525SOL     OW31207   0.206   3.677   4.515  0.0881  0.3671  0.0645
 6525SOL    HW131208   0.268   3.668   4.587  1.6242  3.5689 -0.8147
 6525SOL    HW231209   0.258   3.725   4.450 -0.7830 -3.7435 -3.6369
 6526SOL     OW31210   0.579   3.524  11.822 -0.1286  0.1369 -0.3505
 6526SOL    HW131211   0.513   3.539  11.755 -0.3151  1.3089  0.0947
 6526SOL    HW231212   0.588   3.429  11.817 -1.8033 -0.0746  0.4851
 6527SOL     OW31213   2.246   0.294  10.040  0.0778 -0.1195  0.1337
 6527SOL    HW131214   2.202   0.218  10.079  2.9916 -0.8655  1.9486
 6527SOL    HW231215   2.183   0.365  10.048 -0.2620 -0.6420  1.9697
 6528SOL     OW31216   0.612   1.141   3.363 -0.1694  0.0377 -0.1998
 6528SOL    HW131217   0.568   1.158   3.446 -1.7016 -1.4910 -0.6862
 6528SOL    HW231218   0.628   1.046   3.361  0.2952  0.1096  0.2677
 6529SOL     OW31219   0.771   4.667  11.091 -0.1211 -0.3353  0.5093
 6529SOL    HW131220   0.719   4.606  11.144  0.3789 -0.5671  0.7270
 6529SOL    HW231221   0.719   0.009  11.093 -0.4061 -0.4750 -0.9080
 6530SOL     OW31222   1.678   2.799   5.447  0.2163 -0.5185  0.0879
 6530SOL    HW131223   1.603   2.853   5.421 -1.5011 -2.6285  0.7306
 6530SOL    HW231224   1.691   2.751   5.365  1.5838 -2.3246  1.3653
 6531SOL     OW31225   1.333   3.486   3.771 -0.0226 -0.1548  0.1468
 6531SOL    HW131226   1.391   3.561   3.788  0.0633  0.0346 -0.9952
 6531SOL    HW231227   1.388   3.444   3.705 -0.1929  0.2957 -0.2847
 6532SOL     OW31228   1.893   2.393   6.530  0.0069 -0.1770  0.1022
 6532SOL    HW131229   1.825   2.367   6.467  0.9477  0.7918 -1.3106
 6532SOL    HW231230   1.854   2.353   6.608 -2.3167 -2.0012 -1.9885
 6533SOL     OW31231   0.464   1.477   8.616 -0.3190  0.6177 -0.4249
 6533SOL    HW131232   0.379   1.521   8.616  0.6359  2.4534  1.0973
 6533SOL    HW231233   0.446   1.391   8.655  0.9866  0.6241  0.1657
 6534SOL     OW31234   0.597   2.687   7.363  0.0182 -0.0567 -0.7708
 6534SOL    HW131235   0.518   2.726   7.327 -0.7125 -1.0175 -0.2051
 6534SOL    HW231236   0.661   2.753   7.335 -0.1311 -0.2586 -1.5992
 6535SOL     OW31237   2.214   0.035  11.103 -0.3753  0.1167 -0.1540
 6535SOL    HW131238   2.134   0.023  11.153  0.2692  0.1270  0.8828
 6535SOL    HW231239   2.263   4.697  11.134 -0.8589  1.0843  2.9656
 6536SOL     OW31240   2.604   0.145   6.596  0.1476 -0.5672  0.0672
 6536SOL    HW131241   2.572   0.072   6.648  1.7638 -0.9134  0.5528
 6536SOL    HW231242   2.636   0.097   6.520 -0.1926  1.8969 -1.6678
 6537SOL     OW31243   1.323   3.230   3.513 -0.0941  0.5931 -0.0419
 6537SOL    HW131244   1.232   3.219   3.484  0.6349 -1.7476 -1.5248
 6537SOL    HW231245   1.360   3.301   3.461 -0.3561  0.8499  0.1243
 6538SOL     OW31246   4.453   1.245   9.154  0.1608 -0.0519  0.0153
 6538SOL    HW131247   4.440   1.318   9.214 -0.4253  1.3691 -1.8191
 6538SOL    HW231248   4.523   1.195   9.195  0.3543 -0.2756 -0.5917
 6539SOL     OW31249   4.304   0.838   0.952 -0.3297  0.2401 -0.4173
 6539SOL    HW131250   4.375   0.836   1.016 -1.9426  0.4690  1.3846
 6539SOL    HW231251   4.324   0.765   0.893 -0.9038 -2.0550  2.2719
 6540SOL     OW31252   4.338   0.604   1.291  0.1911  0.1936  0.6973
 6540SOL    HW131253   4.372   0.533   1.347 -0.2891  0.2404  1.0453
 6540SOL    HW231254   4.276   0.556   1.237  0.5872  1.4418 -0.8460
 6541SOL     OW31255   3.372   0.302   6.369 -0.3125 -0.3835 -0.2280
 6541SOL    HW131256   3.317   0.226   6.350  1.5264 -1.0658 -2.7486
 6541SOL    HW231257   3.323   0.361   6.311  1.0618 -1.2511 -2.2728
 6542SOL     OW31258   4.517   3.057   3.148 -0.1173 -0.5228  0.4635
 6542SOL    HW131259   4.490   2.983   3.094 -1.9084  0.9699 -0.6594
 6542SOL    HW231260   4.446   3.120   3.147  0.8657  0.5832 -0.0482
 6543SOL     OW31261   3.091   1.029   8.786  0.1124 -0.3068  0.0258
 6543SOL    HW131262   3.095   0.962   8.719  2.2297 -0.6935  0.5325
 6543SOL    HW231263   3.070   1.107   8.734 -2.4994 -1.7895 -1.1024
 6544SOL     OW31264   4.304   1.910   8.794  0.1789  0.4735  0.2089
 6544SOL    HW131265   4.309   1.865   8.878 -3.1366  0.1161  0.2344
 6544SOL    HW231266   4.338   1.996   8.815  0.5278  0.3323  0.2213
 6545SOL     OW31267   4.270   2.792   9.481  0.2583 -0.4695 -0.2416
 6545SOL    HW131268   4.295   2.766   9.392 -0.3436  0.1328 -0.5869
 6545SOL    HW231269   4.298   2.720   9.537 -1.4992 -2.0992 -1.4746
 6546SOL     OW31270   0.485   3.726   6.719  0.0723 -0.0169  0.2246
 6546SOL    HW131271   0.494   3.711   6.813 -0.7816 -2.4093 -0.0630
 6546SOL    HW231272   0.490   3.637   6.682 -0.7858 -0.5199  1.3051
 6547SOL     OW31273   3.054   3.825   5.296 -0.1941  0.3494  1.0827
 6547SOL    HW131274   3.046   3.861   5.207 -1.8877  0.6747  1.3755
 6547SOL    HW231275   3.077   3.896   5.356 -0.4802 -0.4280  2.1044
 6548SOL     OW31276   0.511   3.635  12.710 -0.5481 -0.6412  0.0289
 6548SOL    HW131277   0.498   3.545  12.740 -0.3536 -0.6400  0.1202
 6548SOL    HW231278   0.425   3.664  12.680 -0.9004 -0.9260  0.7744
 6549SOL     OW31279   1.651   1.751   7.084  0.1722 -0.1045  0.0014
 6549SOL    HW131280   1.703   1.820   7.043 -0.6833 -0.2030 -1.2428
 6549SOL    HW231281   1.645   1.687   7.013 -4.3280  1.1290 -0.6729
 6550SOL     OW31282   4.233   0.208  16.584  0.4972 -0.5025  0.3330
 6550SOL    HW131283   4.275   0.266  16.648  0.1130  0.5180 -0.3533
 6550SOL    HW231284   4.286   0.128  16.592  0.3010 -0.6734 -0.0910
 6551SOL     OW31285   2.370   2.085   6.351 -0.6939 -0.0827 -0.1787
 6551SOL    HW131286   2.442   2.146   6.338  0.0229 -1.1523 -1.2496
 6551SOL    HW231287   2.318   2.134   6.414  0.3988  1.5813 -0.5937
 6552SOL     OW31288   3.141   2.638   7.176  0.4714  0.2172 -0.2430
 6552SOL    HW131289   3.078   2.672   7.113  0.2330 -0.1811 -0.2228
 6552SOL    HW231290   3.080   2.609   7.244 -1.4543  2.1837 -1.1270
 6553SOL     OW31291   0.045   2.028   6.066  0.5158  0.4772  0.3585
 6553SOL    HW131292   0.026   1.960   6.001  2.2657 -0.5030  0.8754
 6553SOL    HW231293   0.124   2.067   6.029  1.0769 -0.3829  0.6427
 6554SOL     OW31294   3.684   3.566   3.157  0.2083  0.1306 -0.2390
 6554SOL    HW131295   3.745   3.542   3.087 -0.1885  1.0654 -0.9212
 6554SOL    HW231296   3.703   3.660   3.165 -0.9282  0.4263 -1.0473
 6555SOL     OW31297   0.615   0.222   6.928  0.2093  0.4685  0.0827
 6555SOL    HW131298   0.526   0.228   6.963 -0.0095 -0.7195 -0.2559
 6555SOL    HW231299   0.621   0.303   6.879  1.0250 -0.1564 -0.8418
 6556SOL     OW31300   1.433   1.541   7.040  0.1246 -0.4466  0.1521
 6556SOL    HW131301   1.524   1.546   7.012  0.0480 -0.8853 -0.1745
 6556SOL    HW231302   1.404   1.450   7.050 -1.1819 -0.0144  0.3134
 6557SOL     OW31303   3.909   1.322   8.743  0.2773  0.3295 -0.4277
 6557SOL    HW131304   3.963   1.253   8.704  1.2209  0.7370  0.1688
 6557SOL    HW231305   3.956   1.401   8.719 -0.8212  0.1823 -3.1137
 6558SOL     OW31306   2.932   4.478   7.644  0.6190 -0.0889 -0.0093
 6558SOL    HW131307   3.015   4.454   7.602  1.1557 -0.5439  1.3059
 6558SOL    HW231308   2.921   4.563   7.603  0.6002 -0.5034 -0.8799
 6559SOL     OW31309   4.660   3.958  15.501  0.3365  0.3137  0.1170
 6559SOL    HW131310   4.639   3.888  15.439 -0.0880  0.6769 -0.1516
 6559SOL    HW231311   4.591   3.946  15.566 -0.6255  2.0069 -0.5864
 6560SOL     OW31312   3.777   3.546   3.495  0.0763  0.2859  0.2645
 6560SOL    HW131313   3.704   3.604   3.516 -1.0669 -0.2601 -2.0861
 6560SOL    HW231314   3.724   3.468   3.516  1.1816 -0.4396  0.3688
 6561SOL     OW31315   2.069   2.728   8.391  0.3783  0.1121  0.3148
 6561SOL    HW131316   2.017   2.801   8.357 -0.9685 -0.4511  1.1812
 6561SOL    HW231317   2.155   2.738   8.349  0.3432 -1.2334 -0.0656
 6562SOL     OW31318   1.958   2.856   6.961  0.1904  0.0179  0.3953
 6562SOL    HW131319   1.962   2.946   6.929 -1.2330 -1.0012 -2.7094
 6562SOL    HW231320   2.045   2.831   6.993  0.1544 -0.3860  0.1824
 6563SOL     OW31321   1.358   0.298   9.800 -0.1944  0.4809 -0.4837
 6563SOL    HW131322   1.434   0.331   9.847 -1.0553 -0.3662  1.4976
 6563SOL    HW231323   1.389   0.288   9.710  1.2543  0.1008  0.0664
 6564SOL     OW31324   0.016   3.588   4.186  0.3573 -0.4371  0.1650
 6564SOL    HW131325   4.696   3.664   4.189  1.7873  0.6350  0.8191
 6564SOL    HW231326   4.715   3.535   4.116  0.8999 -1.2139  0.4555
 6565SOL     OW31327   0.500   0.223   9.208  0.0559 -0.2445  0.7761
 6565SOL    HW131328   0.543   0.138   9.193  1.6058  0.4661  1.1953
 6565SOL    HW231329   0.405   0.207   9.205 -0.1289  1.2770 -0.9273
 6566SOL     OW31330   2.400   3.857   4.252  0.7192  0.1930  0.3524
 6566SOL    HW131331   2.437   3.940   4.220  0.1061  1.3430  2.6237
 6566SOL    HW231332   2.314   3.854   4.210  1.2770  0.8559 -0.8543
 6567SOL     OW31333   4.439   1.293  10.795  0.4015 -0.2721  0.1306
 6567SOL    HW131334   4.517   1.262  10.749  0.3496  2.0934 -1.5664
 6567SOL    HW231335   4.402   1.214  10.833  0.5905  0.4066  1.7345
 6568SOL     OW31336   1.014   2.205   4.961 -0.3600 -0.4825  0.6730
 6568SOL    HW131337   0.992   2.285   4.913  2.1980  1.5806  2.9759
 6568SOL    HW231338   0.972   2.143   4.900  1.7375 -1.0278 -0.2302
 6569SOL     OW31339   3.505   1.343   9.524 -0.9474 -0.0712  0.3108
 6569SOL    HW131340   3.533   1.416   9.470 -0.7146  0.8626  1.6864
 6569SOL    HW231341   3.441   1.296   9.470 -0.1556 -0.9136  0.1093
 6570SOL     OW31342   1.201   0.396  10.850  0.2286  0.3626 -0.0865
 6570SOL    HW131343   1.181   0.305  10.871 -0.0279  0.4495  0.0423
 6570SOL    HW231344   1.171   0.436  10.932 -0.9760 -0.9115  0.0849
 6571SOL     OW31345   2.402   3.282   7.987 -0.0029 -0.2929 -0.7498
 6571SOL    HW131346   2.477   3.341   7.984 -0.4294  0.2708 -0.3674
 6571SOL    HW231347   2.330   3.337   7.954  0.1369  0.1088 -0.3877
 6572SOL     OW31348   0.088   4.410   5.489  0.4764  0.1105 -0.0929
 6572SOL    HW131349   0.126   4.322   5.490 -0.4201 -0.2780 -0.2800
 6572SOL    HW231350   0.145   4.464   5.544  1.1823  1.2145 -1.9038
 6573SOL     OW31351   4.519   4.220   8.933 -0.6714 -0.1439 -1.0248
 6573SOL    HW131352   4.449   4.281   8.957  0.2715  0.3080  0.6220
 6573SOL    HW231353   4.560   4.271   8.864  0.4481  2.7017  1.7275
 6574SOL     OW31354   4.032   0.396   8.400 -0.1434  0.4325  0.1660
 6574SOL    HW131355   4.113   0.390   8.349  0.9500  3.3534  1.5686
 6574SOL    HW231356   4.052   0.357   8.485  2.1027 -1.3898 -1.1685
 6575SOL     OW31357   1.248   0.057   6.434  0.1693 -0.5377 -0.6129
 6575SOL    HW131358   1.293   0.138   6.458 -0.2120 -0.5351  0.0776
 6575SOL    HW231359   1.171   0.079   6.382  0.5785  0.7253 -0.6864
 6576SOL     OW31360   1.270   3.540   8.742  0.6956 -0.1331 -0.3507
 6576SOL    HW131361   1.283   3.556   8.835  2.2270  2.0467 -0.9330
 6576SOL    HW231362   1.312   3.623   8.719  0.9156 -0.4978 -1.2684
 6577SOL     OW31363   1.560   2.804  12.690 -0.4979 -0.0040 -0.5117
 6577SOL    HW131364   1.612   2.881  12.666 -0.4304  0.0136 -0.3142
 6577SOL    HW231365   1.514   2.780  12.610  0.0402 -0.6980 -0.6135
 6578SOL     OW31366   2.861   3.684  16.083  0.1936  0.1022 -0.4765
 6578SOL    HW131367   2.896   3.749  16.144 -0.5039 -0.7936  0.8668
 6578SOL    HW231368   2.796   3.739  16.040 -0.2861 -0.0029  0.1105
 6579SOL     OW31369   2.511   3.210   9.355 -0.1126  0.6138  0.0577
 6579SOL    HW131370   2.519   3.305   9.347  0.6365  0.5286 -0.1799
 6579SOL    HW231371   2.604   3.187   9.354  0.4063  2.6461  2.1040
 6580SOL     OW31372   0.841   0.296   4.463  0.4189  0.2613  0.0242
 6580SOL    HW131373   0.797   0.368   4.417 -2.7742 -2.4097 -1.0977
 6580SOL    HW231374   0.856   0.232   4.393  0.5024  1.7814 -1.3529
 6581SOL     OW31375   3.904   2.023   8.574 -0.3030 -0.3266 -0.6800
 6581SOL    HW131376   3.843   2.062   8.637 -0.2695  1.3875 -1.7082
 6581SOL    HW231377   3.955   2.093   8.533  0.3160  0.2172  1.0162
 6582SOL     OW31378   1.494   4.320   6.257  0.7719  0.0385 -0.1998
 6582SOL    HW131379   1.486   4.321   6.353 -0.9358  0.0472 -0.3428
 6582SOL    HW231380   1.418   4.374   6.237 -1.5412 -2.9302  0.5631
 6583SOL     OW31381   1.066   0.626   2.902 -0.0544  0.0055  0.2678
 6583SOL    HW131382   0.980   0.605   2.936 -0.2498  2.1824  1.1072
 6583SOL    HW231383   1.039   0.631   2.810 -1.5133  0.7701  0.7318
 6584SOL     OW31384   2.155   1.118   4.289  0.4123  0.9344 -0.6060
 6584SOL    HW131385   2.092   1.082   4.226  1.5180  0.9044 -1.6904
 6584SOL    HW231386   2.098   1.114   4.366  1.3260  2.2399  0.1265
 6585SOL     OW31387   3.343   3.378   3.726  0.0956  0.4324  0.5094
 6585SOL    HW131388   3.346   3.408   3.635  0.5167 -0.9177  0.0777
 6585SOL    HW231389   3.334   3.465   3.765 -0.3480  1.2469 -1.4308
 6586SOL     OW31390   3.512   4.304   4.163  0.0046 -0.7481  0.6384
 6586SOL    HW131391   3.583   4.254   4.202  0.7982 -1.2835 -1.4766
 6586SOL    HW231392   3.548   4.390   4.142 -0.4935 -0.3982  1.2327
 6587SOL     OW31393   2.358   4.144   4.495  0.1820  0.6420  0.3749
 6587SOL    HW131394   2.286   4.126   4.434 -1.8750  3.1699  2.0597
 6587SOL    HW231395   2.421   4.189   4.438 -3.1587  2.5159 -1.8725
 6588SOL     OW31396   2.426   0.986  16.020 -0.2466  0.1095  0.0966
 6588SOL    HW131397   2.453   0.896  16.005 -0.4919  0.0484  0.0279
 6588SOL    HW231398   2.429   0.990  16.115 -1.1891  1.3438  0.0821
 6589SOL     OW31399   4.179   4.061  14.105 -0.1759  0.3486  0.1499
 6589SOL    HW131400   4.186   3.994  14.038  0.8114  0.7630 -0.1529
 6589SOL    HW231401   4.090   4.096  14.098  0.2881  1.5258  0.1529
 6590SOL     OW31402   3.390   4.140   3.061  1.2131  0.7228 -0.4723
 6590SOL    HW131403   3.366   4.063   3.113 -1.2139  0.4095 -2.0859
 6590SOL    HW231404   3.419   4.087   2.987  1.3446 -1.2422  1.0040
 6591SOL     OW31405   1.090   0.730   6.292 -0.0362  0.3590  0.0740
 6591SOL    HW131406   1.044   0.812   6.279 -0.7255  0.2051  1.5019
 6591SOL    HW231407   1.164   0.728   6.231 -0.2774 -2.6610 -0.1123
 6592SOL     OW31408   3.066   0.187   7.315 -0.6261  0.9329  0.0359
 6592SOL    HW131409   2.977   0.154   7.299  0.6490 -2.8600  0.8128
 6592SOL    HW231410   3.103   0.165   7.229  0.0656  1.3681  0.2245
 6593SOL     OW31411   4.541   1.385   4.511 -0.4115  0.2135  0.2587
 6593SOL    HW131412   4.599   1.460   4.522  0.9364 -0.7181 -0.5309
 6593SOL    HW231413   4.454   1.423   4.525 -0.1980  0.9397 -0.3839
 6594SOL     OW31414   2.330   0.543   8.898  0.1368  0.5646  0.2393
 6594SOL    HW131415   2.365   0.569   8.983 -0.3510  1.0114  0.3072
 6594SOL    HW231416   2.399   0.581   8.843  0.9495  1.0432  1.6001
 6595SOL     OW31417   3.210   1.236   9.698 -0.0898  0.3465  0.4571
 6595SOL    HW131418   3.304   1.241   9.713 -0.1438  0.0679  0.8933
 6595SOL    HW231419   3.197   1.316   9.649 -2.4155 -0.6979 -0.6275
 6596SOL     OW31420   2.121   4.009   0.877  0.9105 -0.1971 -0.0916
 6596SOL    HW131421   2.065   4.003   0.954 -0.6490 -0.7446 -1.2654
 6596SOL    HW231422   2.058   3.994   0.807 -1.1281  1.2316  1.4224
 6597SOL     OW31423   4.173   4.615   8.767  0.2549  0.0536  0.4631
 6597SOL    HW131424   4.203   4.666   8.842 -2.3880 -1.0586  2.2603
 6597SOL    HW231425   4.080   4.637   8.765  0.9981  3.0720 -2.0024
 6598SOL     OW31426   0.641   0.009   5.394 -0.0706 -0.2819  0.7834
 6598SOL    HW131427   0.683   0.075   5.450  1.1966  0.7513 -1.3839
 6598SOL    HW231428   0.721   4.702   5.369  0.2914 -0.5324  2.4071
 6599SOL     OW31429   3.340   3.708   4.241 -0.5874 -0.1589 -0.1256
 6599SOL    HW131430   3.398   3.782   4.262 -1.2129  1.3491 -3.6592
 6599SOL    HW231431   3.385   3.642   4.293 -0.2207  0.0322 -0.1990
 6600SOL     OW31432   1.548   0.637   3.067  0.0699  0.2969  0.1072
 6600SOL    HW131433   1.546   0.650   3.162 -1.9481 -2.1413  0.3908
 6600SOL    HW231434   1.462   0.596   3.064  0.3067  0.0867 -2.8649
 6601SOL     OW31435   3.646   2.011   4.410 -0.0354  0.1635  0.2426
 6601SOL    HW131436   3.606   2.040   4.492  1.1328  2.4798 -0.0143
 6601SOL    HW231437   3.616   1.921   4.398  0.7039 -0.3169  1.9720
 6602SOL     OW31438   3.108   3.208   3.832 -0.3835 -0.7031  0.0420
 6602SOL    HW131439   3.191   3.182   3.791  0.0244  0.2014  0.2767
 6602SOL    HW231440   3.129   3.293   3.870 -0.3276 -1.4824  1.7625
 6603SOL     OW31441   0.893   0.289   9.429 -0.0642 -0.0566  0.0995
 6603SOL    HW131442   0.898   0.261   9.520 -1.0073  2.2977  0.8856
 6603SOL    HW231443   0.978   0.330   9.412  0.4032 -0.8600  0.4994
 6604SOL     OW31444   0.129   3.112   3.818 -0.1625  0.1798 -0.6218
 6604SOL    HW131445   0.204   3.121   3.877  0.9160 -0.8710 -1.8526
 6604SOL    HW231446   0.154   3.111   3.726  0.0167  1.1717 -0.5898
 6605SOL     OW31447   3.563   3.592   1.432 -0.0512 -0.0159 -0.5630
 6605SOL    HW131448   3.637   3.593   1.493  0.2727 -0.2775 -0.9508
 6605SOL    HW231449   3.500   3.544   1.486 -0.5880  1.3529  0.0051
 6606SOL     OW31450   4.464   1.529   7.110  0.1808 -0.4220  0.5005
 6606SOL    HW131451   4.525   1.577   7.166  2.0983 -1.5703 -0.5865
 6606SOL    HW231452   4.518   1.528   7.031 -1.9642  1.3201 -0.9884
 6607SOL     OW31453   3.667   3.870   0.205 -0.2418  0.7757 -0.2299
 6607SOL    HW131454   3.718   3.823   0.272 -2.0776 -1.4989 -0.3942
 6607SOL    HW231455   3.725   3.852   0.132  0.6671 -1.8836  1.1096
 6608SOL     OW31456   3.989   4.676   3.819 -0.0872  0.5887 -0.4147
 6608SOL    HW131457   4.031   4.643   3.740  1.5442  1.2136  0.1706
 6608SOL    HW231458   4.042   0.017   3.833 -1.0467  0.8824  1.5322
 6609SOL     OW31459   0.249   3.807  14.425 -0.0044  0.4791 -0.0357
 6609SOL    HW131460   0.287   3.725  14.457 -0.3935 -0.1715 -1.2474
 6609SOL    HW231461   0.335   3.848  14.414 -0.3392  0.7482 -1.7079
 6610SOL     OW31462   2.345   2.594   8.096  0.2921 -0.2647 -0.6837
 6610SOL    HW131463   2.341   2.596   8.001  0.8204 -1.5335 -0.7341
 6610SOL    HW231464   2.375   2.508   8.126 -1.2793 -0.6361 -0.1894
 6611SOL     OW31465   3.269   3.886   8.770 -0.0828  0.6495  0.3675
 6611SOL    HW131466   3.248   3.915   8.859 -0.6118  0.5827  0.2662
 6611SOL    HW231467   3.262   3.792   8.783  0.7719  0.3076 -1.6275
 6612SOL     OW31468   3.701   4.113   2.567  0.2936  0.2011  0.5094
 6612SOL    HW131469   3.784   4.098   2.612  0.0681  1.1364  1.2137
 6612SOL    HW231470   3.656   4.044   2.616  0.6908 -0.6472 -0.3073
 6613SOL     OW31471   0.942   1.911  10.519 -0.0205 -0.4169  0.1526
 6613SOL    HW131472   0.985   1.848  10.462  1.5142 -0.7491  1.6778
 6613SOL    HW231473   0.854   1.874  10.530 -0.9751  1.2524 -1.7806
 6614SOL     OW31474   1.970   0.996   7.081  0.0881  0.4131 -0.2893
 6614SOL    HW131475   2.029   0.975   7.008 -0.3199 -0.1420 -0.4605
 6614SOL    HW231476   1.966   1.091   7.070 -0.5301  0.4470  0.2372
 6615SOL     OW31477   1.956   2.123   3.422  0.4509 -0.0838 -0.4925
 6615SOL    HW131478   1.932   2.107   3.331  0.0963 -1.0565 -0.2335
 6615SOL    HW231479   1.914   2.203   3.454 -1.8824 -1.1187 -0.9748
 6616SOL     OW31480   2.432   4.587   5.882  0.5558 -0.2149 -0.3571
 6616SOL    HW131481   2.365   4.519   5.882 -1.1196  1.4497  1.9501
 6616SOL    HW231482   2.401   4.637   5.806  2.6726  1.6690  0.0042
 6617SOL     OW31483   1.538   2.641  11.374 -0.3474 -0.2543  0.1274
 6617SOL    HW131484   1.489   2.578  11.428 -0.2100 -2.7019 -2.5885
 6617SOL    HW231485   1.477   2.715  11.375 -0.3951 -0.3062  1.0945
 6618SOL     OW31486   2.009   3.156  10.177  0.0887  0.0588 -0.1652
 6618SOL    HW131487   2.076   3.088  10.182  0.4981  0.7054  3.2129
 6618SOL    HW231488   1.936   3.103  10.209  0.0518 -1.0030 -2.0273
 6619SOL     OW31489   2.275   1.399   2.729  0.2134  0.0065 -0.2019
 6619SOL    HW131490   2.280   1.317   2.680  2.2824  0.5822 -0.9615
 6619SOL    HW231491   2.219   1.359   2.795  0.3897 -0.0096 -0.0619
 6620SOL     OW31492   3.649   2.199   4.735  0.2655  0.3777  0.2061
 6620SOL    HW131493   3.574   2.190   4.794  0.7000 -0.0791  0.6863
 6620SOL    HW231494   3.636   2.286   4.696  0.2801 -0.5316 -1.8671
 6621SOL     OW31495   2.628   1.126   4.469 -0.0466  0.0200 -0.1025
 6621SOL    HW131496   2.598   1.071   4.397  1.7525  1.0476 -1.6234
 6621SOL    HW231497   2.572   1.203   4.458  1.7114  1.2201 -0.5935
 6622SOL     OW31498   2.857   1.242   7.788 -0.0731 -0.0707  0.2460
 6622SOL    HW131499   2.850   1.149   7.808 -1.3922 -0.0642 -0.2613
 6622SOL    HW231500   2.811   1.244   7.705  1.3225 -0.6087 -0.5482
 6623SOL     OW31501   3.769   2.163   8.790  0.2171 -0.1618 -0.3464
 6623SOL    HW131502   3.801   2.253   8.777 -1.6834  0.4644 -0.6479
 6623SOL    HW231503   3.768   2.164   8.886 -1.9777  1.4611 -0.4031
 6624SOL     OW31504   0.795   0.923  14.680 -0.0803  0.1034  0.3230
 6624SOL    HW131505   0.853   0.887  14.612 -1.6242 -0.5514 -0.6382
 6624SOL    HW231506   0.844   0.999  14.713 -1.0402 -0.8632  3.9277
 6625SOL     OW31507   4.236   3.817   2.558  0.3301 -0.1413  0.6894
 6625SOL    HW131508   4.224   3.911   2.546 -0.6765 -0.5041 -1.2564
 6625SOL    HW231509   4.315   3.797   2.506  0.0832  1.4692 -0.2948
 6626SOL     OW31510   3.337   1.622   1.657  0.0883 -0.2531 -0.1802
 6626SOL    HW131511   3.322   1.554   1.723  0.6827  1.4619  1.7314
 6626SOL    HW231512   3.304   1.590   1.573 -1.1559 -0.5576  0.4145
 6627SOL     OW31513   3.448   2.237   6.586 -0.3037  0.3186 -0.0027
 6627SOL    HW131514   3.410   2.230   6.674  0.7602 -0.4351  0.3969
 6627SOL    HW231515   3.381   2.294   6.549 -0.6232 -0.3861 -0.4916
 6628SOL     OW31516   0.982   3.130   2.049 -0.4057  0.3152  0.0759
 6628SOL    HW131517   0.906   3.187   2.062 -0.4151  0.2497  0.3169
 6628SOL    HW231518   0.975   3.064   2.118 -0.7898 -0.7080 -0.9389
 6629SOL     OW31519   1.025   3.081   4.440 -0.4158  0.0502  0.3732
 6629SOL    HW131520   1.033   3.173   4.466 -1.1533 -0.6895  3.2454
 6629SOL    HW231521   1.032   3.085   4.345  3.1277  1.3352  0.6984
 6630SOL     OW31522   1.234   4.384   2.365 -0.0804  0.1410 -0.3768
 6630SOL    HW131523   1.210   4.476   2.354  1.9742  0.6519 -0.4700
 6630SOL    HW231524   1.161   4.357   2.309  0.3404 -0.9368 -0.4085
 6631SOL     OW31525   3.750   4.617   2.006  0.2293  0.5151 -0.6384
 6631SOL    HW131526   3.708   4.597   2.090  0.6547  0.4848 -0.4303
 6631SOL    HW231527   3.796   4.700   2.018  0.7355  0.3290 -1.3364
 6632SOL     OW31528   1.478   3.723   6.470 -0.3006  0.2328  0.5569
 6632SOL    HW131529   1.411   3.655   6.475 -0.1704  0.0407 -0.2247
 6632SOL    HW231530   1.478   3.767   6.554  1.2916  0.0992  0.6261
 6633SOL     OW31531   3.499   3.110   1.621 -0.6820  0.5173  0.3876
 6633SOL    HW131532   3.461   3.157   1.696  0.2978 -0.1313  1.2794
 6633SOL    HW231533   3.459   3.025   1.607  0.7205  0.0247 -0.5853
 6634SOL     OW31534   2.460   1.675   5.790  0.6754 -0.3087 -0.0001
 6634SOL    HW131535   2.505   1.698   5.709 -1.0578 -1.2143 -1.2352
 6634SOL    HW231536   2.501   1.741   5.846 -3.2075 -0.1865  2.6730
 6635SOL     OW31537   0.242   4.323   3.594 -0.3560  0.0645  0.4561
 6635SOL    HW131538   0.312   4.261   3.614 -0.4124  0.3464  1.4923
 6635SOL    HW231539   0.294   4.391   3.551  0.6063 -0.4332  0.8203
 6636SOL     OW31540   0.114   3.981   3.038  0.4607 -0.2165  0.4083
 6636SOL    HW131541   0.072   3.905   2.997  0.4957  0.2190 -0.4353
 6636SOL    HW231542   0.041   4.021   3.086 -0.1215 -0.0418 -0.6260
 6637SOL     OW31543   3.739   2.026   3.200  0.4781 -0.1966  0.4739
 6637SOL    HW131544   3.736   1.972   3.121 -0.5529  1.0953 -0.3567
 6637SOL    HW231545   3.647   2.028   3.225 -0.4270 -1.5906 -2.7156
 6638SOL     OW31546   3.567   3.221   5.836 -0.0348  0.3896  0.1313
 6638SOL    HW131547   3.627   3.229   5.910  0.0379 -2.3629  0.3715
 6638SOL    HW231548   3.481   3.188   5.860  0.2080 -1.1481 -1.1285
 6639SOL     OW31549   0.708   1.778  15.568  0.2650 -0.0127  0.4201
 6639SOL    HW131550   0.614   1.787  15.554 -0.0646  0.2960  2.8494
 6639SOL    HW231551   0.748   1.813  15.489 -0.4264 -1.4637 -0.5724
 6640SOL     OW31552   3.656   1.411   5.688 -0.0494  0.1924 -0.4434
 6640SOL    HW131553   3.565   1.427   5.667 -0.2268  0.0473  0.1963
 6640SOL    HW231554   3.684   1.500   5.710  0.0828 -0.2781  1.3579
 6641SOL     OW31555   4.294   0.772   5.114  0.1804 -0.1403  0.2235
 6641SOL    HW131556   4.289   0.693   5.168 -0.4229 -1.7013 -2.1152
 6641SOL    HW231557   4.205   0.770   5.078  0.1357  1.8133  0.2231
 6642SOL     OW31558   4.043   4.340   6.922 -0.3356  0.0506 -0.1437
 6642SOL    HW131559   3.964   4.373   6.879  1.6152  1.6451 -2.4538
 6642SOL    HW231560   4.105   4.329   6.850 -0.7628  1.0045 -0.6530
 6643SOL     OW31561   1.715   1.560  16.150 -0.0350  0.1761  0.1166
 6643SOL    HW131562   1.656   1.579  16.078  1.8568  0.8211 -1.2617
 6643SOL    HW231563   1.697   1.634  16.208  0.2276  1.7294 -1.7808
 6644SOL     OW31564   1.967   4.263  13.289  0.1416  0.5622 -0.8704
 6644SOL    HW131565   1.879   4.232  13.270 -0.1605  0.0600  1.2534
 6644SOL    HW231566   1.951   4.316  13.367 -0.2643  0.7617 -1.0919
 6645SOL     OW31567   0.024   3.648   2.198 -0.1561 -0.6386 -0.1646
 6645SOL    HW131568   4.722   3.564   2.220 -0.0434  0.0158  2.5154
 6645SOL    HW231569   4.708   3.712   2.244 -0.3086 -0.8751 -0.0120
 6646SOL     OW31570   0.193   0.850  12.900  0.4982 -0.0241  0.6303
 6646SOL    HW131571   0.193   0.796  12.821  0.5988  0.3930  0.3439
 6646SOL    HW231572   0.109   0.893  12.884  0.8110  0.0058 -0.9250
 6647SOL     OW31573   2.360   4.435   1.554 -0.0071 -0.1813 -0.3010
 6647SOL    HW131574   2.380   4.522   1.518  0.2940 -0.9852 -2.1004
 6647SOL    HW231575   2.425   4.428   1.623  0.9211  1.4203 -1.0109
 6648SOL     OW31576   3.948   3.217  13.092 -0.3629 -0.1114  0.1729
 6648SOL    HW131577   4.014   3.274  13.053  0.5010 -0.2625  1.4245
 6648SOL    HW231578   3.925   3.162  13.017  0.3710  1.7319 -1.3880
 6649SOL     OW31579   2.754   2.221   2.363  0.3974 -0.8001  0.4532
 6649SOL    HW131580   2.845   2.215   2.333  0.5931 -0.0922  0.8951
 6649SOL    HW231581   2.707   2.219   2.280  2.6120 -2.7255 -0.7647
 6650SOL     OW31582   1.933   0.325   7.676  0.0137 -0.8423  0.3407
 6650SOL    HW131583   1.856   0.372   7.645 -0.9122 -1.4720  1.6720
 6650SOL    HW231584   1.938   0.255   7.610 -0.3102 -0.9510  0.4272
 6651SOL     OW31585   1.324   2.098  16.359 -0.3265  0.2910 -0.7451
 6651SOL    HW131586   1.327   2.075  16.452  1.5516  1.2014 -0.5897
 6651SOL    HW231587   1.414   2.123  16.340 -0.5458  0.9863 -0.8705
 6652SOL     OW31588   3.202   2.370  14.255 -0.8927  0.1323  0.3214
 6652SOL    HW131589   3.141   2.430  14.210 -0.3767  1.0816  0.8853
 6652SOL    HW231590   3.157   2.364  14.339 -1.6294 -1.3379 -0.1795
 6653SOL     OW31591   4.040   3.007   9.281  0.0192  0.1452  0.2972
 6653SOL    HW131592   4.093   2.945   9.232 -0.3104  0.8706 -0.9849
 6653SOL    HW231593   4.001   2.949   9.347  1.2532  0.5690  1.4033
 6654SOL     OW31594   3.030   2.841   1.973 -0.3705 -1.1088 -0.2873
 6654SOL    HW131595   3.027   2.757   1.927  1.4670 -0.4698 -1.5794
 6654SOL    HW231596   3.117   2.874   1.952 -1.7868  2.0166 -1.3429
 6655SOL     OW31597   3.503   3.987   1.095 -0.0403  0.6967 -0.2616
 6655SOL    HW131598   3.557   3.993   1.174  0.5532  1.1359 -0.7036
 6655SOL    HW231599   3.529   4.072   1.061 -1.5737 -0.2606 -3.7858
 6656SOL     OW31600   2.998   2.676   8.919  0.1943  0.5355 -0.0045
 6656SOL    HW131601   2.903   2.672   8.926  0.1347  0.1505 -0.9716
 6656SOL    HW231602   3.021   2.711   9.005 -0.7351 -0.2857  0.5798
 6657SOL     OW31603   2.326   4.031   7.588 -0.7186 -0.0542  0.2630
 6657SOL    HW131604   2.315   4.079   7.670  1.3749  0.1199  0.4320
 6657SOL    HW231605   2.357   4.102   7.531 -0.0412 -0.4404  0.1570
 6658SOL     OW31606   1.366   2.970   3.418  0.1329  0.0205  0.4309
 6658SOL    HW131607   1.300   2.992   3.352 -0.4551 -0.7280  0.7797
 6658SOL    HW231608   1.375   3.058   3.455  0.3430 -0.0492  0.5458
 6659SOL     OW31609   3.819   0.027   7.614 -0.3833  0.4068  0.2057
 6659SOL    HW131610   3.803   0.081   7.692  1.9971 -1.4529  1.9976
 6659SOL    HW231611   3.771   4.684   7.634 -0.5716  0.8125  1.4152
 6660SOL     OW31612   3.528   3.028   2.802 -1.1271 -0.6480 -0.4914
 6660SOL    HW131613   3.546   3.045   2.709 -0.4936  1.5800  0.0525
 6660SOL    HW231614   3.485   3.110   2.825 -0.6089 -0.1426 -1.2947
 6661SOL     OW31615   2.316   4.726   8.481 -0.6532  0.5596  0.4959
 6661SOL    HW131616   2.305   4.654   8.543 -1.1796  1.7655  1.8047
 6661SOL    HW231617   2.402   0.017   8.511 -0.3921  1.2850 -0.9799
 6662SOL     OW31618   1.826   0.947   3.894 -0.2842  0.1329  0.7626
 6662SOL    HW131619   1.777   0.910   3.820  2.0739 -0.3948 -0.5179
 6662SOL    HW231620   1.833   0.870   3.950 -0.1956 -0.5794 -0.2272
 6663SOL     OW31621   3.070   3.835  11.507  0.5641 -0.2247 -0.1585
 6663SOL    HW131622   3.089   3.907  11.568 -0.9024 -0.0751  0.1234
 6663SOL    HW231623   3.023   3.780  11.570  1.4629  0.4969  1.1409
 6664SOL     OW31624   4.090   0.900   7.474  0.1257 -0.2786  0.4697
 6664SOL    HW131625   4.180   0.877   7.450 -0.5725 -2.9003  0.2890
 6664SOL    HW231626   4.050   0.813   7.478 -1.8303  0.6740  1.5630
 6665SOL     OW31627   4.356   4.727   2.928  0.0753 -0.0069  0.3918
 6665SOL    HW131628   4.264   4.733   2.954 -0.4409  1.5304 -1.7994
 6665SOL    HW231629   4.371   0.073   2.885 -2.1079 -0.3816 -1.0930
 6666SOL     OW31630   1.166   2.011   0.382 -0.1967  0.3162  0.5296
 6666SOL    HW131631   1.079   1.989   0.348  0.5801  0.1574 -1.3545
 6666SOL    HW231632   1.190   1.929   0.424  1.3189  0.8661  0.7409
 6667SOL     OW31633   1.558   2.920   3.099 -0.2379  0.5900 -0.3826
 6667SOL    HW131634   1.471   2.962   3.099 -1.4308 -1.9198 -1.6405
 6667SOL    HW231635   1.593   2.989   3.156 -3.7562  1.8677  0.2637
 6668SOL     OW31636   4.000   2.890  14.363  0.0790  0.6481  0.1397
 6668SOL    HW131637   4.074   2.829  14.368 -0.4751  0.0088  0.6714
 6668SOL    HW231638   3.929   2.833  14.332 -0.4774  0.7958  1.1303
 6669SOL     OW31639   1.749   3.238   4.418  0.3166 -0.1018 -0.1870
 6669SOL    HW131640   1.714   3.224   4.330 -0.3155  2.5333 -0.3494
 6669SOL    HW231641   1.664   3.239   4.462  1.2079  0.1135  1.5293
 6670SOL     OW31642   4.378   4.090   2.782  0.0477  0.0283 -0.3898
 6670SOL    HW131643   4.291   4.071   2.817 -0.0749  2.3897  0.6013
 6670SOL    HW231644   4.431   4.074   2.860 -1.5580  2.6749  1.2413
 6671SOL     OW31645   1.746   2.645   7.027  0.3454  0.3858 -0.1187
 6671SOL    HW131646   1.817   2.703   6.997  0.4460  0.4335  0.2123
 6671SOL    HW231647   1.793   2.562   7.036 -0.3370 -0.0464 -0.5883
 6672SOL     OW31648   0.453   4.714  11.490 -0.1581  0.8242 -0.0351
 6672SOL    HW131649   0.397   0.045  11.454 -0.3100  1.1498  0.8286
 6672SOL    HW231650   0.410   4.645  11.441 -0.1285 -0.2075  1.3833
 6673SOL     OW31651   2.736   3.442   2.439 -0.1077 -0.4696  0.9382
 6673SOL    HW131652   2.794   3.513   2.464 -0.6072  0.6237 -1.0051
 6673SOL    HW231653   2.671   3.497   2.396  0.3133  1.8756  3.3138
 6674SOL     OW31654   3.240   3.230  10.316  0.5259  0.1638  0.3835
 6674SOL    HW131655   3.308   3.164  10.312 -0.1824 -0.5275 -0.1673
 6674SOL    HW231656   3.257   3.284  10.239 -2.0122 -0.0367 -0.3194
 6675SOL     OW31657   1.871   1.135   8.062 -0.1468 -0.2741 -0.3004
 6675SOL    HW131658   1.820   1.163   8.139  1.7190  1.5018  0.2772
 6675SOL    HW231659   1.926   1.213   8.052  0.4939 -0.5696  0.9286
 6676SOL     OW31660   0.901   4.645   1.390 -0.7282 -0.5349  0.1178
 6676SOL    HW131661   0.834   4.642   1.458 -0.3864  2.2686  0.5463
 6676SOL    HW231662   0.868   4.573   1.336 -2.8510  0.5378 -0.0458
 6677SOL     OW31663   4.422   1.061   3.625 -0.7295  0.0489  0.1688
 6677SOL    HW131664   4.377   0.977   3.615 -1.3573  0.7211 -2.6956
 6677SOL    HW231665   4.440   1.063   3.719 -2.4287 -0.2127  0.4983
 6678SOL     OW31666   0.361   4.050   2.972 -0.9873 -0.2578 -0.1316
 6678SOL    HW131667   0.277   4.037   3.014 -1.4842  1.1763 -0.7012
 6678SOL    HW231668   0.411   4.071   3.051 -2.6441 -0.5301  0.9761
 6679SOL     OW31669   2.425   0.581   4.069 -0.1485 -0.2990 -0.2963
 6679SOL    HW131670   2.446   0.518   4.137 -1.8653  0.9068  1.3679
 6679SOL    HW231671   2.477   0.547   3.996 -1.8471 -1.0436 -1.1490
 6680SOL     OW31672   0.585   3.472   6.079 -0.3007 -0.5815 -0.8312
 6680SOL    HW131673   0.583   3.530   6.156 -0.3479 -0.4205 -0.9529
 6680SOL    HW231674   0.565   3.382   6.104 -1.3843 -0.0417  0.2327
 6681SOL     OW31675   2.431   2.108   8.488  0.1414 -0.3613 -0.1260
 6681SOL    HW131676   2.455   2.119   8.580  0.1079  0.8485 -0.2531
 6681SOL    HW231677   2.473   2.186   8.450 -0.9028 -0.0071 -0.5774
 6682SOL     OW31678   4.463   3.916   6.873 -0.0916  0.2767 -0.2673
 6682SOL    HW131679   4.389   3.858   6.888 -1.5243  2.4924  1.2595
 6682SOL    HW231680   4.531   3.872   6.925  0.4630  1.1191 -0.2748
 6683SOL     OW31681   0.733   2.971   7.878 -0.3433  0.7690 -0.5234
 6683SOL    HW131682   0.703   2.928   7.798  1.9275 -0.9878 -0.4406
 6683SOL    HW231683   0.828   2.981   7.873 -0.4048  1.4187 -0.4265
 6684SOL     OW31684   1.102   0.689  10.225  0.3209 -0.0872 -0.7431
 6684SOL    HW131685   1.177   0.728  10.181  0.8416 -1.5252 -1.1193
 6684SOL    HW231686   1.140   0.611  10.266 -0.4302  0.9359  1.9368
 6685SOL     OW31687   4.033   0.565   1.986  0.0138 -0.1876 -0.4629
 6685SOL    HW131688   4.103   0.622   2.018  0.5135 -0.3853 -1.2058
 6685SOL    HW231689   4.001   0.623   1.918  0.8058  0.4716 -0.2639
 6686SOL     OW31690   0.633   3.605   7.927  0.3715  0.5086  0.3000
 6686SOL    HW131691   0.568   3.665   7.890 -1.2773 -0.0976  2.2281
 6686SOL    HW231692   0.611   3.609   8.020 -1.6590 -0.2875 -0.1465
 6687SOL     OW31693   0.782   2.384  15.260 -0.1120  0.0831  0.1092
 6687SOL    HW131694   0.750   2.305  15.304  1.4239 -0.1323  0.8399
 6687SOL    HW231695   0.870   2.346  15.270  0.2353  0.4748 -1.4467
 6688SOL     OW31696   4.415   2.325   6.031  0.7193  0.2489  0.6628
 6688SOL    HW131697   4.399   2.331   5.937  0.2564  2.1215  0.8727
 6688SOL    HW231698   4.473   2.248   6.026 -0.4860 -0.7054  1.3270
 6689SOL     OW31699   0.087   1.572   7.740 -0.1796 -0.5399 -0.2425
 6689SOL    HW131700   0.084   1.477   7.751  0.7505 -0.3687  1.5240
 6689SOL    HW231701   0.100   1.572   7.645 -0.0876  2.0432 -0.2474
 6690SOL     OW31702   2.354   4.588   3.076 -0.0671 -0.2859  0.0099
 6690SOL    HW131703   2.440   4.576   3.116 -0.0817  0.8977  0.3941
 6690SOL    HW231704   2.315   4.504   3.102  0.8518 -0.4822  0.7913
 6691SOL     OW31705   0.385   1.032   4.572 -0.5929 -0.0863 -0.2470
 6691SOL    HW131706   0.350   0.999   4.489 -3.1077  0.1351  0.7370
 6691SOL    HW231707   0.332   1.111   4.580  0.7452  0.9284 -1.4700
 6692SOL     OW31708   3.856   0.331   8.861  0.2589  0.0131  0.4632
 6692SOL    HW131709   3.844   0.426   8.869 -0.8423 -0.2373  1.8270
 6692SOL    HW231710   3.802   0.305   8.935 -0.3594 -1.4467 -0.5183
 6693SOL     OW31711   4.100   3.987   9.193 -0.4539  0.3154  0.2508
 6693SOL    HW131712   4.167   3.975   9.126 -0.5240 -0.8734  0.3949
 6693SOL    HW231713   4.120   3.911   9.249 -1.4795 -0.0726  0.0933
 6694SOL     OW31714   3.927   1.751   8.905 -0.3236 -0.1623 -0.4989
 6694SOL    HW131715   4.013   1.710   8.917 -0.8184 -1.5052 -1.4881
 6694SOL    HW231716   3.934   1.774   8.813 -2.6365 -1.3398 -0.9740
 6695SOL     OW31717   1.297   4.115  14.583  0.0311  0.0146 -0.4113
 6695SOL    HW131718   1.391   4.098  14.593 -0.6165 -2.4221  1.4659
 6695SOL    HW231719   1.305   4.210  14.570  1.9212 -0.1564 -0.5772
 6696SOL     OW31720   2.709   4.200   8.731 -0.6273 -0.0144 -0.6315
 6696SOL    HW131721   2.633   4.143   8.720 -1.1428  0.6918 -0.6606
 6696SOL    HW231722   2.734   4.207   8.639 -3.0733 -3.1672 -1.5275
 6697SOL     OW31723   4.078   3.787   8.583  0.1186  0.0684 -0.6628
 6697SOL    HW131724   4.082   3.702   8.625 -0.0755  1.3414  1.9318
 6697SOL    HW231725   3.985   3.793   8.558  0.5831  2.1589 -1.9256
 6698SOL     OW31726   0.630   4.154  13.990 -0.2300 -0.0878  0.1175
 6698SOL    HW131727   0.537   4.176  13.985 -0.0581  0.9476  1.4256
 6698SOL    HW231728   0.672   4.189  13.911  0.5806 -0.1071  0.5304
 6699SOL     OW31729   1.651   2.457  10.150 -0.0873 -0.5836 -0.6051
 6699SOL    HW131730   1.695   2.388  10.199  1.0835  0.4078 -0.2648
 6699SOL    HW231731   1.722   2.510  10.115  0.0892 -1.3795 -1.4571
 6700SOL     OW31732   3.257   0.087   4.608  0.0394 -0.1585 -0.5560
 6700SOL    HW131733   3.339   0.097   4.656  0.5005  0.9735 -1.6051
 6700SOL    HW231734   3.206   0.041   4.675  2.6867 -2.0673  0.1575
 6701SOL     OW31735   1.650   3.784   7.814  0.0832 -0.1778  0.0350
 6701SOL    HW131736   1.598   3.840   7.872  0.8813 -0.4488  1.0235
 6701SOL    HW231737   1.727   3.788   7.872  1.4786 -4.6224 -1.5390
 6702SOL     OW31738   4.460   4.675  12.419  0.3678 -0.1504 -0.4430
 6702SOL    HW131739   4.421   4.623  12.489  0.2819  0.6851  0.1215
 6702SOL    HW231740   4.398   0.010  12.419 -0.0828 -0.5362  0.7595
 6703SOL     OW31741   2.899   0.389  10.834  0.3014  0.2392  0.1382
 6703SOL    HW131742   2.895   0.481  10.810  0.4743  0.0243 -0.7246
 6703SOL    HW231743   2.984   0.380  10.877  0.0873  0.0571  0.5171
 6704SOL     OW31744   1.278   4.355   4.506  0.1817 -0.0378  0.3067
 6704SOL    HW131745   1.342   4.300   4.550 -2.5563 -1.3368  2.6691
 6704SOL    HW231746   1.222   4.293   4.459 -2.6748  1.6978  1.4160
 6705SOL     OW31747   3.440   3.911   7.883  0.4048 -0.2106  0.4751
 6705SOL    HW131748   3.386   3.839   7.914  0.5699 -2.0214 -3.4759
 6705SOL    HW231749   3.528   3.875   7.895  1.0546  1.8995  1.9851
 6706SOL     OW31750   0.742   4.275   6.534 -0.0218 -0.3170  0.3982
 6706SOL    HW131751   0.822   4.248   6.489 -0.1708 -0.1989  0.0600
 6706SOL    HW231752   0.695   4.307   6.457  0.0434 -1.1550  0.0104
 6707SOL     OW31753   3.718   4.153   8.051 -0.0816 -0.1500  0.1210
 6707SOL    HW131754   3.772   4.207   8.109 -0.0353 -0.6148  0.5129
 6707SOL    HW231755   3.772   4.097   7.995 -0.0675  1.5962 -1.6082
 6708SOL     OW31756   0.727   2.436   7.385 -0.5377  0.0578 -0.6292
 6708SOL    HW131757   0.691   2.524   7.392 -0.3929  0.1730 -1.3449
 6708SOL    HW231758   0.708   2.411   7.295 -0.2573  2.2265 -1.2669
 6709SOL     OW31759   4.429   3.887   1.373  0.0777  0.0971 -0.0330
 6709SOL    HW131760   4.522   3.868   1.377  0.0673  0.0760  0.1143
 6709SOL    HW231761   4.437   3.918   1.283  2.2991 -1.7623 -0.4632
 6710SOL     OW31762   2.780   1.142   6.503  0.6948 -0.2868  0.8578
 6710SOL    HW131763   2.740   1.182   6.581  0.5656  1.2199  0.0042
 6710SOL    HW231764   2.869   1.177   6.509  0.5260  0.0541  1.3969
 6711SOL     OW31765   2.560   4.217   3.884  0.1766  0.0379 -0.2385
 6711SOL    HW131766   2.626   4.262   3.937 -0.2067  2.0152 -1.4224
 6711SOL    HW231767   2.595   4.250   3.801 -0.1505 -1.4044 -0.9503
 6712SOL     OW31768   0.712   2.832   8.787  0.4895 -1.1092  0.5908
 6712SOL    HW131769   0.785   2.803   8.733 -0.5434 -1.4256 -0.6117
 6712SOL    HW231770   0.760   2.905   8.826 -0.3476  0.8210 -2.0038
 6713SOL     OW31771   1.481   4.033   5.555  0.2847 -0.5066  0.0468
 6713SOL    HW131772   1.460   4.122   5.526  0.5433 -0.6884 -0.7001
 6713SOL    HW231773   1.437   4.028   5.640  1.9573 -0.9078  0.8974
 6714SOL     OW31774   4.025   3.539   5.078 -0.3468  0.0319  0.0014
 6714SOL    HW131775   3.966   3.608   5.108  0.0825  0.2017  0.4405
 6714SOL    HW231776   4.016   3.468   5.142 -0.2682  0.4940  0.5167
 6715SOL     OW31777   3.988   0.657  12.700  0.0620 -0.3320 -0.4936
 6715SOL    HW131778   3.898   0.683  12.679  0.6783  1.3517 -1.0901
 6715SOL    HW231779   4.029   0.682  12.617  1.1630  2.0586  0.7532
 6716SOL     OW31780   3.897   2.593   2.035 -0.5408  0.1935 -0.6496
 6716SOL    HW131781   3.968   2.619   1.977 -0.5531  0.0933 -0.7082
 6716SOL    HW231782   3.878   2.501   2.014  1.7487 -0.1507 -1.1312
 6717SOL     OW31783   0.585   2.360   4.049 -0.1666 -0.4891  0.2815
 6717SOL    HW131784   0.525   2.326   3.983  0.3775 -1.6509  0.3932
 6717SOL    HW231785   0.628   2.432   4.003 -0.5558 -0.3951  0.0684
 6718SOL     OW31786   0.048   3.717   5.797 -0.1541 -0.2672  0.2684
 6718SOL    HW131787   0.019   3.634   5.760 -2.2546 -0.4707  2.4179
 6718SOL    HW231788   0.048   3.772   5.718  1.1463  1.0448  1.1678
 6719SOL     OW31789   3.199   4.259   8.339 -0.4471 -0.0982  0.4147
 6719SOL    HW131790   3.120   4.226   8.297 -0.1988  1.2864 -1.1269
 6719SOL    HW231791   3.273   4.279   8.281  0.6562 -4.7004  0.2582
 6720SOL     OW31792   1.472   0.162   1.538 -0.1464 -0.2443 -0.4779
 6720SOL    HW131793   1.521   0.141   1.458 -2.1900 -0.3838 -1.6775
 6720SOL    HW231794   1.532   0.116   1.598 -1.6727 -0.3861  0.9313
 6721SOL     OW31795   2.282   3.792   3.832  0.3078  0.3605 -0.1619
 6721SOL    HW131796   2.358   3.843   3.862  0.8886 -0.2802 -0.5539
 6721SOL    HW231797   2.230   3.778   3.911  1.5019  1.0575  0.7480
 6722SOL     OW31798   2.837   0.295   8.494 -0.0536  0.3476 -0.2112
 6722SOL    HW131799   2.926   0.294   8.461  0.6683  2.2514  1.7228
 6722SOL    HW231800   2.800   0.245   8.421  1.6079 -1.5701  0.2487
 6723SOL     OW31801   3.399   1.527   3.194 -0.1257 -0.1991 -0.0972
 6723SOL    HW131802   3.458   1.489   3.259 -0.0403  0.5350  0.2624
 6723SOL    HW231803   3.447   1.561   3.118 -0.1447  1.8866  0.8113
 6724SOL     OW31804   0.091   4.737   5.678 -0.0582  1.0096 -0.0019
 6724SOL    HW131805   0.096   0.061   5.751 -0.6031  0.8113  0.2030
 6724SOL    HW231806   0.149   0.041   5.614 -2.2337  1.1093 -1.9154
 6725SOL     OW31807   1.281   3.906  13.788 -0.1406 -0.1584 -0.5523
 6725SOL    HW131808   1.367   3.876  13.757 -0.3151 -0.7387 -0.4837
 6725SOL    HW231809   1.301   3.976  13.850  0.3372 -0.5160 -0.2958
 6726SOL     OW31810   3.212   0.874   1.825 -0.2373 -0.8214  0.3824
 6726SOL    HW131811   3.238   0.823   1.902 -0.3642 -0.9100  0.3663
 6726SOL    HW231812   3.245   0.819   1.754 -0.4787  0.1360 -0.4766
 6727SOL     OW31813   2.441   2.512   2.981 -0.1600 -0.0911 -0.2005
 6727SOL    HW131814   2.501   2.570   2.934 -0.2749 -2.0206 -2.7270
 6727SOL    HW231815   2.409   2.577   3.043 -2.7529 -1.9748  0.4089
 6728SOL     OW31816   1.989   0.660   3.712  0.1878 -0.5332 -0.2143
 6728SOL    HW131817   1.902   0.620   3.718  0.3227 -0.8771 -0.5688
 6728SOL    HW231818   2.041   0.584   3.739  1.2723  1.2224  2.7171
 6729SOL     OW31819   4.104   3.069  15.477 -0.2729 -0.1329 -0.0501
 6729SOL    HW131820   4.176   3.007  15.488 -0.8581 -0.7123  0.5366
 6729SOL    HW231821   4.081   3.078  15.385 -0.6899  1.7376  0.2434
 6730SOL     OW31822   1.463   1.786   6.714 -0.2497  0.1254  0.5553
 6730SOL    HW131823   1.398   1.737   6.662  1.0541 -0.9754 -0.0261
 6730SOL    HW231824   1.544   1.749   6.679 -0.2405  2.3539 -1.8598
 6731SOL     OW31825   2.337   1.270  10.091 -0.8276  0.3670  0.4677
 6731SOL    HW131826   2.409   1.236  10.037  0.8784  2.9313  1.1516
 6731SOL    HW231827   2.314   1.193  10.143  1.9134 -2.1841 -2.1046
 6732SOL     OW31828   2.719   3.692   8.035 -0.4359  0.0366 -0.2646
 6732SOL    HW131829   2.758   3.721   8.117  1.5430  1.4792 -1.7184
 6732SOL    HW231830   2.655   3.761   8.016  0.5822  0.7063 -1.2600
 6733SOL     OW31831   1.249   2.680   5.374  0.2137  0.7670  0.1226
 6733SOL    HW131832   1.245   2.686   5.470  0.1601  1.1321  0.0992
 6733SOL    HW231833   1.319   2.617   5.357 -0.8940 -0.1365 -1.0678
 6734SOL     OW31834   4.416   4.259  13.226  0.5301  0.2562 -0.3786
 6734SOL    HW131835   4.359   4.183  13.214  0.1262  0.6554 -0.9884
 6734SOL    HW231836   4.368   4.294  13.302  2.2286  2.1992 -0.2173
 6735SOL     OW31837   0.682   4.145  17.625  0.2225  0.7499 -0.0813
 6735SOL    HW131838   0.654   4.056  17.603 -0.0961  0.6583  0.6652
 6735SOL    HW231839   0.739   4.165  17.551  1.8728 -0.8221  0.7934
 6736SOL     OW31840   3.865   1.944   4.061 -0.0231  0.4052  0.2066
 6736SOL    HW131841   3.794   1.947   3.997  0.3154 -2.0527 -0.2868
 6736SOL    HW231842   3.940   1.980   4.013 -0.1474  0.7148  0.2421
 6737SOL     OW31843   1.285   2.854   4.893  0.0474  0.1133  0.2477
 6737SOL    HW131844   1.338   2.822   4.967 -1.8427  0.9261  1.9327
 6737SOL    HW231845   1.209   2.895   4.935  0.9523  2.3541 -0.3407
 6738SOL     OW31846   3.525   0.862  14.041  0.1437  0.2588  0.4680
 6738SOL    HW131847   3.575   0.796  13.994 -1.8675 -1.5173  0.8228
 6738SOL    HW231848   3.496   0.811  14.117  2.0859 -0.0908  0.9679
 6739SOL     OW31849   1.558   4.313   3.863  0.1906 -0.4114  0.1083
 6739SOL    HW131850   1.572   4.322   3.769  1.7830  0.0276  0.3767
 6739SOL    HW231851   1.576   4.221   3.881 -0.3400 -0.6619 -0.6845
 6740SOL     OW31852   0.818   2.620  10.777  0.6860 -0.1728  0.6117
 6740SOL    HW131853   0.872   2.540  10.774 -0.8671 -1.1893 -0.0078
 6740SOL    HW231854   0.889   2.679  10.750  1.1617 -0.0057  2.2118
 6741SOL     OW31855   4.272   1.570   4.390  0.0101 -0.7276  0.5197
 6741SOL    HW131856   4.343   1.630   4.410 -1.0883  0.5533  0.5495
 6741SOL    HW231857   4.240   1.566   4.480 -1.2112 -0.8513  0.0881
 6742SOL     OW31858   2.627   3.851   1.091  0.3997  0.3310  0.1361
 6742SOL    HW131859   2.687   3.797   1.040 -0.5627  0.9062 -1.6239
 6742SOL    HW231860   2.677   3.932   1.097 -0.6290  1.0290 -0.6077
 6743SOL     OW31861   2.778   1.590   2.703 -0.2131 -0.1542 -0.1993
 6743SOL    HW131862   2.814   1.676   2.725 -1.3551  0.0063  1.0224
 6743SOL    HW231863   2.684   1.607   2.691  0.3822  3.2326  0.1667
 6744SOL     OW31864   0.486   1.178   2.320 -0.7609  0.0132 -0.5667
 6744SOL    HW131865   0.453   1.202   2.233 -0.7104 -0.2699 -0.6649
 6744SOL    HW231866   0.529   1.261   2.341 -2.4411  0.9270 -0.7362
 6745SOL     OW31867   1.743   2.337  11.910  0.1161 -0.5671 -0.0176
 6745SOL    HW131868   1.782   2.410  11.958 -0.9268 -0.9544  1.4104
 6745SOL    HW231869   1.661   2.332  11.958 -0.8830  2.6868 -1.3843
 6746SOL     OW31870   0.764   0.475   6.472  0.8502  0.0511  0.3368
 6746SOL    HW131871   0.725   0.561   6.482  3.1175  1.5480 -3.7843
 6746SOL    HW231872   0.691   0.415   6.486 -0.5796  1.7816  0.1848
 6747SOL     OW31873   2.273   4.660   9.187  0.1283  0.0264 -0.1495
 6747SOL    HW131874   2.259   4.585   9.130 -0.7131  0.1627 -0.1226
 6747SOL    HW231875   2.190   4.708   9.182 -0.3733 -0.5873  2.4223
 6748SOL     OW31876   3.409   0.830   6.614  0.0456  0.0983 -0.0194
 6748SOL    HW131877   3.343   0.851   6.680  1.1314 -1.1764  1.4460
 6748SOL    HW231878   3.388   0.738   6.598  0.2001  0.1457 -0.5206
 6749SOL     OW31879   1.422   1.136  16.325 -0.4588 -0.1856 -0.0728
 6749SOL    HW131880   1.356   1.171  16.265 -0.5027 -0.0661  0.0454
 6749SOL    HW231881   1.499   1.183  16.293  0.1672 -2.3875 -1.8196
 6750SOL     OW31882   4.548   4.412  11.885  0.0996 -0.1482 -0.7722
 6750SOL    HW131883   4.527   4.381  11.973  0.3521  3.2452  0.4717
 6750SOL    HW231884   4.636   4.379  11.870  0.3030  1.0695 -2.2463
 6751SOL     OW31885   0.407   4.511   3.519  0.4662 -0.4541  0.3514
 6751SOL    HW131886   0.410   4.597   3.561 -0.3397  0.8247 -2.2325
 6751SOL    HW231887   0.489   4.514   3.470 -0.2062  1.2012 -0.6564
 6752SOL     OW31888   3.801   3.703   5.146  0.2024 -0.1660  0.2757
 6752SOL    HW131889   3.727   3.741   5.098  0.5833 -0.9833 -0.9883
 6752SOL    HW231890   3.785   3.737   5.233 -0.4862 -1.0297  0.4904
 6753SOL     OW31891   2.422   1.703   9.692 -0.3463 -0.6735 -0.5208
 6753SOL    HW131892   2.430   1.617   9.650 -2.9403 -1.4831  0.6212
 6753SOL    HW231893   2.423   1.757   9.613  0.2084  0.6814  0.4082
 6754SOL     OW31894   0.925   3.988   2.583  0.2301 -0.8360 -0.3714
 6754SOL    HW131895   0.918   4.039   2.664 -2.7788 -0.5280 -0.8531
 6754SOL    HW231896   0.914   4.044   2.506 -0.3061  1.3544  1.2900
 6755SOL     OW31897   1.603   2.573   7.505  0.4218  0.2788 -0.1311
 6755SOL    HW131898   1.531   2.569   7.568  0.6910 -1.0859  0.0888
 6755SOL    HW231899   1.599   2.654   7.454  3.0338  0.1165 -0.5742
 6756SOL     OW31900   2.298   3.174  13.755  0.3266  0.0422 -0.1322
 6756SOL    HW131901   2.390   3.197  13.749  0.4150  0.0034  1.0841
 6756SOL    HW231902   2.292   3.095  13.702 -0.0944  0.9527 -1.4224
 6757SOL     OW31903   4.649   4.325   4.151  0.2600  0.1942 -0.3155
 6757SOL    HW131904   4.595   4.315   4.229  0.2042 -1.3370 -0.5633
 6757SOL    HW231905   4.645   4.418   4.126 -4.1624 -0.3724 -1.5694
 6758SOL     OW31906   3.738   3.514   5.896 -0.0980 -0.0013  0.6535
 6758SOL    HW131907   3.706   3.452   5.963 -0.7784 -0.6515 -0.2776
 6758SOL    HW231908   3.659   3.555   5.862  0.8044  2.7772  1.9103
 6759SOL     OW31909   2.903   2.975  15.284  0.1216 -0.0137  0.4971
 6759SOL    HW131910   2.885   2.884  15.258  0.8045  0.5122 -1.7523
 6759SOL    HW231911   2.922   2.976  15.378  0.8990  1.5118  0.3245
 6760SOL     OW31912   3.591   4.426  17.124 -0.3798  0.1947  0.3635
 6760SOL    HW131913   3.579   4.333  17.105 -0.7893  0.4466 -0.6174
 6760SOL    HW231914   3.520   4.473  17.079 -0.0706  2.0561  1.8148
 6761SOL     OW31915   2.064   3.863  14.544 -0.7926 -0.2847  0.3752
 6761SOL    HW131916   2.007   3.800  14.499  1.3579 -1.8931 -0.0939
 6761SOL    HW231917   2.045   3.943  14.495  0.7396 -1.3220 -1.9472
 6762SOL     OW31918   4.590   1.921   7.774 -0.1839 -0.5274 -0.3324
 6762SOL    HW131919   4.680   1.890   7.763 -0.0824  0.3987 -2.2212
 6762SOL    HW231920   4.617   2.013   7.773  1.4486 -1.0379 -1.6641
 6763SOL     OW31921   2.376   4.062   9.312 -0.1522  0.3006 -0.6257
 6763SOL    HW131922   2.444   4.031   9.370 -1.7793 -0.4360  0.8771
 6763SOL    HW231923   2.432   4.059   9.234  0.1451 -1.3398 -0.3395
 6764SOL     OW31924   3.401   2.550   4.875  0.5910  0.1765  0.7627
 6764SOL    HW131925   3.480   2.569   4.825  0.0476 -1.5347 -0.7234
 6764SOL    HW231926   3.342   2.532   4.802  0.5480  2.2003  0.2923
 6765SOL     OW31927   2.655   1.252   6.202  0.3557  0.4297  0.0538
 6765SOL    HW131928   2.641   1.337   6.161  2.5229  1.3563  1.2666
 6765SOL    HW231929   2.739   1.264   6.245  1.1669 -2.7851 -0.6051
 6766SOL     OW31930   1.282   3.055   8.680  0.3683  0.1198 -0.3367
 6766SOL    HW131931   1.233   2.975   8.699 -0.2890  1.6131  4.2086
 6766SOL    HW231932   1.303   3.080   8.770 -1.4417 -0.8741  0.3580
 6767SOL     OW31933   2.001   0.616   4.274 -0.2254 -0.2696 -0.1678
 6767SOL    HW131934   2.004   0.544   4.211  0.4914 -0.6815  0.3412
 6767SOL    HW231935   2.065   0.682   4.245 -1.2574  0.8921  0.1776
 6768SOL     OW31936   0.368   0.120   5.060 -0.5082  0.4836  0.6126
 6768SOL    HW131937   0.405   0.035   5.086  0.4441  0.5137 -0.6620
 6768SOL    HW231938   0.288   0.100   5.012 -0.3001 -0.6264  0.7313
 6769SOL     OW31939   0.944   4.270  12.173  0.1108  0.0390  0.3979
 6769SOL    HW131940   0.874   4.277  12.108  0.2166 -1.9393  0.0633
 6769SOL    HW231941   0.900   4.248  12.255 -1.8664 -0.6623 -0.8568
 6770SOL     OW31942   2.043   3.576   7.967 -0.3582 -0.2436  0.0556
 6770SOL    HW131943   1.979   3.526   7.916  0.1662 -0.3472 -0.5114
 6770SOL    HW231944   2.114   3.587   7.904 -2.5469  1.2043 -2.1344
 6771SOL     OW31945   2.020   3.202   3.561 -0.3206 -0.6111  0.3442
 6771SOL    HW131946   2.073   3.275   3.528 -2.3381  1.3918  1.5754
 6771SOL    HW231947   2.072   3.161   3.629  0.7754  1.2830  0.6510
 6772SOL     OW31948   1.503   2.695   8.618  0.0159 -0.4389  0.3351
 6772SOL    HW131949   1.537   2.699   8.707  3.7929  0.7512 -1.1681
 6772SOL    HW231950   1.558   2.623   8.589  0.6093 -0.4789  1.5622
 6773SOL     OW31951   2.558   3.648   7.005  0.0438  0.0969 -0.0017
 6773SOL    HW131952   2.489   3.640   7.071 -1.8318  0.0478 -1.9614
 6773SOL    HW231953   2.616   3.585   7.048 -1.5869 -1.9977 -0.8099
 6774SOL     OW31954   2.181   0.394   9.561 -0.0563  0.3788 -0.5830
 6774SOL    HW131955   2.204   0.486   9.564  2.4235 -0.2240 -1.4829
 6774SOL    HW231956   2.262   0.355   9.529  0.4607  2.1985 -1.5035
 6775SOL     OW31957   1.524   1.094   2.651 -0.6079  0.1300  0.3774
 6775SOL    HW131958   1.470   1.160   2.695 -0.5473 -0.9264  2.0055
 6775SOL    HW231959   1.616   1.121   2.643 -0.6095  0.3857  1.2303
 6776SOL     OW31960   3.907   0.323   7.461  0.0954  0.1220 -0.0584
 6776SOL    HW131961   3.870   0.235   7.456  0.8582 -0.0985 -2.0964
 6776SOL    HW231962   3.827   0.375   7.462 -0.0487 -0.0673 -1.1890
 6777SOL     OW31963   2.554   4.491  12.368 -0.2563  0.3276 -0.0604
 6777SOL    HW131964   2.556   4.587  12.357  1.4209  0.0671 -2.0301
 6777SOL    HW231965   2.466   4.468  12.338 -0.6505  0.4501  0.9994
 6778SOL     OW31966   0.744   0.843   3.863  0.8180 -0.6976 -0.5754
 6778SOL    HW131967   0.783   0.930   3.873  0.0992 -0.2268 -1.8382
 6778SOL    HW231968   0.752   0.824   3.956 -0.5799  1.7219  0.0525
 6779SOL     OW31969   4.254   3.686  12.458 -0.2099 -0.2337 -0.0843
 6779SOL    HW131970   4.197   3.637  12.399 -0.1319 -3.0029  2.1751
 6779SOL    HW231971   4.203   3.765  12.477  2.4977  1.2162  1.2022
 6780SOL     OW31972   3.555   1.966  13.916  0.1436 -0.1439 -0.1737
 6780SOL    HW131973   3.547   2.026  13.842  0.9500  1.2156  0.8460
 6780SOL    HW231974   3.533   2.024  13.988 -0.9487 -1.4746  0.5629
 6781SOL     OW31975   2.813   1.536   3.610 -0.0516 -0.2293 -0.7566
 6781SOL    HW131976   2.760   1.461   3.585  2.8359 -1.5176 -3.0354
 6781SOL    HW231977   2.895   1.503   3.572  1.0510  2.7072 -0.9908
 6782SOL     OW31978   3.233   1.714   7.412 -0.1171  0.3560 -0.2449
 6782SOL    HW131979   3.166   1.696   7.345 -1.4694  3.9178  0.1408
 6782SOL    HW231980   3.301   1.665   7.366 -0.2961 -1.5575  1.5394
 6783SOL     OW31981   3.574   0.385   8.197  0.4870  0.4916  0.0580
 6783SOL    HW131982   3.656   0.355   8.238  0.7142  0.3497 -0.4902
 6783SOL    HW231983   3.602   0.466   8.154  0.0440 -0.5434 -2.2013
 6784SOL     OW31984   2.651   2.190  10.083 -0.1353  0.1558 -0.0223
 6784SOL    HW131985   2.649   2.227  10.171 -1.9562  0.8603 -0.3472
 6784SOL    HW231986   2.639   2.096  10.094  0.4867 -0.0352 -0.9928
 6785SOL     OW31987   4.022   2.450   2.576  0.2634 -0.3064  0.0482
 6785SOL    HW131988   3.960   2.476   2.508 -1.9181  0.3826  2.2911
 6785SOL    HW231989   4.105   2.471   2.533  0.0356 -0.1453 -0.3122
 6786SOL     OW31990   0.595   0.674   8.901 -0.2455  0.2255 -0.5743
 6786SOL    HW131991   0.661   0.719   8.953  0.5595  1.0759 -2.3243
 6786SOL    HW231992   0.594   0.585   8.936  0.2622  1.2555  2.0644
 6787SOL     OW31993   3.048   2.159   2.296  0.1480  0.2024 -0.8984
 6787SOL    HW131994   3.084   2.143   2.383 -0.9226 -1.6384 -0.7935
 6787SOL    HW231995   3.095   2.235   2.261 -1.4940  1.8069  0.3704
 6788SOL     OW31996   1.547   3.944   2.904 -0.3962 -0.5469  0.2419
 6788SOL    HW131997   1.585   3.943   2.992 -0.8013  0.7684  0.4328
 6788SOL    HW231998   1.594   3.878   2.853 -1.1009 -0.2095 -0.8337
 6789SOL     OW31999   2.101   3.203   1.026 -0.0401 -0.4188 -0.1831
 6789SOL    HW132000   2.050   3.138   1.074 -0.0645  1.2765  2.0783
 6789SOL    HW232001   2.095   3.270   1.093  0.7416  1.0120 -1.5532
 6790SOL     OW32002   3.913   3.034   4.582  0.4710 -0.2927 -0.2235
 6790SOL    HW132003   3.837   2.996   4.536 -0.6905  0.9124  0.6983
 6790SOL    HW232004   3.975   2.961   4.582 -0.5700 -1.1741  2.4838
 6791SOL     OW32005   1.487   2.931   5.697  0.0477 -0.2567 -0.1959
 6791SOL    HW132006   1.506   2.954   5.788  0.9039 -0.6869 -0.2649
 6791SOL    HW232007   1.572   2.942   5.653  0.6195  0.7705  1.1508
 6792SOL     OW32008   2.726   3.808   4.341 -0.3837  0.0404 -0.2536
 6792SOL    HW132009   2.660   3.863   4.383  1.0615  0.9768  0.7919
 6792SOL    HW232010   2.788   3.879   4.326  0.3438 -0.5194  0.1041
 6793SOL     OW32011   4.228   3.145   8.666 -0.1481  0.2291  0.5168
 6793SOL    HW132012   4.162   3.214   8.664  1.1978  1.3849 -2.9402
 6793SOL    HW232013   4.309   3.196   8.665 -0.7571  1.2104  1.3164
 6794SOL     OW32014   4.294   2.222   8.816  0.2129  0.1841  0.2440
 6794SOL    HW132015   4.332   2.246   8.901  0.5879  2.7454 -0.6237
 6794SOL    HW232016   4.225   2.287   8.799 -0.0146 -0.3205 -0.7687
 6795SOL     OW32017   0.842   1.389  16.948  0.2152 -0.3550  0.7831
 6795SOL    HW132018   0.938   1.385  16.950  0.3057  1.6884  0.6318
 6795SOL    HW232019   0.823   1.339  16.869  0.4392  2.3742 -0.9892
 6796SOL     OW32020   0.102   2.827   3.181  0.1738 -0.2297 -0.3946
 6796SOL    HW132021   0.195   2.841   3.166 -0.6268  2.0234 -3.1187
 6796SOL    HW232022   0.106   2.737   3.212  0.0114 -0.4726 -1.0976
 6797SOL     OW32023   2.404   1.031  16.298 -0.6500  0.0758  0.3811
 6797SOL    HW132024   2.405   1.015  16.392  2.0931 -0.3513  0.2861
 6797SOL    HW232025   2.486   1.080  16.295 -1.5033  1.4444 -0.4950
 6798SOL     OW32026   1.959   0.182   5.216 -0.5716  0.0126  0.0624
 6798SOL    HW132027   2.053   0.164   5.224 -0.4254  0.9679  0.5471
 6798SOL    HW232028   1.918   0.110   5.264 -1.2935  0.8093  0.6300
 6799SOL     OW32029   2.228   3.633   7.675  0.5055  0.5392 -0.3838
 6799SOL    HW132030   2.256   3.601   7.590 -0.5868  0.4913 -0.7246
 6799SOL    HW232031   2.134   3.649   7.667  0.0671 -1.1749  1.4347
 6800SOL     OW32032   2.834   0.775   5.079  0.4770  0.5125  0.6785
 6800SOL    HW132033   2.761   0.835   5.060  0.8450  0.8422  0.2884
 6800SOL    HW232034   2.906   0.828   5.044  1.9940 -0.9728  1.5519
 6801SOL     OW32035   2.602   4.725   3.937 -0.5900  0.1322 -0.4120
 6801SOL    HW132036   2.635   0.011   3.850  3.4227 -2.0268  0.4772
 6801SOL    HW232037   2.534   4.667   3.904 -0.4001 -0.7905  0.8037
 6802SOL     OW32038   1.472   3.051   7.165 -0.2826 -0.2933 -0.7816
 6802SOL    HW132039   1.564   3.031   7.151  0.6616  1.7193  2.4533
 6802SOL    HW232040   1.468   3.082   7.256  2.8190  1.7942 -1.3740
 6803SOL     OW32041   0.939   2.980   2.280 -0.1789 -0.5751 -0.2792
 6803SOL    HW132042   0.996   2.980   2.357  0.6138 -0.1030 -0.8702
 6803SOL    HW232043   0.853   2.992   2.319  0.3232  0.6782  0.4619
 6804SOL     OW32044   3.132   3.888   4.213 -0.1775 -0.0304 -0.3341
 6804SOL    HW132045   3.198   3.821   4.230 -0.0786  0.2501  0.3956
 6804SOL    HW232046   3.187   3.965   4.196  0.6248  0.1627  3.2291
 6805SOL     OW32047   2.706   2.543  10.113 -0.0533  0.0598 -0.4744
 6805SOL    HW132048   2.706   2.538  10.018  0.3173  3.1411 -0.6311
 6805SOL    HW232049   2.734   2.634  10.124  0.7232  0.0996 -2.8276
 6806SOL     OW32050   3.734   0.867   6.361 -0.4870  0.4181  0.0602
 6806SOL    HW132051   3.820   0.826   6.354 -0.2349  0.7051  1.5641
 6806SOL    HW232052   3.728   0.896   6.452 -0.2307 -1.3994  0.6517
 6807SOL     OW32053   0.074   4.105   5.595 -0.3623  0.2520 -0.7239
 6807SOL    HW132054   0.038   4.017   5.598 -0.2274  0.1796 -1.3670
 6807SOL    HW232055   0.060   4.130   5.504 -0.2196  0.7332 -0.6187
 6808SOL     OW32056   0.797   1.044  15.798  0.1998  0.4100 -0.1474
 6808SOL    HW132057   0.745   1.123  15.812  0.3067  0.8311 -2.0557
 6808SOL    HW232058   0.730   0.977  15.783  1.2673 -1.5373  3.8184
 6809SOL     OW32059   4.198   3.903   5.621 -0.0799 -0.5645 -0.6060
 6809SOL    HW132060   4.126   3.945   5.667  0.8844  1.1063 -0.6163
 6809SOL    HW232061   4.171   3.814   5.599  1.3428 -1.1871  0.1465
 6810SOL     OW32062   3.316   3.742   4.695  0.0425  0.2243  0.5411
 6810SOL    HW132063   3.245   3.791   4.736 -0.2646  0.4877 -0.3115
 6810SOL    HW232064   3.270   3.662   4.670  1.8326 -0.4025 -0.7106
 6811SOL     OW32065   4.525   2.798   5.693 -1.3461  0.1162 -0.0133
 6811SOL    HW132066   4.562   2.784   5.606 -0.0205 -1.6557  0.8440
 6811SOL    HW232067   4.432   2.803   5.672 -1.1601 -0.0697 -0.8880
 6812SOL     OW32068   3.303   4.399   3.913 -0.5748  0.9393 -0.8002
 6812SOL    HW132069   3.329   4.483   3.875 -1.5513  1.5218 -0.1998
 6812SOL    HW232070   3.372   4.336   3.891 -1.3741 -0.4097  0.5439
 6813SOL     OW32071   4.406   0.845  12.148  0.2913  0.0840  0.0399
 6813SOL    HW132072   4.329   0.809  12.191  0.2085  1.7044  1.2817
 6813SOL    HW232073   4.460   0.870  12.224  1.1009  4.0881 -1.8529
 6814SOL     OW32074   2.555   0.002  14.208  0.1058  0.5881 -0.0637
 6814SOL    HW132075   2.572   0.054  14.130  0.8345  0.9958  0.3625
 6814SOL    HW232076   2.517   4.656  14.181 -1.4484  0.1524  3.4804
 6815SOL     OW32077   4.497   0.934   4.530  0.2483  0.7775  0.0903
 6815SOL    HW132078   4.549   0.864   4.568 -0.1889 -0.0855 -0.8715
 6815SOL    HW232079   4.543   1.010   4.565 -1.4864  1.3993  1.0339
 6816SOL     OW32080   3.397   1.882  15.701 -0.0138 -0.5297  0.1169
 6816SOL    HW132081   3.339   1.876  15.777 -1.1688  2.0018 -0.5856
 6816SOL    HW232082   3.347   1.916  15.626  1.5918  1.7327  0.0976
 6817SOL     OW32083   2.437   4.700   7.831  0.0526  0.4159 -0.2653
 6817SOL    HW132084   2.429   4.607   7.814  1.2504 -0.0658  1.8034
 6817SOL    HW232085   2.396   4.708   7.917  0.4469  1.9557 -0.2131
 6818SOL     OW32086   0.378   2.042  17.053 -0.2772 -0.7589 -0.4267
 6818SOL    HW132087   0.331   1.964  17.084  0.1612 -1.3321 -1.2018
 6818SOL    HW232088   0.426   2.066  17.132 -1.1464 -0.2741 -0.0465
 6819SOL     OW32089   3.796   1.399   6.838 -0.7843  0.4479  0.2705
 6819SOL    HW132090   3.863   1.441   6.891 -0.8712  0.6282  0.2364
 6819SOL    HW232091   3.805   1.306   6.860 -0.3045  0.6778  1.0419
 6820SOL     OW32092   2.433   3.269   4.948 -0.1284 -0.0652  0.0716
 6820SOL    HW132093   2.396   3.290   4.863 -0.1314 -2.7335 -0.5911
 6820SOL    HW232094   2.524   3.251   4.926 -0.2042 -0.0781 -0.2241
 6821SOL     OW32095   2.113   3.211   0.293 -0.0441  0.0077 -0.5336
 6821SOL    HW132096   2.118   3.122   0.258  0.0673  0.7446 -2.3611
 6821SOL    HW232097   2.021   3.213   0.318  0.5031  3.9151  1.1063
 6822SOL     OW32098   1.954   1.652   8.156 -0.3237  0.1906  0.0240
 6822SOL    HW132099   1.977   1.684   8.243  2.4919 -0.3844 -0.5199
 6822SOL    HW232100   1.976   1.728   8.102  1.3580 -1.1197 -1.1422
 6823SOL     OW32101   2.508   0.619   8.724  0.1358  0.1525 -0.1933
 6823SOL    HW132102   2.485   0.609   8.632 -1.1428  0.8985  0.0355
 6823SOL    HW232103   2.503   0.715   8.724  0.8000  0.1857  0.8065
 6824SOL     OW32104   2.581   4.397  11.238  0.3924 -0.3542  0.1528
 6824SOL    HW132105   2.555   4.355  11.156 -0.1832  0.9394 -0.3118
 6824SOL    HW232106   2.664   4.356  11.264  1.6361  1.6347 -0.7335
 6825SOL     OW32107   2.705   2.971   3.580  0.1530  0.0353 -0.0718
 6825SOL    HW132108   2.779   2.995   3.637  0.9841  0.0999 -1.1808
 6825SOL    HW232109   2.737   3.000   3.495 -0.2350  0.5224 -0.0504
 6826SOL     OW32110   3.677   2.984  11.435 -0.6053 -0.4705  0.0781
 6826SOL    HW132111   3.675   2.889  11.419 -0.3204 -0.7920  1.9008
 6826SOL    HW232112   3.617   3.006  11.364  0.6690  2.2318 -0.1609
 6827SOL     OW32113   3.686   3.795   7.931 -0.0873  0.4433  0.3816
 6827SOL    HW132114   3.766   3.836   7.963  0.6072  0.9549 -2.0693
 6827SOL    HW232115   3.713   3.704   7.931  2.1884  1.1239 -1.4832
 6828SOL     OW32116   3.587   0.930   5.414 -0.0336 -0.7125 -0.4485
 6828SOL    HW132117   3.560   0.922   5.506  0.7402 -0.2323 -0.1767
 6828SOL    HW232118   3.601   0.837   5.394 -1.0623 -0.9380 -0.1358
 6829SOL     OW32119   1.482   2.812   3.932 -0.3261 -0.0225  0.6645
 6829SOL    HW132120   1.545   2.807   3.860  0.2620  0.7306  1.1295
 6829SOL    HW232121   1.431   2.889   3.908 -1.7137 -1.5847 -1.4336
 6830SOL     OW32122   4.637   4.177  12.894  0.2209  0.4328 -0.5745
 6830SOL    HW132123   4.615   4.089  12.924 -0.7401  0.4498 -1.2292
 6830SOL    HW232124   4.718   4.150  12.851  1.2072 -0.6628  2.0171
 6831SOL     OW32125   4.337   3.428   0.435 -0.0382  0.5375 -0.0198
 6831SOL    HW132126   4.332   3.498   0.370 -1.3711  0.3342 -0.1327
 6831SOL    HW232127   4.256   3.420   0.484  1.4232  1.4313  2.5150
 6832SOL     OW32128   0.288   2.712   4.208  0.3884 -0.7697  0.1080
 6832SOL    HW132129   0.256   2.795   4.173 -0.7624 -0.1288  2.6974
 6832SOL    HW232130   0.260   2.733   4.297 -1.3660 -1.3504 -0.3123
 6833SOL     OW32131   1.479   1.618   5.323  0.0645  0.5468  0.2925
 6833SOL    HW132132   1.416   1.677   5.281 -0.9058  1.5816  3.2106
 6833SOL    HW232133   1.551   1.680   5.335 -0.8084  1.1966  2.2142
 6834SOL     OW32134   1.991   2.640   1.508 -0.3583 -0.1429 -0.2832
 6834SOL    HW132135   1.968   2.569   1.448 -0.6573  0.1291 -0.4910
 6834SOL    HW232136   2.085   2.627   1.503 -0.5114 -1.6752  0.7912
 6835SOL     OW32137   3.557   0.430   6.521 -0.6601  0.1427  0.6991
 6835SOL    HW132138   3.616   0.394   6.455 -1.6057 -0.2476  0.0547
 6835SOL    HW232139   3.477   0.388   6.488 -1.7497  3.3335 -0.7812
 6836SOL     OW32140   1.928   2.814   3.360 -0.9234  0.3012  0.1863
 6836SOL    HW132141   1.866   2.856   3.420 -0.4697  0.0244  0.8560
 6836SOL    HW232142   1.911   2.870   3.285  3.0562  0.3399 -0.6722
 6837SOL     OW32143   3.213   2.797   6.939  0.0090 -0.7644 -0.1061
 6837SOL    HW132144   3.145   2.733   6.915 -0.7891 -0.2691  0.8636
 6837SOL    HW232145   3.286   2.750   6.980  0.6175  0.4982  0.2485
 6838SOL     OW32146   4.157   1.441   1.608 -0.2920  0.4368 -0.4048
 6838SOL    HW132147   4.174   1.466   1.699 -1.7662 -0.9291  0.2584
 6838SOL    HW232148   4.205   1.506   1.558  1.0545  0.5920  1.1084
 6839SOL     OW32149   2.094   0.965   1.845  0.3836  0.7320  0.0286
 6839SOL    HW132150   2.045   1.037   1.885  0.7492  0.0905  1.6413
 6839SOL    HW232151   2.097   0.906   1.921  0.8568  1.3614  0.4920
 6840SOL     OW32152   2.366   3.451  10.774 -0.1617 -0.1063  0.1334
 6840SOL    HW132153   2.304   3.524  10.775 -0.0294  0.0216 -1.3231
 6840SOL    HW232154   2.446   3.498  10.797  0.1403  0.7767 -2.7772
 6841SOL     OW32155   0.524   3.652  17.477 -0.3596 -0.1557  0.3287
 6841SOL    HW132156   0.446   3.605  17.447 -0.6151  0.3920  0.1296
 6841SOL    HW232157   0.482   3.671  17.561 -1.7390 -0.5654 -0.2694
 6842SOL     OW32158   3.000   2.701  17.333  0.0348 -0.1147 -0.2986
 6842SOL    HW132159   2.934   2.714  17.400  1.5008 -0.9699  1.3002
 6842SOL    HW232160   2.945   2.707  17.255 -1.9084 -1.9525  0.9120
 6843SOL     OW32161   2.472   4.482   9.814 -0.1083  0.4329 -0.4141
 6843SOL    HW132162   2.524   4.462   9.892 -0.6591 -1.6350 -0.5670
 6843SOL    HW232163   2.507   4.566   9.785 -2.6859  1.3671 -0.8595
 6844SOL     OW32164   3.728   4.280  16.820  0.5477 -0.0315 -0.3128
 6844SOL    HW132165   3.768   4.311  16.738  1.5291 -0.5340 -0.0233
 6844SOL    HW232166   3.641   4.268  16.781  0.5818  3.2244 -1.3967
 6845SOL     OW32167   0.947   3.600  16.158 -0.7013  0.0694 -0.0367
 6845SOL    HW132168   0.867   3.624  16.204 -1.8131  1.2506 -2.5856
 6845SOL    HW232169   0.937   3.505  16.152 -0.1373  0.0977 -1.3679
 6846SOL     OW32170   0.276   0.769   7.170  0.0227 -0.0027 -0.1017
 6846SOL    HW132171   0.315   0.751   7.256  1.0676  1.6463 -0.2304
 6846SOL    HW232172   0.203   0.707   7.169 -1.4099  1.7121 -1.0214
 6847SOL     OW32173   2.513   3.875   8.024 -0.1241  0.6132  0.0849
 6847SOL    HW132174   2.474   3.866   7.937  0.1781  2.3223 -0.2115
 6847SOL    HW232175   2.507   3.970   8.023  2.6379  0.7897  0.2413
 6848SOL     OW32176   1.813   2.153   5.082  0.1654 -0.0774  0.4615
 6848SOL    HW132177   1.826   2.239   5.040 -0.1794 -0.6389 -0.8038
 6848SOL    HW232178   1.874   2.092   5.042 -1.7972 -1.6012 -0.2053
 6849SOL     OW32179   3.611   1.407   3.353 -0.1361  0.2117 -0.5329
 6849SOL    HW132180   3.699   1.414   3.318 -0.0923  0.6447 -0.3409
 6849SOL    HW232181   3.629   1.441   3.441 -1.0523 -0.3661 -0.1153
 6850SOL     OW32182   3.576   0.077   6.894  0.5051  0.3891  0.1276
 6850SOL    HW132183   3.669   0.095   6.907  0.3540  0.1070  1.6123
 6850SOL    HW232184   3.537   0.156   6.931  0.8147  1.4285 -1.7558
 6851SOL     OW32185   3.730   1.844   2.385 -0.2909 -0.6549 -0.1286
 6851SOL    HW132186   3.710   1.934   2.412  0.8206 -0.9559  1.7100
 6851SOL    HW232187   3.777   1.814   2.463  1.1733 -0.2186 -0.8456
 6852SOL     OW32188   2.059   0.392   3.756 -0.0395  0.6572  0.5376
 6852SOL    HW132189   2.098   0.312   3.720 -0.3443  1.3668 -1.3570
 6852SOL    HW232190   1.976   0.394   3.709  0.5002 -2.3922 -0.5279
 6853SOL     OW32191   4.654   0.712   6.882 -0.1270 -0.3244 -0.3578
 6853SOL    HW132192   0.008   0.690   6.895  0.0677  0.2753 -0.7028
 6853SOL    HW232193   4.672   0.788   6.826  0.5156 -0.1089  0.1407
 6854SOL     OW32194   3.685   0.415   4.244  0.6827  0.7342 -0.1696
 6854SOL    HW132195   3.692   0.371   4.160 -0.4375  1.0927 -0.4418
 6854SOL    HW232196   3.739   0.494   4.236 -0.6075  1.7639  1.2571
 6855SOL     OW32197   3.116   3.012  16.574  0.1014  0.3495 -0.5802
 6855SOL    HW132198   3.169   3.005  16.495 -0.9910 -4.1313 -0.8649
 6855SOL    HW232199   3.026   3.006  16.544  0.3252 -0.0571 -1.1655
 6856SOL     OW32200   1.396   0.245  16.897  0.4246  0.4516  0.0215
 6856SOL    HW132201   1.428   0.182  16.832  1.1094  1.5935 -0.7478
 6856SOL    HW232202   1.306   0.212  16.897 -0.0761  1.8352  1.3205
 6857SOL     OW32203   0.382   1.855   7.152  0.3912 -0.2544  0.3450
 6857SOL    HW132204   0.429   1.889   7.076  0.0547 -0.0206  0.2412
 6857SOL    HW232205   0.404   1.762   7.159 -1.9668 -0.9578 -1.8486
 6858SOL     OW32206   2.428   1.865   4.748  0.1876 -1.0146 -0.8828
 6858SOL    HW132207   2.458   1.955   4.760 -2.0017 -0.8693  3.2796
 6858SOL    HW232208   2.469   1.819   4.821  1.1519  0.7330 -0.3387
 6859SOL     OW32209   3.896   2.128   2.179  0.3389 -0.0903 -0.1684
 6859SOL    HW132210   3.893   2.049   2.125  0.1849 -0.3517  0.2288
 6859SOL    HW232211   3.987   2.153   2.162  0.2939  0.6754  0.7018
 6860SOL     OW32212   2.286   4.700   8.840 -0.1488 -0.4043  0.1988
 6860SOL    HW132213   2.272   4.624   8.783 -0.5706  0.6559 -1.1096
 6860SOL    HW232214   2.375   4.681   8.870 -0.3153  0.4397  1.2060
 6861SOL     OW32215   2.465   3.369   3.749 -0.6209  0.1896  0.3735
 6861SOL    HW132216   2.516   3.340   3.825 -1.8408  1.7419  1.7781
 6861SOL    HW232217   2.529   3.418   3.697 -0.7503  0.0788  0.1114
 6862SOL     OW32218   2.560   2.497   0.969  0.2090 -0.5697  0.3856
 6862SOL    HW132219   2.472   2.459   0.976 -0.7666  1.0446 -3.0142
 6862SOL    HW232220   2.546   2.588   0.993 -0.8803 -0.3453 -1.0352
 6863SOL     OW32221   1.600   3.531   7.903  0.0269  0.2439  0.1019
 6863SOL    HW132222   1.614   3.617   7.863 -3.1225  1.2020  1.0212
 6863SOL    HW232223   1.545   3.547   7.980  0.3501 -0.5492  0.4884
 6864SOL     OW32224   0.222   3.182   6.076 -0.6783  0.2544 -0.1114
 6864SOL    HW132225   0.207   3.088   6.073 -0.1650  0.1155  1.5940
 6864SOL    HW232226   0.158   3.192   6.146 -0.1432 -1.5663  0.6368
 6865SOL     OW32227   3.363   3.067   8.383 -0.4073  0.2153  0.3110
 6865SOL    HW132228   3.337   3.113   8.303  1.0330  1.2460  0.4306
 6865SOL    HW232229   3.300   3.105   8.444 -0.7803 -0.5651  0.4078
 6866SOL     OW32230   1.426   1.495   4.308  0.0282  0.6599 -0.0921
 6866SOL    HW132231   1.470   1.546   4.239 -0.6151  2.0111  0.4828
 6866SOL    HW232232   1.500   1.487   4.368  0.8677  2.6527 -0.8554
 6867SOL     OW32233   2.218   2.436   3.733 -0.4787  0.1278  0.2615
 6867SOL    HW132234   2.191   2.490   3.659  1.1288  1.4494  0.6544
 6867SOL    HW232235   2.225   2.351   3.689 -2.2587  0.5073 -0.7777
 6868SOL     OW32236   0.758   0.220   2.504  0.5181 -0.3373  0.4669
 6868SOL    HW132237   0.796   0.298   2.543 -4.5048  2.2488  0.1179
 6868SOL    HW232238   0.670   0.256   2.498  0.2310 -1.1334 -0.0655
 6869SOL     OW32239   3.467   4.502  11.777  0.1336 -0.2101 -0.3290
 6869SOL    HW132240   3.404   4.494  11.706 -2.3395 -0.3336  1.8958
 6869SOL    HW232241   3.411   4.550  11.838  0.5208 -1.3999  0.9629
 6870SOL     OW32242   3.029   4.007  17.062 -0.6885 -0.3541  0.1657
 6870SOL    HW132243   2.938   3.999  17.092 -0.3320 -1.1472  1.0160
 6870SOL    HW232244   3.034   3.933  17.002 -0.1688 -0.4627  0.3494
 6871SOL     OW32245   1.921   0.488   2.739  0.5983  0.0704  0.1904
 6871SOL    HW132246   2.005   0.520   2.771  1.8481 -0.9022 -2.0838
 6871SOL    HW232247   1.911   0.534   2.655  0.8559 -1.8665 -0.9129
 6872SOL     OW32248   0.102   3.240   2.056  0.2588 -0.2891 -0.6679
 6872SOL    HW132249   0.125   3.294   2.131 -1.0581  0.2440 -0.6620
 6872SOL    HW232250   0.153   3.164   2.086  2.8746  3.2655  3.8209
 6873SOL     OW32251   4.063   1.631   9.179  0.5913 -0.0361  0.0824
 6873SOL    HW132252   3.978   1.672   9.163  0.8685 -0.0519 -1.4734
 6873SOL    HW232253   4.079   1.588   9.094 -1.8303 -1.1075  0.1552
 6874SOL     OW32254   4.636   2.006   0.794  0.1268 -0.5324 -0.5368
 6874SOL    HW132255   4.567   2.041   0.737  0.4365  0.9374 -0.0113
 6874SOL    HW232256   4.716   2.016   0.742  0.0241 -0.8291 -0.7516
 6875SOL     OW32257   0.593   2.383  10.886  0.3075  0.4352 -0.5124
 6875SOL    HW132258   0.681   2.396  10.922  0.2419  1.5393 -0.7425
 6875SOL    HW232259   0.609   2.391  10.792 -1.0581  2.6685 -0.5411
 6876SOL     OW32260   4.534   1.698   3.349  0.6277 -0.9377  0.2441
 6876SOL    HW132261   4.501   1.613   3.321  1.2949 -0.5950 -1.5570
 6876SOL    HW232262   4.463   1.759   3.333  0.4373 -0.6832  2.0320
 6877SOL     OW32263   4.676   0.917  12.865  0.0971 -0.5650 -1.0787
 6877SOL    HW132264   4.641   0.906  12.777 -2.2397 -0.3591 -0.1714
 6877SOL    HW232265   4.605   0.956  12.915  1.3332  2.7582 -1.9633
 6878SOL     OW32266   1.522   2.015   3.161 -0.5012 -0.4926 -0.1936
 6878SOL    HW132267   1.509   1.971   3.077  0.7879  2.5238 -1.9430
 6878SOL    HW232268   1.544   2.098   3.120  0.2521  0.1339  1.5035
 6879SOL     OW32269   1.261   2.790   5.866 -0.3295  0.3494 -0.1503
 6879SOL    HW132270   1.179   2.753   5.899 -0.2814  0.2502 -0.1433
 6879SOL    HW232271   1.298   2.830   5.945 -0.0818 -2.6238  1.2458
 6880SOL     OW32272   3.371   2.646   2.955 -0.1992  0.1067  0.2551
 6880SOL    HW132273   3.278   2.648   2.931  0.5403  2.3578 -2.4737
 6880SOL    HW232274   3.374   2.556   2.988 -0.6587 -0.2122 -0.5687
 6881SOL     OW32275   4.506   2.236   9.548  0.3702 -0.1478  0.6034
 6881SOL    HW132276   4.532   2.144   9.544  3.5580  0.7744 -0.2083
 6881SOL    HW232277   4.429   2.220   9.602 -0.6605  3.1436  0.0893
 6882SOL     OW32278   3.953   0.612   0.067  0.7033  0.1646  0.0310
 6882SOL    HW132279   3.942   0.587  17.726  2.2535  1.6627 -0.5735
 6882SOL    HW232280   3.873   0.569   0.100 -1.2977  0.0614 -5.0452
 6883SOL     OW32281   3.336   0.503   3.026 -0.0389  0.1201 -0.0935
 6883SOL    HW132282   3.383   0.568   3.078 -2.6627  0.5248  1.7675
 6883SOL    HW232283   3.321   0.440   3.096  0.2330  0.1886  0.0280
 6884SOL     OW32284   2.612   1.769   5.552 -0.3216 -0.0547  0.1084
 6884SOL    HW132285   2.563   1.730   5.479 -2.5024  1.2069  0.9004
 6884SOL    HW232286   2.629   1.859   5.523  2.9072 -0.2529  1.5016
 6885SOL     OW32287   1.497   3.767   5.476  0.0303  0.6524 -0.4278
 6885SOL    HW132288   1.537   3.719   5.548 -0.5688  1.2455  0.2972
 6885SOL    HW232289   1.498   3.858   5.506  0.9642  1.0855 -1.7548
 6886SOL     OW32290   1.447   2.262   5.088 -0.0714 -0.1966  0.0202
 6886SOL    HW132291   1.466   2.195   5.023  0.4685  0.4199 -0.4604
 6886SOL    HW232292   1.492   2.329   5.036 -2.3635  1.7943  0.5916
 6887SOL     OW32293   0.359   1.463   6.951  0.1267 -0.1891 -0.5035
 6887SOL    HW132294   0.421   1.536   6.953  0.6380 -0.6559  0.3960
 6887SOL    HW232295   0.408   1.388   6.983  0.0206  0.2010  0.5639
 6888SOL     OW32296   0.141   1.292   3.121 -0.1577  0.1198 -0.4154
 6888SOL    HW132297   0.229   1.329   3.127 -1.2616  2.3436  1.8919
 6888SOL    HW232298   0.093   1.367   3.088  0.4831  1.4473  1.6732
 6889SOL     OW32299   0.174   2.002  10.458  0.0186  0.6136  0.3855
 6889SOL    HW132300   0.150   1.974  10.546  0.4599 -0.0652  0.2903
 6889SOL    HW232301   0.267   1.977  10.455  0.5358  2.6848 -1.5365
 6890SOL     OW32302   2.194   1.349   9.607  0.1799  0.3230 -0.0844
 6890SOL    HW132303   2.162   1.259   9.603  1.1828 -0.0836  0.9468
 6890SOL    HW232304   2.166   1.375   9.519  0.5204  0.2313 -0.2189
 6891SOL     OW32305   2.751   3.119  16.579  0.3344 -0.1964 -0.1276
 6891SOL    HW132306   2.711   3.178  16.515  1.5487 -0.5287 -1.2076
 6891SOL    HW232307   2.777   3.048  16.520 -0.3581 -1.5675  1.2018
 6892SOL     OW32308   3.080   4.659   8.269 -0.3796  0.3434  0.1351
 6892SOL    HW132309   3.132   4.689   8.344  2.7952 -1.3813 -1.3581
 6892SOL    HW232310   3.114   4.723   8.207 -1.7679  2.6567  1.7551
 6893SOL     OW32311   1.120   0.124   7.077 -0.2110  0.1978  0.0790
 6893SOL    HW132312   1.026   0.110   7.063 -0.0220 -1.5067  0.5432
 6893SOL    HW232313   1.150   0.131   6.986  2.3412  1.0265  0.9803
 6894SOL     OW32314   1.419   2.350  16.173 -0.2146  0.0959 -0.4137
 6894SOL    HW132315   1.457   2.406  16.105 -1.0498  1.0482 -0.0817
 6894SOL    HW232316   1.493   2.349  16.233  1.1221 -1.4490 -2.0607
 6895SOL     OW32317   1.150   2.884   9.134 -0.4258 -0.1448 -0.4670
 6895SOL    HW132318   1.122   2.973   9.157  1.0630 -0.6115  3.0578
 6895SOL    HW232319   1.089   2.828   9.182  1.5514  0.4847  2.7384
 6896SOL     OW32320   0.768   0.262   5.479  0.0137  0.1432 -0.5621
 6896SOL    HW132321   0.855   0.301   5.471 -0.4249  1.0768 -0.8516
 6896SOL    HW232322   0.721   0.346   5.483 -0.0822  0.0118  0.9670
 6897SOL     OW32323   4.537   2.715   0.884 -0.2620  0.0153  0.1319
 6897SOL    HW132324   4.627   2.745   0.874 -0.6123  0.4306 -1.7012
 6897SOL    HW232325   4.539   2.692   0.977 -0.5622  0.0384  0.1435
 6898SOL     OW32326   2.451   4.461  11.946  0.8739  0.1399  0.0209
 6898SOL    HW132327   2.405   4.484  11.866  1.6545  0.2601 -0.3972
 6898SOL    HW232328   2.500   4.387  11.911  2.1228  0.9579  0.0350
 6899SOL     OW32329   0.894   3.434   7.324  0.2834  0.0969 -0.5561
 6899SOL    HW132330   0.804   3.437   7.356  0.5707  1.8565  0.0482
 6899SOL    HW232331   0.902   3.528   7.308 -2.9384  0.3764 -0.4279
 6900SOL     OW32332   0.271   2.414   7.982 -0.6647 -0.5436  0.7296
 6900SOL    HW132333   0.355   2.450   7.953 -0.1268 -1.2388  1.4337
 6900SOL    HW232334   0.296   2.325   7.958 -2.0740 -1.1474  1.5076
 6901SOL     OW32335   1.508   3.919   2.576 -0.2181  0.5151 -0.5585
 6901SOL    HW132336   1.521   3.889   2.486  0.1453 -2.0993  0.3514
 6901SOL    HW232337   1.413   3.932   2.582 -0.8015 -3.5758 -0.8660
 6902SOL     OW32338   1.280   0.211   5.401 -0.1204  1.0009  0.1524
 6902SOL    HW132339   1.274   0.185   5.309  0.3044  0.1757  0.3604
 6902SOL    HW232340   1.195   0.183   5.434  0.3120  0.1588  0.5659
 6903SOL     OW32341   4.358   2.726   9.247 -0.3717 -0.6528 -0.0728
 6903SOL    HW132342   4.395   2.795   9.193  0.5228  0.5999  2.1135
 6903SOL    HW232343   4.414   2.650   9.230  3.0709  1.2585  2.8119
 6904SOL     OW32344   3.234   0.664   2.613  0.3595  0.7307  0.3639
 6904SOL    HW132345   3.329   0.670   2.599  0.1199 -0.7301 -2.0209
 6904SOL    HW232346   3.213   0.577   2.648 -0.3046 -0.9260 -4.0461
 6905SOL     OW32347   1.395   1.018   9.996  0.4921  0.6648 -0.3876
 6905SOL    HW132348   1.451   1.089   9.966 -1.3203  3.5822  3.1515
 6905SOL    HW232349   1.363   0.978   9.916  2.2071 -2.6254  0.5359
 6906SOL     OW32350   1.281   0.754   5.757 -0.3391 -0.3847 -0.0716
 6906SOL    HW132351   1.199   0.745   5.708 -0.3585 -0.8561  0.0450
 6906SOL    HW232352   1.266   0.824   5.819  2.0358  0.8346 -0.8583
 6907SOL     OW32353   0.266   1.716   4.024  0.5819 -0.1048 -0.3140
 6907SOL    HW132354   0.331   1.653   3.992  3.0069  0.6216  3.0857
 6907SOL    HW232355   0.180   1.677   4.011 -0.4856  1.7583  1.1449
 6908SOL     OW32356   0.729   4.013   4.300 -0.1665  0.9700 -0.3628
 6908SOL    HW132357   0.659   3.997   4.364 -0.2078  3.7893  0.2981
 6908SOL    HW232358   0.812   4.021   4.346  0.1842 -0.0740 -0.8266
 6909SOL     OW32359   1.571   0.732   3.358  0.0134  0.0406 -0.2827
 6909SOL    HW132360   1.494   0.674   3.361 -0.8245  1.0908 -1.2969
 6909SOL    HW232361   1.620   0.700   3.434 -1.0028 -0.4600  0.1620
 6910SOL     OW32362   0.910   2.434   3.674  0.0511  0.3195 -0.3765
 6910SOL    HW132363   0.979   2.412   3.737  0.5046  1.7027 -0.3961
 6910SOL    HW232364   0.874   2.350   3.646  0.0568  0.4098 -0.6560
 6911SOL     OW32365   2.354   4.181   2.097 -0.2261  0.6280 -0.2916
 6911SOL    HW132366   2.397   4.255   2.054 -2.1006  0.9548 -1.5817
 6911SOL    HW232367   2.269   4.181   2.053 -0.9182 -1.1039  1.0693
 6912SOL     OW32368   2.939   0.037   3.039 -0.4433 -0.9033  0.2774
 6912SOL    HW132369   2.983   0.119   3.061  0.5526 -1.0345 -1.2120
 6912SOL    HW232370   3.014   4.716   3.039  0.7880  0.6509  1.1840
 6913SOL     OW32371   1.131   0.560   7.713  0.2260 -0.0896 -0.5346
 6913SOL    HW132372   1.136   0.648   7.749  0.3232 -0.9284  1.4834
 6913SOL    HW232373   1.200   0.500   7.741 -0.7649 -0.6558  0.6891
 6914SOL     OW32374   0.981   1.999   5.963  0.1643  0.6370 -0.0887
 6914SOL    HW132375   0.961   2.063   5.895  0.1646 -0.1699 -0.8597
 6914SOL    HW232376   0.912   2.021   6.026 -0.0819 -0.4749  0.0367
 6915SOL     OW32377   1.521   3.685   3.779 -0.1296 -0.0766 -0.1036
 6915SOL    HW132378   1.527   3.742   3.855  1.0971 -0.6012  0.2113
 6915SOL    HW232379   1.616   3.676   3.765  0.1111  0.3737  1.1746
 6916SOL     OW32380   3.164   2.692   5.665 -0.6794  0.0841  0.3423
 6916SOL    HW132381   3.246   2.656   5.699 -0.1441 -0.4087 -1.4417
 6916SOL    HW232382   3.189   2.784   5.667 -0.3889 -0.0281  1.4753
 6917SOL     OW32383   0.663   2.147   3.650  0.2871  0.0341  0.3191
 6917SOL    HW132384   0.666   2.211   3.580  0.5917 -0.6518 -0.2973
 6917SOL    HW232385   0.581   2.104   3.625  0.6130 -0.6532  0.4242
 6918SOL     OW32386   0.846   2.118  14.601 -0.6973 -0.2264 -0.1669
 6918SOL    HW132387   0.851   2.207  14.568 -0.9353 -0.9431 -2.1512
 6918SOL    HW232388   0.914   2.120  14.669 -0.6094 -0.8173 -0.2342
 6919SOL     OW32389   2.444   1.258  15.970 -0.2232  0.3171 -0.0536
 6919SOL    HW132390   2.458   1.164  15.963  0.3447  0.6729 -3.5591
 6919SOL    HW232391   2.366   1.270  15.915 -1.0872 -1.1572  0.8351
 6920SOL     OW32392   2.173   3.276   7.214 -0.0955 -0.4006  0.1983
 6920SOL    HW132393   2.107   3.338   7.246 -0.2774  0.3887 -1.7286
 6920SOL    HW232394   2.179   3.309   7.125 -0.2706 -1.2500 -0.1343
 6921SOL     OW32395   0.765   2.346  11.823  0.0888 -0.2334 -0.0728
 6921SOL    HW132396   0.802   2.262  11.798  0.3025 -0.6124  1.5659
 6921SOL    HW232397   0.681   2.341  11.776  0.1354 -1.9114  0.0514
 6922SOL     OW32398   0.786   4.649  17.367  0.2564  0.2163 -0.2653
 6922SOL    HW132399   0.760   0.002  17.382  1.0600  0.4633 -0.3465
 6922SOL    HW232400   0.881   4.663  17.373  0.2532  0.1913 -0.1599
 6923SOL     OW32401   3.633   1.514   1.681  0.0902  0.5310  0.4088
 6923SOL    HW132402   3.718   1.553   1.703 -0.4469  0.7646  2.0800
 6923SOL    HW232403   3.605   1.497   1.771 -0.0354 -0.2257  0.2282
 6924SOL     OW32404   4.709   1.666  15.002 -0.2703 -0.1895 -0.2718
 6924SOL    HW132405   4.635   1.605  14.995 -2.1991  1.7724  3.3460
 6924SOL    HW232406   0.000   1.679  14.912  2.9183  0.3065  0.8223
 6925SOL     OW32407   2.919   4.585   6.580 -0.1562  0.2917  0.1305
 6925SOL    HW132408   2.853   4.608   6.516  0.6452  0.3501 -0.6674
 6925SOL    HW232409   2.954   4.506   6.539 -0.7524  0.4681 -0.7055
 6926SOL     OW32410   2.473   2.818   3.652 -0.0238 -0.0393 -0.0338
 6926SOL    HW132411   2.482   2.834   3.746 -0.1592 -0.0868 -0.0117
 6926SOL    HW232412   2.535   2.881   3.617 -0.1380  0.4836  0.7008
 6927SOL     OW32413   1.793   3.649   4.833 -0.0800  0.3673 -0.1920
 6927SOL    HW132414   1.882   3.631   4.804  0.1542 -0.1558  0.8556
 6927SOL    HW232415   1.800   3.737   4.870  2.7014  1.4002 -3.1294
 6928SOL     OW32416   2.223   2.470   1.839  0.6069  0.0442  0.7149
 6928SOL    HW132417   2.279   2.412   1.789 -1.0714 -2.3317  1.5940
 6928SOL    HW232418   2.137   2.435   1.816  0.0793  1.8373 -0.0360
 6929SOL     OW32419   1.275   4.290   7.790  0.1117  0.1927 -0.6062
 6929SOL    HW132420   1.214   4.295   7.716 -0.2895 -1.6070 -0.4043
 6929SOL    HW232421   1.354   4.339   7.766 -1.1611  3.3482  1.6043
 6930SOL     OW32422   2.549   4.251   5.867 -0.4449  0.1232  0.4916
 6930SOL    HW132423   2.618   4.193   5.899 -0.9328 -0.4357  0.5302
 6930SOL    HW232424   2.580   4.315   5.803 -0.6106  0.5078  0.7964
 6931SOL     OW32425   4.267   1.158   8.965 -0.0454 -0.2409  0.1998
 6931SOL    HW132426   4.325   1.201   9.027 -0.4203 -1.5972  1.4881
 6931SOL    HW232427   4.274   1.067   8.996 -0.6627 -0.1829  0.5075
 6932SOL     OW32428   2.390   2.311  16.265  0.6990  0.2168 -0.6419
 6932SOL    HW132429   2.363   2.269  16.184  1.2988  0.0231 -0.7369
 6932SOL    HW232430   2.366   2.403  16.255 -0.8180  0.0312  1.1371
 6933SOL     OW32431   1.246   4.414   5.622 -0.1452 -0.6929  0.1870
 6933SOL    HW132432   1.197   4.341   5.659  0.6998 -1.4261 -0.1375
 6933SOL    HW232433   1.198   4.434   5.542 -1.6788  0.6168  1.4237
 6934SOL     OW32434   3.405   0.292   0.289  0.6202  0.2489  0.0126
 6934SOL    HW132435   3.421   0.373   0.240  3.4034  0.0971  0.6537
 6934SOL    HW232436   3.322   0.307   0.334 -0.0985 -2.5902 -0.3786
 6935SOL     OW32437   4.573   1.619   8.750  0.4496 -0.2118  0.4917
 6935SOL    HW132438   4.595   1.597   8.659 -1.7213 -0.6994  0.0768
 6935SOL    HW232439   4.582   1.532   8.790 -1.4963  0.2449  1.9182
 6936SOL     OW32440   3.953   3.496   6.257  0.4932  0.0218 -0.0850
 6936SOL    HW132441   3.943   3.515   6.164 -1.3431 -1.3146 -0.1549
 6936SOL    HW232442   3.875   3.530   6.300  0.1994 -2.3903  1.2491
 6937SOL     OW32443   3.397   4.333   9.080  0.1178  0.1630 -0.0591
 6937SOL    HW132444   3.351   4.305   9.160  0.1394 -0.2608 -0.1972
 6937SOL    HW232445   3.337   4.310   9.009 -1.1620  1.5711  0.5692
 6938SOL     OW32446   0.053   1.265   9.434  0.0929  0.3391 -0.1505
 6938SOL    HW132447   0.106   1.288   9.510 -0.6012  2.0093 -0.1742
 6938SOL    HW232448   4.718   1.319   9.463 -0.4524 -0.6040  0.2397
 6939SOL     OW32449   2.434   3.097   4.083 -0.1405 -0.1598  0.3027
 6939SOL    HW132450   2.500   3.162   4.057  1.2597 -0.6609  2.5618
 6939SOL    HW232451   2.356   3.152   4.079 -0.6985 -0.9858 -0.1760
 6940SOL     OW32452   1.870   0.750   9.218 -0.4578 -0.3937  0.5768
 6940SOL    HW132453   1.940   0.725   9.157 -1.1266 -1.4130  0.2318
 6940SOL    HW232454   1.917   0.724   9.297  2.2401  0.7895 -0.6284
 6941SOL     OW32455   0.723   0.223  15.861  0.7544  0.8541 -0.1685
 6941SOL    HW132456   0.754   0.249  15.774  1.6337  1.2239  0.2551
 6941SOL    HW232457   0.636   0.261  15.865  0.4766  0.0752  1.4138
 6942SOL     OW32458   1.198   3.163   0.447 -0.1937  0.1707  0.2227
 6942SOL    HW132459   1.127   3.185   0.507 -0.8358 -3.5769  0.8560
 6942SOL    HW232460   1.243   3.243   0.421 -0.8155  0.3771 -0.2232
 6943SOL     OW32461   3.204   3.529   8.640  0.0799  0.3398 -0.2517
 6943SOL    HW132462   3.117   3.519   8.679 -1.2269  1.5153 -2.8789
 6943SOL    HW232463   3.243   3.580   8.711 -0.5366 -2.6231  2.2405
 6944SOL     OW32464   4.286   2.060   9.130 -0.1027  0.1561  0.2878
 6944SOL    HW132465   4.256   2.094   9.214  1.6078  2.4433 -0.0237
 6944SOL    HW232466   4.333   2.138   9.102  0.6486 -1.0621 -1.8492
 6945SOL     OW32467   4.566   2.331   2.161  0.0506 -0.0508 -0.3230
 6945SOL    HW132468   4.523   2.332   2.075 -0.7959 -2.1141  0.0790
 6945SOL    HW232469   4.544   2.241   2.185  0.8549  0.3073  1.7069
 6946SOL     OW32470   2.413   2.662  15.823  0.0525  0.2189  0.3306
 6946SOL    HW132471   2.507   2.676  15.813 -0.0899 -0.1827 -1.4909
 6946SOL    HW232472   2.389   2.623  15.739 -2.6988  0.2245  1.1105
 6947SOL     OW32473   2.424   3.133   3.344 -0.3041 -0.2707  0.1839
 6947SOL    HW132474   2.358   3.201   3.339  0.5622  0.4627 -1.2713
 6947SOL    HW232475   2.445   3.121   3.437 -0.5739  1.1768  0.4285
 6948SOL     OW32476   3.727   2.460  10.872  0.0805  0.4220 -0.7966
 6948SOL    HW132477   3.742   2.366  10.866 -1.1259  0.1130  0.8570
 6948SOL    HW232478   3.634   2.457  10.851  0.3563 -1.4132 -1.7307
 6949SOL     OW32479   2.842   2.521   3.720 -0.1175  0.1381  0.2807
 6949SOL    HW132480   2.758   2.554   3.754  0.1462  0.1097  0.9637
 6949SOL    HW232481   2.838   2.548   3.629  0.4144 -3.1996 -0.7217
 6950SOL     OW32482   2.426   3.321   6.038  0.0213 -0.1920 -0.5095
 6950SOL    HW132483   2.494   3.387   6.026  1.0447 -1.2945 -0.7648
 6950SOL    HW232484   2.469   3.245   5.999  1.9983  0.2498  0.7998
 6951SOL     OW32485   3.279   2.152   4.273  0.5574 -0.0741 -0.1056
 6951SOL    HW132486   3.349   2.190   4.219  0.4291 -0.3083 -0.4361
 6951SOL    HW232487   3.220   2.227   4.267 -0.2877 -0.6277  1.2956
 6952SOL     OW32488   1.990   3.717  12.227 -0.6501 -0.4444  0.1574
 6952SOL    HW132489   1.912   3.719  12.170 -0.8565  1.3496  0.5151
 6952SOL    HW232490   2.039   3.788  12.186 -1.6133 -0.1792 -0.5367
 6953SOL     OW32491   0.214   3.536  12.075 -0.1269 -0.4683 -0.7510
 6953SOL    HW132492   0.154   3.608  12.094  1.1857 -0.2215  2.5342
 6953SOL    HW232493   0.293   3.563  12.122 -0.0721  2.3312 -2.5079
 6954SOL     OW32494   3.486   3.836  16.408  0.1401 -0.0817 -0.1540
 6954SOL    HW132495   3.551   3.888  16.456  0.4502 -0.4231 -0.2040
 6954SOL    HW232496   3.500   3.856  16.315 -2.7628  2.0622 -0.1490
 6955SOL     OW32497   3.633   2.835   0.355  0.4785  0.2076 -0.5129
 6955SOL    HW132498   3.659   2.924   0.332 -1.1676  1.1979  1.4865
 6955SOL    HW232499   3.584   2.843   0.437 -0.0714  0.5498 -0.8765
 6956SOL     OW32500   1.066   1.551   2.520  0.1679 -0.5625  0.0909
 6956SOL    HW132501   1.054   1.531   2.427  3.6780 -1.1451 -0.2358
 6956SOL    HW232502   1.149   1.598   2.511  0.7355 -1.6035 -0.0729
 6957SOL     OW32503   0.297   4.547   5.350 -0.0173 -0.4093 -0.1866
 6957SOL    HW132504   0.345   4.474   5.390  0.4472  0.3592  0.6455
 6957SOL    HW232505   0.232   4.489   5.310  0.3669 -0.3471 -0.9018
 6958SOL     OW32506   1.165   3.916   8.192 -0.6415 -1.2342 -0.4124
 6958SOL    HW132507   1.123   3.830   8.186 -0.9978 -1.1283  0.4240
 6958SOL    HW232508   1.129   3.973   8.123  0.7526  0.9188  0.6220
 6959SOL     OW32509   2.835   2.861   2.456 -0.1713 -0.2508 -0.1251
 6959SOL    HW132510   2.751   2.906   2.454  0.3629  0.6320 -2.5745
 6959SOL    HW232511   2.848   2.850   2.362  0.2818  1.3682 -0.2522
 6960SOL     OW32512   3.073   2.973   1.330  0.1026 -0.2084  0.2683
 6960SOL    HW132513   3.131   2.906   1.293  0.5520  0.6239 -0.5332
 6960SOL    HW232514   2.985   2.935   1.330 -0.2945  0.7155 -1.3972
 6961SOL     OW32515   1.119   1.848  15.721  0.0380 -0.2449  0.1449
 6961SOL    HW132516   1.097   1.915  15.785 -1.1236  0.3716 -0.9040
 6961SOL    HW232517   1.175   1.895  15.658 -1.5294  1.4083 -0.0057
 6962SOL     OW32518   4.176   1.296   7.825 -0.1416 -0.0700 -0.5184
 6962SOL    HW132519   4.155   1.219   7.772 -0.4041 -1.0089  0.9647
 6962SOL    HW232520   4.250   1.341   7.785  0.4686  0.2541  0.9670
 6963SOL     OW32521   4.164   2.873   4.653 -0.1649  0.0871  0.5352
 6963SOL    HW132522   4.140   2.786   4.620  0.3001  0.5141 -0.9315
 6963SOL    HW232523   4.246   2.889   4.606  1.0508 -0.5992  2.4215
 6964SOL     OW32524   2.560   0.161   2.370  0.6795 -0.0046 -0.1384
 6964SOL    HW132525   2.499   0.234   2.379  1.1965  0.2441  1.3003
 6964SOL    HW232526   2.627   0.202   2.316  2.4578 -0.9226  1.4104
 6965SOL     OW32527   1.635   4.431  13.420 -0.2721  0.0285  0.3158
 6965SOL    HW132528   1.637   4.500  13.486 -1.3325  0.4475 -0.0732
 6965SOL    HW232529   1.702   4.367  13.443  1.7579  1.2808 -2.1787
 6966SOL     OW32530   2.262   3.316   1.290  0.3908  0.3714  0.1281
 6966SOL    HW132531   2.209   3.379   1.241  1.2707  1.2331  0.2869
 6966SOL    HW232532   2.254   3.343   1.382 -2.7435 -0.1584  0.0298
 6967SOL     OW32533   3.578   0.387   4.490  0.3172  0.0098 -0.7144
 6967SOL    HW132534   3.592   0.418   4.400  2.5225 -2.8810 -1.3842
 6967SOL    HW232535   3.615   0.458   4.543  0.0342  0.5266 -1.2054
 6968SOL     OW32536   0.674   2.394   9.425 -0.3913 -0.0225  0.0620
 6968SOL    HW132537   0.700   2.439   9.346  0.5383 -0.6657  0.0026
 6968SOL    HW232538   0.694   2.305   9.395  1.4867  0.7121 -0.8808
 6969SOL     OW32539   1.921   2.011   9.387 -0.1386  0.0363  0.1001
 6969SOL    HW132540   1.962   2.094   9.412  3.1250 -2.1528  1.9694
 6969SOL    HW232541   1.926   1.951   9.461  0.4850 -0.9238 -0.7333
 6970SOL     OW32542   4.054   0.946   5.414  0.7408  0.5731  0.5721
 6970SOL    HW132543   4.129   0.985   5.368  0.8012 -1.2073 -0.8196
 6970SOL    HW232544   3.980   0.994   5.377  1.6796  2.8558  1.5834
 6971SOL     OW32545   2.280   2.326   7.773 -0.0270  0.1005  0.2915
 6971SOL    HW132546   2.202   2.300   7.822 -0.8507  2.1975  0.0645
 6971SOL    HW232547   2.334   2.358   7.845  2.0049 -1.1541 -0.6656
 6972SOL     OW32548   3.390   2.728   0.285  0.1589 -0.4801 -0.0073
 6972SOL    HW132549   3.346   2.798   0.237 -0.1637  0.7957  2.1629
 6972SOL    HW232550   3.479   2.761   0.275 -0.3194  0.0637 -2.5977
 6973SOL     OW32551   2.410   0.840   1.618  0.5251  0.4583  0.1201
 6973SOL    HW132552   2.317   0.823   1.630  0.4876  0.1687 -0.5881
 6973SOL    HW232553   2.400   0.905   1.549 -3.1934 -1.3351 -1.0189
 6974SOL     OW32554   3.340   2.442   2.478  0.3687 -1.0880 -0.0969
 6974SOL    HW132555   3.428   2.428   2.443  0.1431  1.8791 -1.8568
 6974SOL    HW232556   3.338   2.537   2.468 -2.6613 -1.2843 -1.4674
 6975SOL     OW32557   0.548   2.507  11.502 -0.0431  0.0773 -0.1503
 6975SOL    HW132558   0.608   2.492  11.429  0.9179  0.6617  0.5137
 6975SOL    HW232559   0.601   2.572  11.548 -1.6959  0.5513  1.0883
 6976SOL     OW32560   2.423   1.143   8.649 -0.5675 -0.0321  0.3269
 6976SOL    HW132561   2.431   1.137   8.554  2.2335 -1.7500  0.6699
 6976SOL    HW232562   2.385   1.229   8.668 -1.8493 -1.0623  2.3123
 6977SOL     OW32563   1.630   1.026   2.997  0.7542  0.3312 -0.5134
 6977SOL    HW132564   1.619   1.117   2.969  1.7500  0.4867 -0.4208
 6977SOL    HW232565   1.545   1.016   3.038  0.4852 -1.4097 -1.5239
 6978SOL     OW32566   1.851   4.730   5.393 -0.5182  0.8320  0.7306
 6978SOL    HW132567   1.790   0.004   5.466 -1.0370 -1.2780  0.6327
 6978SOL    HW232568   1.853   4.635   5.386 -0.3389  0.8622  0.3674
 6979SOL     OW32569   0.397   0.912  10.397 -0.4433 -0.2876  0.4552
 6979SOL    HW132570   0.438   0.979  10.343 -0.6280 -1.3261 -0.9767
 6979SOL    HW232571   0.467   0.866  10.443 -0.0959 -0.6219 -0.4175
 6980SOL     OW32572   2.804   1.668  10.911 -0.6259  0.2530 -0.7621
 6980SOL    HW132573   2.789   1.730  10.982 -1.2261 -0.6960 -0.0699
 6980SOL    HW232574   2.778   1.591  10.961  1.6618  0.0909  0.1929
 6981SOL     OW32575   1.060   1.794   7.330  0.2364  0.2500 -0.0123
 6981SOL    HW132576   1.035   1.754   7.414 -0.8959 -0.0690 -0.4997
 6981SOL    HW232577   1.133   1.737   7.305 -0.8851 -0.4237 -1.7872
 6982SOL     OW32578   1.386   2.120  12.144 -0.0640  0.0802 -0.2846
 6982SOL    HW132579   1.330   2.106  12.068  0.6681 -0.4504 -0.7301
 6982SOL    HW232580   1.457   2.063  12.115 -0.1091  1.4349 -3.0708
 6983SOL     OW32581   2.922   3.574   8.343  0.3976 -0.3300 -0.1065
 6983SOL    HW132582   2.911   3.563   8.437 -0.0824 -2.2419 -0.3858
 6983SOL    HW232583   2.882   3.660   8.332 -1.3768 -0.9670  1.3945
 6984SOL     OW32584   1.804   4.168   4.205 -0.1775  0.2330  0.9161
 6984SOL    HW132585   1.777   4.230   4.138 -0.2475 -0.6910  0.0902
 6984SOL    HW232586   1.745   4.189   4.278 -0.7428  0.2359  0.4657
 6985SOL     OW32587   1.735   0.565   3.851 -0.3070  0.3443  0.7121
 6985SOL    HW132588   1.772   0.616   3.923  2.1628 -2.2770  1.2993
 6985SOL    HW232589   1.675   0.515   3.907 -1.1131  0.8231  0.2815
 6986SOL     OW32590   3.689   2.891  13.218 -0.1955  0.2811  0.0493
 6986SOL    HW132591   3.629   2.926  13.284 -0.2177 -0.3629  0.3715
 6986SOL    HW232592   3.769   2.876  13.269 -0.8021  0.8348  1.1670
 6987SOL     OW32593   0.829   3.228   2.405  0.5529 -0.8333 -0.1761
 6987SOL    HW132594   0.834   3.150   2.461 -0.1359  0.8044  2.1706
 6987SOL    HW232595   0.808   3.292   2.472  0.5587  1.8120 -2.7195
 6988SOL     OW32596   2.357   3.783   5.891 -0.0458 -0.4772 -0.5106
 6988SOL    HW132597   2.370   3.691   5.914  2.9191  0.5013  1.7336
 6988SOL    HW232598   2.315   3.812   5.972 -1.6434 -2.5223 -0.6105
 6989SOL     OW32599   4.700   3.021  17.339  0.5985  0.8019  0.7643
 6989SOL    HW132600   4.639   3.079  17.385 -0.4600 -0.5136  0.9971
 6989SOL    HW232601   4.675   2.938  17.378  1.1618  0.4307  0.3369
 6990SOL     OW32602   2.809   2.789  14.122  0.1389 -0.0908 -0.6171
 6990SOL    HW132603   2.779   2.871  14.082 -1.1449 -0.0613  0.3800
 6990SOL    HW232604   2.828   2.818  14.211 -0.9371 -0.0356 -0.4003
 6991SOL     OW32605   4.358   1.427   8.294 -0.2008  0.3372 -0.4859
 6991SOL    HW132606   4.268   1.432   8.326  0.9854 -0.2334  2.9925
 6991SOL    HW232607   4.356   1.395   8.204  1.4159  2.1835 -1.1921
 6992SOL     OW32608   2.950   2.505  14.120 -0.0598  0.1149 -0.7077
 6992SOL    HW132609   2.922   2.533  14.208 -1.2303  0.4320 -1.1754
 6992SOL    HW232610   2.950   2.584  14.067  1.1714  0.2113 -0.5459
 6993SOL     OW32611   0.905   2.297   2.644 -0.1717 -0.1819  0.0787
 6993SOL    HW132612   0.911   2.304   2.549 -0.1317 -0.6642  0.0408
 6993SOL    HW232613   0.958   2.219   2.663 -0.5665 -0.6580 -0.7734
 6994SOL     OW32614   0.307   4.424   4.556  0.2341 -0.5359 -0.0134
 6994SOL    HW132615   0.302   4.514   4.590 -2.7570 -1.1180  1.0354
 6994SOL    HW232616   0.313   4.460   4.467 -1.0202 -3.2436 -1.1816
 6995SOL     OW32617   0.440   2.707  11.145 -0.6888  0.5581 -0.0657
 6995SOL    HW132618   0.395   2.686  11.227 -1.2499 -0.0625 -0.5371
 6995SOL    HW232619   0.433   2.623  11.099 -1.2003  0.5526  0.0133
 6996SOL     OW32620   4.453   4.259  17.653  0.0176 -0.3574 -0.0617
 6996SOL    HW132621   4.479   4.248  17.561  1.7108 -0.1523  0.4072
 6996SOL    HW232622   4.512   4.203  17.703  0.4497 -0.5171 -0.7522
 6997SOL     OW32623   1.189   4.638   5.920 -0.3362  0.1450 -0.0569
 6997SOL    HW132624   1.136   4.716   5.934  0.1235  0.3056  0.7836
 6997SOL    HW232625   1.246   4.676   5.853  2.3859 -0.4180  1.9373
 6998SOL     OW32626   3.478   1.163   3.181 -0.3579 -0.5320  0.4067
 6998SOL    HW132627   3.567   1.198   3.183 -0.7791  0.5891 -1.1847
 6998SOL    HW232628   3.440   1.202   3.103 -1.1593 -1.9202  0.0926
 6999SOL     OW32629   3.790   1.881   2.103  0.3799  0.8664 -0.1408
 6999SOL    HW132630   3.762   1.850   2.189 -0.3767  0.2053 -0.6233
 6999SOL    HW232631   3.725   1.838   2.047  0.7729  0.0323  0.0312
 7000SOL     OW32632   2.910   4.638  14.821 -0.4081  0.2637 -0.4344
 7000SOL    HW132633   3.003   4.627  14.802 -0.2623 -0.8944  1.0342
 7000SOL    HW232634   2.884   4.550  14.846  0.7673  0.1793  0.4850
 7001SOL     OW32635   2.462   4.330  17.350 -0.5092  0.1074 -0.5775
 7001SOL    HW132636   2.554   4.354  17.335 -0.2921 -1.3718 -1.6614
 7001SOL    HW232637   2.441   4.398  17.413 -0.7735  0.6874 -1.3008
 7002SOL     OW32638   3.738   2.900   6.242 -0.2003  0.0074 -0.2410
 7002SOL    HW132639   3.763   2.808   6.236 -1.4803 -0.1764 -2.7147
 7002SOL    HW232640   3.721   2.900   6.336  3.6549  0.8765  0.4514
 7003SOL     OW32641   3.631   0.270   8.514 -0.7655  0.0416 -0.2971
 7003SOL    HW132642   3.598   0.360   8.521  1.0708  0.7074 -0.2135
 7003SOL    HW232643   3.692   0.289   8.443 -0.4654 -0.4456 -0.1691
 7004SOL     OW32644   2.422   4.628   5.356 -0.6394 -0.3016  0.1048
 7004SOL    HW132645   2.328   4.635   5.339 -0.7577 -0.0029  0.8910
 7004SOL    HW232646   2.460   4.627   5.267  0.2030 -0.1118  0.4588
 7005SOL     OW32647   4.203   1.790   4.054  0.3365  0.5922  0.7367
 7005SOL    HW132648   4.289   1.787   4.011 -0.1716  0.1000 -0.2470
 7005SOL    HW232649   4.211   1.884   4.072 -0.9471  0.6352  1.0321
 7006SOL     OW32650   3.688   2.019  12.853 -0.2133 -0.1965  0.4026
 7006SOL    HW132651   3.645   1.937  12.877 -0.8414 -0.5944 -2.0164
 7006SOL    HW232652   3.682   2.011  12.758 -0.8304 -0.7018  0.4821
 7007SOL     OW32653   3.793   0.105   1.223  0.2270  0.2127  0.2015
 7007SOL    HW132654   3.780   0.010   1.224 -0.7019  0.3400  0.0260
 7007SOL    HW232655   3.865   0.114   1.160  0.0284  1.7920  0.2046
 7008SOL     OW32656   4.125   3.547  13.240  0.2048  1.0150 -0.2423
 7008SOL    HW132657   4.118   3.530  13.146 -1.4222  2.0928 -0.3216
 7008SOL    HW232658   4.067   3.479  13.275  0.5928  0.7069 -0.1970
 7009SOL     OW32659   2.692   2.361   6.684  0.0407 -0.1887 -0.9028
 7009SOL    HW132660   2.599   2.343   6.691 -0.1562  1.2885  0.3475
 7009SOL    HW232661   2.727   2.302   6.751 -1.9048  0.7303  0.8909
 7010SOL     OW32662   1.115   2.712  13.457 -0.9681 -0.1832  0.1775
 7010SOL    HW132663   1.090   2.804  13.468 -1.9839 -0.3836 -0.4296
 7010SOL    HW232664   1.193   2.708  13.512 -1.7942 -1.0274  1.2678
 7011SOL     OW32665   1.927   1.186   1.878  0.1621 -0.1237  0.0074
 7011SOL    HW132666   1.957   1.214   1.792  0.9586  0.1962  0.3914
 7011SOL    HW232667   1.948   1.266   1.927 -1.2113  0.0121  0.3782
 7012SOL     OW32668   2.548   4.128  17.086  0.0192 -0.0960  0.3897
 7012SOL    HW132669   2.606   4.052  17.089  0.8749  0.5092 -0.2481
 7012SOL    HW232670   2.599   4.183  17.146 -2.5392  1.8540  0.7608
 7013SOL     OW32671   4.181   4.069  16.779 -0.4246  0.2996  0.0926
 7013SOL    HW132672   4.134   4.033  16.854 -0.5695  1.1206  0.3923
 7013SOL    HW232673   4.152   4.001  16.718 -1.4828  0.2549  0.6412
 7014SOL     OW32674   2.421   3.712   6.200 -0.1503  0.5202 -0.0459
 7014SOL    HW132675   2.490   3.757   6.152  1.2413 -0.1425  1.3057
 7014SOL    HW232676   2.463   3.632   6.233 -2.2412 -1.0833 -1.2646
 7015SOL     OW32677   0.129   1.700   6.600 -0.0100 -0.6919  0.1254
 7015SOL    HW132678   0.149   1.617   6.557 -0.3958 -0.6462 -0.1427
 7015SOL    HW232679   0.034   1.708   6.588  0.4547  3.1308 -1.1104
 7016SOL     OW32680   2.678   3.636   9.055 -0.0600  0.1152  0.1149
 7016SOL    HW132681   2.730   3.674   9.125 -0.6841  0.5223  0.3574
 7016SOL    HW232682   2.592   3.626   9.096 -0.8471  0.3706 -1.4580
 7017SOL     OW32683   2.106   2.400  11.818  0.0874 -0.2028  0.2091
 7017SOL    HW132684   2.196   2.380  11.790  0.1689  0.5513 -0.0693
 7017SOL    HW232685   2.055   2.321  11.803 -0.7073  0.5438 -1.0643
 7018SOL     OW32686   0.884   4.382   8.111  0.2397  0.1345  0.1589
 7018SOL    HW132687   0.964   4.423   8.080 -0.9823  1.0839 -1.7731
 7018SOL    HW232688   0.870   4.318   8.041  1.0866 -2.1274  2.0628
 7019SOL     OW32689   1.671   2.578   0.058 -0.0671  0.1309  0.0969
 7019SOL    HW132690   1.587   2.609   0.022 -0.8392 -3.0911 -0.8868
 7019SOL    HW232691   1.637   2.547   0.142  1.3845 -3.3465 -0.5891
 7020SOL     OW32692   4.052   0.057  12.936  0.3822 -0.1790  0.0799
 7020SOL    HW132693   4.075   4.711  12.896 -0.5240  0.2261 -1.3045
 7020SOL    HW232694   3.960   0.035  12.950  0.0608  0.1002 -1.5518
 7021SOL     OW32695   3.920   0.308   4.039 -0.1315 -0.4129 -0.8706
 7021SOL    HW132696   3.975   0.384   4.019  2.0442 -1.9608 -0.7433
 7021SOL    HW232697   3.975   0.273   4.109  0.1553  0.1503 -0.8151
 7022SOL     OW32698   1.092   4.716   1.571 -0.7149  0.0481 -0.2126
 7022SOL    HW132699   1.171   4.681   1.531  0.1206  3.5473 -1.6674
 7022SOL    HW232700   1.031   4.708   1.497 -1.0676  0.7771 -0.0089
 7023SOL     OW32701   0.982   3.587   0.087 -0.0812 -0.3233  0.4360
 7023SOL    HW132702   0.933   3.539   0.020  0.8729 -1.2493  0.4004
 7023SOL    HW232703   0.960   3.541   0.168  2.3134  0.4394  1.5026
 7024SOL     OW32704   2.664   1.336   3.483  0.5549  0.2530  0.6492
 7024SOL    HW132705   2.670   1.266   3.418  0.5675  1.6479 -0.8366
 7024SOL    HW232706   2.583   1.308   3.525 -0.4553  1.1554 -0.7218
 7025SOL     OW32707   1.442   1.811   7.445 -0.1538  0.1638  0.7356
 7025SOL    HW132708   1.393   1.741   7.403  1.0030 -0.4034  0.3537
 7025SOL    HW232709   1.408   1.897   7.419 -0.1629 -0.1433 -0.2683
 7026SOL     OW32710   4.026   1.777   7.047 -0.3239  0.0718 -0.6585
 7026SOL    HW132711   4.008   1.796   6.955 -3.0729  1.3552  0.1515
 7026SOL    HW232712   4.063   1.863   7.066  0.4164 -0.4085  0.0766
 7027SOL     OW32713   4.343   2.071  15.919 -0.0739 -0.2493  0.8136
 7027SOL    HW132714   4.433   2.102  15.916 -0.1630 -0.1467 -0.7969
 7027SOL    HW232715   4.345   2.013  15.843  1.5290  2.0953 -0.9264
 7028SOL     OW32716   3.956   2.367  10.501  0.3037 -0.0259  0.3251
 7028SOL    HW132717   3.943   2.458  10.475  0.5591  0.5919  2.3687
 7028SOL    HW232718   4.042   2.365  10.542 -0.6911 -2.1593  2.3625
 7029SOL     OW32719   1.559   0.679   2.113 -0.3600  0.3715 -0.2950
 7029SOL    HW132720   1.507   0.619   2.059 -0.0308 -1.2744  1.2164
 7029SOL    HW232721   1.640   0.682   2.062  0.9250  0.7774  1.8030
 7030SOL     OW32722   2.955   3.904   9.119  0.0808  0.0279 -0.0323
 7030SOL    HW132723   2.913   3.955   9.049 -0.4902  2.2006  1.8861
 7030SOL    HW232724   3.038   3.890   9.073  0.2193  0.7480  0.0004
 7031SOL     OW32725   1.191   3.660   7.322 -0.0988  0.8795 -0.1578
 7031SOL    HW132726   1.192   3.578   7.371  0.0241  1.7619  1.3242
 7031SOL    HW232727   1.104   3.656   7.282  0.5500 -2.7485 -1.2189
 7032SOL     OW32728   1.514   3.853   6.721 -0.9573 -0.6189  0.5890
 7032SOL    HW132729   1.498   3.925   6.782 -0.9401 -1.6921  1.8740
 7032SOL    HW232730   1.572   3.890   6.654 -0.4872 -1.1884  0.6790
 7033SOL     OW32731   2.437   3.230  10.225  0.1975 -0.0060 -0.0488
 7033SOL    HW132732   2.446   3.179  10.145 -0.7427 -1.8280  1.0145
 7033SOL    HW232733   2.522   3.248  10.265 -0.0307 -3.7217  2.0817
 7034SOL     OW32734   1.007   4.151  13.344 -0.8864  0.4785  0.4819
 7034SOL    HW132735   1.051   4.076  13.385  1.6332  0.6463 -1.9174
 7034SOL    HW232736   1.088   4.195  13.317 -0.6704  0.0547  0.4363
 7035SOL     OW32737   3.469   2.225  11.396 -0.4646  0.0431 -0.5683
 7035SOL    HW132738   3.462   2.321  11.395 -0.1116  0.0898  1.2868
 7035SOL    HW232739   3.542   2.209  11.456 -1.3278 -0.4516  0.3448
 7036SOL     OW32740   3.584   3.611  14.490 -0.0090  0.3052 -0.1614
 7036SOL    HW132741   3.564   3.553  14.417 -0.9328  0.8799 -0.3670
 7036SOL    HW232742   3.533   3.685  14.456  1.5698  2.1467  1.4742
 7037SOL     OW32743   2.395   0.793   7.606 -0.0019 -0.5024  0.0646
 7037SOL    HW132744   2.476   0.817   7.651 -0.2189 -1.5151  0.9812
 7037SOL    HW232745   2.435   0.748   7.531 -0.9962 -1.5970  0.1987
 7038SOL     OW32746   0.865   2.318   6.775  0.4446  0.4499  0.3469
 7038SOL    HW132747   0.884   2.412   6.780 -0.4753  0.6167  0.6531
 7038SOL    HW232748   0.938   2.277   6.822 -0.5182 -1.6565 -0.0095
 7039SOL     OW32749   0.484   2.543   6.606 -0.2622  0.3257 -0.3690
 7039SOL    HW132750   0.480   2.635   6.633 -0.0608  0.1557  0.2467
 7039SOL    HW232751   0.396   2.515   6.630 -1.0511  1.9045 -1.4323
 7040SOL     OW32752   2.838   4.558   9.043 -0.7794  0.8428 -0.3919
 7040SOL    HW132753   2.870   4.605   8.966  0.2135  0.2270 -0.3553
 7040SOL    HW232754   2.856   4.464   9.029 -3.0227  0.5484 -1.3387
 7041SOL     OW32755   0.225   1.151  12.273 -0.1267 -0.0991  0.2287
 7041SOL    HW132756   0.286   1.102  12.329 -0.7900 -0.8521  0.2933
 7041SOL    HW232757   0.136   1.134  12.303  0.4796 -2.0481  0.9039
 7042SOL     OW32758   0.323   4.023   2.704 -0.1441  0.2423  0.2059
 7042SOL    HW132759   0.322   4.020   2.800 -0.6835 -0.4608  0.1722
 7042SOL    HW232760   0.337   4.112   2.672  0.3158  1.3110  3.3436
 7043SOL     OW32761   2.764   3.733  13.782  0.5089  0.0135  0.2231
 7043SOL    HW132762   2.695   3.757  13.720  0.8863 -0.3537 -0.3356
 7043SOL    HW232763   2.840   3.752  13.728  0.7118 -0.5060  0.3262
 7044SOL     OW32764   2.800   0.519   4.367  0.5213 -0.1214  0.3376
 7044SOL    HW132765   2.765   0.556   4.285 -0.2062 -1.8272 -0.1106
 7044SOL    HW232766   2.786   0.588   4.432  1.1911 -1.8124  2.2665
 7045SOL     OW32767   0.842   2.786   2.688  0.1200 -0.3923  0.1263
 7045SOL    HW132768   0.931   2.795   2.653  0.5323  1.3208  1.6409
 7045SOL    HW232769   0.851   2.700   2.728 -1.4357  0.0155  1.3608
 7046SOL     OW32770   0.361   3.344  17.680 -0.0462  0.5380 -0.4583
 7046SOL    HW132771   0.338   3.431  17.712 -0.7807  0.0862  0.2718
 7046SOL    HW232772   0.396   3.354  17.592 -0.0729  0.4762 -0.4759
 7047SOL     OW32773   0.377   2.461   9.134 -0.0927 -0.4153  0.0862
 7047SOL    HW132774   0.393   2.368   9.119 -0.0530 -0.6214  1.4302
 7047SOL    HW232775   0.428   2.505   9.066 -0.8429  1.3673  0.6536
 7048SOL     OW32776   2.694   3.421  10.640  0.6374 -0.0860 -0.2316
 7048SOL    HW132777   2.786   3.413  10.613  0.9854 -0.9774  1.2350
 7048SOL    HW232778   2.673   3.493  10.580 -1.1139 -0.7927 -0.4472
 7049SOL     OW32779   4.104   4.611   5.821  0.6277 -0.2748 -0.3154
 7049SOL    HW132780   4.133   4.520   5.811 -0.7633 -0.8077  0.5510
 7049SOL    HW232781   4.085   4.641   5.732  0.1913  1.7286  0.4561
 7050SOL     OW32782   1.654   0.421   6.936 -0.5154 -0.1098  0.1238
 7050SOL    HW132783   1.666   0.344   6.992 -0.8229 -0.3536 -0.1448
 7050SOL    HW232784   1.627   0.483   7.004  0.0371 -0.9237  1.0993
 7051SOL     OW32785   3.018   0.271   3.614  0.4351 -0.8869  1.1499
 7051SOL    HW132786   2.965   0.343   3.580 -2.1774 -3.2329  0.2558
 7051SOL    HW232787   2.996   0.258   3.706  2.1872  1.0099  1.8375
 7052SOL     OW32788   1.391   2.573   0.815 -0.0138 -0.5949  0.1108
 7052SOL    HW132789   1.484   2.554   0.802 -0.3933 -1.9155 -0.6485
 7052SOL    HW232790   1.358   2.486   0.793  2.6203 -1.7977  0.9016
 7053SOL     OW32791   1.284   2.091   5.435  0.2426 -0.5139  0.1515
 7053SOL    HW132792   1.368   2.126   5.466  1.2444 -0.8676 -2.1061
 7053SOL    HW232793   1.246   2.166   5.391  2.2173 -0.1781 -1.0174
 7054SOL     OW32794   4.418   3.088   5.403  0.6064 -0.4122  0.1537
 7054SOL    HW132795   4.462   3.093   5.488 -1.0552 -1.8285  1.1277
 7054SOL    HW232796   4.462   3.027   5.345  0.0704 -1.9521  1.3377
 7055SOL     OW32797   4.140   2.467   1.277  0.7472  0.0292  0.2167
 7055SOL    HW132798   4.212   2.529   1.295 -0.3465  1.0572  1.0589
 7055SOL    HW232799   4.195   2.402   1.233  0.5633  1.0581 -1.5077
 7056SOL     OW32800   1.311   1.723  11.906 -0.8113  0.3889 -0.0732
 7056SOL    HW132801   1.388   1.677  11.941 -0.6203 -0.4478 -1.5921
 7056SOL    HW232802   1.287   1.667  11.832 -0.4058  0.1203  0.0017
 7057SOL     OW32803   1.538   1.810   4.449  0.0479  0.2734  0.9886
 7057SOL    HW132804   1.529   1.871   4.521  2.8810  0.7667  0.8984
 7057SOL    HW232805   1.625   1.827   4.413  0.8488 -2.1583  1.8107
 7058SOL     OW32806   4.663   3.358   7.109 -0.1426 -0.6128  0.7101
 7058SOL    HW132807   4.619   3.272   7.110 -0.4829 -0.4507 -0.2856
 7058SOL    HW232808   4.588   3.412   7.084 -0.8020 -2.3650 -1.1177
 7059SOL     OW32809   2.030   3.394   1.755 -0.2768  0.5408 -0.2035
 7059SOL    HW132810   2.023   3.315   1.808  0.5676  0.5316 -0.1019
 7059SOL    HW232811   1.948   3.389   1.706  0.3695 -0.4640 -1.1822
 7060SOL     OW32812   4.368   0.335   5.043  0.0836 -0.0832 -0.3755
 7060SOL    HW132813   4.429   0.378   5.103 -1.1350  0.5438  0.4083
 7060SOL    HW232814   4.321   0.267   5.093 -0.7896  1.6190  1.1058
 7061SOL     OW32815   4.534   2.666   8.543 -0.1513  0.6201  1.1712
 7061SOL    HW132816   4.620   2.694   8.513 -1.0322  1.2963 -0.7453
 7061SOL    HW232817   4.545   2.656   8.638  1.8791  1.2128  0.9828
 7062SOL     OW32818   1.539   2.771   1.883 -0.3671 -0.5534 -0.6747
 7062SOL    HW132819   1.589   2.792   1.962  0.7827 -1.1630 -1.2421
 7062SOL    HW232820   1.546   2.675   1.884  2.2075 -0.3748 -1.4981
 7063SOL     OW32821   2.511   0.291   1.705 -0.4047 -0.4106  0.3030
 7063SOL    HW132822   2.562   0.333   1.636  1.6201  0.6051  2.4229
 7063SOL    HW232823   2.440   0.250   1.655  0.7923 -1.1904 -0.7477
 7064SOL     OW32824   3.632   1.112   3.795 -0.5780 -0.1955  0.0478
 7064SOL    HW132825   3.629   1.199   3.756 -0.8150  0.6610  1.9925
 7064SOL    HW232826   3.617   1.135   3.887  3.6132  2.6743  0.0123
 7065SOL     OW32827   1.145   4.248   4.272 -0.0813  0.2491 -0.3667
 7065SOL    HW132828   1.210   4.232   4.204  2.4155  1.1120  1.8438
 7065SOL    HW232829   1.130   4.157   4.300  1.0450  0.5168  1.1102
 7066SOL     OW32830   0.740   2.416   0.901  0.5768  0.2173  0.4138
 7066SOL    HW132831   0.691   2.427   0.982 -1.5897 -1.0817 -0.7135
 7066SOL    HW232832   0.665   2.419   0.841 -0.0040 -0.6397  1.0842
 7067SOL     OW32833   4.379   1.264  14.096  0.4250  0.3769  0.4739
 7067SOL    HW132834   4.347   1.231  14.012  3.8606 -0.3061 -0.5836
 7067SOL    HW232835   4.460   1.308  14.067 -2.1185  3.7955 -1.4338
 7068SOL     OW32836   0.533   4.029   3.908 -0.3523  0.0050  0.1928
 7068SOL    HW132837   0.520   3.937   3.888 -0.3432 -0.3391  1.7722
 7068SOL    HW232838   0.614   4.026   3.957 -0.1286  1.3893 -0.0810
 7069SOL     OW32839   0.782   4.275   1.854  0.0114 -0.4532  0.6054
 7069SOL    HW132840   0.748   4.335   1.920  0.7394  1.5019 -0.8002
 7069SOL    HW232841   0.700   4.243   1.815 -0.7867  1.6352  0.5848
 7070SOL     OW32842   4.707   2.704   2.089  0.4145  0.1172 -0.4926
 7070SOL    HW132843   4.633   2.644   2.104  0.5383 -0.0918 -0.7231
 7070SOL    HW232844   4.663   2.789   2.085  1.5601  0.8289  1.8113
 7071SOL     OW32845   3.883   3.210   6.703 -0.1809 -0.1524  0.3207
 7071SOL    HW132846   3.793   3.241   6.712 -0.4711 -0.9696  0.2295
 7071SOL    HW232847   3.893   3.216   6.608  1.1207  1.6101  0.5817
 7072SOL     OW32848   2.710   0.891  11.586 -0.3086  0.2393  0.6067
 7072SOL    HW132849   2.758   0.920  11.664  0.9821  0.7211 -0.3545
 7072SOL    HW232850   2.697   0.976  11.543  3.0068  0.7145  0.5441
 7073SOL     OW32851   3.110   4.389  12.012  0.1234  0.3696 -0.5735
 7073SOL    HW132852   3.055   4.392  12.090 -0.1606  2.2245 -0.8504
 7073SOL    HW232853   3.110   4.481  11.985  0.7640  0.6603  0.4261
 7074SOL     OW32854   1.355   3.429  14.048 -0.4241 -0.0372  0.2962
 7074SOL    HW132855   1.363   3.493  13.977 -0.4965 -1.4033 -0.9373
 7074SOL    HW232856   1.306   3.475  14.117  1.5257  2.0878  0.2701
 7075SOL     OW32857   0.582   0.433   5.788  0.3901  0.1072  0.2171
 7075SOL    HW132858   0.564   0.517   5.831  1.7775  0.6041 -0.1727
 7075SOL    HW232859   0.671   0.427   5.822  0.6557 -0.4599 -0.5888
 7076SOL     OW32860   0.359   1.203   5.119  0.6251  0.2030 -0.5046
 7076SOL    HW132861   0.400   1.197   5.033  1.2176 -0.0132 -0.2063
 7076SOL    HW232862   0.309   1.283   5.103 -1.4188 -1.2006 -1.0378
 7077SOL     OW32863   0.099   2.531   9.168 -0.3019  0.0227  0.7326
 7077SOL    HW132864   0.182   2.505   9.129  0.0178  2.6855 -0.3695
 7077SOL    HW232865   0.135   2.545   9.256  1.8246  2.5558 -0.5467
 7078SOL     OW32866   3.118   3.363   7.708 -0.5238 -0.1180  0.1285
 7078SOL    HW132867   3.188   3.341   7.770 -1.0189 -1.2356  0.2878
 7078SOL    HW232868   3.128   3.285   7.654  2.3947 -1.3254  2.3618
 7079SOL     OW32869   1.967   0.804  10.397 -0.2817 -0.3342 -0.6656
 7079SOL    HW132870   2.035   0.869  10.383  0.8634 -1.6639 -1.3194
 7079SOL    HW232871   2.015   0.723  10.381 -1.2676 -1.0057 -0.2393
 7080SOL     OW32872   2.094   2.510   7.673 -0.0940  0.1740  0.0758
 7080SOL    HW132873   2.005   2.475   7.668  0.6083 -1.9681  2.3635
 7080SOL    HW232874   2.150   2.433   7.663 -1.1417 -0.5329 -0.3332
 7081SOL     OW32875   3.585   4.404   5.961  0.2960 -0.2840 -0.1213
 7081SOL    HW132876   3.588   4.360   6.046 -1.9580  1.0844  0.6483
 7081SOL    HW232877   3.513   4.359   5.918 -1.3922  1.5659  0.7414
 7082SOL     OW32878   0.187   4.310  14.275  0.9163 -0.0939  0.0243
 7082SOL    HW132879   0.234   4.382  14.317 -1.0502  0.9409  0.4223
 7082SOL    HW232880   0.102   4.312  14.318  1.5710  0.4768  1.3034
 7083SOL     OW32881   1.478   3.920   6.271  0.8003  0.3977  0.1151
 7083SOL    HW132882   1.567   3.948   6.292  0.7756  1.4534 -1.2382
 7083SOL    HW232883   1.473   3.836   6.317 -0.5924  0.5310  0.2201
 7084SOL     OW32884   0.945   1.204  15.589  0.3517 -0.2775  0.1222
 7084SOL    HW132885   0.981   1.143  15.524 -1.0383 -0.9145 -0.0583
 7084SOL    HW232886   0.921   1.148  15.663 -0.6521  0.0808  0.0607
 7085SOL     OW32887   3.390   1.008   5.869  0.2349 -0.0263 -0.3927
 7085SOL    HW132888   3.411   1.021   5.777 -4.5365  0.9239 -1.3829
 7085SOL    HW232889   3.448   1.067   5.916 -0.5628  0.3528  0.1245
 7086SOL     OW32890   0.693   1.950   5.633 -0.6566  0.6819  0.2722
 7086SOL    HW132891   0.725   1.885   5.571  0.7810  0.9382  0.7436
 7086SOL    HW232892   0.709   2.037   5.595 -0.8190 -0.4857 -2.4900
 7087SOL     OW32893   1.966   2.415   0.739 -0.3465 -0.1446 -0.4202
 7087SOL    HW132894   1.969   2.510   0.733 -2.3696 -0.2186 -2.4940
 7087SOL    HW232895   1.927   2.387   0.822 -1.9710  0.0425 -1.1382
 7088SOL     OW32896   1.283   4.318  14.189  0.5399 -0.4792 -0.0383
 7088SOL    HW132897   1.241   4.355  14.111 -0.4137 -0.6520  0.3922
 7088SOL    HW232898   1.331   4.395  14.219 -1.0193  0.5745 -0.2477
 7089SOL     OW32899   1.541   0.628  10.394 -0.3361  0.3409  0.2234
 7089SOL    HW132900   1.576   0.646  10.307  0.3830 -0.3196  0.3771
 7089SOL    HW232901   1.610   0.577  10.436 -0.3919 -0.5922 -0.8050
 7090SOL     OW32902   0.649   3.020   1.095  0.8965  0.0223 -0.0204
 7090SOL    HW132903   0.737   3.053   1.082  0.8895 -0.3846 -1.0662
 7090SOL    HW232904   0.597   3.084   1.045  1.9725  1.2280  0.4085
 7091SOL     OW32905   3.052   4.229  11.606  0.1293 -0.2963 -0.1225
 7091SOL    HW132906   3.101   4.157  11.645  1.3574  1.3010  1.2381
 7091SOL    HW232907   2.965   4.212  11.642  0.7158 -1.5182  0.7241
 7092SOL     OW32908   1.207   3.319   7.125  0.6370 -0.1132 -0.1272
 7092SOL    HW132909   1.204   3.224   7.130 -1.7570  0.0182  1.1608
 7092SOL    HW232910   1.172   3.343   7.212  1.9963  0.4940  0.2437
 7093SOL     OW32911   1.041   2.662   5.182  0.1718  0.3192 -0.2758
 7093SOL    HW132912   1.030   2.570   5.204  1.9655  0.1506 -0.0904
 7093SOL    HW232913   1.114   2.680   5.241  0.3213  0.7362 -0.5789
 7094SOL     OW32914   0.461   0.661  17.671  0.0891  0.0537  0.6475
 7094SOL    HW132915   0.502   0.575  17.670  3.0700  1.4550  1.5021
 7094SOL    HW232916   0.432   0.664  17.580  2.6406  1.3025 -0.1321
 7095SOL     OW32917   3.357   1.960  16.555  0.1719  0.2683 -0.6933
 7095SOL    HW132918   3.282   2.018  16.570 -1.6853 -2.2927 -0.1815
 7095SOL    HW232919   3.320   1.882  16.515 -1.3485  0.7799 -0.2682
 7096SOL     OW32920   0.381   0.780   7.756  0.4388  0.3994 -0.4165
 7096SOL    HW132921   0.449   0.814   7.813 -1.1155 -1.0375  2.2987
 7096SOL    HW232922   0.423   0.698   7.729  3.4327  1.1626  2.0697
 7097SOL     OW32923   3.848   3.577  17.670 -0.1019 -0.6425 -0.0683
 7097SOL    HW132924   3.936   3.613  17.666  0.3246 -1.8642 -1.2601
 7097SOL    HW232925   3.863   3.485  17.693  0.4801 -0.4486  0.3349
 7098SOL     OW32926   4.119   3.606   8.238 -0.0767 -0.0303  0.0262
 7098SOL    HW132927   4.137   3.537   8.175  1.6826 -0.2557  0.7637
 7098SOL    HW232928   4.135   3.679   8.178 -0.1148 -0.8135 -0.9363
 7099SOL     OW32929   2.289   0.962  17.122  0.0786  0.1384 -0.0356
 7099SOL    HW132930   2.256   0.986  17.035 -0.7519  1.8573  0.7697
 7099SOL    HW232931   2.383   0.948  17.109  0.1581  0.2872  0.3670
 7100SOL     OW32932   1.391   0.995   5.668  0.6765 -0.0992  0.3213
 7100SOL    HW132933   1.418   1.038   5.587  0.7996  1.3633  1.1518
 7100SOL    HW232934   1.317   0.942   5.638  1.6512 -1.5860  0.5216
 7101SOL     OW32935   3.736   2.338  11.834  0.2866 -0.6218 -0.5081
 7101SOL    HW132936   3.684   2.407  11.793  1.5703  0.6786  0.0719
 7101SOL    HW232937   3.818   2.369  11.795  1.4158 -2.0076  0.7950
 7102SOL     OW32938   1.614   3.788   5.106 -0.1496 -0.0014 -0.2010
 7102SOL    HW132939   1.681   3.764   5.170  0.1017  0.3567 -0.3310
 7102SOL    HW232940   1.537   3.741   5.139 -0.3248 -0.2352 -0.9462
 7103SOL     OW32941   1.203   1.993  10.662 -0.3900 -0.3788  0.3695
 7103SOL    HW132942   1.186   2.086  10.650  0.1292 -0.4735 -1.0113
 7103SOL    HW232943   1.152   1.953  10.592  0.0428  0.2931 -0.3182
 7104SOL     OW32944   3.873   0.109   2.787 -0.3341 -0.6142 -0.4042
 7104SOL    HW132945   3.804   0.129   2.850  0.1564  2.0644 -0.7110
 7104SOL    HW232946   3.899   0.199   2.766 -0.9035  0.1180  2.0423
 7105SOL     OW32947   4.499   0.208   5.398  0.0429  0.6589 -0.7135
 7105SOL    HW132948   4.427   0.194   5.337 -0.9076 -0.5972  0.6946
 7105SOL    HW232949   4.495   0.127   5.449 -1.1240  0.7717 -0.6084
 7106SOL     OW32950   1.149   0.523   5.279 -0.1494  0.3367 -0.4234
 7106SOL    HW132951   1.141   0.478   5.195 -0.7449 -2.6083  1.2260
 7106SOL    HW232952   1.159   0.616   5.256  0.6902  0.6660  1.3237
 7107SOL     OW32953   3.161   4.468   6.805 -0.0452 -0.3994 -0.0019
 7107SOL    HW132954   3.076   4.426   6.790 -0.6437  1.6575 -2.1783
 7107SOL    HW232955   3.143   4.552   6.764 -2.0334 -1.9453 -2.2908
 7108SOL     OW32956   3.280   1.132   2.851  0.1049  0.6280  0.0725
 7108SOL    HW132957   3.306   1.045   2.881 -0.2781  1.2091  2.0820
 7108SOL    HW232958   3.365   1.177   2.854 -0.1404  1.1014 -0.1742
 7109SOL     OW32959   4.111   4.653   3.564  0.1446 -0.3700  0.0959
 7109SOL    HW132960   4.110   0.011   3.554 -1.0203 -0.0278  3.3772
 7109SOL    HW232961   4.202   4.634   3.589  0.7565 -1.9343 -3.4032
 7110SOL     OW32962   1.635   0.416   4.135  0.4831 -0.3091 -0.6106
 7110SOL    HW132963   1.656   0.449   4.223 -0.5734 -1.4865  0.0788
 7110SOL    HW232964   1.544   0.444   4.125  0.2055 -0.9123  0.2521
 7111SOL     OW32965   0.774   0.765   8.516  0.4043  0.9109 -0.2589
 7111SOL    HW132966   0.748   0.808   8.597  0.6827 -0.4327  0.5523
 7111SOL    HW232967   0.711   0.808   8.459 -0.9616  0.3599  0.8332
 7112SOL     OW32968   3.916   4.212   8.978 -0.0248  0.1518 -0.2452
 7112SOL    HW132969   3.836   4.264   8.989 -0.6308 -0.6655 -0.7125
 7112SOL    HW232970   3.869   4.128   8.967 -1.5822  0.8927  0.7181
 7113SOL     OW32971   3.651   3.332   6.089 -0.1845 -0.1514 -0.2488
 7113SOL    HW132972   3.714   3.297   6.152  2.7575  0.4891 -2.8537
 7113SOL    HW232973   3.572   3.317   6.141  0.5313  0.6233  1.0476
 7114SOL     OW32974   4.074   0.541  16.652 -0.0738  0.0250  0.3765
 7114SOL    HW132975   4.083   0.636  16.659  2.8393 -0.3551  1.7970
 7114SOL    HW232976   4.095   0.535  16.559 -1.1600 -0.7430  0.1828
 7115SOL     OW32977   2.283   2.196   3.585 -0.2676  0.3586  0.2515
 7115SOL    HW132978   2.310   2.165   3.499 -0.6652 -2.2349  1.0706
 7115SOL    HW232979   2.349   2.148   3.634  0.3259 -0.8868 -1.7896
 7116SOL     OW32980   3.930   2.821   2.503  0.6708  0.0204  0.4056
 7116SOL    HW132981   3.965   2.901   2.541 -3.1406  2.4167 -1.1095
 7116SOL    HW232982   3.986   2.810   2.426 -0.3177 -0.7883 -0.2106
 7117SOL     OW32983   2.942   2.181   5.271 -0.1904  0.2168  0.0379
 7117SOL    HW132984   2.937   2.086   5.267  1.2898  0.0925  1.2913
 7117SOL    HW232985   2.994   2.193   5.351 -0.5078  1.2864  0.0959
 7118SOL     OW32986   1.901   3.436   5.170 -0.0561  0.2980  0.1337
 7118SOL    HW132987   1.953   3.435   5.250 -0.4870  0.2789  0.4087
 7118SOL    HW232988   1.919   3.352   5.128  1.4342 -0.0809  1.5419
 7119SOL     OW32989   0.471   2.481   5.900  0.2453 -0.3151 -0.0458
 7119SOL    HW132990   0.496   2.404   5.848  3.5106  0.1594  0.8071
 7119SOL    HW232991   0.451   2.550   5.837 -1.8007  0.3821  1.4019
 7120SOL     OW32992   4.260   1.293   6.109 -0.7933  0.1118 -0.0747
 7120SOL    HW132993   4.173   1.298   6.149 -0.6887 -1.5224  0.3381
 7120SOL    HW232994   4.243   1.243   6.029  2.4434 -1.7230  0.4330
 7121SOL     OW32995   1.237   3.236   8.452  0.0373 -0.0291 -0.2960
 7121SOL    HW132996   1.286   3.178   8.510 -2.8621 -0.7325  1.4178
 7121SOL    HW232997   1.154   3.253   8.495 -0.4507  1.2296 -1.7386
 7122SOL     OW32998   4.204   2.394   2.348  0.1844  0.3397 -0.2273
 7122SOL    HW132999   4.185   2.442   2.267 -0.8473 -0.6624 -0.5787
 7122SOL    HW233000   4.280   2.442   2.382 -1.3783  1.0000  2.3094
 7123SOL     OW33001   1.044   3.057  12.193 -0.1857 -0.0387 -0.2588
 7123SOL    HW133002   1.034   3.017  12.107 -0.5139 -0.0184 -0.2319
 7123SOL    HW233003   0.981   3.005  12.243 -0.5588 -0.2028 -0.8969
 7124SOL     OW33004   1.856   4.175   1.324  0.2178  0.1048  0.1536
 7124SOL    HW133005   1.843   4.248   1.385 -0.2692 -0.3806  0.6264
 7124SOL    HW233006   1.915   4.119   1.375  0.1490 -1.3981 -1.4123
 7125SOL     OW33007   0.887   1.587   5.349  0.2073  0.3690 -0.2215
 7125SOL    HW133008   0.824   1.655   5.372  2.0402  1.1886  2.3145
 7125SOL    HW233009   0.966   1.608   5.399  0.8551 -1.0823 -0.6170
 7126SOL     OW33010   2.418   3.689   8.236  0.3473 -0.1627  0.3161
 7126SOL    HW133011   2.395   3.755   8.301  1.1929  0.5930 -0.1613
 7126SOL    HW233012   2.458   3.740   8.166 -0.8364 -0.0892 -0.3107
 7127SOL     OW33013   3.032   0.269   3.141 -0.4456  0.0822  0.5701
 7127SOL    HW133014   3.123   0.274   3.172 -0.1531  0.4643 -0.3331
 7127SOL    HW233015   3.004   0.360   3.152 -1.9903 -0.3042 -0.1748
 7128SOL     OW33016   1.190   3.228   2.553  0.0387 -0.1983 -0.0267
 7128SOL    HW133017   1.127   3.289   2.590 -1.9536 -0.4442 -3.0167
 7128SOL    HW233018   1.255   3.240   2.622 -0.4138  1.3968  0.1072
 7129SOL     OW33019   3.307   0.839   0.367  0.1117 -0.1223  0.0863
 7129SOL    HW133020   3.217   0.815   0.391 -0.9569  0.0526 -3.8092
 7129SOL    HW233021   3.318   0.925   0.406 -0.7809  1.0065 -2.1970
 7130SOL     OW33022   2.863   2.565  13.750 -0.1346  0.1005 -0.0679
 7130SOL    HW133023   2.800   2.634  13.768  0.7925  0.8268  0.3692
 7130SOL    HW233024   2.944   2.596  13.791  1.2363 -0.9547 -1.9584
 7131SOL     OW33025   3.611   3.761   3.584 -0.2365  0.6500 -0.1172
 7131SOL    HW133026   3.603   3.852   3.556  0.2867 -0.0690 -2.6338
 7131SOL    HW233027   3.585   3.775   3.675 -3.0111 -0.6190 -0.7049
 7132SOL     OW33028   0.441   3.389   4.681  0.8912 -0.1662  0.0312
 7132SOL    HW133029   0.426   3.297   4.661  0.5647  0.0498 -0.7317
 7132SOL    HW233030   0.534   3.393   4.703  0.9000 -1.1148  0.1626
 7133SOL     OW33031   0.844   3.957   7.404  0.1020  0.7413  1.4943
 7133SOL    HW133032   0.934   3.990   7.405  0.9916 -1.6126  0.1354
 7133SOL    HW233033   0.811   4.023   7.464 -1.3576  0.5105  0.9333
 7134SOL     OW33034   1.206   0.714   2.256  0.1760  0.4738 -0.4620
 7134SOL    HW133035   1.290   0.756   2.277  1.5733 -3.2820  1.3511
 7134SOL    HW233036   1.204   0.740   2.163  1.2629  2.5505  0.0899
 7135SOL     OW33037   2.827   0.934   9.908 -0.6275  0.0476 -0.1218
 7135SOL    HW133038   2.884   1.009   9.893  2.5369 -2.0639  1.3422
 7135SOL    HW233039   2.870   0.909   9.990 -1.6023  1.6078  0.8708
 7136SOL     OW33040   2.870   1.110   3.849  0.0268  0.6577  0.4260
 7136SOL    HW133041   2.936   1.179   3.856  0.4461  0.2275  0.6635
 7136SOL    HW233042   2.847   1.097   3.941 -2.0909 -2.4748 -0.5507
 7137SOL     OW33043   4.047   3.734   2.761 -0.5353  0.1703 -0.5620
 7137SOL    HW133044   4.101   3.720   2.838 -1.1172  1.8576  0.1587
 7137SOL    HW233045   4.108   3.785   2.708 -0.1870  0.1556 -0.1696
 7138SOL     OW33046   0.784   2.591   9.256  0.2053 -0.2822 -0.2078
 7138SOL    HW133047   0.796   2.675   9.300 -3.2482 -1.0166  2.1724
 7138SOL    HW233048   0.791   2.625   9.167 -0.5784  0.6257  0.0698
 7139SOL     OW33049   3.564   2.245   9.225 -0.0472 -0.2886  0.3032
 7139SOL    HW133050   3.572   2.284   9.137  3.1200  0.3787  0.8780
 7139SOL    HW233051   3.494   2.305   9.252 -0.6366  0.2627 -2.3693
 7140SOL     OW33052   4.274   0.079  10.236 -0.2355  0.1371 -0.5286
 7140SOL    HW133053   4.348   0.116  10.187 -0.5147  1.2010 -0.1605
 7140SOL    HW233054   4.301   0.105  10.324 -0.3453  0.2972 -0.5412
 7141SOL     OW33055   1.197   3.557   4.750 -0.0446 -0.3356  0.0557
 7141SOL    HW133056   1.263   3.597   4.694 -0.2529  0.0561  0.0898
 7141SOL    HW233057   1.236   3.573   4.837 -0.0727 -0.1634  0.0368
 7142SOL     OW33058   0.707   1.763  10.520 -1.0563 -0.4291  0.0733
 7142SOL    HW133059   0.690   1.723  10.435  0.6428 -0.4739 -0.2457
 7142SOL    HW233060   0.654   1.697  10.565 -1.6051 -0.3874 -0.5191
 7143SOL     OW33061   2.247   1.690   9.310 -0.4538  0.4808 -0.2221
 7143SOL    HW133062   2.244   1.770   9.362  0.3345  1.1230 -1.1806
 7143SOL    HW233063   2.284   1.730   9.232 -0.8674  1.4154  0.0629
 7144SOL     OW33064   3.268   0.028   8.446  0.3366  0.2077 -0.6757
 7144SOL    HW133065   3.358   0.007   8.472  0.0979  0.1799  0.1163
 7144SOL    HW233066   3.229   0.010   8.531  0.7163 -0.3046 -0.6081
 7145SOL     OW33067   1.129   3.816   3.043  0.0602 -0.3187 -0.6865
 7145SOL    HW133068   1.094   3.744   3.097 -2.0310  1.3748  0.2142
 7145SOL    HW233069   1.222   3.799   3.028  0.7200  2.4584  0.3092
 7146SOL     OW33070   0.168   3.861   2.102 -0.1858  0.2975  0.5428
 7146SOL    HW133071   0.115   3.793   2.143  2.2352 -2.0539 -0.2549
 7146SOL    HW233072   0.129   3.946   2.124  1.1291  0.7590  1.0447
 7147SOL     OW33073   2.884   3.207   2.425  0.4410 -0.0731 -0.2482
 7147SOL    HW133074   2.904   3.208   2.331  1.2540 -2.4980 -0.0940
 7147SOL    HW233075   2.826   3.283   2.421 -2.1018 -2.1041 -1.3959
 7148SOL     OW33076   1.294   1.700   2.431 -0.3446 -0.1822 -0.0760
 7148SOL    HW133077   1.258   1.743   2.353 -0.2750  0.6655  0.3536
 7148SOL    HW233078   1.387   1.689   2.412  0.0895 -0.5276  2.3213
 7149SOL     OW33079   1.192   0.412   2.500  0.5089 -0.2747 -0.0832
 7149SOL    HW133080   1.104   0.419   2.463  0.5523  0.1071 -0.1118
 7149SOL    HW233081   1.214   0.504   2.486  2.5275 -0.6371  0.7694
 7150SOL     OW33082   0.056   1.341   8.657 -0.2920 -0.3378  0.2029
 7150SOL    HW133083   0.060   1.256   8.703  2.5841 -0.8720 -1.0169
 7150SOL    HW233084   0.009   1.311   8.579  0.6623 -1.6670  0.1283
 7151SOL     OW33085   4.027   1.416   6.968  0.4990  0.1090  0.5191
 7151SOL    HW133086   4.078   1.438   7.046 -0.3971 -0.4991  1.2746
 7151SOL    HW233087   4.080   1.447   6.895 -1.5829  0.3663 -0.8740
 7152SOL     OW33088   2.679   4.580   4.863 -0.7259  0.4126 -0.4511
 7152SOL    HW133089   2.728   4.663   4.860  0.0462  0.0917  2.9706
 7152SOL    HW233090   2.630   4.580   4.781 -1.5388  0.2663  0.0341
 7153SOL     OW33091   4.358   3.709  13.193  0.4366  0.0984 -0.1142
 7153SOL    HW133092   4.289   3.649  13.223 -0.7971  2.1470  1.1264
 7153SOL    HW233093   4.391   3.664  13.115  2.2060 -0.2413  0.8201
 7154SOL     OW33094   1.203   1.972   8.994 -0.0410  0.0503  0.2481
 7154SOL    HW133095   1.148   1.915   8.940  1.0342  0.7934 -1.6610
 7154SOL    HW233096   1.259   1.902   9.029 -0.2760 -0.5390 -0.5408
 7155SOL     OW33097   0.098   0.698   6.293 -0.4702  0.4165  0.1157
 7155SOL    HW133098   0.075   0.645   6.369 -0.8486 -1.6264 -1.4136
 7155SOL    HW233099   0.012   0.701   6.251 -0.3495 -0.3134 -0.1920
 7156SOL     OW33100   4.066   4.064  10.384 -0.8503  0.7379 -0.2332
 7156SOL    HW133101   4.069   4.150  10.343 -1.2719  1.5330  1.4141
 7156SOL    HW233102   4.157   4.063  10.413 -1.0697 -1.6394  0.3810
 7157SOL     OW33103   3.841   0.425   2.507  0.4408 -0.3246 -0.5951
 7157SOL    HW133104   3.867   0.424   2.600 -0.5307  0.3580 -0.3098
 7157SOL    HW233105   3.860   0.334   2.488  0.9765 -0.2180 -0.5630
 7158SOL     OW33106   2.484   3.180  15.555 -0.8065  0.1834  0.0869
 7158SOL    HW133107   2.531   3.145  15.630 -0.6797 -0.3039 -0.2197
 7158SOL    HW233108   2.535   3.148  15.481  0.1154  1.8174  0.0133
 7159SOL     OW33109   2.334   3.723   5.216 -0.5441 -0.4485  0.1034
 7159SOL    HW133110   2.256   3.720   5.159 -1.7228  1.0506  1.6247
 7159SOL    HW233111   2.325   3.631   5.238 -0.2300  0.4903  4.0926
 7160SOL     OW33112   0.681   1.333   4.735  0.2599  0.1161  0.7145
 7160SOL    HW133113   0.735   1.312   4.811  1.0874 -0.4577 -0.0252
 7160SOL    HW233114   0.660   1.423   4.759  0.0026  1.0292 -2.8822
 7161SOL     OW33115   3.839   2.551   2.386  0.4838  0.5064 -0.7113
 7161SOL    HW133116   3.765   2.543   2.326  1.0452  0.1356 -1.3595
 7161SOL    HW233117   3.849   2.645   2.374 -1.1329  0.6427 -1.0137
 7162SOL     OW33118   0.076   2.783   2.601 -0.4546 -0.0072 -0.1949
 7162SOL    HW133119   0.121   2.717   2.548 -0.8222 -1.8123  1.7366
 7162SOL    HW233120   0.096   2.742   2.685  0.3981 -0.5752 -0.6683
 7163SOL     OW33121   0.254   4.431   2.348  0.5520 -0.0376 -0.5330
 7163SOL    HW133122   0.290   4.345   2.371 -0.4081 -0.1727  0.4783
 7163SOL    HW233123   0.164   4.400   2.356  1.1550 -1.6581  0.0775
 7164SOL     OW33124   2.805   0.145   9.060 -0.9527  0.0997  0.1932
 7164SOL    HW133125   2.835   0.226   9.019  0.3624 -0.6506 -0.3284
 7164SOL    HW233126   2.789   0.089   8.984 -0.7643  0.4880 -0.1282
 7165SOL     OW33127   0.351   0.945   2.759 -0.2248 -0.4082  0.2004
 7165SOL    HW133128   0.323   0.963   2.849 -1.6200  2.1627 -0.7456
 7165SOL    HW233129   0.386   1.026   2.723 -0.4900 -0.1160  0.6026
 7166SOL     OW33130   0.047   3.395   3.821 -0.6519  0.3768 -0.0261
 7166SOL    HW133131   0.075   3.306   3.842 -2.2402  0.2253  1.3983
 7166SOL    HW233132   0.118   3.453   3.847 -1.7455  0.1327  3.3793
 7167SOL     OW33133   3.799   3.038   7.808 -0.2083 -0.1974  0.0496
 7167SOL    HW133134   3.825   2.994   7.889 -0.1876  1.4666  0.9564
 7167SOL    HW233135   3.753   2.969   7.761 -0.0294 -1.4354  1.6968
 7168SOL     OW33136   2.674   1.378  15.846  0.2528  0.0027 -0.0532
 7168SOL    HW133137   2.644   1.469  15.844  0.2744  0.0362  1.0871
 7168SOL    HW233138   2.598   1.336  15.886 -1.1962  1.1908 -1.5282
 7169SOL     OW33139   0.423   3.727   7.837  0.8050  0.4150 -0.0883
 7169SOL    HW133140   0.369   3.800   7.865  1.5614  0.5296  1.0787
 7169SOL    HW233141   0.365   3.682   7.776  1.5873 -2.1143  1.0190
 7170SOL     OW33142   2.244   2.415   2.829  0.6875  0.3467 -0.1623
 7170SOL    HW133143   2.315   2.429   2.890 -0.0709  1.8399  0.3997
 7170SOL    HW233144   2.251   2.482   2.760  1.8726  0.1638 -0.2182
 7171SOL     OW33145   4.322   1.744   7.000  0.0841 -0.2166 -0.2165
 7171SOL    HW133146   4.262   1.669   6.998  0.7085 -0.6647 -2.5096
 7171SOL    HW233147   4.327   1.726   7.094  0.5151  0.9582 -0.0105
 7172SOL     OW33148   2.900   2.611   7.357  0.2497  0.5092 -0.8781
 7172SOL    HW133149   2.881   2.660   7.437  3.1768  3.0843 -1.7603
 7172SOL    HW233150   2.814   2.568   7.349  1.2063 -1.7368  1.0910
 7173SOL     OW33151   3.251   3.099   9.091  0.2868 -0.1948 -0.6490
 7173SOL    HW133152   3.308   3.124   9.163  0.2597 -0.6448 -0.4671
 7173SOL    HW233153   3.174   3.058   9.129  0.2080  1.1740  0.6551
 7174SOL     OW33154   4.630   2.781  17.471  0.4163 -0.3063 -0.3172
 7174SOL    HW133155   4.640   2.740  17.556  1.0050  0.8820  0.1899
 7174SOL    HW233156   4.714   2.746  17.442  1.3077  1.9657 -0.5162
 7175SOL     OW33157   3.349   1.406   9.072  0.3311 -0.1220 -0.4993
 7175SOL    HW133158   3.436   1.444   9.081  0.1017  0.4568 -0.7367
 7175SOL    HW233159   3.291   1.468   9.116 -1.6604  0.2192 -3.5641
 7176SOL     OW33160   1.300   1.117   3.409 -0.1346 -0.1801  0.4206
 7176SOL    HW133161   1.386   1.109   3.369  0.2637  0.9650  1.0496
 7176SOL    HW233162   1.239   1.107   3.336 -0.5368 -0.5558  0.8099
 7177SOL     OW33163   1.118   4.394  10.848 -0.5181  0.1501 -0.9200
 7177SOL    HW133164   1.110   4.342  10.768 -0.3161 -1.3891  0.0467
 7177SOL    HW233165   1.159   4.319  10.892 -1.6662 -0.2103 -0.4639
 7178SOL     OW33166   3.370   2.664   4.189  0.0624  0.9626 -0.3630
 7178SOL    HW133167   3.439   2.701   4.244 -0.5252 -1.1697  1.7765
 7178SOL    HW233168   3.410   2.603   4.128 -0.0007 -0.1030  0.6670
 7179SOL     OW33169   4.066   1.109   7.069  0.2829 -0.8431 -0.0545
 7179SOL    HW133170   3.978   1.080   7.094 -0.4144  1.9037  0.7249
 7179SOL    HW233171   4.055   1.191   7.022  0.4340 -1.5482 -1.3101
 7180SOL     OW33172   0.294   4.238   6.705 -0.2511 -0.2454 -0.4448
 7180SOL    HW133173   0.326   4.326   6.720  0.7917 -0.9159  1.2798
 7180SOL    HW233174   0.375   4.195   6.732  0.9498  1.9156 -0.6792
 7181SOL     OW33175   1.827   4.578   4.708  0.3992 -0.5863  0.1837
 7181SOL    HW133176   1.876   4.574   4.790  0.2129 -0.5598  0.2961
 7181SOL    HW233177   1.846   4.667   4.679  0.8888 -0.3539  1.2295
 7182SOL     OW33178   2.290   3.302  13.485 -0.1798  0.2214 -0.2244
 7182SOL    HW133179   2.327   3.300  13.573  0.0925  0.8539 -0.3233
 7182SOL    HW233180   2.258   3.392  13.482  2.0067  0.9265 -2.5824
 7183SOL     OW33181   0.303   3.225   6.614  0.0771 -0.2762 -0.1408
 7183SOL    HW133182   0.379   3.170   6.634  0.7573 -0.2215 -2.6740
 7183SOL    HW233183   0.249   3.158   6.571 -1.6307  0.4646  0.8371
 7184SOL     OW33184   1.802   3.023  14.643  0.6651 -0.1763  0.0638
 7184SOL    HW133185   1.729   3.078  14.615 -1.0493 -1.9085  1.1774
 7184SOL    HW233186   1.748   2.954  14.681 -3.4940  0.4819 -4.6103
 7185SOL     OW33187   3.720   4.069   9.278  0.3099  0.7154  0.0985
 7185SOL    HW133188   3.656   4.092   9.211  0.1921 -1.7571 -0.6576
 7185SOL    HW233189   3.671   3.997   9.318  1.7962 -0.3731 -0.0461
 7186SOL     OW33190   4.220   4.090  14.365 -0.0848  0.2382  0.1424
 7186SOL    HW133191   4.205   4.070  14.273 -0.9187  3.6106 -0.4526
 7186SOL    HW233192   4.146   4.046  14.406 -1.2118  1.4940 -0.5384
 7187SOL     OW33193   3.240   1.797   5.788 -0.1762  0.0887 -0.0225
 7187SOL    HW133194   3.301   1.761   5.852  0.3062  2.1704  0.6813
 7187SOL    HW233195   3.296   1.810   5.711 -0.2278  0.3232 -0.0209
 7188SOL     OW33196   1.719   0.060   7.715 -0.0137  0.2559  0.0943
 7188SOL    HW133197   1.745   0.095   7.801  1.6247 -1.6975  0.3727
 7188SOL    HW233198   1.632   0.026   7.735 -0.1593  0.8481  0.4918
 7189SOL     OW33199   2.469   0.827   5.923  0.2686 -0.4039  0.7984
 7189SOL    HW133200   2.510   0.898   5.972  0.9074  1.5863 -2.5956
 7189SOL    HW233201   2.376   0.847   5.932  0.3220  0.1514  0.0631
 7190SOL     OW33202   4.255   0.883   9.059  0.6951  0.1267 -0.1886
 7190SOL    HW133203   4.253   0.792   9.030  0.8070 -0.0859  0.4920
 7190SOL    HW233204   4.204   0.876   9.139  1.9246  0.8192  0.6540
 7191SOL     OW33205   0.121   2.679  16.514  0.0358  0.5493 -0.0622
 7191SOL    HW133206   0.199   2.704  16.465  0.1793  3.7245  1.8169
 7191SOL    HW233207   0.151   2.590  16.535  2.9571  1.8641  1.2465
 7192SOL     OW33208   1.202   0.077   3.092 -0.2147 -0.6696 -0.5750
 7192SOL    HW133209   1.252   0.113   3.018  0.4318 -0.0735  0.1528
 7192SOL    HW233210   1.167   0.002   3.044  1.4894 -2.2747  0.7086
 7193SOL     OW33211   1.536   0.572   8.161  0.3301 -0.0641 -0.5398
 7193SOL    HW133212   1.500   0.503   8.218  0.3588 -0.1170 -0.5849
 7193SOL    HW233213   1.461   0.589   8.105  0.1739 -1.4224 -0.7551
 7194SOL     OW33214   1.665   3.353   0.474 -0.7405 -0.7288  0.1291
 7194SOL    HW133215   1.745   3.300   0.478 -1.3368 -1.7030 -1.3060
 7194SOL    HW233216   1.668   3.400   0.558 -1.1209 -1.0750  0.3353
 7195SOL     OW33217   1.745   2.196   6.318 -0.5482  0.4418  0.3275
 7195SOL    HW133218   1.660   2.197   6.273  1.2054  0.4583 -2.9656
 7195SOL    HW233219   1.755   2.106   6.349  2.1604  0.8772  0.7319
 7196SOL     OW33220   1.337   0.370  16.041 -0.0839 -0.0343 -0.4942
 7196SOL    HW133221   1.279   0.360  16.117 -1.9473 -3.6265 -2.3959
 7196SOL    HW233222   1.280   0.361  15.965  1.3600  0.8261 -1.6770
 7197SOL     OW33223   1.022   3.017   0.296  0.3264  0.3893 -0.0183
 7197SOL    HW133224   0.990   2.957   0.362  0.7127 -0.5150 -0.6460
 7197SOL    HW233225   1.080   3.065   0.355  0.8333 -0.9910  0.6002
 7198SOL     OW33226   0.828   2.751   6.579  0.0763  0.2910 -0.2456
 7198SOL    HW133227   0.748   2.764   6.630  0.4427 -1.9732  0.8773
 7198SOL    HW233228   0.780   2.742   6.497  0.4263 -1.9709 -0.1941
 7199SOL     OW33229   0.412   2.941  15.868 -0.1866 -0.4989  1.0862
 7199SOL    HW133230   0.423   2.931  15.963  0.1698  2.1069  1.3359
 7199SOL    HW233231   0.409   3.035  15.850  0.5860 -0.6242  0.3043
 7200SOL     OW33232   2.360   4.610   2.790  0.3895 -0.3054 -0.0993
 7200SOL    HW133233   2.376   4.608   2.884 -0.9026 -1.9051  0.0956
 7200SOL    HW233234   2.296   4.680   2.776 -1.1331 -2.1262 -2.2874
 7201SOL     OW33235   3.946   0.684   7.520 -0.0432  0.1454  0.4952
 7201SOL    HW133236   3.890   0.615   7.484  1.4749 -0.0809 -1.4626
 7201SOL    HW233237   3.883   0.752   7.541  0.0493  0.7492 -1.1968
 7202SOL     OW33238   2.464   4.302   6.251  0.0425 -0.5668  0.2865
 7202SOL    HW133239   2.455   4.211   6.279 -0.0278 -0.1061  1.7838
 7202SOL    HW233240   2.409   4.299   6.173 -1.7079  0.3209  1.4907
 7203SOL     OW33241   4.573   2.429   4.536 -0.3366 -0.2597 -0.5855
 7203SOL    HW133242   4.637   2.475   4.481  0.7207 -1.0742 -0.0454
 7203SOL    HW233243   4.500   2.418   4.476  0.1688 -0.4216 -1.1764
 7204SOL     OW33244   1.913   2.072   8.189 -0.0198  0.6938 -0.2392
 7204SOL    HW133245   1.935   2.164   8.172 -1.0071  0.9646 -0.0351
 7204SOL    HW233246   1.817   2.076   8.189  0.0296  1.9483 -0.3099
 7205SOL     OW33247   0.451   0.226   4.299  0.1627  0.5745  0.7682
 7205SOL    HW133248   0.522   0.162   4.294 -0.5230 -0.0291 -1.1120
 7205SOL    HW233249   0.484   0.293   4.358  4.3829 -0.1386 -0.7950
 7206SOL     OW33250   0.166   3.426   7.215  0.0624  0.2940  0.0968
 7206SOL    HW133251   0.209   3.465   7.138  0.0554 -1.7287 -0.9237
 7206SOL    HW233252   0.078   3.402   7.185  0.0859 -0.9614  1.0700
 7207SOL     OW33253   1.565   4.372   3.604 -0.1393  0.4910  0.3662
 7207SOL    HW133254   1.627   4.406   3.539  2.0481  0.8459  2.6272
 7207SOL    HW233255   1.482   4.414   3.580 -0.6903 -2.3528 -2.6160
 7208SOL     OW33256   1.138   4.489   6.507  0.0864  0.0798 -0.2493
 7208SOL    HW133257   1.048   4.503   6.479 -0.4820  1.7980  2.4254
 7208SOL    HW233258   1.128   4.497   6.602  0.0787  1.3688 -0.3536
 7209SOL     OW33259   0.465   2.484   3.785  0.3038  0.4124 -0.4690
 7209SOL    HW133260   0.422   2.412   3.739 -1.9289  0.6222  1.2303
 7209SOL    HW233261   0.406   2.559   3.779 -3.0671 -2.2430 -0.5014
 7210SOL     OW33262   2.594   0.575  15.135 -0.0948  0.1088  0.8209
 7210SOL    HW133263   2.636   0.496  15.168  0.2999  1.1458  2.8674
 7210SOL    HW233264   2.647   0.596  15.059 -2.4271 -0.0908 -0.8433
 7211SOL     OW33265   3.213   4.451  11.688 -0.2398 -0.6101  0.1831
 7211SOL    HW133266   3.180   4.370  11.649 -1.9697 -1.2047  2.9236
 7211SOL    HW233267   3.132   4.498  11.706  0.4492  1.0543 -1.0711
 7212SOL     OW33268   1.350   0.574   3.281 -0.3632  0.2000 -0.4789
 7212SOL    HW133269   1.255   0.569   3.296 -0.0536 -0.7310  1.1233
 7212SOL    HW233270   1.358   0.481   3.258 -1.7510 -0.2153  0.7274
 7213SOL     OW33271   0.030   4.185  16.250 -0.2659 -0.5065  0.0540
 7213SOL    HW133272   0.116   4.200  16.290  0.2390 -2.3359 -0.3529
 7213SOL    HW233273   0.011   4.276  16.224  0.5289 -0.4383 -0.2953
 7214SOL     OW33274   2.555   0.333   7.949  0.7451 -0.0608 -0.5043
 7214SOL    HW133275   2.485   0.387   7.911 -0.2886 -0.3948  0.9438
 7214SOL    HW233276   2.519   0.306   8.033 -1.8118 -0.1433 -1.6180
 7215SOL     OW33277   3.805   1.642   8.458  0.2582 -0.1588  0.0178
 7215SOL    HW133278   3.744   1.711   8.484 -1.8845 -1.6148 -1.1225
 7215SOL    HW233279   3.849   1.630   8.542 -0.5485 -0.8743  0.3474
 7216SOL     OW33280   0.268   1.134   7.272  0.6373  0.1388  0.7744
 7216SOL    HW133281   0.194   1.127   7.212 -2.2071 -2.0099  4.5006
 7216SOL    HW233282   0.269   1.049   7.317 -1.0951  0.0337  0.5984
 7217SOL     OW33283   1.533   2.708   4.362 -0.1220  0.7139  0.0437
 7217SOL    HW133284   1.608   2.689   4.418 -0.2071 -1.5640 -0.6112
 7217SOL    HW233285   1.513   2.625   4.319 -1.5363 -0.7465  3.5345
 7218SOL     OW33286   0.075   0.263   0.054  0.2787  0.1084  0.0039
 7218SOL    HW133287   0.039   0.338   0.006  2.3303  1.0582 -0.0313
 7218SOL    HW233288   0.159   0.283   0.094  0.1943 -0.4093  0.4345
 7219SOL     OW33289   2.995   2.100   6.593  0.0312 -0.1368 -0.1531
 7219SOL    HW133290   2.936   2.135   6.527 -0.1261  0.1477  0.1338
 7219SOL    HW233291   2.952   2.016   6.608 -2.3818  0.9792 -0.9375
 7220SOL     OW33292   4.488   3.257   7.952 -0.3186 -0.4157  0.1321
 7220SOL    HW133293   4.556   3.219   8.008 -2.4142 -0.5142  2.6128
 7220SOL    HW233294   4.474   3.177   7.901  1.7782 -0.0970 -0.9318
 7221SOL     OW33295   0.129   1.539   9.754 -0.0203  0.9266 -0.0555
 7221SOL    HW133296   0.060   1.582   9.705 -0.5494  0.7319  0.5247
 7221SOL    HW233297   0.208   1.581   9.720  0.7547 -1.9139 -1.7730
 7222SOL     OW33298   1.939   0.323  16.465 -0.3166  0.4814 -0.2454
 7222SOL    HW133299   2.007   0.282  16.517 -1.7626 -1.5557  0.0701
 7222SOL    HW233300   1.990   0.393  16.425  3.4799 -1.7851  0.6273
 7223SOL     OW33301   2.057   3.344   2.911  0.5707 -0.0575  0.1551
 7223SOL    HW133302   2.113   3.388   2.847  0.6890 -0.3766  0.0413
 7223SOL    HW233303   1.997   3.291   2.858  1.0976 -1.9271  1.4635
 7224SOL     OW33304   3.512   2.225   7.903 -0.8705  0.1821 -0.3353
 7224SOL    HW133305   3.468   2.171   7.837  0.5970  0.3527 -1.4559
 7224SOL    HW233306   3.586   2.169   7.924 -0.6094  1.6918  2.8073
 7225SOL     OW33307   4.092   1.373   9.839 -0.0900 -0.4298  0.2775
 7225SOL    HW133308   4.097   1.287   9.881  2.5559  0.6627  2.1708
 7225SOL    HW233309   4.116   1.428   9.913 -0.9217  0.4304 -0.0910
 7226SOL     OW33310   2.248   0.240   4.038 -0.0371  0.4135  0.7730
 7226SOL    HW133311   2.231   0.264   3.946  0.6223  0.7557  0.7357
 7226SOL    HW233312   2.311   0.306   4.068  0.7529  0.3377 -0.6710
 7227SOL     OW33313   2.126   3.890   1.516 -0.8023 -0.0026  0.0756
 7227SOL    HW133314   2.178   3.810   1.506 -1.0688 -0.1382 -0.2079
 7227SOL    HW233315   2.109   3.916   1.426  0.7645 -0.1352 -0.2650
 7228SOL     OW33316   3.054   2.219  11.476  0.1114  0.2834 -0.0805
 7228SOL    HW133317   3.082   2.200  11.386  0.3651 -2.4016  0.5906
 7228SOL    HW233318   3.036   2.312  11.464 -1.4678 -0.2273 -1.6759
 7229SOL     OW33319   4.275   1.641   9.797 -0.5868 -0.4433  0.2132
 7229SOL    HW133320   4.339   1.710   9.811 -0.5756 -0.8819  2.3505
 7229SOL    HW233321   4.298   1.571   9.858 -0.9380 -0.0437  0.8163
 7230SOL     OW33322   3.844   0.610   8.850 -0.3728 -0.2302 -0.1561
 7230SOL    HW133323   3.768   0.613   8.792  0.0649 -2.0760 -0.8259
 7230SOL    HW233324   3.803   0.621   8.936 -0.2416  1.4587 -0.3059
 7231SOL     OW33325   2.794   3.070   6.745  0.1969  0.1687 -0.2000
 7231SOL    HW133326   2.846   3.149   6.733  1.4411 -0.4947  0.7396
 7231SOL    HW233327   2.816   3.033   6.659  1.7929  0.3339  0.1287
 7232SOL     OW33328   1.731   3.901   7.154 -0.2114 -0.1167 -0.3310
 7232SOL    HW133329   1.705   3.941   7.071 -0.1907  0.7247  0.0606
 7232SOL    HW233330   1.790   3.968   7.190  0.2473 -1.2049  0.9358
 7233SOL     OW33331   1.701   4.225   4.801  0.3069 -0.0775 -0.5287
 7233SOL    HW133332   1.789   4.188   4.792  0.5343  0.7906 -1.9783
 7233SOL    HW233333   1.655   4.155   4.845  0.1228  0.3766  0.0044
 7234SOL     OW33334   2.603   1.437   4.421 -0.1229 -0.3093  0.0866
 7234SOL    HW133335   2.560   1.475   4.497 -1.0688 -1.9618  0.3739
 7234SOL    HW233336   2.534   1.449   4.356 -0.2982  1.7896  0.6638
 7235SOL     OW33337   0.756   4.066   2.154 -0.2189  0.5409  0.3698
 7235SOL    HW133338   0.784   3.984   2.113  1.9382  0.9557  1.0144
 7235SOL    HW233339   0.728   4.122   2.081  0.4137  3.7416  2.6208
 7236SOL     OW33340   2.179   1.416   6.105 -0.0863 -0.1567  0.6456
 7236SOL    HW133341   2.118   1.471   6.055 -0.8427 -1.8328 -0.2833
 7236SOL    HW233342   2.240   1.489   6.113 -1.0873  0.7966 -0.5135
 7237SOL     OW33343   0.803   1.277  15.003  0.4893  0.8321 -0.6104
 7237SOL    HW133344   0.839   1.322  14.927  1.4833 -1.7721 -1.7092
 7237SOL    HW233345   0.787   1.191  14.963  1.8146 -0.5319  1.7520
 7238SOL     OW33346   1.544   3.483  11.557  0.1588  0.2745  0.3571
 7238SOL    HW133347   1.553   3.577  11.566  0.7432  0.1752  0.8028
 7238SOL    HW233348   1.454   3.488  11.526  0.7642  2.7912 -0.9129
 7239SOL     OW33349   1.392   4.617   8.685  0.0767 -0.2744 -0.3082
 7239SOL    HW133350   1.441   4.699   8.688 -0.7281  0.2946 -2.9133
 7239SOL    HW233351   1.306   4.653   8.663  0.2409  0.0858 -0.3625
 7240SOL     OW33352   1.571   1.908  12.668  0.2306  0.5518  0.2252
 7240SOL    HW133353   1.586   1.939  12.579  0.6797  0.7706  0.3779
 7240SOL    HW233354   1.582   1.992  12.712 -0.2375  1.2409 -0.9632
 7241SOL     OW33355   1.462   2.663   7.145 -0.1953 -0.0881  0.3019
 7241SOL    HW133356   1.546   2.675   7.100 -0.7559  0.1080 -0.7078
 7241SOL    HW233357   1.464   2.568   7.135 -1.4913  0.0174 -0.9767
 7242SOL     OW33358   4.340   3.510  11.405  0.3808 -0.1876 -0.0333
 7242SOL    HW133359   4.367   3.506  11.314 -1.0689 -1.3372 -0.4049
 7242SOL    HW233360   4.418   3.550  11.445 -0.0648  0.3176  0.3304
 7243SOL     OW33361   2.310   3.731   2.828  0.0598 -0.7337 -0.4641
 7243SOL    HW133362   2.309   3.806   2.887 -2.3789 -0.8855 -0.3125
 7243SOL    HW233363   2.354   3.773   2.754 -0.1416 -0.8800 -0.6694
 7244SOL     OW33364   0.819   2.505   3.102  0.1921 -0.2426  0.4493
 7244SOL    HW133365   0.834   2.506   3.007 -0.1836  1.0313  0.4080
 7244SOL    HW233366   0.911   2.494   3.126  0.0970 -0.7774  0.5719
 7245SOL     OW33367   1.989   2.035   7.198 -0.0317 -0.2864  0.2688
 7245SOL    HW133368   1.943   1.967   7.246  0.4500 -1.1797 -0.5410
 7245SOL    HW233369   1.922   2.104   7.208 -1.4663 -1.7039  0.3838
 7246SOL     OW33370   0.246   1.223   6.388 -0.2593 -0.2555  0.6179
 7246SOL    HW133371   0.190   1.239   6.312 -3.2972  0.9921  3.1344
 7246SOL    HW233372   0.256   1.128   6.376 -0.7906 -0.1490 -0.7284
 7247SOL     OW33373   4.390   3.248  17.210  0.3545 -0.7024 -0.1046
 7247SOL    HW133374   4.371   3.225  17.118 -0.2318 -1.8425  0.2941
 7247SOL    HW233375   4.358   3.167  17.251 -0.6139 -0.0364  0.4585
 7248SOL     OW33376   1.327   3.331   1.735 -0.1725 -0.3459 -0.3140
 7248SOL    HW133377   1.289   3.415   1.708 -1.7115 -0.2735  2.1297
 7248SOL    HW233378   1.263   3.299   1.799  0.1285  1.2219  0.7559
 7249SOL     OW33379   2.151   0.132   3.423 -0.1240  0.3110 -0.7309
 7249SOL    HW133380   2.200   0.078   3.361  0.1406 -0.7716  0.4129
 7249SOL    HW233381   2.132   0.210   3.371 -0.2448  0.0606 -1.0617
 7250SOL     OW33382   4.144   1.282   6.382 -0.0252  0.2054 -0.8704
 7250SOL    HW133383   4.173   1.365   6.420  0.6844 -0.1884 -0.5527
 7250SOL    HW233384   4.228   1.240   6.363  0.2694  0.7300 -0.7249
 7251SOL     OW33385   0.444   3.231   4.060  0.3651  0.3584  0.4360
 7251SOL    HW133386   0.419   3.309   4.110  0.4613  0.1277  0.8514
 7251SOL    HW233387   0.450   3.161   4.126  2.8332 -1.7214 -1.9931
 7252SOL     OW33388   3.096   4.463   8.032 -0.1946 -0.1652  0.3898
 7252SOL    HW133389   3.151   4.518   7.977  0.2011 -2.6658 -1.7367
 7252SOL    HW233390   3.087   4.522   8.106  1.0492  0.9264 -0.3481
 7253SOL     OW33391   3.942   4.253   5.812 -0.5346  0.0908  0.2170
 7253SOL    HW133392   3.995   4.275   5.735  0.7399 -2.2953  0.4473
 7253SOL    HW233393   3.887   4.332   5.818  0.1148  0.6212 -0.6682
 7254SOL     OW33394   0.020   2.336   6.045 -0.3871 -0.1171  0.3496
 7254SOL    HW133395   4.722   2.281   6.115 -1.3213  0.6748  0.4926
 7254SOL    HW233396   4.700   2.412   6.043 -1.1942 -0.8176 -3.2651
 7255SOL     OW33397   4.205   0.064   9.684  0.6787  0.3064 -0.0040
 7255SOL    HW133398   4.243   0.011   9.754 -1.2304  1.3219  1.7895
 7255SOL    HW233399   4.130   0.006   9.665  2.3323 -1.9213  0.2557
 7256SOL     OW33400   1.689   1.534   6.900 -0.0936  0.2491  0.2348
 7256SOL    HW133401   1.642   1.489   6.829 -1.5703  0.2802  1.2151
 7256SOL    HW233402   1.778   1.539   6.864 -1.3069  0.1263 -2.7778
 7257SOL     OW33403   4.651   1.174  12.697  0.5167  0.1770 -0.2574
 7257SOL    HW133404   4.662   1.241  12.630 -0.2320 -1.5139 -2.0774
 7257SOL    HW233405   4.632   1.231  12.771 -1.3932 -0.9828  0.1539
 7258SOL     OW33406   3.309   2.819   2.732 -0.4825  0.7554  0.3204
 7258SOL    HW133407   3.384   2.769   2.764 -1.1094 -0.1468  0.3724
 7258SOL    HW233408   3.308   2.900   2.782  0.3835  1.6287 -1.0765
 7259SOL     OW33409   3.999   3.874   3.659 -0.1965 -0.1110  0.2199
 7259SOL    HW133410   3.997   3.946   3.721 -2.4691  0.6688 -0.7449
 7259SOL    HW233411   3.923   3.829   3.697 -1.3471  1.3569 -0.3494
 7260SOL     OW33412   1.027   3.468   0.876  0.1371 -0.0523 -0.2659
 7260SOL    HW133413   1.069   3.393   0.918 -0.3824 -0.6351 -0.7661
 7260SOL    HW233414   1.065   3.542   0.923 -0.7128  0.4093 -0.2998
 7261SOL     OW33415   1.500   3.033   6.678  0.2437 -0.5379 -0.0231
 7261SOL    HW133416   1.489   3.071   6.765 -1.9654 -1.6959  0.2047
 7261SOL    HW233417   1.436   3.081   6.625 -0.2007 -0.5400  0.5052
 7262SOL     OW33418   3.805   2.983   3.188 -0.4795  0.3428  0.9172
 7262SOL    HW133419   3.749   2.967   3.112  1.2682 -3.2904  0.3661
 7262SOL    HW233420   3.889   2.958   3.150 -0.6291  2.9067 -1.0827
 7263SOL     OW33421   2.896   2.465   6.020 -0.4621 -0.4820 -0.3308
 7263SOL    HW133422   2.945   2.420   5.951 -0.7248 -0.1209 -0.7577
 7263SOL    HW233423   2.911   2.554   5.989 -0.2376 -0.4548 -0.1411
 7264SOL     OW33424   3.222   3.104  15.624 -0.0700  0.3119 -0.3351
 7264SOL    HW133425   3.287   3.057  15.676 -0.4019  0.9797  0.6861
 7264SOL    HW233426   3.202   3.183  15.675 -2.8070 -0.3295 -0.4207
 7265SOL     OW33427   2.841   2.117   1.419 -0.0342  0.6569  0.1729
 7265SOL    HW133428   2.799   2.033   1.436  1.6934  0.1471  1.9974
 7265SOL    HW233429   2.897   2.091   1.346  0.8985  0.7108  0.8642
 7266SOL     OW33430   3.499   1.313   2.942 -0.3458 -0.3900 -0.1968
 7266SOL    HW133431   3.489   1.405   2.968 -0.9883 -0.3509 -0.5690
 7266SOL    HW233432   3.568   1.311   2.876 -0.1909  0.5745 -0.0574
 7267SOL     OW33433   4.494   3.074   4.220  0.4228  0.3116 -0.2882
 7267SOL    HW133434   4.407   3.045   4.192  0.4453 -1.0079  1.0005
 7267SOL    HW233435   4.494   3.170   4.223 -0.6836  0.3436 -1.8780
 7268SOL     OW33436   1.406   4.561   8.975  0.0188  0.2350  0.0045
 7268SOL    HW133437   1.418   4.548   8.880  0.4277 -0.4501  0.1457
 7268SOL    HW233438   1.482   4.508   9.001  0.5006  1.0678  0.2998
 7269SOL     OW33439   1.935   4.556   7.570  0.5836 -0.5065  0.2952
 7269SOL    HW133440   1.884   4.632   7.598  2.1274  0.7863 -0.4059
 7269SOL    HW233441   2.020   4.597   7.555 -0.5314  1.6818  0.0450
 7270SOL     OW33442   2.660   3.404   6.626  0.3183 -0.6208 -0.7113
 7270SOL    HW133443   2.630   3.469   6.690  0.6982 -0.2190 -0.9448
 7270SOL    HW233444   2.744   3.368   6.656  0.2942  2.1301  2.7147
 7271SOL     OW33445   2.026   4.364   6.760 -0.0864  0.1953  0.1087
 7271SOL    HW133446   2.026   4.444   6.707  0.8374  0.8103  1.0166
 7271SOL    HW233447   2.021   4.298   6.690 -1.1058  0.1545  0.2207
 7272SOL     OW33448   0.095   3.464  12.832  0.3423 -0.1957 -1.0089
 7272SOL    HW133449   0.172   3.509  12.868 -0.6794 -0.0444  0.9990
 7272SOL    HW233450   0.126   3.380  12.798 -0.9656 -0.2682 -2.0089
 7273SOL     OW33451   0.047   2.156   7.746  0.2048 -0.4905  0.1193
 7273SOL    HW133452   0.016   2.196   7.827  0.1710  1.4928 -0.8771
 7273SOL    HW233453   0.095   2.230   7.709 -0.3812  0.0948  0.5451
 7274SOL     OW33454   0.063   4.503   7.097  0.6414  0.3181  0.5033
 7274SOL    HW133455   0.003   4.519   7.170 -0.0763  1.4325 -0.3390
 7274SOL    HW233456   0.049   4.408   7.098 -2.6752  0.8004  0.2936
 7275SOL     OW33457   3.930   3.081   0.244 -0.4440 -0.0620 -0.7225
 7275SOL    HW133458   3.936   3.171   0.275 -0.0160 -0.7291  1.1158
 7275SOL    HW233459   3.840   3.054   0.265 -0.4247 -0.1238 -0.7195
 7276SOL     OW33460   2.176   0.585   2.582 -0.1086 -0.2777 -0.3943
 7276SOL    HW133461   2.204   0.623   2.499 -2.4414  0.4240 -0.8670
 7276SOL    HW233462   2.127   0.506   2.557  2.2263 -2.8004  2.9305
 7277SOL     OW33463   1.430   2.276   5.586 -0.3904 -0.0909 -0.0356
 7277SOL    HW133464   1.473   2.337   5.526  0.1221 -0.2348  0.1860
 7277SOL    HW233465   1.498   2.262   5.652  0.5075 -1.4468 -1.2443
 7278SOL     OW33466   1.049   4.415   5.937  0.8021  0.1820  0.3684
 7278SOL    HW133467   1.114   4.481   5.913  0.1994  0.1518 -1.4143
 7278SOL    HW233468   1.062   4.416   6.032 -0.4082 -1.6241  0.5642
 7279SOL     OW33469   3.760   1.182  11.574  0.0290 -0.0675  0.1981
 7279SOL    HW133470   3.844   1.188  11.621 -0.7359  0.8641  1.4357
 7279SOL    HW233471   3.742   1.088  11.582 -0.4593 -0.0769 -1.0858
 7280SOL     OW33472   3.978   4.602   0.165 -0.1084  0.2947 -0.3987
 7280SOL    HW133473   3.986   4.511   0.136 -1.4158  0.6301 -1.7839
 7280SOL    HW233474   4.072   4.622   0.168 -0.1333  0.0807  1.7012
 7281SOL     OW33475   4.188   0.716   0.143 -0.6255  0.0370 -0.3154
 7281SOL    HW133476   4.241   0.701   0.065  0.9560  0.6682  0.6496
 7281SOL    HW233477   4.104   0.672   0.128 -1.0210  0.5429  0.3892
 7282SOL     OW33478   4.429   0.336   3.962  0.6047 -0.2059  0.4279
 7282SOL    HW133479   4.473   0.263   3.918  0.1551  2.0324 -3.7117
 7282SOL    HW233480   4.482   0.408   3.928 -1.1191  0.9323  0.2030
 7283SOL     OW33481   1.669   2.493   8.585 -0.1304 -0.1251 -0.2425
 7283SOL    HW133482   1.687   2.426   8.651 -1.8847  2.8595  3.3050
 7283SOL    HW233483   1.747   2.548   8.592  0.8533 -1.4532 -0.7674
 7284SOL     OW33484   2.589   0.305  12.431 -0.2300  0.6211  0.1138
 7284SOL    HW133485   2.616   0.381  12.381  0.0117  0.3065 -0.2335
 7284SOL    HW233486   2.671   0.256  12.423 -0.1533  1.3555 -3.3516
 7285SOL     OW33487   2.858   4.282   8.979  0.3056  0.2213 -0.8067
 7285SOL    HW133488   2.819   4.208   8.933  1.1860 -0.5371 -0.3209
 7285SOL    HW233489   2.847   4.264   9.072  1.2032 -0.8725 -0.9068
 7286SOL     OW33490   0.068   2.543   8.817 -0.2443  0.0240  0.5629
 7286SOL    HW133491   0.100   2.547   8.727  0.1648 -2.7982  0.5978
 7286SOL    HW233492   0.121   2.617   8.848 -1.0080  1.0612 -0.6268
 7287SOL     OW33493   0.470   0.374   6.255 -0.0509 -0.2740 -0.3783
 7287SOL    HW133494   0.410   0.428   6.203 -1.5915 -1.0114  0.6445
 7287SOL    HW233495   0.471   0.403   6.346 -1.0576  0.7534 -0.6820
 7288SOL     OW33496   2.809   4.544   4.418  0.4709 -0.2263 -0.6187
 7288SOL    HW133497   2.883   4.570   4.473 -0.9295  0.1925  1.0433
 7288SOL    HW233498   2.766   4.625   4.392  0.8083 -0.5778 -2.2979
 7289SOL     OW33499   0.919   3.689   7.273  0.3323  0.6410 -0.2485
 7289SOL    HW133500   0.901   3.694   7.179  0.3244 -2.2862 -0.4121
 7289SOL    HW233501   0.882   3.769   7.310  0.2264 -0.1179  1.2998
 7290SOL     OW33502   4.567   2.724   7.047 -0.1792  0.4839 -0.2042
 7290SOL    HW133503   4.539   2.656   7.109  0.1064 -0.9369 -1.6386
 7290SOL    HW233504   4.644   2.760   7.090 -1.6529 -0.1593  3.0064
 7291SOL     OW33505   4.051   1.248   4.314 -0.4429  0.6043 -0.3320
 7291SOL    HW133506   4.090   1.263   4.400 -0.5636  3.9584 -0.8700
 7291SOL    HW233507   3.981   1.309   4.294  0.7950  2.9358  2.5406
 7292SOL     OW33508   2.852   3.266   4.467  0.2419 -0.1008 -0.3276
 7292SOL    HW133509   2.825   3.240   4.379  2.2835 -0.2235 -0.9168
 7292SOL    HW233510   2.946   3.249   4.462  0.3697  0.1768  1.2000
 7293SOL     OW33511   3.445   1.642  13.591 -0.2647  0.2799  0.0291
 7293SOL    HW133512   3.464   1.606  13.504 -1.6615 -0.2036 -0.0737
 7293SOL    HW233513   3.531   1.662  13.628 -0.2383  1.9461 -0.9406
 7294SOL     OW33514   1.268   2.470   4.680  0.1222 -0.0802  0.1808
 7294SOL    HW133515   1.341   2.508   4.728 -0.6428 -1.6798  2.6698
 7294SOL    HW233516   1.235   2.554   4.649  0.4191 -0.1718 -0.3842
 7295SOL     OW33517   2.649   1.493   1.400  0.4839 -0.2739  0.3939
 7295SOL    HW133518   2.708   1.419   1.385 -0.0216 -0.3254 -1.3207
 7295SOL    HW233519   2.686   1.563   1.346  0.2342 -0.7453 -0.3893
 7296SOL     OW33520   0.002   1.440   4.305  0.1165 -0.8531 -0.2897
 7296SOL    HW133521   4.719   1.388   4.227 -1.8232  0.9603 -0.9696
 7296SOL    HW233522   4.698   1.388   4.374  1.2886  2.1849  2.7409
 7297SOL     OW33523   0.331   4.130  13.946  0.4422 -0.4031  0.2261
 7297SOL    HW133524   0.315   4.199  13.883  2.4759 -0.8401 -0.7528
 7297SOL    HW233525   0.337   4.051  13.892  2.1677  0.6329 -1.0701
 7298SOL     OW33526   1.826   2.449   7.568 -0.2245  0.2314 -0.2124
 7298SOL    HW133527   1.800   2.457   7.660  0.3422  2.6191 -0.2808
 7298SOL    HW233528   1.760   2.508   7.533  0.2639  1.2034  0.5021
 7299SOL     OW33529   0.897   2.662   2.119 -0.0476  0.2007  0.1781
 7299SOL    HW133530   0.900   2.701   2.031 -0.3947 -1.4239 -0.5462
 7299SOL    HW233531   0.917   2.571   2.097 -1.6587 -0.2551  0.6055
 7300SOL     OW33532   2.483   2.875   6.712  0.2259 -0.2813 -0.0553
 7300SOL    HW133533   2.525   2.923   6.640 -1.8638  0.8205 -0.5374
 7300SOL    HW233534   2.459   2.948   6.769  0.8242 -0.2904  0.2129
 7301SOL     OW33535   2.832   2.556   0.123 -0.3890  0.1034  0.2227
 7301SOL    HW133536   2.899   2.490   0.106 -1.2064 -0.4334 -0.8981
 7301SOL    HW233537   2.871   2.641   0.102  0.0161 -0.3615 -0.8984
 7302SOL     OW33538   1.907   0.661   0.293  0.4094  0.2649  0.1388
 7302SOL    HW133539   1.942   0.608   0.364  0.5873  0.2900  0.0711
 7302SOL    HW233540   1.918   0.603   0.218  1.5028  0.7587 -0.0806
 7303SOL     OW33541   4.279   3.101   3.640  0.4786 -0.0382  0.1507
 7303SOL    HW133542   4.266   3.067   3.552 -0.4726 -3.4265  1.6227
 7303SOL    HW233543   4.271   3.195   3.620  1.6469  0.2645  1.0997
 7304SOL     OW33544   1.292   0.147   4.590  0.8421  0.0840  0.4426
 7304SOL    HW133545   1.342   0.067   4.575 -1.4491 -1.4168  0.8105
 7304SOL    HW233546   1.336   0.186   4.666 -3.4548  1.5776  2.1807
 7305SOL     OW33547   2.797   0.843  12.847  0.1307  0.5664  0.0507
 7305SOL    HW133548   2.820   0.761  12.889  1.5195  0.0303 -1.7850
 7305SOL    HW233549   2.881   0.888  12.858 -0.1669  0.7494  1.5145
 7306SOL     OW33550   0.168   2.579   5.340  0.0136 -0.1996 -0.2872
 7306SOL    HW133551   0.253   2.576   5.383 -1.3122  0.3949  2.3856
 7306SOL    HW233552   0.131   2.498   5.376  0.8916  0.5945  2.3976
 7307SOL     OW33553   1.624   0.337   6.691  0.3071  0.1770 -0.2334
 7307SOL    HW133554   1.642   0.379   6.776 -0.9410  0.3993 -0.0897
 7307SOL    HW233555   1.558   0.402   6.668  0.2965  0.0095 -0.6625
 7308SOL     OW33556   0.370   0.484  12.619 -0.6060 -0.3328  0.3010
 7308SOL    HW133557   0.362   0.441  12.704 -0.8660 -0.1175  0.3851
 7308SOL    HW233558   0.419   0.408  12.589  1.8707  1.5625 -0.4015
 7309SOL     OW33559   1.828   3.380   9.096  0.5514 -0.6417  0.7898
 7309SOL    HW133560   1.738   3.415   9.095  1.6451  2.3257  4.1002
 7309SOL    HW233561   1.883   3.451   9.130 -1.5072  0.1880  2.3816
 7310SOL     OW33562   0.275   2.183   7.096  0.0969 -0.1997 -0.0793
 7310SOL    HW133563   0.324   2.265   7.103  0.8083 -0.7661  1.7381
 7310SOL    HW233564   0.325   2.145   7.024 -0.7695  0.3042 -0.9419
 7311SOL     OW33565   3.086   3.205   5.882  0.1389  1.1959  0.5749
 7311SOL    HW133566   3.060   3.129   5.829  0.4951  0.0625  2.0447
 7311SOL    HW233567   3.010   3.225   5.936 -0.7059 -0.0471 -0.1714
 7312SOL     OW33568   1.394   3.192   6.082 -0.5541  0.3831  0.0911
 7312SOL    HW133569   1.325   3.251   6.050  0.0104  0.2218 -1.4456
 7312SOL    HW233570   1.469   3.214   6.026 -1.7578  0.6144 -1.4513
 7313SOL     OW33571   3.286   1.910   1.655  0.7764 -0.1398 -0.1414
 7313SOL    HW133572   3.326   1.826   1.634 -1.5025 -0.1320 -4.3900
 7313SOL    HW233573   3.249   1.890   1.741 -0.7903  0.1717 -0.7419
 7314SOL     OW33574   1.550   3.521   5.600  0.4285 -0.5497 -0.3241
 7314SOL    HW133575   1.581   3.451   5.543 -0.1392  0.0260 -1.3348
 7314SOL    HW233576   1.522   3.468   5.675 -1.4339  0.4072 -0.3338
 7315SOL     OW33577   3.710   1.766   6.110  0.1451 -0.3117 -0.3984
 7315SOL    HW133578   3.769   1.832   6.145  0.6074 -0.7651 -0.3268
 7315SOL    HW233579   3.666   1.728   6.185 -0.7377 -0.7109 -1.1126
 7316SOL     OW33580   4.199   3.037   3.387 -0.4069  0.2502 -0.0430
 7316SOL    HW133581   4.112   3.066   3.358 -0.7660 -0.3231  0.4654
 7316SOL    HW233582   4.190   2.942   3.385  0.6861  0.0994  2.2586
 7317SOL     OW33583   0.241   2.798   4.460 -0.2780  0.0358  0.2200
 7317SOL    HW133584   0.174   2.866   4.464 -0.4858 -0.1190 -0.5279
 7317SOL    HW233585   0.269   2.805   4.551 -2.2342 -2.5099  1.0299
 7318SOL     OW33586   2.299   3.537  14.422 -0.2580 -0.6423  0.0183
 7318SOL    HW133587   2.275   3.541  14.329  2.2231 -0.5153 -0.6215
 7318SOL    HW233588   2.355   3.460  14.432  0.9427  0.0341 -1.6010
 7319SOL     OW33589   2.226   1.548  14.944 -0.1679 -0.4864  0.7481
 7319SOL    HW133590   2.306   1.497  14.928 -0.5926 -0.8662 -0.1783
 7319SOL    HW233591   2.191   1.572  14.859 -2.4901  0.1187  1.8888
 7320SOL     OW33592   3.263   2.736   6.607  0.2435 -0.1995 -0.3144
 7320SOL    HW133593   3.282   2.778   6.691  0.5768 -0.3847 -0.2965
 7320SOL    HW233594   3.259   2.645   6.636  1.6534 -0.9030 -2.3551
 7321SOL     OW33595   0.641   2.973  12.734 -0.1945  0.4787 -0.0134
 7321SOL    HW133596   0.657   3.059  12.773 -1.4502  1.5206 -1.7802
 7321SOL    HW233597   0.611   2.927  12.811 -0.3363  0.7940  0.1203
 7322SOL     OW33598   3.015   4.721   8.599  0.0354  0.3676 -0.0238
 7322SOL    HW133599   3.021   4.626   8.600 -1.9765  0.2495  2.4994
 7322SOL    HW233600   2.963   0.005   8.521 -0.4894 -1.8947 -0.3072
 7323SOL     OW33601   0.525   4.652   6.969  0.9085 -0.1595 -0.0539
 7323SOL    HW133602   0.459   4.585   6.950 -0.5325  1.4702 -0.8402
 7323SOL    HW233603   0.585   4.647   6.894 -1.1323 -0.5445 -1.6585
 7324SOL     OW33604   4.581   3.819  13.359  0.3771  0.1761  0.0034
 7324SOL    HW133605   4.610   3.730  13.379  0.2485 -0.1652 -1.3442
 7324SOL    HW233606   4.497   3.802  13.316 -0.6876  2.8062  1.0032
 7325SOL     OW33607   0.668   1.126   3.886 -0.5540  0.2194  0.0675
 7325SOL    HW133608   0.763   1.117   3.899 -0.2488  0.0816 -2.3241
 7325SOL    HW233609   0.640   1.189   3.952  2.8787  2.5602 -0.6654
 7326SOL     OW33610   2.844   1.361   2.572 -0.0584  0.4611 -0.2850
 7326SOL    HW133611   2.790   1.433   2.602 -0.1505  0.3226 -0.1174
 7326SOL    HW233612   2.916   1.410   2.532 -0.1535  0.8796  0.0633
 7327SOL     OW33613   2.047   0.584   7.480  0.1040  0.1484 -0.0880
 7327SOL    HW133614   2.066   0.551   7.568 -0.5423 -1.4636 -0.5508
 7327SOL    HW233615   2.073   0.676   7.488  0.7601 -0.0361 -0.0932
 7328SOL     OW33616   2.361   4.689   7.109  0.3260 -0.3119 -0.0870
 7328SOL    HW133617   2.411   4.715   7.186  0.7169 -0.6557 -0.2277
 7328SOL    HW233618   2.406   4.606   7.096 -0.3041 -0.7826  0.7644
 7329SOL     OW33619   3.319   4.120   6.742  0.3787  0.2915  0.1816
 7329SOL    HW133620   3.330   4.028   6.766  0.3097  0.5269  1.1176
 7329SOL    HW233621   3.397   4.137   6.689  0.2637 -1.0500 -0.4108
 7330SOL     OW33622   3.013   0.713   8.705  0.0225  0.3417  0.1053
 7330SOL    HW133623   2.986   0.789   8.652  0.0327  0.0533 -0.3119
 7330SOL    HW233624   2.936   0.660   8.724 -0.0976 -0.1348 -1.7074
 7331SOL     OW33625   4.251   0.717   8.368 -0.2841  0.1124  0.0923
 7331SOL    HW133626   4.291   0.720   8.455  1.0780 -0.3939 -0.5110
 7331SOL    HW233627   4.177   0.773   8.389 -2.3834 -2.4709 -0.4977
 7332SOL     OW33628   2.280   0.619   1.111 -0.3429 -0.2974 -0.5822
 7332SOL    HW133629   2.314   0.593   1.196 -1.1890 -0.1362 -0.1883
 7332SOL    HW233630   2.184   0.613   1.116 -0.4490  0.5203 -1.4895
 7333SOL     OW33631   0.539   4.367   8.682 -0.5745 -0.4115  0.7686
 7333SOL    HW133632   0.561   4.337   8.770  1.0824  0.7795  0.7440
 7333SOL    HW233633   0.445   4.382   8.689 -0.2302  2.2106 -0.4562
 7334SOL     OW33634   0.458   1.503   3.490 -0.2189 -0.2175 -0.0435
 7334SOL    HW133635   0.485   1.524   3.400 -1.6031  0.2809 -0.3342
 7334SOL    HW233636   0.524   1.443   3.525 -0.1138  0.9459  1.7263
 7335SOL     OW33637   3.323   2.802   4.885  0.1590 -0.2412  0.2797
 7335SOL    HW133638   3.375   2.723   4.898  3.0385  1.3572 -1.2856
 7335SOL    HW233639   3.349   2.840   4.801  2.0414 -0.3626  0.8097
 7336SOL     OW33640   2.221   1.891   7.065 -0.2041 -0.2280 -0.1110
 7336SOL    HW133641   2.163   1.947   7.117 -0.7173  0.0829 -0.9980
 7336SOL    HW233642   2.304   1.937   7.054  0.1163 -0.1385  2.8505
 7337SOL     OW33643   1.464   3.071  16.188  0.7194  0.4662  0.0119
 7337SOL    HW133644   1.529   3.067  16.118  2.2662 -0.5420  1.4964
 7337SOL    HW233645   1.386   3.065  16.133  0.2590  1.9272  0.5134
 7338SOL     OW33646   3.299   4.488   4.654  0.6221 -0.5696 -0.6625
 7338SOL    HW133647   3.324   4.501   4.745 -2.5300  0.2062  0.0940
 7338SOL    HW233648   3.339   4.573   4.632 -1.5901  0.0694 -2.2961
 7339SOL     OW33649   3.599   2.892   1.782 -0.0910 -0.0019 -0.0986
 7339SOL    HW133650   3.659   2.915   1.710  0.2575 -0.5588  0.0089
 7339SOL    HW233651   3.584   2.804   1.747 -1.8733  1.4149 -2.8966
 7340SOL     OW33652   0.957   2.506  11.444  0.4070 -0.8528 -0.4626
 7340SOL    HW133653   0.888   2.504  11.377  0.3882  1.6153 -0.5532
 7340SOL    HW233654   0.994   2.594  11.455  0.5436 -0.5643 -3.2242
 7341SOL     OW33655   2.219   4.635   6.587  0.1026  0.1820 -0.5430
 7341SOL    HW133656   2.220   4.723   6.550  3.8930 -0.0958 -1.0713
 7341SOL    HW233657   2.125   4.617   6.594  0.1052 -0.1041 -1.2593
 7342SOL     OW33658   3.913   0.524   4.701 -0.0724 -0.4303 -0.9984
 7342SOL    HW133659   3.946   0.605   4.740 -1.1986  0.3968 -1.7782
 7342SOL    HW233660   3.989   0.493   4.651 -0.3286  0.6274 -2.0384
 7343SOL     OW33661   3.969   3.378  12.099  0.3712  0.8340 -0.1018
 7343SOL    HW133662   3.896   3.395  12.159 -1.2736  0.9037 -2.1323
 7343SOL    HW233663   3.964   3.457  12.046 -0.2535 -0.3459 -1.7823
 7344SOL     OW33664   4.584   4.596   4.147 -0.2727 -0.6765 -0.1601
 7344SOL    HW133665   4.653   4.627   4.088 -0.6513 -0.5983 -0.5644
 7344SOL    HW233666   4.586   4.673   4.204 -0.9285 -1.2693  0.6485
 7345SOL     OW33667   3.414   2.706   7.245 -0.0857 -0.0145  0.0339
 7345SOL    HW133668   3.327   2.683   7.213 -0.9108  0.0329  2.2671
 7345SOL    HW233669   3.396   2.738   7.333  0.4936  0.0104  0.1436
 7346SOL     OW33670   3.274   0.260   3.470 -0.7217  0.5293  0.2845
 7346SOL    HW133671   3.209   0.304   3.526 -2.6435 -0.7735 -0.9330
 7346SOL    HW233672   3.316   0.204   3.534 -2.6643 -0.4378  0.7148
 7347SOL     OW33673   3.999   1.504   9.528 -0.4416 -0.1015 -0.1925
 7347SOL    HW133674   3.928   1.440   9.528  0.0140 -0.6079  0.9330
 7347SOL    HW233675   3.958   1.576   9.480  3.5506  0.4985 -2.6864
 7348SOL     OW33676   4.131   2.432   3.112  0.0622  0.4013 -0.2035
 7348SOL    HW133677   4.206   2.434   3.171  0.2603 -2.3798 -0.3647
 7348SOL    HW233678   4.093   2.345   3.126 -0.2134  0.3080 -1.5755
 7349SOL     OW33679   0.278   1.799  16.140  0.3704  0.1159  0.2569
 7349SOL    HW133680   0.342   1.855  16.183  0.2039 -0.4099  1.1843
 7349SOL    HW233681   0.287   1.832  16.050 -0.7819 -0.8458 -0.2150
 7350SOL     OW33682   2.823   3.577  12.516  0.0347  0.2648 -0.3620
 7350SOL    HW133683   2.774   3.546  12.592  0.1234 -0.4537 -0.6006
 7350SOL    HW233684   2.910   3.549  12.544 -0.4190 -2.0193 -1.2508
 7351SOL     OW33685   0.037   1.036   6.124 -0.6854  0.0189 -0.2152
 7351SOL    HW133686   4.717   0.967   6.156 -1.0663 -0.3920 -1.7667
 7351SOL    HW233687   4.722   1.113   6.143 -0.4725 -0.1703  1.0864
 7352SOL     OW33688   4.174   0.103   1.911  0.1446 -0.1058 -0.5785
 7352SOL    HW133689   4.224   0.172   1.954  2.7275 -0.6172 -2.8147
 7352SOL    HW233690   4.191   0.028   1.968 -1.0103  0.5821  0.6634
 7353SOL     OW33691   1.926   2.475   5.359  0.4881 -0.0231  0.6408
 7353SOL    HW133692   1.960   2.390   5.330  1.5739 -0.4465  3.1582
 7353SOL    HW233693   1.872   2.493   5.282  1.1892 -2.1822 -0.3484
 7354SOL     OW33694   2.326   4.352  10.478  0.3566  0.3858 -0.3447
 7354SOL    HW133695   2.367   4.342  10.392  2.5777 -0.5256  0.8099
 7354SOL    HW233696   2.356   4.269  10.516 -0.7748  0.0264 -0.2560
 7355SOL     OW33697   0.823   3.500   8.342 -0.1157 -0.0398  0.3443
 7355SOL    HW133698   0.762   3.430   8.367  0.5622 -0.4853  0.7355
 7355SOL    HW233699   0.858   3.521   8.429 -0.7837  1.3418  0.2834
 7356SOL     OW33700   3.150   0.658   8.085 -0.2625  0.1186 -0.0186
 7356SOL    HW133701   3.056   0.652   8.100  0.0396 -2.6808  0.8475
 7356SOL    HW233702   3.157   0.691   7.995  0.6582  3.6068  1.3133
 7357SOL     OW33703   3.232   1.265   4.596 -0.1099 -0.6126 -0.0372
 7357SOL    HW133704   3.200   1.283   4.508 -1.6585 -1.4770  0.3507
 7357SOL    HW233705   3.295   1.332   4.625 -0.1070 -0.3687 -0.6163
 7358SOL     OW33706   3.367   3.229  11.717 -0.2211  0.2951 -0.3564
 7358SOL    HW133707   3.347   3.260  11.628  0.0551  1.8761  0.1283
 7358SOL    HW233708   3.288   3.239  11.771  0.5266  0.3377  0.7238
 7359SOL     OW33709   1.992   3.612   6.034  0.2427 -0.0226 -0.3734
 7359SOL    HW133710   2.087   3.609   6.047  0.3754 -2.0484 -1.7864
 7359SOL    HW233711   1.981   3.573   5.947  0.6816  1.5914 -1.1654
 7360SOL     OW33712   1.785   1.485   7.590 -0.1737 -0.2483 -0.2981
 7360SOL    HW133713   1.705   1.538   7.587 -0.7253 -0.9246  2.0663
 7360SOL    HW233714   1.851   1.552   7.573  1.7006 -2.0753 -0.0923
 7361SOL     OW33715   1.315   1.960   8.113  0.0598 -0.2909 -0.5879
 7361SOL    HW133716   1.271   1.905   8.177 -0.9375 -0.8310 -1.7270
 7361SOL    HW233717   1.331   2.045   8.155  2.1480 -1.5705  1.1890
 7362SOL     OW33718   0.415   3.612   3.443 -0.1821  0.6442 -0.1297
 7362SOL    HW133719   0.332   3.606   3.491  0.8003 -0.0014  1.4943
 7362SOL    HW233720   0.443   3.701   3.462  0.7566  0.4019 -0.4071
 7363SOL     OW33721   2.241   2.771   8.769  0.3351  0.6420 -0.0243
 7363SOL    HW133722   2.186   2.847   8.751 -2.3860 -0.3241  4.2925
 7363SOL    HW233723   2.273   2.759   8.679 -1.0696  1.2314 -0.5988
 7364SOL     OW33724   0.921   2.839   3.426  0.0362  0.1912 -0.3353
 7364SOL    HW133725   0.871   2.773   3.378  1.3537 -0.4501 -0.8122
 7364SOL    HW233726   0.857   2.870   3.490  1.4398  1.8470  0.2648
 7365SOL     OW33727   1.781   0.041   5.071  0.1260  0.3975  0.6837
 7365SOL    HW133728   1.838   4.729   5.012 -2.3151 -0.1400 -1.1977
 7365SOL    HW233729   1.848   0.041   5.140  1.4459 -2.8547 -0.5531
 7366SOL     OW33730   4.159   0.452   7.436  0.0835 -0.2225 -0.3750
 7366SOL    HW133731   4.083   0.402   7.465  1.4683 -1.1038  1.7423
 7366SOL    HW233732   4.115   0.507   7.372  1.6385  0.4419 -0.8831
 7367SOL     OW33733   0.414   0.045   6.016 -0.9377  0.1254 -0.2932
 7367SOL    HW133734   0.447   0.081   5.934 -0.5696  3.3295  1.2354
 7367SOL    HW233735   0.363   4.710   5.982  1.2935 -0.0581 -3.2202
 7368SOL     OW33736   2.759   4.052   4.665  0.1085  1.2302 -0.0063
 7368SOL    HW133737   2.703   4.001   4.606  0.2118  0.8249  0.2455
 7368SOL    HW233738   2.721   4.023   4.748 -1.6094  0.8708 -0.9162
 7369SOL     OW33739   2.243   1.410  16.639  0.0791 -0.2451 -0.7118
 7369SOL    HW133740   2.290   1.332  16.670  0.6898  0.4167  0.0460
 7369SOL    HW233741   2.272   1.415  16.549 -2.2324  0.7574 -1.4087
 7370SOL     OW33742   4.671   2.764   0.511 -0.5813  0.7545  0.6062
 7370SOL    HW133743   4.590   2.746   0.464  1.7836 -2.3578 -2.2813
 7370SOL    HW233744   4.658   2.858   0.522 -2.9273  0.7179 -2.1923
 7371SOL     OW33745   2.981   0.944   3.658 -0.2909 -0.7134 -0.1381
 7371SOL    HW133746   3.073   0.971   3.647 -0.0722 -0.7917  1.4902
 7371SOL    HW233747   2.937   1.007   3.716  0.1594 -0.1780 -0.3723
 7372SOL     OW33748   1.827   0.658   4.564  0.0889 -0.3818  0.2166
 7372SOL    HW133749   1.788   0.705   4.638 -0.8770  0.2991 -0.7204
 7372SOL    HW233750   1.908   0.709   4.555 -0.9263  0.8762 -1.8454
 7373SOL     OW33751   3.474   1.514   5.235 -0.5127  0.8155 -0.4710
 7373SOL    HW133752   3.525   1.499   5.155  0.8350 -1.0142  0.7189
 7373SOL    HW233753   3.384   1.502   5.207 -0.5901 -0.5248  0.3964
 7374SOL     OW33754   0.531   0.496   4.858 -0.2657 -0.6268  0.1587
 7374SOL    HW133755   0.438   0.516   4.847  0.1203  0.2888 -1.4545
 7374SOL    HW233756   0.572   0.525   4.776  2.2304 -0.2218  1.5230
 7375SOL     OW33757   3.674   0.946   6.604 -0.2677  0.1817 -0.3485
 7375SOL    HW133758   3.721   0.872   6.643  0.0611 -0.6065 -2.2495
 7375SOL    HW233759   3.584   0.912   6.610  0.0303 -0.4420  0.5184
 7376SOL     OW33760   2.026   2.471   9.243  0.1219 -0.6574 -0.4063
 7376SOL    HW133761   2.059   2.560   9.229  0.0737 -0.5035  0.4679
 7376SOL    HW233762   2.053   2.447   9.331  0.4173  1.3252  0.0348
 7377SOL     OW33763   3.504   3.025   8.746  0.1430 -0.4406 -0.4247
 7377SOL    HW133764   3.527   3.031   8.838  1.3289 -1.0738 -0.6844
 7377SOL    HW233765   3.412   3.051   8.745  0.7758  1.7903  1.3499
 7378SOL     OW33766   0.754   1.365   0.524 -0.5544 -0.2639  0.2149
 7378SOL    HW133767   0.722   1.453   0.547  0.5806  0.3455 -0.4847
 7378SOL    HW233768   0.672   1.316   0.525  0.2666 -1.6324  1.1489
 7379SOL     OW33769   1.761   1.331   3.166  0.0661  0.0326  0.2057
 7379SOL    HW133770   1.844   1.353   3.123 -1.6087  1.6879 -2.2200
 7379SOL    HW233771   1.779   1.255   3.221 -0.0969 -0.7371 -0.8009
 7380SOL     OW33772   1.137   3.161  14.279  0.3157 -0.2007  0.0437
 7380SOL    HW133773   1.060   3.125  14.235  0.0637  1.0352 -0.5355
 7380SOL    HW233774   1.091   3.223  14.336 -1.3243 -1.3064 -0.0995
 7381SOL     OW33775   2.770   2.291   9.279  0.4580  0.1044 -0.6433
 7381SOL    HW133776   2.831   2.363   9.262 -0.9276  1.0799 -1.5157
 7381SOL    HW233777   2.834   2.221   9.293  0.2629  0.3615  1.4858
 7382SOL     OW33778   0.326   0.717   2.647  0.4185  0.1245 -0.5384
 7382SOL    HW133779   0.240   0.735   2.611  0.4224 -1.7368 -1.5058
 7382SOL    HW233780   0.355   0.795   2.694 -0.1677  0.8599 -1.4330
 7383SOL     OW33781   3.874   1.619   1.692 -0.3269  0.3748 -0.2087
 7383SOL    HW133782   3.936   1.683   1.657 -0.9383  1.4059  0.5606
 7383SOL    HW233783   3.934   1.569   1.747 -1.8131  0.5521  1.5958
 7384SOL     OW33784   2.690   1.093   5.154  0.3258  0.2722  0.2295
 7384SOL    HW133785   2.768   1.147   5.162 -0.4393  1.0055  2.8073
 7384SOL    HW233786   2.642   1.146   5.091 -1.9355 -1.5154  0.4591
 7385SOL     OW33787   4.729   1.130   4.907 -1.0231 -0.1390  0.4959
 7385SOL    HW133788   0.037   1.203   4.949  1.0692 -0.3721 -1.3630
 7385SOL    HW233789   4.659   1.126   4.972 -0.7226 -0.1576  0.8213
 7386SOL     OW33790   1.423   1.164   8.518 -0.0230  0.2493 -0.4233
 7386SOL    HW133791   1.329   1.150   8.512  0.1951 -1.0283 -0.8428
 7386SOL    HW233792   1.456   1.166   8.428  0.1077  0.4698 -0.3718
 7387SOL     OW33793   3.375   3.070   3.454  0.1845 -0.3046  0.0556
 7387SOL    HW133794   3.310   3.000   3.452  0.8435 -0.8742 -1.2724
 7387SOL    HW233795   3.398   3.063   3.362 -3.9592  3.5971 -1.3015
 7388SOL     OW33796   0.203   3.682   8.630  0.5452 -0.4205 -0.2523
 7388SOL    HW133797   0.118   3.639   8.625 -0.5325  1.7318 -0.3912
 7388SOL    HW233798   0.264   3.610   8.615 -1.3085 -2.4282  1.9049
 7389SOL     OW33799   2.936   4.085   1.450 -0.2988  0.3001  0.0329
 7389SOL    HW133800   2.886   4.136   1.513  0.9079  0.6530  0.7123
 7389SOL    HW233801   2.886   4.004   1.442 -1.0683  0.6768  1.1362
 7390SOL     OW33802   4.612   1.432   2.832 -0.1690 -0.3269  1.0224
 7390SOL    HW133803   4.585   1.433   2.923 -3.6876 -0.7719 -0.0088
 7390SOL    HW233804   4.539   1.387   2.789 -0.0168 -3.1414  3.7732
 7391SOL     OW33805   3.341   2.847   1.559 -0.0847  0.2915  0.0715
 7391SOL    HW133806   3.295   2.923   1.596 -0.1496  0.3096 -0.0440
 7391SOL    HW233807   3.290   2.842   1.478 -0.2407 -1.3046  0.2684
 7392SOL     OW33808   0.174   0.838   8.760 -0.1375 -0.5829 -0.3267
 7392SOL    HW133809   0.109   0.820   8.692  1.5401 -1.3291 -1.7430
 7392SOL    HW233810   0.226   0.909   8.723 -1.8524  1.3486  0.9540
 7393SOL     OW33811   2.579   1.762   1.993 -0.3141  0.2114 -0.2958
 7393SOL    HW133812   2.663   1.751   1.949  0.1067  2.1581  0.0196
 7393SOL    HW233813   2.593   1.704   2.068 -2.0016 -0.0163 -0.1398
 7394SOL     OW33814   2.193   3.856  15.480  0.1448  0.2591 -0.1298
 7394SOL    HW133815   2.233   3.799  15.545 -0.5237 -0.4613 -0.3524
 7394SOL    HW233816   2.179   3.795  15.407  1.8732 -0.4584  0.1442
 7395SOL     OW33817   2.929   3.246   7.412 -0.5985  0.0357 -0.0903
 7395SOL    HW133818   2.840   3.280   7.401 -0.4254  0.9085  1.1336
 7395SOL    HW233819   2.981   3.324   7.430 -0.0425  0.2886 -2.8471
 7396SOL     OW33820   0.850   0.206  10.457 -0.1132  0.2246 -0.0652
 7396SOL    HW133821   0.835   0.183  10.366 -1.3673  2.4890 -0.4270
 7396SOL    HW233822   0.886   0.294  10.440 -0.4902  0.3231 -0.3397
 7397SOL     OW33823   1.186   1.449   3.717  0.5386  0.4086 -0.9931
 7397SOL    HW133824   1.094   1.469   3.734  0.8302  1.3146 -0.4923
 7397SOL    HW233825   1.236   1.530   3.726  0.4032  0.3561  0.1585
 7398SOL     OW33826   3.007   0.776   5.611  0.0704 -0.0854 -0.6733
 7398SOL    HW133827   3.008   0.825   5.694 -0.1477 -1.2663  0.0302
 7398SOL    HW233828   3.049   0.840   5.553  0.8251  0.1227  0.0961
 7399SOL     OW33829   0.139   0.972   0.723 -0.1044 -0.0803  0.3781
 7399SOL    HW133830   0.053   0.937   0.748 -0.9136  2.4333  1.0863
 7399SOL    HW233831   0.199   0.914   0.770 -0.0812 -0.9862 -0.7665
 7400SOL     OW33832   2.975   4.353   6.422 -0.1297 -0.3300 -0.4493
 7400SOL    HW133833   2.898   4.361   6.366 -2.0911 -0.0901  2.2675
 7400SOL    HW233834   2.972   4.259   6.441  1.1049  0.1337  1.9735
 7401SOL     OW33835   1.189   4.546   9.176  0.4121 -0.1877 -0.0257
 7401SOL    HW133836   1.239   4.558   9.257 -0.8619  3.8607  0.1583
 7401SOL    HW233837   1.256   4.526   9.110 -0.6766  0.2395 -1.2542
 7402SOL     OW33838   0.002   4.133   7.388 -0.1156 -0.5806 -1.2134
 7402SOL    HW133839   0.098   4.126   7.384 -0.0891  0.7383 -2.7102
 7402SOL    HW233840   4.727   4.039   7.397  0.8558 -0.5757  0.2549
 7403SOL     OW33841   0.963   2.261   7.227  1.2671 -0.1816  0.3576
 7403SOL    HW133842   0.881   2.292   7.189  0.1961 -1.1628  1.8856
 7403SOL    HW233843   0.949   2.281   7.319  0.3140 -0.3468  0.2508
 7404SOL     OW33844   4.561   3.187   4.511  0.1113 -0.1933  0.4165
 7404SOL    HW133845   4.566   3.202   4.416 -2.6193  0.2959  0.3519
 7404SOL    HW233846   4.532   3.275   4.537 -2.0495 -0.9033  0.4321
 7405SOL     OW33847   1.681   1.271   1.617 -0.0930  0.5738 -0.4867
 7405SOL    HW133848   1.737   1.198   1.590  0.6622  1.6398 -1.8097
 7405SOL    HW233849   1.735   1.346   1.591 -1.0499  1.1248 -0.8995
 7406SOL     OW33850   1.628   3.278   5.894 -0.2818 -0.1784  0.0702
 7406SOL    HW133851   1.642   3.219   5.820 -1.9157 -0.6475  0.1560
 7406SOL    HW233852   1.717   3.279   5.930 -0.8210  1.1025  1.3660
 7407SOL     OW33853   3.610   0.094   8.956  0.1356  0.1109  0.4244
 7407SOL    HW133854   3.694   0.092   9.002  1.4965  1.2246 -2.0047
 7407SOL    HW233855   3.559   0.021   8.991 -0.4816 -1.2133 -3.1782
 7408SOL     OW33856   2.134   4.272   6.193  0.5551 -0.4572  0.3418
 7408SOL    HW133857   2.132   4.367   6.203  0.3599 -0.1195 -2.8390
 7408SOL    HW233858   2.169   4.260   6.104  0.2132 -0.8631  0.2580
 7409SOL     OW33859   3.745   2.322  12.582 -0.7357  0.4985 -0.1436
 7409SOL    HW133860   3.726   2.238  12.625  0.1553 -1.0993 -2.8483
 7409SOL    HW233861   3.661   2.367  12.585 -1.8103 -1.3880 -2.1815
 7410SOL     OW33862   3.536   0.096   5.331  0.1199  0.6312 -0.0969
 7410SOL    HW133863   3.493   0.088   5.417 -1.2467  1.9866 -0.6424
 7410SOL    HW233864   3.475   0.052   5.272  0.1701 -0.1449  0.4306
 7411SOL     OW33865   4.688   4.249   2.906 -0.1671 -0.3557  0.1153
 7411SOL    HW133866   4.689   4.335   2.948  0.2937 -0.0142 -0.5784
 7411SOL    HW233867   4.696   4.188   2.979  0.0072 -2.0966 -1.3463
 7412SOL     OW33868   2.334   0.129  12.254  0.1474  0.6606  0.2035
 7412SOL    HW133869   2.267   0.075  12.294 -0.2110  0.6296 -0.4357
 7412SOL    HW233870   2.407   0.073  12.281 -0.3490  0.2491  0.6733
 7413SOL     OW33871   3.968   4.584   3.185 -0.4690 -0.4261  0.7389
 7413SOL    HW133872   3.931   4.497   3.176  1.0246 -1.0686  0.8108
 7413SOL    HW233873   4.063   4.575   3.191 -0.2465  0.5016 -1.4661
 7414SOL     OW33874   2.590   1.859   6.731  0.6133 -0.4429  0.7712
 7414SOL    HW133875   2.558   1.949   6.727  3.2519  0.3992 -1.1522
 7414SOL    HW233876   2.673   1.877   6.775  0.1682 -1.3552  2.0147
 7415SOL     OW33877   3.874   0.067  17.511 -0.2217  0.9363 -0.0297
 7415SOL    HW133878   3.848   0.032  17.597 -0.2099 -0.6526 -0.6696
 7415SOL    HW233879   3.962   0.088  17.542 -0.1516 -1.6258  1.5840
 7416SOL     OW33880   2.641   0.403   6.314  0.1084  0.2942  0.4352
 7416SOL    HW133881   2.604   0.472   6.368 -1.0590  1.1240 -1.4025
 7416SOL    HW233882   2.669   0.450   6.235  2.0837  1.2941  1.7403
 7417SOL     OW33883   0.111   0.331  13.327 -0.0948  0.0074 -0.4186
 7417SOL    HW133884   0.167   0.374  13.263 -0.4227 -0.7288 -1.2026
 7417SOL    HW233885   0.033   0.385  13.318 -0.1692 -0.7644 -4.4361
 7418SOL     OW33886   3.361   0.887   2.934 -0.2252  0.1379 -0.6412
 7418SOL    HW133887   3.366   0.871   3.028 -2.2854 -0.1507 -0.5637
 7418SOL    HW233888   3.451   0.910   2.915  0.3427 -3.0451 -1.7927
 7419SOL     OW33889   1.921   1.020   8.520 -0.8333  0.1390  0.3622
 7419SOL    HW133890   1.981   0.968   8.574 -1.1823  0.6846  1.2691
 7419SOL    HW233891   1.834   0.981   8.532 -0.7033 -0.3776 -0.3500
 7420SOL     OW33892   0.969   4.035   1.817  0.0519 -0.1320 -0.6002
 7420SOL    HW133893   0.948   4.127   1.803  0.4078  0.1965  1.0409
 7420SOL    HW233894   1.017   4.013   1.737  0.6415 -0.8213 -0.0533
 7421SOL     OW33895   0.023   4.076   2.203 -0.1386  0.2065 -0.6152
 7421SOL    HW133896   4.694   4.022   2.244  0.1817  0.9613  0.8965
 7421SOL    HW233897   4.723   4.162   2.218  0.4780  0.5279 -0.9105
 7422SOL     OW33898   3.240   3.866   7.298 -0.3142  0.4571 -0.1429
 7422SOL    HW133899   3.280   3.788   7.258 -1.7174  1.3857 -3.4043
 7422SOL    HW233900   3.318   3.906   7.337 -0.5306  0.5135  0.2262
 7423SOL     OW33901   3.493   2.275   7.090  0.5558 -0.1133 -0.2998
 7423SOL    HW133902   3.433   2.349   7.101  1.0893  0.0729  1.3293
 7423SOL    HW233903   3.466   2.222   7.164 -0.7479 -2.3683 -2.4085
 7424SOL     OW33904   0.769   3.155  13.522 -0.0463  0.0327 -0.2481
 7424SOL    HW133905   0.847   3.108  13.491 -0.2001 -0.0179 -0.5649
 7424SOL    HW233906   0.760   3.229  13.462  2.4815  0.1353 -0.5036
 7425SOL     OW33907   3.588   0.115   0.392 -0.3837  0.1443  0.0559
 7425SOL    HW133908   3.524   0.176   0.355 -0.2056 -0.1140 -0.6851
 7425SOL    HW233909   3.647   0.179   0.432  0.7383 -1.0109  0.2570
 7426SOL     OW33910   0.651   1.427   5.844 -0.3237  0.0882 -0.2043
 7426SOL    HW133911   0.716   1.435   5.774 -0.3375 -0.7140 -0.3030
 7426SOL    HW233912   0.683   1.355   5.898 -0.8325 -1.1522 -1.5519
 7427SOL     OW33913   4.042   0.201   9.467 -0.1983  0.0780  0.0464
 7427SOL    HW133914   4.047   0.149   9.547 -0.4510 -1.4088 -0.8829
 7427SOL    HW233915   4.031   0.291   9.496 -0.4428  0.8257 -2.3633
 7428SOL     OW33916   1.163   3.718   8.446  0.3970  0.4456 -0.3691
 7428SOL    HW133917   1.214   3.685   8.372  1.0507  1.2012 -0.2601
 7428SOL    HW233918   1.094   3.763   8.398  0.1631 -0.7695 -1.1736
 7429SOL     OW33919   4.180   3.662  16.424 -0.3399 -0.6561  0.3178
 7429SOL    HW133920   4.248   3.724  16.451  1.0812 -1.0559 -2.3133
 7429SOL    HW233921   4.181   3.609  16.503 -0.6743  1.6502  1.8532
 7430SOL     OW33922   1.885   2.468   9.653 -0.0448 -0.0544  0.1551
 7430SOL    HW133923   1.882   2.560   9.629 -2.6353  0.2697  1.6527
 7430SOL    HW233924   1.941   2.465   9.730  2.2777 -2.5407 -1.6267
 7431SOL     OW33925   4.698   2.791   9.103  0.2056  0.0085 -0.4838
 7431SOL    HW133926   0.024   2.721   9.112  0.9168  0.8534  1.0941
 7431SOL    HW233927   4.628   2.768   9.042  0.9864 -0.2992 -1.2626
 7432SOL     OW33928   3.303   4.145   5.618  0.2163 -0.1197  0.0937
 7432SOL    HW133929   3.321   4.216   5.680 -2.8280  0.2069  0.5974
 7432SOL    HW233930   3.279   4.077   5.681 -0.8838  0.3213  0.1435
 7433SOL     OW33931   3.871   2.207   1.403 -0.0859 -0.1401 -0.6501
 7433SOL    HW133932   3.873   2.178   1.494 -0.0483 -1.0892 -0.9493
 7433SOL    HW233933   3.906   2.296   1.403 -2.3349  0.7381  0.0678
 7434SOL     OW33934   3.474   2.364  15.657  0.2474 -0.1068  0.1632
 7434SOL    HW133935   3.514   2.277  15.667  2.1392  0.5398 -1.7760
 7434SOL    HW233936   3.538   2.418  15.704  0.2993 -2.3359  2.6403
 7435SOL     OW33937   3.234   2.776   2.232 -0.1644  0.1241  0.3925
 7435SOL    HW133938   3.186   2.857   2.247 -3.3762 -1.7937  0.2784
 7435SOL    HW233939   3.291   2.764   2.309 -0.5277  1.4543  0.8714
 7436SOL     OW33940   3.617   3.842   2.639  0.1165  0.0635  0.2319
 7436SOL    HW133941   3.705   3.821   2.607  0.2465 -1.5382  1.6362
 7436SOL    HW233942   3.563   3.771   2.601 -1.3310  0.6628  1.1798
 7437SOL     OW33943   0.779   1.684   3.868 -0.0949  0.1847 -0.1730
 7437SOL    HW133944   0.786   1.768   3.823 -0.1971  0.7443  0.8566
 7437SOL    HW233945   0.795   1.623   3.796 -0.7480  1.8781 -1.7421
 7438SOL     OW33946   3.897   4.264  17.026 -0.3085  0.0426  0.1880
 7438SOL    HW133947   3.844   4.202  17.077 -0.9063 -0.2265 -0.7597
 7438SOL    HW233948   3.840   4.269  16.949  0.3466  0.7854 -0.2394
 7439SOL     OW33949   3.274   1.669   0.597 -1.0083  0.0141 -0.2807
 7439SOL    HW133950   3.329   1.590   0.593  0.0160  0.7717 -0.9420
 7439SOL    HW233951   3.272   1.709   0.511  1.7946 -0.3349 -0.5151
 7440SOL     OW33952   4.544   4.114  12.004  0.3052  0.3949  0.5535
 7440SOL    HW133953   4.562   4.029  11.965  1.0133  0.2009  1.3153
 7440SOL    HW233954   4.596   4.111  12.084  0.5497 -0.3693  0.3601
 7441SOL     OW33955   4.548   2.398   0.034  0.3904  0.2797  0.4023
 7441SOL    HW133956   4.486   2.342  17.738 -0.7830  0.0755  2.2257
 7441SOL    HW233957   4.595   2.350   0.102 -0.7569  0.0495  1.0513
 7442SOL     OW33958   0.822   0.825   1.026 -0.1709  0.6268  0.4438
 7442SOL    HW133959   0.842   0.766   0.954 -0.4413  0.6885  0.3182
 7442SOL    HW233960   0.755   0.880   0.986 -0.2623  0.9778  1.0783
 7443SOL     OW33961   3.242   3.138   4.264  0.6387  0.4445 -0.3178
 7443SOL    HW133962   3.208   3.178   4.344  1.0355  0.9424 -0.4015
 7443SOL    HW233963   3.218   3.046   4.256  2.8994 -0.0338 -1.6513
 7444SOL     OW33964   2.018   3.803   3.710 -0.4621  0.0622  0.3632
 7444SOL    HW133965   2.108   3.775   3.731 -0.3552  1.5201  1.8526
 7444SOL    HW233966   2.023   3.860   3.633  0.8643 -1.2652 -0.5507
 7445SOL     OW33967   4.648   0.158  16.276  0.0273 -0.0421 -0.1671
 7445SOL    HW133968   4.553   0.148  16.264 -0.3095  2.4634  0.4347
 7445SOL    HW233969   4.656   0.242  16.321  0.7780 -0.9044  1.2941
 7446SOL     OW33970   3.500   4.569   0.893 -0.0225 -0.6354  0.8493
 7446SOL    HW133971   3.517   4.515   0.816  3.2118  0.3530  0.8581
 7446SOL    HW233972   3.404   4.569   0.896 -0.0211  1.0993  0.6104
 7447SOL     OW33973   2.438   3.616   9.194  0.6321 -0.1303  0.5825
 7447SOL    HW133974   2.469   3.582   9.278 -0.5592 -2.2108  0.1578
 7447SOL    HW233975   2.344   3.607   9.209  0.3870 -0.6308 -1.3213
 7448SOL     OW33976   4.439   2.645   3.623 -0.3891 -0.7658  0.1668
 7448SOL    HW133977   4.481   2.693   3.552 -1.0053 -0.9442 -0.3139
 7448SOL    HW233978   4.501   2.664   3.693 -1.1815  2.0035  0.1338
 7449SOL     OW33979   4.540   1.428  13.435  0.3005 -0.4268 -0.6398
 7449SOL    HW133980   4.493   1.498  13.389 -0.3551 -1.2167 -1.1620
 7449SOL    HW233981   4.630   1.460  13.427 -0.1808  0.8214 -1.1052
 7450SOL     OW33982   1.773   1.543   3.828  0.0247 -0.3713  0.1174
 7450SOL    HW133983   1.801   1.502   3.909  0.3786 -1.5377 -0.5890
 7450SOL    HW233984   1.678   1.549   3.838 -0.1669 -1.9215 -0.8888
 7451SOL     OW33985   1.807   2.344   6.818 -0.6461 -0.3819  0.1259
 7451SOL    HW133986   1.875   2.377   6.876  0.2815 -0.6322 -0.8177
 7451SOL    HW233987   1.724   2.372   6.857 -0.2221  1.6489 -0.4118
 7452SOL     OW33988   3.200   2.545  16.305  0.2148 -0.3296 -0.9978
 7452SOL    HW133989   3.275   2.490  16.281  0.5545  0.0719 -0.8660
 7452SOL    HW233990   3.236   2.604  16.372 -4.4537  1.3153  0.0639
 7453SOL     OW33991   0.775   1.669   3.040 -0.4222  0.0193  0.3665
 7453SOL    HW133992   0.840   1.659   3.110 -1.1611 -0.6459  0.9523
 7453SOL    HW233993   0.722   1.740   3.076 -1.0597 -0.3198  0.1073
 7454SOL     OW33994   0.755   1.165  17.491 -0.4880  0.2589  1.0746
 7454SOL    HW133995   0.806   1.214  17.556  1.9622  0.7742 -1.2391
 7454SOL    HW233996   0.725   1.234  17.431  1.6415  0.4952  0.2792
 7455SOL     OW33997   1.092   1.645   7.887  0.2006 -0.4058  0.0888
 7455SOL    HW133998   1.092   1.578   7.819 -0.1267 -0.8866  0.5587
 7455SOL    HW233999   1.046   1.609   7.963 -0.3692 -0.5915 -0.3468
 7456SOL     OW34000   2.108   1.824   5.281 -0.1536 -0.5184 -0.0412
 7456SOL    HW134001   2.031   1.869   5.317 -0.0460  0.0828 -0.5727
 7456SOL    HW234002   2.079   1.733   5.294  0.6363 -0.6643  0.6835
 7457SOL     OW34003   3.271   0.079   8.137 -0.0349  0.0800  0.4882
 7457SOL    HW134004   3.345   0.019   8.139 -0.6890 -0.7160  0.7716
 7457SOL    HW234005   3.299   0.153   8.192  0.6100 -0.9572  1.5444
 7458SOL     OW34006   3.690   2.970  10.936 -0.3805 -0.7391 -0.6765
 7458SOL    HW134007   3.716   2.883  10.904  0.4233 -0.6315 -0.3243
 7458SOL    HW234008   3.754   3.036  10.908 -0.9902  0.0016 -0.3192
 7459SOL     OW34009   3.348   0.012   2.863  0.2692  0.8552  0.1677
 7459SOL    HW134010   3.423   0.049   2.816  0.0281 -1.2077 -1.8344
 7459SOL    HW234011   3.280   0.011   2.796 -0.2753 -1.2088  0.7505
 7460SOL     OW34012   0.420   1.649   9.110  0.6014  0.3329  0.5936
 7460SOL    HW134013   0.508   1.663   9.077 -0.3150  0.4514 -1.8182
 7460SOL    HW234014   0.362   1.718   9.078 -1.5553 -1.7947 -0.1329
 7461SOL     OW34015   0.127   4.425   2.718  0.0406 -0.9342  0.2294
 7461SOL    HW134016   0.221   4.426   2.737  0.5573 -0.0035 -2.3477
 7461SOL    HW234017   0.097   4.379   2.797 -1.1951 -2.0243 -0.8566
 7462SOL     OW34018   3.698   3.520   4.049  0.4172  0.2706  0.0013
 7462SOL    HW134019   3.610   3.502   4.016 -0.3945  0.6138  1.9533
 7462SOL    HW234020   3.675   3.471   4.128  2.0492  0.5207  0.6241
 7463SOL     OW34021   1.801   1.704  13.786  0.5115 -0.1568  0.4077
 7463SOL    HW134022   1.880   1.663  13.820 -0.6290 -0.8642  2.1993
 7463SOL    HW234023   1.803   1.797  13.810 -2.3364  0.1957 -0.7088
 7464SOL     OW34024   3.083   1.316   1.191 -0.6662  0.0522 -0.3392
 7464SOL    HW134025   3.160   1.281   1.147 -1.5527 -0.8604 -1.1890
 7464SOL    HW234026   3.110   1.308   1.282  0.7510 -1.4252 -0.8968
 7465SOL     OW34027   3.476   2.139   1.540  0.0918  0.2150  0.3027
 7465SOL    HW134028   3.437   2.057   1.571  0.6783  0.7690  2.4917
 7465SOL    HW234029   3.503   2.107   1.454 -0.5134 -1.3266  0.6751
 7466SOL     OW34030   1.233   1.990   3.533 -1.0098  0.3960  0.3700
 7466SOL    HW134031   1.313   2.041   3.522 -0.8389 -0.2356 -1.3400
 7466SOL    HW234032   1.225   1.974   3.439  1.2032 -1.9416  0.5704
 7467SOL     OW34033   2.118   4.054   4.363 -0.1071 -0.2641  0.1843
 7467SOL    HW134034   2.071   3.984   4.409 -1.3719  1.2746  1.2526
 7467SOL    HW234035   2.061   4.064   4.287 -0.4972  1.2063  0.6883
 7468SOL     OW34036   2.196   2.432   2.111  0.0187  0.2320  0.2200
 7468SOL    HW134037   2.226   2.430   2.020 -0.7163  1.5593 -0.0590
 7468SOL    HW234038   2.117   2.487   2.106 -0.6353 -0.7957 -0.7994
 7469SOL     OW34039   0.848   1.085   4.611  0.3391 -0.0398  0.1619
 7469SOL    HW134040   0.915   1.123   4.667  0.0413  0.4488  0.1912
 7469SOL    HW234041   0.783   1.155   4.597 -1.0849 -1.7471 -1.8564
 7470SOL     OW34042   0.136   4.723   4.466 -0.0174  0.8151 -0.4929
 7470SOL    HW134043   0.187   4.679   4.399  0.6517 -1.5414  1.5810
 7470SOL    HW234044   0.058   0.007   4.414  0.2053 -0.9468 -1.5840
 7471SOL     OW34045   1.300   2.823   4.405 -0.7097  0.1108  0.6703
 7471SOL    HW134046   1.387   2.786   4.396 -1.7825 -1.9519 -1.1513
 7471SOL    HW234047   1.269   2.825   4.314 -1.2458 -2.3527  0.7950
 7472SOL     OW34048   3.239   0.870   6.031 -0.3149 -0.0263 -0.2597
 7472SOL    HW134049   3.295   0.924   5.975  0.9957  1.4929  2.4615
 7472SOL    HW234050   3.281   0.785   6.042  0.4747  0.4189  0.1576
 7473SOL     OW34051   3.667   2.764   2.493  0.4817  1.1453 -0.3361
 7473SOL    HW134052   3.761   2.781   2.482  0.6175  1.2665  0.9962
 7473SOL    HW234053   3.666   2.704   2.568 -1.6080 -0.4173 -1.6186
 7474SOL     OW34054   3.879   3.834  12.424  0.0624 -0.1022  0.4188
 7474SOL    HW134055   3.906   3.924  12.442  0.5801 -0.2768  0.5258
 7474SOL    HW234056   3.839   3.818  12.509 -1.4128  2.3802  0.1888
 7475SOL     OW34057   2.426   4.241   9.692  0.3166  0.7506  0.4948
 7475SOL    HW134058   2.433   4.321   9.745 -0.9162  2.7529 -2.3796
 7475SOL    HW234059   2.352   4.268   9.637 -0.0065 -1.3509 -0.0757
 7476SOL     OW34060   1.933   3.035   9.489  0.1149  0.1890 -0.0089
 7476SOL    HW134061   1.868   3.059   9.555 -0.0992 -2.6547  0.8337
 7476SOL    HW234062   1.871   3.034   9.416  0.2726 -2.4070 -0.1130
 7477SOL     OW34063   3.737   0.038   8.637 -0.2089 -0.0989  0.1296
 7477SOL    HW134064   3.724   0.123   8.595  0.2496 -0.5700 -0.9701
 7477SOL    HW234065   3.679   4.717   8.588  0.1325 -1.6119  1.5593
 7478SOL     OW34066   2.431   3.407   2.583 -0.0831  0.0272  0.1035
 7478SOL    HW134067   2.471   3.381   2.666 -1.2047 -0.0514  0.6191
 7478SOL    HW234068   2.503   3.444   2.531 -0.6967  0.6333 -0.3105
 7479SOL     OW34069   4.216   1.903   1.782 -0.4785 -0.2807  0.3395
 7479SOL    HW134070   4.285   1.870   1.840 -1.3691 -2.3466  0.2219
 7479SOL    HW234071   4.138   1.851   1.799 -0.0241 -0.2142  2.5685
 7480SOL     OW34072   1.756   3.574   2.517  0.6328 -0.7298 -0.0412
 7480SOL    HW134073   1.760   3.665   2.486 -1.8389 -1.2187 -1.7736
 7480SOL    HW234074   1.842   3.550   2.483  1.2838 -0.7387  1.6122
 7481SOL     OW34075   4.054   4.640  12.558 -0.0647  0.2599 -1.2271
 7481SOL    HW134076   4.097   4.554  12.553 -0.9570 -0.1550 -1.7256
 7481SOL    HW234077   3.988   4.629  12.626 -1.5905  3.0026 -2.2697
 7482SOL     OW34078   2.608   2.722   5.667  0.2324 -0.1623 -0.0062
 7482SOL    HW134079   2.549   2.676   5.727 -0.3810  2.4731  1.4351
 7482SOL    HW234080   2.572   2.705   5.580  0.6501  0.0534 -0.2229
 7483SOL     OW34081   4.036   2.046   3.815  0.0234 -0.6598  0.8298
 7483SOL    HW134082   3.955   2.084   3.781 -0.1980 -0.9064  1.0861
 7483SOL    HW234083   4.063   2.119   3.871  1.1094  1.0683 -1.9340
 7484SOL     OW34084   0.809   4.432   3.010 -0.3361 -0.2029  0.5873
 7484SOL    HW134085   0.762   4.355   2.978 -0.0152  0.9545 -2.6973
 7484SOL    HW234086   0.853   4.458   2.929 -4.6195 -0.8604 -1.9825
 7485SOL     OW34087   1.910   3.842   6.908  0.1184  0.0301  0.6944
 7485SOL    HW134088   1.843   3.909   6.918 -1.5761 -1.8260  1.6167
 7485SOL    HW234089   1.979   3.878   6.964 -0.8556 -0.6745  2.3538
 7486SOL     OW34090   1.934   0.764   1.761  0.2486 -0.2529  0.5597
 7486SOL    HW134091   1.863   0.770   1.826  1.8304 -0.6318  2.3143
 7486SOL    HW234092   1.980   0.845   1.781 -0.4564  0.7054 -1.6381
 7487SOL     OW34093   2.131   0.039   4.425  0.8240 -0.0210  0.3680
 7487SOL    HW134094   2.072   4.705   4.402 -1.0810  2.0498 -1.2688
 7487SOL    HW234095   2.107   0.109   4.364  0.4102  0.5746  1.2104
 7488SOL     OW34096   0.901   3.050   5.372  0.2966 -0.5338 -0.1824
 7488SOL    HW134097   0.943   2.998   5.440 -1.8266 -2.3669 -0.2482
 7488SOL    HW234098   0.945   3.134   5.384 -1.6183  0.2607  1.3560
 7489SOL     OW34099   4.467   3.950   2.082  0.0980 -0.0142 -0.4517
 7489SOL    HW134100   4.503   3.926   2.167 -3.0436 -0.2694  0.8060
 7489SOL    HW234101   4.399   3.883   2.079 -0.3475  0.5325 -2.5357
 7490SOL     OW34102   1.385   2.252   1.140  0.0498 -0.0557 -0.1118
 7490SOL    HW134103   1.362   2.191   1.210 -0.6442  2.0875  1.5545
 7490SOL    HW234104   1.439   2.320   1.181  0.5034 -0.9095  0.7121
 7491SOL     OW34105   1.397   3.974   8.349  0.0227 -0.8705 -0.0030
 7491SOL    HW134106   1.319   3.978   8.294  1.0936 -0.4918 -1.4826
 7491SOL    HW234107   1.403   3.878   8.348 -1.8309 -0.9861 -0.3060
 7492SOL     OW34108   0.957   0.691   2.628 -0.2994 -0.1352  0.0097
 7492SOL    HW134109   1.049   0.665   2.625 -0.7298 -1.5342 -1.2306
 7492SOL    HW234110   0.956   0.774   2.580 -0.8476  0.1188  0.4591
 7493SOL     OW34111   3.836   3.281   4.663 -0.3516 -0.1510  0.5933
 7493SOL    HW134112   3.899   3.348   4.639 -0.2361 -0.5644 -0.2664
 7493SOL    HW234113   3.872   3.193   4.650 -0.4821 -0.2807  1.1022
 7494SOL     OW34114   0.306   0.750   3.691 -0.3190  0.0445  0.4917
 7494SOL    HW134115   0.229   0.771   3.639  0.6432 -0.4024 -1.1013
 7494SOL    HW234116   0.383   0.782   3.643 -1.0811  2.5272  0.9314
 7495SOL     OW34117   1.795   2.406   4.401 -0.2061 -0.3333  0.0535
 7495SOL    HW134118   1.720   2.432   4.348 -0.6955 -0.3092  0.7531
 7495SOL    HW234119   1.830   2.494   4.415 -0.5035 -0.3481  0.8935
 7496SOL     OW34120   1.701   1.050   1.789 -0.2916  0.6830 -0.4067
 7496SOL    HW134121   1.631   1.095   1.741  0.3066  1.9155 -0.0964
 7496SOL    HW234122   1.755   1.123   1.817  0.5268  0.0389 -0.3001
 7497SOL     OW34123   1.924   1.529  15.152 -0.5948 -0.0555  0.6939
 7497SOL    HW134124   1.939   1.466  15.081 -1.7202 -0.9305  1.2164
 7497SOL    HW234125   2.003   1.582  15.151 -0.6935  0.0607 -1.3712
 7498SOL     OW34126   3.243   4.536  13.953 -0.3435  0.2742  0.2418
 7498SOL    HW134127   3.209   4.609  13.900  0.0652  0.6788  0.5375
 7498SOL    HW234128   3.173   4.473  13.934  0.5644 -0.8101  0.5375
 7499SOL     OW34129   3.263   0.230   0.826 -0.0710  0.6284  0.1565
 7499SOL    HW134130   3.225   0.212   0.740  1.8839 -0.0234 -0.5687
 7499SOL    HW234131   3.357   0.238   0.807 -0.0521  0.5825  0.2311
 7500SOL     OW34132   4.381   2.327   6.891 -0.6104  0.2653 -0.3732
 7500SOL    HW134133   4.297   2.332   6.937 -0.0587  0.4385  0.6063
 7500SOL    HW234134   4.367   2.254   6.831 -0.5360 -0.8798  1.0045
 7501SOL     OW34135   3.590   1.141   3.458  0.2255 -0.0678 -0.8211
 7501SOL    HW134136   3.597   1.233   3.435 -1.4525 -0.1891 -1.8129
 7501SOL    HW234137   3.574   1.111   3.369  0.2951  0.2474 -0.9385
 7502SOL     OW34138   1.502   0.994   3.810 -0.8686  0.1323  0.5107
 7502SOL    HW134139   1.579   1.012   3.756 -1.6742  1.3101 -0.2426
 7502SOL    HW234140   1.438   1.046   3.761  0.0824  0.1142 -0.7375
 7503SOL     OW34141   2.943   1.950   8.284 -0.1636  0.0305  0.4729
 7503SOL    HW134142   3.002   1.919   8.215  1.5045 -0.4578  2.1510
 7503SOL    HW234143   2.984   1.893   8.349  0.2871  0.7970  0.8507
 7504SOL     OW34144   3.380   1.296   3.887  0.3026  0.3586  0.2211
 7504SOL    HW134145   3.409   1.309   3.977 -3.1258  0.3174  1.3218
 7504SOL    HW234146   3.380   1.201   3.881 -2.3385  0.3849 -0.0966
 7505SOL     OW34147   1.682   1.282   2.905  0.5505  0.3845 -0.0828
 7505SOL    HW134148   1.627   1.360   2.898 -1.0381 -0.5797  1.7137
 7505SOL    HW234149   1.707   1.269   2.996  0.0697  0.2688  0.0339
 7506SOL     OW34150   1.701   1.704   6.563  0.1999  0.8393 -0.4823
 7506SOL    HW134151   1.779   1.705   6.508 -0.0690  2.5496 -0.8198
 7506SOL    HW234152   1.672   1.613   6.560  0.5102  0.8366 -3.4484
 7507SOL     OW34153   4.096   0.660   2.309  0.6784 -0.0405  0.0698
 7507SOL    HW134154   4.027   0.685   2.371  0.1066  1.9611 -1.3609
 7507SOL    HW234155   4.100   0.739   2.254  0.4739 -0.8634 -1.1101
 7508SOL     OW34156   3.314   0.950   3.256 -0.0418  0.9739 -0.7820
 7508SOL    HW134157   3.352   1.032   3.226  4.6415 -1.2251 -0.7624
 7508SOL    HW234158   3.391   0.901   3.285 -0.9446 -0.4561 -0.8145
 7509SOL     OW34159   1.729   0.154  13.146  0.1700  0.5949  0.0586
 7509SOL    HW134160   1.709   0.239  13.108 -1.5496  0.5177  0.8132
 7509SOL    HW234161   1.814   0.148  13.103  0.1947 -2.1486  0.4593
 7510SOL     OW34162   0.946   1.834  11.566  0.1279 -0.1063  0.0558
 7510SOL    HW134163   0.855   1.864  11.568  0.7624  1.6548  2.2979
 7510SOL    HW234164   0.945   1.785  11.484 -2.5835  1.7235 -1.0008
 7511SOL     OW34165   3.656   0.321   7.251  0.2956  0.0053  0.2226
 7511SOL    HW134166   3.719   0.393   7.250 -1.5428  1.6371  1.2033
 7511SOL    HW234167   3.588   0.357   7.307 -0.7449  0.2069 -1.1606
 7512SOL     OW34168   2.291   0.918   5.013 -0.6578  0.4609 -0.3552
 7512SOL    HW134169   2.226   0.970   5.060 -1.3560 -0.4282 -0.3233
 7512SOL    HW234170   2.245   0.835   5.026  0.5526 -0.6822 -3.3182
 7513SOL     OW34171   0.198   2.632  10.159  0.0149 -0.2455 -0.2562
 7513SOL    HW134172   0.253   2.650  10.083  0.1327 -1.0854 -0.3714
 7513SOL    HW234173   0.220   2.540  10.176  0.0304 -0.3537 -0.8643
 7514SOL     OW34174   0.012   2.282   8.485 -0.1011  0.0958  0.3844
 7514SOL    HW134175   4.667   2.254   8.524 -2.1982  2.9686 -2.0796
 7514SOL    HW234176   0.041   2.354   8.541 -1.7100  1.6441 -0.7984
 7515SOL     OW34177   2.847   1.412   2.924 -0.2112 -0.5424  0.1522
 7515SOL    HW134178   2.911   1.346   2.897  0.0498 -0.6297  0.9700
 7515SOL    HW234179   2.847   1.462   2.842  2.6114  0.4373  0.7502
 7516SOL     OW34180   3.996   3.448   1.645 -0.0647 -0.6026 -0.1084
 7516SOL    HW134181   4.001   3.399   1.562  1.1356  1.3808 -1.2110
 7516SOL    HW234182   4.033   3.384   1.707  2.1200 -0.1034 -0.8914
 7517SOL     OW34183   0.517   2.322   8.279 -0.1090  0.1220  0.3456
 7517SOL    HW134184   0.454   2.252   8.259 -0.2369  1.2074 -3.0893
 7517SOL    HW234185   0.564   2.303   8.198  1.1288  2.4276  0.5438
 7518SOL     OW34186   3.403   1.846   5.573 -0.0281 -0.1312  0.1446
 7518SOL    HW134187   3.391   1.910   5.504 -0.7807  1.4204  1.7382
 7518SOL    HW234188   3.499   1.839   5.567 -0.0300 -0.3838  0.4081
 7519SOL     OW34189   1.102   4.004   1.578 -0.0058  0.6403  0.4190
 7519SOL    HW134190   1.147   4.077   1.537 -2.4823  1.7430 -0.2943
 7519SOL    HW234191   1.150   3.924   1.554  1.7345  1.1680  2.1119
 7520SOL     OW34192   3.353   2.553  14.579 -0.5177 -0.1791  0.6399
 7520SOL    HW134193   3.332   2.509  14.662 -1.1520 -0.2214  0.4604
 7520SOL    HW234194   3.415   2.498  14.531  0.7489  0.8854  1.0590
 7521SOL     OW34195   1.146   3.727   3.994 -0.0359 -0.2203 -0.2964
 7521SOL    HW134196   1.108   3.691   3.914  0.2776 -0.2447 -0.4356
 7521SOL    HW234197   1.182   3.650   4.038  0.1233  0.2597  0.4234
 7522SOL     OW34198   2.583   0.024  12.286 -0.1819  0.3963 -0.1321
 7522SOL    HW134199   2.624   0.006  12.201  0.9517  0.0259  0.4851
 7522SOL    HW234200   2.649   0.075  12.334 -1.0832  0.2396  1.2649
 7523SOL     OW34201   4.074   0.406   3.735  0.0528 -0.7174 -0.3280
 7523SOL    HW134202   4.120   0.451   3.806  1.0915 -2.1488 -0.0962
 7523SOL    HW234203   3.991   0.449   3.757  0.7886  1.5217 -1.8794
 7524SOL     OW34204   2.369   1.180   5.953 -0.2961  0.5457  0.6700
 7524SOL    HW134205   2.445   1.194   6.009  1.1556  1.4490 -1.5204
 7524SOL    HW234206   2.345   1.089   5.971 -1.4864  0.0901 -3.3062
 7525SOL     OW34207   2.223   3.847   7.384  0.4486  0.5601  0.5623
 7525SOL    HW134208   2.290   3.798   7.431  0.3557  1.5052  1.6895
 7525SOL    HW234209   2.225   3.924   7.441 -1.1306  1.0570 -0.0637
 7526SOL     OW34210   4.556   3.876   5.306  0.4538 -0.1900 -0.4753
 7526SOL    HW134211   4.476   3.916   5.271 -0.6120 -0.8052  1.2828
 7526SOL    HW234212   4.509   3.798   5.335  0.7586 -0.2946 -0.2711
 7527SOL     OW34213   4.569   1.124   8.754 -0.3369 -0.1524 -0.4408
 7527SOL    HW134214   4.522   1.102   8.674  0.7306  0.4755 -1.2436
 7527SOL    HW234215   4.559   1.037   8.793  0.2846 -0.0456 -0.0438
 7528SOL     OW34216   3.911   1.286   1.652 -0.2212  0.7746 -0.2141
 7528SOL    HW134217   3.969   1.221   1.614  0.6741  1.8428 -0.6765
 7528SOL    HW234218   3.965   1.364   1.637 -0.5963  0.7975 -1.3787
 7529SOL     OW34219   0.265   4.062   7.342  0.0275  0.1353 -0.0614
 7529SOL    HW134220   0.246   3.986   7.288 -1.9871  0.4540  0.2109
 7529SOL    HW234221   0.342   4.024   7.384  0.6892  2.0088  0.4624
 7530SOL     OW34222   2.092   1.211   3.155  0.1972  0.2552 -0.0908
 7530SOL    HW134223   2.148   1.257   3.217 -0.5195 -0.7029  1.2578
 7530SOL    HW234224   2.129   1.229   3.069 -4.7185  1.2805 -1.9678
 7531SOL     OW34225   1.556   1.596   9.481 -0.0429  0.0850  0.5038
 7531SOL    HW134226   1.592   1.628   9.564  0.6065 -1.1937  0.7220
 7531SOL    HW234227   1.535   1.506   9.508  0.9131 -0.0286  0.8490
 7532SOL     OW34228   2.902   3.756   1.032 -0.1601  0.1401  0.2292
 7532SOL    HW134229   2.951   3.836   1.050  1.5957 -0.8718 -0.0532
 7532SOL    HW234230   2.935   3.724   0.948  0.8813 -1.2334  1.1621
 7533SOL     OW34231   1.144   1.231  14.808 -0.0308  0.2950 -0.0489
 7533SOL    HW134232   1.234   1.214  14.835 -0.3647 -0.3456  0.6692
 7533SOL    HW234233   1.167   1.274  14.726  0.8882 -0.2294 -0.0733
 7534SOL     OW34234   4.646   2.604   6.070 -0.2704  0.2609 -0.1446
 7534SOL    HW134235   4.574   2.642   6.121 -0.4842 -0.6737  0.2542
 7534SOL    HW234236   4.634   2.654   5.989  0.8687 -1.4934 -1.3909
 7535SOL     OW34237   1.921   3.536   4.494  0.4917  0.2247  0.3494
 7535SOL    HW134238   1.913   3.457   4.547 -3.2202 -0.1823 -0.8281
 7535SOL    HW234239   1.845   3.585   4.526  0.0993  0.2792 -0.6526
 7536SOL     OW34240   3.183   1.341   8.295  0.4830  0.1770 -0.1261
 7536SOL    HW134241   3.155   1.410   8.355  0.3633  0.0918 -0.0858
 7536SOL    HW234242   3.231   1.274   8.344  0.6083  0.0110 -0.4772
 7537SOL     OW34243   3.068   3.695   6.352  0.4992  0.6998  0.0513
 7537SOL    HW134244   3.117   3.612   6.349 -2.6885 -1.0854 -2.1602
 7537SOL    HW234245   3.029   3.691   6.439  0.3227  0.2510 -0.0492
 7538SOL     OW34246   4.156   3.102   4.853 -0.0769 -0.1253  0.5118
 7538SOL    HW134247   4.139   3.175   4.794  0.8325 -0.7837 -0.5730
 7538SOL    HW234248   4.207   3.039   4.802 -0.3802  0.9057 -1.0693
 7539SOL     OW34249   1.606   2.624  17.350  0.4338  0.3941 -0.1912
 7539SOL    HW134250   1.693   2.591  17.374  0.0108  1.6790  3.0296
 7539SOL    HW234251   1.550   2.581  17.415  1.6068  1.0113  1.2250
 7540SOL     OW34252   3.912   3.383   7.259  0.0598  0.2707  0.1133
 7540SOL    HW134253   3.905   3.425   7.345 -1.5370  1.8607 -0.7948
 7540SOL    HW234254   3.956   3.302   7.284 -0.1348 -0.5320 -2.1003
 7541SOL     OW34255   1.129   3.171   4.182  0.4101  0.0110 -0.0767
 7541SOL    HW134256   1.125   3.195   4.090  2.6726  1.7584  0.2592
 7541SOL    HW234257   1.201   3.228   4.210 -0.8452  1.0991  0.9469
 7542SOL     OW34258   1.797   2.334   5.658 -0.3364 -0.1828 -0.3739
 7542SOL    HW134259   1.729   2.372   5.714  0.6544 -0.2380  0.8740
 7542SOL    HW234260   1.867   2.397   5.675  0.8329 -1.8857  1.1853
 7543SOL     OW34261   2.531   4.623   8.938  0.2121 -0.1942  0.2361
 7543SOL    HW134262   2.491   4.539   8.957 -1.6451  0.4832 -0.6813
 7543SOL    HW234263   2.612   4.592   8.897  0.5452  0.1627  0.6257
 7544SOL     OW34264   0.088   0.417  12.780 -0.1131 -0.4562 -0.1623
 7544SOL    HW134265   0.144   0.368  12.840 -1.1626 -2.1940 -0.6147
 7544SOL    HW234266   0.083   0.365  12.700  1.6159 -1.0839  0.1477
 7545SOL     OW34267   0.864   4.705   9.753  0.3225  0.3643  0.5792
 7545SOL    HW134268   0.938   0.025   9.773  1.7838  0.2495 -4.5820
 7545SOL    HW234269   0.791   0.025   9.731 -0.2997  0.1663  2.1275
 7546SOL     OW34270   0.117   1.864   7.240 -0.2866  0.0391 -0.8232
 7546SOL    HW134271   0.095   1.897   7.153 -0.0217  0.2962 -0.7930
 7546SOL    HW234272   0.210   1.861   7.222  0.1165 -0.3776  1.3148
 7547SOL     OW34273   4.278   2.433   7.867  0.7617 -0.6821 -0.0884
 7547SOL    HW134274   4.291   2.355   7.921  2.9212 -1.4397 -1.6895
 7547SOL    HW234275   4.310   2.495   7.933  1.1728  1.4109 -2.2522
 7548SOL     OW34276   4.652   2.490   2.628 -0.1195  0.6171  0.4254
 7548SOL    HW134277   4.633   2.544   2.705  0.8774  0.5708  0.7061
 7548SOL    HW234278   4.598   2.413   2.645 -0.2308  0.4647 -0.6046
 7549SOL     OW34279   3.196   3.891   3.136  0.3494  0.2526 -0.2243
 7549SOL    HW134280   3.114   3.844   3.121  0.5600 -0.5187  1.0565
 7549SOL    HW234281   3.251   3.823   3.174 -0.6263 -0.9159 -0.8553
 7550SOL     OW34282   2.890   2.051   9.753 -0.1836  0.6267 -0.4352
 7550SOL    HW134283   2.908   1.976   9.809 -1.3023 -1.1473 -2.4762
 7550SOL    HW234284   2.820   2.025   9.693  0.2201 -0.3094 -0.4925
 7551SOL     OW34285   3.893   1.328   7.310 -0.9035  0.1850 -0.2852
 7551SOL    HW134286   3.970   1.326   7.253 -2.7998 -0.7684 -2.8335
 7551SOL    HW234287   3.906   1.260   7.376 -0.5470  0.1077 -0.4370
 7552SOL     OW34288   4.243   2.360   1.776  0.0141  0.5294  0.0967
 7552SOL    HW134289   4.229   2.452   1.800 -0.3456  0.2499  0.9526
 7552SOL    HW234290   4.154   2.334   1.797  0.5715 -0.9382  0.6078
 7553SOL     OW34291   1.734   0.825   1.956 -0.0949 -0.3803  0.0457
 7553SOL    HW134292   1.681   0.854   2.030 -0.6855  0.9174 -0.8779
 7553SOL    HW234293   1.733   0.901   1.898  1.2846 -1.0044 -0.7887
 7554SOL     OW34294   3.518   4.415   2.609  0.8228  0.4952 -0.7046
 7554SOL    HW134295   3.519   4.465   2.690 -0.8617  1.0686 -1.0420
 7554SOL    HW234296   3.610   4.427   2.584  1.1385 -0.9937 -0.2836
 7555SOL     OW34297   2.768   4.286   4.083  0.6087 -0.1196  0.2661
 7555SOL    HW134298   2.848   4.338   4.084  0.5157  0.0270 -0.8034
 7555SOL    HW234299   2.751   4.288   4.178  0.6272 -3.5941  0.3655
 7556SOL     OW34300   2.011   4.183   8.281 -0.1914 -0.0739  0.5346
 7556SOL    HW134301   1.952   4.184   8.206 -1.4365 -0.5607  1.5089
 7556SOL    HW234302   2.027   4.090   8.293  0.2675  0.0648  1.0300
 7557SOL     OW34303   0.789   2.905   5.983  0.5762 -0.2669  0.0030
 7557SOL    HW134304   0.735   2.961   5.927  0.5056  0.3689  0.7148
 7557SOL    HW234305   0.724   2.850   6.026 -0.6875  0.6360 -0.7575
 7558SOL     OW34306   0.444   4.306  11.776 -0.0423  0.1131  0.5898
 7558SOL    HW134307   0.349   4.293  11.779 -0.1905  1.0029 -0.1412
 7558SOL    HW234308   0.475   4.242  11.711 -0.7127 -0.0928  0.4701
 7559SOL     OW34309   1.943   2.203  11.741  0.1596 -0.2816  0.6157
 7559SOL    HW134310   1.869   2.261  11.758  0.8680  1.0478 -0.8288
 7559SOL    HW234311   1.936   2.190  11.646  0.4580  0.9647  0.4169
 7560SOL     OW34312   0.318   2.116   4.447 -0.0445 -0.0811 -0.0516
 7560SOL    HW134313   0.274   2.200   4.438  0.2968  0.0650 -0.3728
 7560SOL    HW234314   0.351   2.097   4.359 -0.4013  0.0562 -0.2154
 7561SOL     OW34315   3.540   3.427   8.375  0.1622  0.2978  0.2527
 7561SOL    HW134316   3.578   3.351   8.420  1.7749  0.9550 -0.0066
 7561SOL    HW234317   3.447   3.416   8.398 -0.1711  1.1370 -0.7021
 7562SOL     OW34318   0.972   0.916   2.186 -0.1109 -0.1448 -0.2236
 7562SOL    HW134319   1.056   0.892   2.147 -0.1866 -1.5308  0.4618
 7562SOL    HW234320   1.001   0.911   2.277 -0.4337  1.2593 -0.0517
 7563SOL     OW34321   2.824   3.558   1.228 -0.0900  0.2890 -0.7976
 7563SOL    HW134322   2.904   3.572   1.279 -0.1637 -0.3108 -0.5292
 7563SOL    HW234323   2.850   3.614   1.154 -0.4251 -0.5970 -1.5856
 7564SOL     OW34324   3.776   1.170  13.658 -0.2918  0.1349  0.0981
 7564SOL    HW134325   3.819   1.097  13.702 -2.2191 -1.1514 -0.1493
 7564SOL    HW234326   3.692   1.128  13.674  0.4852 -0.8479  1.6429
 7565SOL     OW34327   3.094   1.631   6.046 -0.0630  0.2530 -0.1854
 7565SOL    HW134328   3.093   1.579   5.965  1.6916  2.5885 -1.7045
 7565SOL    HW234329   3.096   1.723   6.019  1.0458 -0.2054 -1.6527
 7566SOL     OW34330   3.746   1.772  13.847 -0.4021  0.1896  0.0051
 7566SOL    HW134331   3.705   1.846  13.892 -0.3721 -0.5135  1.1807
 7566SOL    HW234332   3.796   1.760  13.928 -0.8691 -1.0246  0.1045
 7567SOL     OW34333   2.348   4.442   8.104 -0.1697  0.5726  0.0535
 7567SOL    HW134334   2.441   4.441   8.084 -0.2872  2.7604 -0.5357
 7567SOL    HW234335   2.318   4.372   8.045 -3.0680  2.0693 -0.2532
 7568SOL     OW34336   4.669   3.044   6.388  0.2852 -0.4675  0.1567
 7568SOL    HW134337   4.687   2.950   6.383  1.5855 -0.3755  2.7885
 7568SOL    HW234338   4.605   3.055   6.318  1.0271 -3.5213 -0.9638
 7569SOL     OW34339   1.442   2.508  11.134 -0.0074  0.0022  0.4891
 7569SOL    HW134340   1.422   2.434  11.190 -1.4086 -0.8154 -1.0865
 7569SOL    HW234341   1.489   2.555  11.202  1.2454  1.2285 -1.2206
 7570SOL     OW34342   2.053   3.537   5.362  0.2792 -0.2808 -0.1226
 7570SOL    HW134343   2.071   3.592   5.439 -0.0682 -0.0644 -0.1944
 7570SOL    HW234344   2.127   3.476   5.364  0.8996  0.4195 -2.2344
 7571SOL     OW34345   1.407   0.844   8.168 -0.1403  0.0329 -0.7158
 7571SOL    HW134346   1.471   0.796   8.220 -0.0519  0.5257 -0.3790
 7571SOL    HW234347   1.358   0.871   8.245 -0.7434 -0.0024 -1.0882
 7572SOL     OW34348   0.588   3.843  17.083 -0.0388  0.4609  0.2224
 7572SOL    HW134349   0.673   3.885  17.098  0.9882 -1.0659 -1.4111
 7572SOL    HW234350   0.634   3.762  17.064 -1.4959 -0.3897  0.3607
 7573SOL     OW34351   1.679   1.631   9.743 -0.0456 -0.3594  0.1799
 7573SOL    HW134352   1.650   1.668   9.827  1.7745  0.9097  0.2524
 7573SOL    HW234353   1.724   1.709   9.710  1.0315 -1.8695 -1.8885
 7574SOL     OW34354   3.968   1.220  11.742 -0.0984 -0.0625  0.5324
 7574SOL    HW134355   3.964   1.298  11.687  0.3667 -0.0839  0.4745
 7574SOL    HW234356   4.061   1.221  11.766 -0.6003  0.2392  2.5262
 7575SOL     OW34357   3.857   3.617  10.338 -0.0451 -0.3330  0.1997
 7575SOL    HW134358   3.923   3.686  10.336 -1.2465  0.8424  1.1053
 7575SOL    HW234359   3.816   3.641  10.422  0.2227  1.4677 -0.1825
 7576SOL     OW34360   2.275   0.969   5.462  0.1024  0.4572  0.3839
 7576SOL    HW134361   2.351   0.960   5.520  0.5979 -2.8877 -0.7411
 7576SOL    HW234362   2.286   1.046   5.407 -0.8176  0.8947  0.8284
 7577SOL     OW34363   0.277   0.571  10.901  0.2020  0.2017  0.0114
 7577SOL    HW134364   0.200   0.559  10.956 -0.0925  0.1691 -0.4055
 7577SOL    HW234365   0.336   0.571  10.976  1.0981 -1.9508 -0.6879
 7578SOL     OW34366   3.574   4.018  12.544 -0.2579 -0.4103  0.1311
 7578SOL    HW134367   3.560   4.027  12.450 -0.2653  0.8529  0.2604
 7578SOL    HW234368   3.622   3.936  12.554  0.6773  0.1694  0.3809
 7579SOL     OW34369   0.752   3.956  14.202 -0.8106  0.1699 -0.1095
 7579SOL    HW134370   0.835   3.937  14.160 -0.3814 -1.9685  1.7552
 7579SOL    HW234371   0.726   4.036  14.156 -0.9311 -0.2824 -0.8131
 7580SOL     OW34372   1.407   3.475   2.980  0.1679  0.3110  0.7033
 7580SOL    HW134373   1.389   3.569   2.980 -0.5337  0.1788 -0.1446
 7580SOL    HW234374   1.331   3.441   2.932 -0.5487  1.6124  0.9345
 7581SOL     OW34375   2.395   4.705   1.478  0.7248  0.0611 -0.3507
 7581SOL    HW134376   2.338   0.035   1.513 -0.1118 -0.9850  0.3174
 7581SOL    HW234377   2.479   0.008   1.462  0.5633  0.9917  1.2062
 7582SOL     OW34378   1.310   1.551   2.091  0.5684 -0.2573 -0.4438
 7582SOL    HW134379   1.280   1.500   2.166 -0.6814  0.1885 -0.6387
 7582SOL    HW234380   1.333   1.484   2.027 -1.4396 -0.8915 -0.4920
 7583SOL     OW34381   4.426   3.590  12.956  0.4183  0.1428 -0.5716
 7583SOL    HW134382   4.456   3.666  12.905  0.7044  0.2341 -0.2669
 7583SOL    HW234383   4.511   3.570  12.995  1.2249  0.5951 -2.0864
 7584SOL     OW34384   1.595   4.726   2.930 -0.0026  0.0578  0.2739
 7584SOL    HW134385   1.511   0.032   2.914  0.1699 -0.3087 -1.7207
 7584SOL    HW234386   1.639   4.723   2.845  0.3340  1.2634  0.4054
 7585SOL     OW34387   0.453   3.348  16.342 -0.0858  0.5007  0.9473
 7585SOL    HW134388   0.407   3.265  16.332 -2.7301  1.9750  1.0207
 7585SOL    HW234389   0.540   3.309  16.354  0.3694  1.2815  0.2215
 7586SOL     OW34390   3.398   3.678   3.406 -0.2242 -0.0813 -0.5090
 7586SOL    HW134391   3.311   3.675   3.445 -0.8924  1.1734 -1.9343
 7586SOL    HW234392   3.458   3.693   3.479 -1.7219 -0.6541  0.8218
 7587SOL     OW34393   3.137   0.809   4.401  0.1007  0.1083  1.0410
 7587SOL    HW134394   3.086   0.818   4.482 -2.8810  1.0742 -0.9194
 7587SOL    HW234395   3.098   0.729   4.365  2.1298 -0.6464  0.5558
 7588SOL     OW34396   0.132   2.494  10.939 -0.1206 -0.1572 -0.4661
 7588SOL    HW134397   0.221   2.504  10.973 -0.2569 -1.5773  0.3005
 7588SOL    HW234398   0.154   2.503  10.846  1.8632  0.9819  0.1131
 7589SOL     OW34399   1.508   3.712  12.040 -0.4137 -0.2353 -0.5056
 7589SOL    HW134400   1.492   3.620  12.018  0.5523  0.0738 -2.5098
 7589SOL    HW234401   1.421   3.737  12.070  1.2451  1.9636  2.5673
 7590SOL     OW34402   0.714   1.623   3.456  0.2288 -0.8250  0.3172
 7590SOL    HW134403   0.697   1.623   3.362  1.3443 -0.9308  0.1153
 7590SOL    HW234404   0.731   1.716   3.468 -4.4830 -0.1449  1.4483
 7591SOL     OW34405   3.777   0.734   6.758 -0.7627 -0.2627  0.3566
 7591SOL    HW134406   3.844   0.771   6.815 -0.2083  0.1565 -0.5669
 7591SOL    HW234407   3.715   0.687   6.814  0.0458 -0.6357  0.9453
 7592SOL     OW34408   1.928   4.628  16.581 -0.5907  0.2954 -0.5441
 7592SOL    HW134409   1.926   4.536  16.554 -0.4414 -0.0978  0.7811
 7592SOL    HW234410   1.903   4.673  16.500 -1.2654 -1.6466 -1.4000
 7593SOL     OW34411   1.754   0.951  11.866  1.0767  0.3489  0.0171
 7593SOL    HW134412   1.779   0.858  11.865 -1.1464 -0.2340 -0.8891
 7593SOL    HW234413   1.748   0.955  11.770 -0.5694 -0.9738  0.0688
 7594SOL     OW34414   3.221   3.725   8.235 -0.2473 -0.5255 -0.3813
 7594SOL    HW134415   3.194   3.749   8.324  0.1936  1.4436 -0.7763
 7594SOL    HW234416   3.266   3.802   8.199  0.6004 -0.3632  1.0621
 7595SOL     OW34417   4.702   2.182  10.326  0.0487  0.5554 -0.2308
 7595SOL    HW134418   4.692   2.268  10.287  2.8192  0.4638 -1.1890
 7595SOL    HW234419   0.055   2.185  10.357  0.1017  0.5983 -0.3892
 7596SOL     OW34420   1.674   0.802   2.889 -0.6005  0.4363  0.7482
 7596SOL    HW134421   1.667   0.882   2.942  2.0928  1.0635  0.1915
 7596SOL    HW234422   1.630   0.739   2.945  1.0900 -0.6417  0.8763
 7597SOL     OW34423   2.037   1.035   7.711  0.1697  0.1783  0.2633
 7597SOL    HW134424   1.984   1.091   7.654  0.9366  0.9552  0.3165
 7597SOL    HW234425   2.069   1.088   7.784 -1.0669  0.4095  0.6400
 7598SOL     OW34426   4.627   4.621   6.218  0.2546 -0.0276 -0.3452
 7598SOL    HW134427   4.657   4.530   6.211  1.7918  0.5606 -1.5009
 7598SOL    HW234428   4.707   4.664   6.248 -1.6331  2.5322  1.0154
 7599SOL     OW34429   2.760   2.226   0.573  0.0162 -0.0756  0.3143
 7599SOL    HW134430   2.749   2.286   0.499 -0.2359  0.5858  0.8986
 7599SOL    HW234431   2.743   2.279   0.650  0.2233 -0.3265  0.5337
 7600SOL     OW34432   2.414   1.705   6.603 -0.0597 -0.0022  0.3059
 7600SOL    HW134433   2.480   1.757   6.649  0.1307  0.4615 -0.4900
 7600SOL    HW234434   2.443   1.615   6.618 -1.4320 -0.5641 -0.5014
 7601SOL     OW34435   3.308   2.839   5.424  0.7813  0.1479 -0.1942
 7601SOL    HW134436   3.401   2.831   5.443  0.4761  1.4823  1.8837
 7601SOL    HW234437   3.288   2.901   5.494 -0.7692 -2.8649  2.0585
 7602SOL     OW34438   3.564   2.973  11.193  0.2258 -0.1309 -0.1348
 7602SOL    HW134439   3.485   3.024  11.176 -0.9228 -1.3657  1.6134
 7602SOL    HW234440   3.615   2.996  11.115 -1.3330 -0.7357 -1.3265
 7603SOL     OW34441   2.813   3.740   9.269  0.4193  0.1814  0.0585
 7603SOL    HW134442   2.859   3.803   9.213 -1.9289  0.4929 -1.5070
 7603SOL    HW234443   2.862   3.733   9.351  3.1851  0.0269 -1.6107
 7604SOL     OW34444   1.693   0.068   3.908  0.0855 -0.1468  0.4457
 7604SOL    HW134445   1.641   0.112   3.841  0.6080  0.6682  0.5705
 7604SOL    HW234446   1.773   0.048   3.860  0.5698 -0.5847  1.4432
 7605SOL     OW34447   4.384   0.609  15.159 -0.7236  0.7240 -0.5920
 7605SOL    HW134448   4.378   0.700  15.188  1.0604  1.3765 -2.2758
 7605SOL    HW234449   4.292   0.584  15.153 -0.8826  0.8166  1.4765
 7606SOL     OW34450   3.562   3.389   6.385 -0.1683  0.0648 -0.1381
 7606SOL    HW134451   3.555   3.375   6.479 -1.9272  0.7167 -0.1740
 7606SOL    HW234452   3.634   3.329   6.367  1.2444  1.6075  0.3921
 7607SOL     OW34453   1.411   2.816   9.237  0.0716 -0.4844 -0.1658
 7607SOL    HW134454   1.329   2.825   9.189 -0.7607 -2.0484  0.9730
 7607SOL    HW234455   1.373   2.770   9.312  0.7053 -0.3838  0.2151
 7608SOL     OW34456   1.370   4.670   5.693 -0.0032 -0.4730 -0.0343
 7608SOL    HW134457   1.439   4.613   5.726  1.4802  1.3259 -0.0232
 7608SOL    HW234458   1.301   4.606   5.675 -0.2884  0.7049 -3.2999
 7609SOL     OW34459   1.786   4.593   6.167 -0.2115 -0.1679  0.1154
 7609SOL    HW134460   1.752   4.623   6.251  0.4141  2.1876 -0.4881
 7609SOL    HW234461   1.712   4.609   6.108  0.6980  0.3717 -0.8804
 7610SOL     OW34462   1.173   1.639  11.661 -0.1154  0.6093 -0.2010
 7610SOL    HW134463   1.089   1.674  11.633 -0.4152  1.4552  1.7985
 7610SOL    HW234464   1.140   1.549  11.666  0.2506  0.3925 -1.7470
 7611SOL     OW34465   4.712   3.565  11.149  0.3426  0.4191  0.5196
 7611SOL    HW134466   0.063   3.530  11.144  0.1685  0.1441 -0.5529
 7611SOL    HW234467   4.720   3.661  11.151  1.3367  0.2867  4.0123
 7612SOL     OW34468   1.191   0.947  17.334 -0.2516  0.0998 -0.3209
 7612SOL    HW134469   1.197   1.042  17.340  1.4921 -0.0752  0.5197
 7612SOL    HW234470   1.095   0.949  17.325  0.0718 -0.9887 -3.9118
 7613SOL     OW34471   4.138   3.448   6.589 -0.3456  0.0642  0.3211
 7613SOL    HW134472   4.175   3.536   6.600 -1.5330  0.4442  1.1878
 7613SOL    HW234473   4.156   3.441   6.495 -0.9311  0.8524  0.1550
 7614SOL     OW34474   2.441   0.580   5.808 -0.0289 -0.0308  0.4326
 7614SOL    HW134475   2.424   0.525   5.885 -1.4888 -1.0011 -0.5850
 7614SOL    HW234476   2.431   0.670   5.838  2.1892  0.0366  0.9950
 7615SOL     OW34477   3.787   4.037   6.410 -0.1121 -0.1122 -0.2687
 7615SOL    HW134478   3.801   4.125   6.444  0.8970 -0.9698  1.5634
 7615SOL    HW234479   3.790   4.048   6.315  3.0639 -0.8274 -0.2675
 7616SOL     OW34480   2.811   0.420   3.414  0.0100  0.0758 -0.3025
 7616SOL    HW134481   2.762   0.381   3.486  0.4988  0.1061  0.0479
 7616SOL    HW234482   2.747   0.478   3.373  0.7511  2.6632  2.2500
 7617SOL     OW34483   1.809   3.659   3.737 -0.1301 -0.1091 -0.2087
 7617SOL    HW134484   1.794   3.604   3.660  1.5003 -2.6885  1.3074
 7617SOL    HW234485   1.887   3.714   3.729 -0.3470  0.1473 -0.5303
 7618SOL     OW34486   2.421   1.629   7.538 -0.2428  0.1817  0.4122
 7618SOL    HW134487   2.378   1.548   7.513  0.4456 -0.3615  0.9950
 7618SOL    HW234488   2.422   1.680   7.457  1.3147 -3.6212 -1.9528
 7619SOL     OW34489   0.887   1.888   7.910  0.5808 -0.0156 -0.2722
 7619SOL    HW134490   0.972   1.904   7.868  0.2607 -1.4496 -1.4656
 7619SOL    HW234491   0.900   1.909   8.003  0.2141 -2.0085  0.2281
 7620SOL     OW34492   1.827   4.680   2.730 -1.2553 -0.0441  0.5624
 7620SOL    HW134493   1.878   0.014   2.767  0.0562 -1.1579  0.9167
 7620SOL    HW234494   1.872   4.668   2.646 -0.8391 -0.5897  0.8666
 7621SOL     OW34495   3.442   1.782  12.901 -0.5802 -0.1930  0.2392
 7621SOL    HW134496   3.365   1.819  12.858 -1.4247 -1.8735  0.3219
 7621SOL    HW234497   3.414   1.790  12.992 -1.0648 -1.4340  0.1969
 7622SOL     OW34498   2.489   0.339   4.569 -0.3486  0.0803 -0.2615
 7622SOL    HW134499   2.503   0.323   4.663 -1.5081 -1.9507 -0.4341
 7622SOL    HW234500   2.451   0.256   4.540 -1.8450  0.7575 -0.2203
 7623SOL     OW34501   1.160   2.848   1.827 -0.0093 -0.0684  0.2211
 7623SOL    HW134502   1.141   2.825   1.736 -0.7314  2.0796 -0.1718
 7623SOL    HW234503   1.075   2.828   1.866 -1.3139  0.0042 -2.5574
 7624SOL     OW34504   3.087   1.761   6.797  0.1319 -0.4030  0.2192
 7624SOL    HW134505   3.161   1.812   6.828 -1.6533  2.3572 -0.0186
 7624SOL    HW234506   3.109   1.669   6.811  1.2061  0.1520  2.1460
 7625SOL     OW34507   0.226   1.479   0.698  0.3812 -0.9877  0.0451
 7625SOL    HW134508   0.261   1.486   0.610  0.4517  2.7152  0.3921
 7625SOL    HW234509   0.149   1.425   0.678 -0.1675 -0.6899  1.3730
 7626SOL     OW34510   0.854   2.840   9.368 -0.3550  0.1668  0.3186
 7626SOL    HW134511   0.778   2.863   9.422  2.1612  2.6536  2.8062
 7626SOL    HW234512   0.916   2.825   9.439 -0.7487 -0.5801  0.5075
 7627SOL     OW34513   0.199   3.513   8.905 -0.0242 -0.4207 -0.0514
 7627SOL    HW134514   0.267   3.580   8.908 -0.3566 -0.1180  0.9313
 7627SOL    HW234515   0.121   3.562   8.933  0.1416 -0.1390 -0.0849
 7628SOL     OW34516   2.146   2.263   1.688 -0.0087  0.1825 -0.3751
 7628SOL    HW134517   2.199   2.185   1.705  0.0267 -0.0026 -1.3335
 7628SOL    HW234518   2.108   2.248   1.601 -2.1524 -0.4487  0.6730
 7629SOL     OW34519   2.382   0.612   6.693  0.1980 -1.1638  0.6310
 7629SOL    HW134520   2.419   0.649   6.613  0.6792  1.1470  1.9111
 7629SOL    HW234521   2.387   0.518   6.677 -2.7836 -1.3453  0.7589
 7630SOL     OW34522   1.963   2.116  14.825  0.1062 -0.3965 -0.1879
 7630SOL    HW134523   1.972   2.031  14.868 -1.1798  0.2585  1.3810
 7630SOL    HW234524   1.903   2.100  14.752  0.0247 -0.9105 -0.0100
 7631SOL     OW34525   4.653   0.178   4.091 -0.3960 -0.2122  0.2010
 7631SOL    HW134526   0.009   0.193   4.100 -0.3188 -0.6980  0.1948
 7631SOL    HW234527   4.640   0.115   4.161  1.5431  0.6182  1.3190
 7632SOL     OW34528   0.327   0.800   0.789  0.1387 -0.1272  0.2032
 7632SOL    HW134529   0.389   0.780   0.860  2.3780 -1.0367 -1.9967
 7632SOL    HW234530   0.290   0.715   0.765  0.1301 -0.5928  1.8544
 7633SOL     OW34531   4.410   4.219  16.695  0.4858 -0.1878 -0.4383
 7633SOL    HW134532   4.335   4.176  16.737 -0.2816  1.8018  0.1978
 7633SOL    HW234533   4.370   4.290  16.647  0.0340  0.8926  1.5324
 7634SOL     OW34534   3.084   4.615   2.756 -0.0005  0.0045  0.4337
 7634SOL    HW134535   3.089   4.711   2.758 -2.7873  0.1167  0.9280
 7634SOL    HW234536   3.043   4.599   2.672 -0.0145  1.2404  0.2135
 7635SOL     OW34537   4.347   2.573   2.669 -0.4388 -0.2073  1.2217
 7635SOL    HW134538   4.314   2.493   2.709 -0.8882 -0.0050  1.2558
 7635SOL    HW234539   4.367   2.622   2.749 -0.7061  1.0471  0.5173
 7636SOL     OW34540   4.551   2.444   3.389  0.3170 -0.0205  0.4213
 7636SOL    HW134541   4.579   2.372   3.446 -0.6067 -1.1083 -0.4852
 7636SOL    HW234542   4.575   2.523   3.436  1.1774  1.4346 -2.4537
 7637SOL     OW34543   2.760   3.853   8.302  0.0607  0.4845  0.6078
 7637SOL    HW134544   2.708   3.871   8.380 -0.5464 -1.1360  0.5855
 7637SOL    HW234545   2.813   3.932   8.294 -1.2612  1.2530 -0.5575
 7638SOL     OW34546   3.131   4.153  13.175 -0.0055 -0.3910 -0.5100
 7638SOL    HW134547   3.099   4.185  13.259  0.9651  1.5253 -0.8675
 7638SOL    HW234548   3.206   4.208  13.151  0.3920 -0.7835 -0.1740
 7639SOL     OW34549   3.654   2.551   2.191  0.0412  0.6252  0.5426
 7639SOL    HW134550   3.712   2.533   2.116  1.0332  0.4408  1.3504
 7639SOL    HW234551   3.663   2.646   2.181 -3.7540  0.7946 -1.3173
 7640SOL     OW34552   3.217   2.141   3.236  0.3643 -0.4156  0.8358
 7640SOL    HW134553   3.168   2.079   3.290 -1.3461 -1.5623 -2.0208
 7640SOL    HW234554   3.168   2.146   3.154  0.3941 -0.3842  0.8200
 7641SOL     OW34555   3.335   4.012   9.648  0.3408  0.3873  0.1271
 7641SOL    HW134556   3.394   4.064   9.593 -2.5917  2.9162 -0.6549
 7641SOL    HW234557   3.254   4.062   9.643 -0.2180 -0.3536  1.9460
 7642SOL     OW34558   3.839   3.967   3.986 -0.3495 -0.1182  0.3217
 7642SOL    HW134559   3.791   3.888   4.010  0.6916 -0.8386  0.0302
 7642SOL    HW234560   3.878   4.005   4.065  1.7200  1.6104 -1.5446
 7643SOL     OW34561   3.898   3.095   4.953  0.1229  0.0034  0.1483
 7643SOL    HW134562   3.848   3.130   4.879 -2.3156 -0.9296  1.3704
 7643SOL    HW234563   3.983   3.094   4.909 -1.9682 -1.5504 -3.8887
 7644SOL     OW34564   4.508   3.138   6.193 -0.0049  0.2195  0.2159
 7644SOL    HW134565   4.432   3.082   6.177  0.4961  0.6741 -3.9564
 7644SOL    HW234566   4.481   3.220   6.151 -1.1921  0.1506  0.8645
 7645SOL     OW34567   0.177   3.520   9.218  0.0909 -0.1744  0.2436
 7645SOL    HW134568   0.146   3.439   9.177  1.2155 -1.4157  1.8692
 7645SOL    HW234569   0.144   3.509   9.307  2.4689 -1.7193  0.9258
 7646SOL     OW34570   4.722   0.645   5.428 -0.2979  0.2297 -0.2226
 7646SOL    HW134571   0.000   0.737   5.451  0.3529  0.5052 -1.7935
 7646SOL    HW234572   0.047   0.620   5.360 -0.9539 -2.0687  0.0276
 7647SOL     OW34573   0.655   0.331   9.552 -0.3660  0.6020  0.7268
 7647SOL    HW134574   0.632   0.422   9.533  0.8141  0.3160 -1.9428
 7647SOL    HW234575   0.690   0.297   9.470 -1.1394  1.3047  0.1175
 7648SOL     OW34576   0.586   2.327   3.470 -0.3737 -0.7540 -0.1745
 7648SOL    HW134577   0.596   2.420   3.489  3.3077 -0.6245 -2.8504
 7648SOL    HW234578   0.577   2.338   3.375  0.1410  1.8015  0.0953
 7649SOL     OW34579   3.191   4.652   8.992  0.1669  0.7829 -0.3915
 7649SOL    HW134580   3.173   0.004   8.966 -0.7039  0.4601 -0.9298
 7649SOL    HW234581   3.117   4.607   8.951 -0.0738  0.0202  0.8948
 7650SOL     OW34582   2.684   2.598   2.037 -0.2671  0.0635 -0.1552
 7650SOL    HW134583   2.697   2.535   2.107 -2.7627 -0.2445  0.0299
 7650SOL    HW234584   2.596   2.632   2.056  0.4816  1.3399  1.0291
 7651SOL     OW34585   0.253   1.135   6.752  0.0233 -0.6749  0.3651
 7651SOL    HW134586   0.343   1.150   6.724  0.2907 -2.7065  0.1632
 7651SOL    HW234587   0.217   1.224   6.755  0.8750 -0.2929 -0.5698
 7652SOL     OW34588   0.585   2.602   3.447  0.3258  0.5784  0.3756
 7652SOL    HW134589   0.631   2.646   3.375  1.2602 -0.0547  0.5754
 7652SOL    HW234590   0.592   2.653   3.527  0.5864 -1.2029  1.4904
 7653SOL     OW34591   2.883   0.105   2.412  0.2467 -0.2096 -0.2032
 7653SOL    HW134592   2.817   0.044   2.447 -0.2507  1.1726  1.2803
 7653SOL    HW234593   2.959   0.050   2.429 -0.8804 -1.4689  0.8196
 7654SOL     OW34594   1.941   3.417  12.110  0.2047  0.1358 -0.0119
 7654SOL    HW134595   1.900   3.496  12.147  0.4190  0.2358  0.0125
 7654SOL    HW234596   1.993   3.444  12.034 -0.8082  1.7714 -0.1440
 7655SOL     OW34597   0.913   3.071   1.062  0.2751  0.0618  0.1048
 7655SOL    HW134598   0.977   3.123   1.111 -2.0005  0.6559  2.4581
 7655SOL    HW234599   0.911   3.126   0.984  1.1869 -0.5536 -0.3552
 7656SOL     OW34600   1.829   0.252   4.063  0.0611 -0.5943 -0.1250
 7656SOL    HW134601   1.789   0.169   4.035  0.2286 -0.8062  0.2686
 7656SOL    HW234602   1.751   0.308   4.059 -0.4483 -1.2398  0.5882
 7657SOL     OW34603   4.547   1.349   6.772  0.0324 -0.0616 -0.1410
 7657SOL    HW134604   4.583   1.265   6.797 -0.9518  0.1515  1.9934
 7657SOL    HW234605   4.603   1.410   6.819 -0.9494  1.3453 -0.7861
 7658SOL     OW34606   4.487   3.951  12.414 -0.6171  0.5474  0.0044
 7658SOL    HW134607   4.509   3.918  12.501  0.7918  1.9060  0.1654
 7658SOL    HW234608   4.481   3.869  12.366 -0.6477  0.0421  0.8700
 7659SOL     OW34609   0.537   0.101   6.492 -0.3669 -0.0225 -0.0568
 7659SOL    HW134610   0.613   0.080   6.547 -0.3756 -0.9004 -0.3844
 7659SOL    HW234611   0.502   0.177   6.538 -0.5094  1.4837 -2.7062
 7660SOL     OW34612   4.523   2.104  12.783 -0.0341 -0.3019  0.8975
 7660SOL    HW134613   4.529   2.199  12.796 -1.5648 -0.0148 -0.6568
 7660SOL    HW234614   4.430   2.090  12.770 -0.5661  2.9031  1.2230
 7661SOL     OW34615   3.175   3.662   7.712 -0.0108  0.0685  0.4752
 7661SOL    HW134616   3.232   3.697   7.643  0.9185 -1.9843  0.2096
 7661SOL    HW234617   3.167   3.568   7.700 -0.9535  0.4035 -1.4574
 7662SOL     OW34618   2.706   2.361   3.167 -0.0235  0.0708 -0.3383
 7662SOL    HW134619   2.771   2.338   3.100 -1.9495  0.1996 -2.2678
 7662SOL    HW234620   2.682   2.453   3.154 -1.3647 -0.1819  0.3923
 7663SOL     OW34621   1.893   1.218  14.976 -0.6174  0.2017 -0.0361
 7663SOL    HW134622   1.952   1.210  14.901  1.0808 -4.5481  1.7953
 7663SOL    HW234623   1.932   1.153  15.035 -1.8802  0.0171  0.5967
 7664SOL     OW34624   1.392   0.423   6.164  0.2458 -0.1517  0.2716
 7664SOL    HW134625   1.460   0.375   6.116  1.4538  3.2933 -1.4754
 7664SOL    HW234626   1.338   0.452   6.091  1.5199  3.4387  0.7633
 7665SOL     OW34627   0.513   3.403  14.991  0.2999  0.1742  0.0532
 7665SOL    HW134628   0.482   3.428  15.078 -0.4484 -2.5169  0.5297
 7665SOL    HW234629   0.431   3.378  14.950 -0.5259  0.0512  1.7779
 7666SOL     OW34630   1.689   2.664   5.208  0.0753  0.2637  0.1521
 7666SOL    HW134631   1.753   2.717   5.159  2.7596 -2.5909  0.5539
 7666SOL    HW234632   1.677   2.606   5.132 -2.4299  2.0084 -0.7761
 7667SOL     OW34633   3.471   2.736   2.070  0.2979 -0.2314  0.0420
 7667SOL    HW134634   3.411   2.737   1.995 -1.0078 -1.9754  1.0435
 7667SOL    HW234635   3.401   2.738   2.136  1.6503  0.6479  1.4341
 7668SOL     OW34636   3.107   2.663   2.881  0.2630 -0.0550 -0.1198
 7668SOL    HW134637   3.132   2.720   2.809  0.0728 -0.7742 -0.7612
 7668SOL    HW234638   3.077   2.589   2.827  0.8393  0.1574 -0.7301
 7669SOL     OW34639   4.269   3.301   0.161 -0.5278  0.5860  0.1357
 7669SOL    HW134640   4.290   3.299   0.254  0.2384  0.8597 -0.0345
 7669SOL    HW234641   4.323   3.373   0.129 -0.5365  0.7791  0.5624
 7670SOL     OW34642   0.106   3.414   6.699  0.3768 -0.6478  0.5183
 7670SOL    HW134643   0.173   3.355   6.664  0.0570 -1.2360  0.8917
 7670SOL    HW234644   0.031   3.361   6.725  1.9158 -1.3522  3.5252
 7671SOL     OW34645   0.725   1.168   2.705  0.3474 -0.4172  0.1690
 7671SOL    HW134646   0.800   1.227   2.697  0.6992 -0.8282  0.4245
 7671SOL    HW234647   0.772   1.086   2.693  1.9411  0.7164 -1.2165
 7672SOL     OW34648   1.649   1.733  11.360 -0.7182  0.0981 -0.5107
 7672SOL    HW134649   1.697   1.655  11.385 -1.2036 -0.7453 -2.2531
 7672SOL    HW234650   1.639   1.709  11.268  0.7003  0.7673 -0.8396
 7673SOL     OW34651   4.418   1.914   8.562 -0.1345  0.3662 -0.3068
 7673SOL    HW134652   4.364   1.901   8.639  0.7859  0.2098  0.3175
 7673SOL    HW234653   4.453   2.002   8.575 -2.2246  0.7031  2.8527
 7674SOL     OW34654   0.235   0.520   6.651 -0.2688 -0.2603 -0.1259
 7674SOL    HW134655   0.203   0.522   6.742  0.5728 -0.7255  0.1810
 7674SOL    HW234656   0.163   0.480   6.601 -0.2723 -0.7175  0.2329
 7675SOL     OW34657   3.911   2.176   6.415  0.2191  0.2096 -0.0377
 7675SOL    HW134658   3.836   2.117   6.421 -0.9015  1.6109 -0.2841
 7675SOL    HW234659   3.947   2.153   6.329 -1.3499  1.3294 -0.9913
 7676SOL     OW34660   4.144   1.801   2.131 -0.1747  0.0667 -1.1208
 7676SOL    HW134661   4.064   1.792   2.079 -0.5705  2.2193 -0.8982
 7676SOL    HW234662   4.205   1.776   2.062  0.7740 -0.7520  0.0373
 7677SOL     OW34663   4.196   3.222   9.177  0.1052 -0.5152 -0.1722
 7677SOL    HW134664   4.119   3.175   9.210 -0.2130 -0.6772 -1.1737
 7677SOL    HW234665   4.214   3.291   9.242  2.5381 -1.9149  0.6725
 7678SOL     OW34666   0.226   3.464   5.887 -0.3699  0.6822  0.0413
 7678SOL    HW134667   0.239   3.502   5.801 -1.7605  1.7340  0.2926
 7678SOL    HW234668   0.316   3.452   5.918 -0.7384 -0.0201  0.8682
 7679SOL     OW34669   1.614   3.613   8.849 -0.7990 -0.3602  0.6052
 7679SOL    HW134670   1.627   3.671   8.774 -1.0198 -0.2560  0.6479
 7679SOL    HW234671   1.662   3.666   8.913  3.0709 -0.1093 -2.4779
 7680SOL     OW34672   1.412   0.837   1.043  0.2315 -0.4566 -0.5559
 7680SOL    HW134673   1.359   0.775   0.994  2.2338 -1.0291 -1.9653
 7680SOL    HW234674   1.495   0.830   0.997  1.3369  0.4729  1.2772
 7681SOL     OW34675   4.275   0.911   3.997 -0.6348  0.2822 -0.1518
 7681SOL    HW134676   4.259   0.840   3.934 -1.1210  2.4837 -2.4955
 7681SOL    HW234677   4.192   0.927   4.043  0.2253 -0.1508  1.5657
 7682SOL     OW34678   0.432   0.721   5.408 -0.0360 -0.1238  1.3015
 7682SOL    HW134679   0.512   0.753   5.367  0.9327 -0.5982  2.8142
 7682SOL    HW234680   0.376   0.798   5.417 -0.9082 -0.6762  0.5619
 7683SOL     OW34681   1.939   0.012   3.781  0.0760  0.1839 -0.0607
 7683SOL    HW134682   1.998   0.068   3.731 -2.2930  0.4550 -2.5451
 7683SOL    HW234683   1.997   4.688   3.825 -2.7986 -1.3659  1.5861
 7684SOL     OW34684   2.777   3.484  12.068 -0.1964 -0.3113 -0.5287
 7684SOL    HW134685   2.743   3.500  12.156  0.0421 -0.1887 -0.4568
 7684SOL    HW234686   2.693   3.480  12.023  0.0420  0.6611 -1.0633
 7685SOL     OW34687   3.812   3.102   3.606  0.2329 -0.2752 -0.6176
 7685SOL    HW134688   3.841   3.157   3.679 -0.7277 -0.0102 -0.4411
 7685SOL    HW234689   3.749   3.053   3.659  0.6756  0.4055  0.5343
 7686SOL     OW34690   2.320   3.828  14.432  0.3360 -0.2101 -0.0433
 7686SOL    HW134691   2.231   3.845  14.462  1.0479  1.9662  0.8842
 7686SOL    HW234692   2.332   3.733  14.431 -2.8215 -0.5907 -0.6022
 7687SOL     OW34693   2.589   0.136   7.317 -0.0606  0.2019 -0.2518
 7687SOL    HW134694   2.518   0.196   7.298  0.0137  0.3576 -0.0447
 7687SOL    HW234695   2.573   0.100   7.405 -0.3104  2.0494  0.4596
 7688SOL     OW34696   0.769   3.173   8.551  0.3496 -0.1291 -0.2277
 7688SOL    HW134697   0.747   3.193   8.460  2.0027 -2.2928 -1.0946
 7688SOL    HW234698   0.822   3.095   8.540  0.5445 -0.0166 -0.0775
 7689SOL     OW34699   3.973   0.204   5.965  0.4296  0.3313 -0.2256
 7689SOL    HW134700   4.034   0.225   6.035  2.0093 -0.6089 -1.3252
 7689SOL    HW234701   3.905   0.172   6.024 -0.5663 -0.3566 -1.7135
 7690SOL     OW34702   2.556   2.737   6.960  1.0472 -0.1860 -0.3283
 7690SOL    HW134703   2.527   2.783   7.040  0.6271  0.6023 -0.9351
 7690SOL    HW234704   2.513   2.788   6.891 -0.3497  0.3209  0.9020
 7691SOL     OW34705   1.548   1.349   5.359  0.5114  0.0270 -0.1559
 7691SOL    HW134706   1.541   1.444   5.347  0.0482  0.1605  1.1922
 7691SOL    HW234707   1.624   1.329   5.305  0.5115 -2.2930  0.7157
 7692SOL     OW34708   2.210   3.459  17.092  0.2016 -0.3016  0.0441
 7692SOL    HW134709   2.190   3.377  17.136 -1.6932 -0.5896 -1.3899
 7692SOL    HW234710   2.157   3.520  17.144  0.5052  1.2087 -1.4028
 7693SOL     OW34711   3.679   2.433  13.412  0.1463 -0.1302 -0.1439
 7693SOL    HW134712   3.729   2.438  13.331 -0.7190 -2.5310 -0.8408
 7693SOL    HW234713   3.740   2.385  13.467  0.5787  2.0222  1.2393
 7694SOL     OW34714   2.280   2.815   8.246  0.1207  0.6925 -0.0014
 7694SOL    HW134715   2.287   2.904   8.211 -0.4644 -0.4339 -2.9659
 7694SOL    HW234716   2.305   2.759   8.173  0.4002  0.4719  0.2649
 7695SOL     OW34717   0.401   2.093   4.184 -0.5838  0.4994 -0.6235
 7695SOL    HW134718   0.494   2.076   4.200 -0.4552 -0.3544 -2.2459
 7695SOL    HW234719   0.395   2.128   4.094 -4.2659 -0.2995 -0.7089
 7696SOL     OW34720   3.512   1.287   0.606  0.8107  0.5356  0.2353
 7696SOL    HW134721   3.576   1.281   0.677 -0.3087 -0.0653  1.2000
 7696SOL    HW234722   3.443   1.224   0.629  0.0727  0.7443 -1.3354
 7697SOL     OW34723   1.157   4.730   8.602 -0.0982 -0.3927  0.4222
 7697SOL    HW134724   1.080   4.679   8.626 -0.4927  0.3615  0.7665
 7697SOL    HW234725   1.125   0.079   8.627 -0.6910 -0.0618 -1.5280
 7698SOL     OW34726   4.404   0.671   8.149  0.1271  0.3444 -0.3171
 7698SOL    HW134727   4.350   0.743   8.116  0.4887  0.4117 -0.7553
 7698SOL    HW234728   4.358   0.675   8.233  0.1221  0.4854 -0.3264
 7699SOL     OW34729   2.828   2.630  11.738 -0.1363  0.4942 -0.1653
 7699SOL    HW134730   2.784   2.563  11.792  0.5180  0.4066  0.2552
 7699SOL    HW234731   2.835   2.586  11.653 -1.1534  0.6149 -0.3176
 7700SOL     OW34732   0.699   2.120  13.721  0.1081  0.1323  0.4781
 7700SOL    HW134733   0.712   2.039  13.769  1.2216 -0.1718 -0.3391
 7700SOL    HW234734   0.676   2.181  13.792 -0.1414  0.2511  0.2949
 7701SOL     OW34735   1.998   1.299   2.352  0.1619  0.2394 -0.5710
 7701SOL    HW134736   2.043   1.263   2.428  0.5207  1.1852 -0.3319
 7701SOL    HW234737   2.083   1.306   2.308  0.8045 -1.2992  0.4431
 7702SOL     OW34738   0.558   0.647   2.053  0.2684 -0.0105  0.0746
 7702SOL    HW134739   0.512   0.642   2.137 -1.6643  0.8815 -0.9413
 7702SOL    HW234740   0.609   0.728   2.060  1.8190 -0.7962 -2.1505
 7703SOL     OW34741   3.444   2.847   8.225  0.7580  0.2792  0.0519
 7703SOL    HW134742   3.430   2.913   8.293  1.4524  0.5534 -0.0649
 7703SOL    HW234743   3.420   2.768   8.273  2.5520 -0.3584 -0.0940
 7704SOL     OW34744   4.330   4.723  16.287  0.7295  0.3189  0.0664
 7704SOL    HW134745   4.374   4.717  16.372 -0.9604 -0.1233  0.9050
 7704SOL    HW234746   4.357   0.072  16.257  2.4183 -0.5410 -0.9212
 7705SOL     OW34747   4.437   1.340   2.631 -0.9484 -0.6076  0.8530
 7705SOL    HW134748   4.458   1.371   2.543 -2.4754  0.5072  0.8907
 7705SOL    HW234749   4.470   1.251   2.615  1.3790  0.1547  1.5633
 7706SOL     OW34750   0.442   2.125  15.951 -0.0263  0.1881 -0.1315
 7706SOL    HW134751   0.413   2.171  15.872 -0.1718 -1.1994 -0.8950
 7706SOL    HW234752   0.393   2.043  15.941 -1.4016  0.8074  1.5543
 7707SOL     OW34753   2.816   0.016   6.835 -0.1532 -0.2540  0.1243
 7707SOL    HW134754   2.823   0.036   6.742  2.0796  1.2174  0.6204
 7707SOL    HW234755   2.760   4.676   6.830  1.6258 -1.4769 -0.4671
 7708SOL     OW34756   1.683   0.204   8.422 -0.6708 -0.5010  0.2942
 7708SOL    HW134757   1.645   0.116   8.418 -1.2350 -0.3431  1.9335
 7708SOL    HW234758   1.612   0.264   8.396  0.6675  1.6278  1.5359
 7709SOL     OW34759   2.676   2.995  15.673  0.3883  0.3768  0.8913
 7709SOL    HW134760   2.763   2.980  15.636 -0.6016 -3.0450 -0.1287
 7709SOL    HW234761   2.649   2.908  15.704 -0.3376  0.4311  0.4205
 7710SOL     OW34762   1.926   3.588   6.503 -0.0728  0.6407 -0.4378
 7710SOL    HW134763   1.871   3.645   6.448 -1.7890  0.7516  1.3847
 7710SOL    HW234764   1.975   3.547   6.432 -0.2309 -1.8898  0.8985
 7711SOL     OW34765   4.220   3.565  16.689 -0.2733 -0.1271 -0.2905
 7711SOL    HW134766   4.178   3.609  16.764  1.0059  1.4070 -0.4767
 7711SOL    HW234767   4.305   3.538  16.723 -0.3621  0.0295  0.0559
 7712SOL     OW34768   2.727   2.104   1.889 -0.1244  0.2156 -0.1597
 7712SOL    HW134769   2.651   2.145   1.848 -0.0327 -0.1780 -0.7252
 7712SOL    HW234770   2.802   2.138   1.839 -0.0649 -0.3164 -0.4290
 7713SOL     OW34771   3.366   3.343  11.178  0.0474 -0.3659 -0.3131
 7713SOL    HW134772   3.407   3.380  11.256  0.0873 -0.5617 -0.2392
 7713SOL    HW234773   3.440   3.315  11.123  1.9861  0.5398  1.8331
 7714SOL     OW34774   2.434   1.447   0.584 -0.2243  0.1621  0.3349
 7714SOL    HW134775   2.510   1.479   0.633 -0.3314  0.1203  0.5315
 7714SOL    HW234776   2.434   1.508   0.511 -1.9249 -1.2882 -0.8759
 7715SOL     OW34777   3.797   2.450   6.458  0.4712  0.6092 -0.2585
 7715SOL    HW134778   3.840   2.366   6.443 -2.4763 -1.1150  0.9408
 7715SOL    HW234779   3.759   2.433   6.544  0.2841  1.2708 -0.2049
 7716SOL     OW34780   3.959   1.117  14.104  0.4370 -0.0663  0.0524
 7716SOL    HW134781   4.044   1.106  14.146  0.2551 -2.6331 -0.2814
 7716SOL    HW234782   3.892   1.160  14.158  0.3155  0.0993 -0.2276
 7717SOL     OW34783   1.646   1.630   8.140  0.4054  0.1415  1.0074
 7717SOL    HW134784   1.618   1.722   8.144 -2.4309 -0.7150  0.0260
 7717SOL    HW234785   1.740   1.643   8.154  0.6061  0.5690 -0.8166
 7718SOL     OW34786   0.013   1.948   4.484  0.4346 -0.0251 -0.7113
 7718SOL    HW134787   4.707   1.886   4.426  0.0705 -1.6067  1.2651
 7718SOL    HW234788   0.052   2.017   4.430  0.3125 -1.1169 -2.1975
 7719SOL     OW34789   2.955   3.297   6.699  0.2134  0.0251  0.0118
 7719SOL    HW134790   3.033   3.264   6.655 -0.5312 -0.9876 -0.5284
 7719SOL    HW234791   2.987   3.317   6.786  1.8913 -1.2326 -0.3345
 7720SOL     OW34792   1.684   0.769   1.196 -0.3560 -1.0520 -0.3831
 7720SOL    HW134793   1.693   0.742   1.105  1.1341 -1.4480 -0.1199
 7720SOL    HW234794   1.627   0.846   1.187  1.8647  0.4645 -1.2315
 7721SOL     OW34795   3.761   2.023   7.946  0.0022  0.0044 -0.5508
 7721SOL    HW134796   3.811   2.021   8.027  0.7052  0.0351 -0.9879
 7721SOL    HW234797   3.756   1.929   7.934  0.1807 -0.0867  0.0852
 7722SOL     OW34798   3.185   2.235  15.245  0.1396 -0.5315  0.2452
 7722SOL    HW134799   3.107   2.237  15.300 -1.0089  1.0605 -1.4386
 7722SOL    HW234800   3.259   2.223  15.305 -0.2039 -0.3416  0.7068
 7723SOL     OW34801   3.528   0.650  12.772 -0.4459 -0.1515 -0.2276
 7723SOL    HW134802   3.613   0.691  12.789  0.1511 -2.2649  1.7839
 7723SOL    HW234803   3.504   0.609  12.855  0.7301 -1.6064 -0.6093
 7724SOL     OW34804   3.000   1.271   1.852 -0.5417 -0.4935 -0.3437
 7724SOL    HW134805   2.981   1.363   1.835 -0.8707 -0.3832  0.6573
 7724SOL    HW234806   2.917   1.226   1.868 -1.4696  1.8174  1.2887
 7725SOL     OW34807   1.737   4.076   6.298 -0.1420 -0.2667 -0.2828
 7725SOL    HW134808   1.730   4.149   6.236  0.1333 -1.7414 -2.0526
 7725SOL    HW234809   1.759   4.009   6.234  2.1328  1.1665 -1.0430
 7726SOL     OW34810   4.497   4.300   9.330 -0.6488  0.1436  0.2230
 7726SOL    HW134811   4.467   4.213   9.303  0.3570 -0.0559 -0.2840
 7726SOL    HW234812   4.465   4.301   9.420 -1.3416 -1.1254 -0.0106
 7727SOL     OW34813   1.516   2.001   6.849 -1.0256 -0.4444 -0.0828
 7727SOL    HW134814   1.497   1.920   6.802  0.0505  0.7796 -2.6339
 7727SOL    HW234815   1.604   1.983   6.882 -0.8555  2.0518  0.8686
 7728SOL     OW34816   4.264   1.453   9.575 -0.0842  0.6054  0.1210
 7728SOL    HW134817   4.271   1.533   9.626 -0.4119  0.6232  0.1395
 7728SOL    HW234818   4.174   1.458   9.544 -0.5983 -2.8269  1.0149
 7729SOL     OW34819   0.824   4.704  10.813  0.2358  0.0382 -0.0919
 7729SOL    HW134820   0.893   0.032  10.811  2.3461 -2.1839 -2.0505
 7729SOL    HW234821   0.813   4.700  10.908  0.2970  0.9686 -0.0533
 7730SOL     OW34822   1.436   1.299   9.631 -0.0924 -0.2502 -0.1692
 7730SOL    HW134823   1.448   1.204   9.621 -0.1968  0.0090 -2.5720
 7730SOL    HW234824   1.442   1.320   9.538  0.8318  0.1144 -0.0221
 7731SOL     OW34825   0.012   2.309   7.982  0.4794  0.1354 -0.5440
 7731SOL    HW134826   0.097   2.348   8.002  0.1022  0.4063  0.5320
 7731SOL    HW234827   4.692   2.378   8.012  0.9651 -1.3562  3.8303
 7732SOL     OW34828   2.437   0.265   3.792 -0.2131  0.6772 -0.0775
 7732SOL    HW134829   2.451   0.171   3.778 -1.0279  0.8931 -2.3540
 7732SOL    HW234830   2.348   0.270   3.757  0.0863 -0.3360 -0.9985
 7733SOL     OW34831   3.407   0.621   1.500 -0.2214  0.3834  0.3246
 7733SOL    HW134832   3.381   0.703   1.541 -0.5183 -0.7784  2.4406
 7733SOL    HW234833   3.333   0.565   1.524  0.7030 -1.4531 -1.0796
 7734SOL     OW34834   4.719   0.579   6.043 -0.5271 -0.4891  0.8317
 7734SOL    HW134835   4.688   0.575   5.952 -0.9262 -0.3195  0.9633
 7734SOL    HW234836   4.660   0.522   6.092  0.1430 -0.6565  1.4439
 7735SOL     OW34837   0.974   4.295   3.188  0.0754 -0.1434  0.7069
 7735SOL    HW134838   0.962   4.317   3.096  1.1116 -0.4915  0.4913
 7735SOL    HW234839   1.021   4.212   3.182 -0.8108 -0.4354 -2.2012
 7736SOL     OW34840   2.144   2.021   2.771  0.5599 -0.2547  0.1793
 7736SOL    HW134841   2.225   1.978   2.745 -0.6933 -1.5518 -1.6618
 7736SOL    HW234842   2.089   1.947   2.798  1.9540 -1.2505  0.2735
 7737SOL     OW34843   0.677   2.356   5.295 -0.4420  0.0789 -0.1619
 7737SOL    HW134844   0.714   2.435   5.334 -2.7598  0.0093  2.1976
 7737SOL    HW234845   0.723   2.367   5.211  0.4078 -0.5256  0.2196
 7738SOL     OW34846   0.976   0.219   9.695  0.4405 -0.3666 -0.5615
 7738SOL    HW134847   0.991   0.294   9.753 -2.8342 -0.8202  0.8852
 7738SOL    HW234848   1.062   0.190   9.666  0.0838 -0.5100 -1.4957
 7739SOL     OW34849   1.302   1.162   2.087 -0.0765  0.1401  0.3762
 7739SOL    HW134850   1.305   1.213   2.005  0.4122 -1.2026 -0.4386
 7739SOL    HW234851   1.376   1.199   2.136  0.9244  0.5306 -1.4070
 7740SOL     OW34852   0.173   1.838  15.137  0.4234 -0.4228  0.0458
 7740SOL    HW134853   0.175   1.838  15.233 -0.0627  0.5947  0.0588
 7740SOL    HW234854   0.125   1.758  15.114 -0.1126  0.2748 -1.2915
 7741SOL     OW34855   2.195   0.224  14.872 -0.3376 -0.0478 -0.1526
 7741SOL    HW134856   2.180   0.134  14.843  1.1235 -0.9344  1.8235
 7741SOL    HW234857   2.124   0.279  14.840 -0.6117  1.0997  2.4327
 7742SOL     OW34858   3.159   2.652   3.222 -0.3204  0.1082  0.0798
 7742SOL    HW134859   3.142   2.577   3.279 -1.8083  0.0389 -0.4602
 7742SOL    HW234860   3.134   2.628   3.133  1.9565 -1.6336 -0.0929
 7743SOL     OW34861   3.267   3.214   8.798 -0.2310 -0.8094  0.1044
 7743SOL    HW134862   3.216   3.188   8.874 -0.3378 -0.5315  0.1253
 7743SOL    HW234863   3.213   3.194   8.721  0.7097  3.4394 -1.6690
 7744SOL     OW34864   1.891   2.027   3.175 -0.5404  0.3626 -0.1795
 7744SOL    HW134865   1.846   2.072   3.104 -0.1136 -0.2853 -0.8622
 7744SOL    HW234866   1.970   2.007   3.125 -0.5174 -0.3843  0.1446
 7745SOL     OW34867   2.415   0.585   0.857 -0.4289  0.1931  0.1259
 7745SOL    HW134868   2.379   0.608   0.943  0.8408  0.3701  0.6167
 7745SOL    HW234869   2.357   0.521   0.817 -0.9858  1.5105 -1.2051
 7746SOL     OW34870   0.060   2.335   9.892  1.1682 -1.2149  0.3351
 7746SOL    HW134871   0.072   2.298   9.804  2.6341  3.1561 -1.2672
 7746SOL    HW234872   0.147   2.317   9.929  1.9360 -0.0568 -0.8808
 7747SOL     OW34873   3.621   2.544  12.754 -0.6062  0.3355 -0.0192
 7747SOL    HW134874   3.641   2.486  12.827  3.0617  0.3552 -0.9941
 7747SOL    HW234875   3.558   2.604  12.794 -0.7251 -0.6923  1.3150
 7748SOL     OW34876   4.113   4.353   2.935 -0.2242  0.2501 -0.0463
 7748SOL    HW134877   4.181   4.416   2.956  0.4425 -0.6837  0.6169
 7748SOL    HW234878   4.072   4.330   3.018 -0.0171 -0.9015 -0.2535
 7749SOL     OW34879   3.373   1.934   9.384 -0.4051  0.3184  0.2077
 7749SOL    HW134880   3.357   1.977   9.468  1.3652 -1.0886  1.2870
 7749SOL    HW234881   3.371   1.844   9.417  0.2192 -0.0165 -0.6622
 7750SOL     OW34882   1.458   4.003   6.950 -0.0470 -0.5074 -0.3184
 7750SOL    HW134883   1.420   4.090   6.944 -0.4707 -0.7787 -1.6952
 7750SOL    HW234884   1.416   3.962   7.025 -1.9406 -0.8795 -1.5751
 7751SOL     OW34885   2.421   2.068   1.403 -0.3891 -0.0272  0.2662
 7751SOL    HW134886   2.370   2.122   1.464  0.7161  0.2615  0.9407
 7751SOL    HW234887   2.380   1.982   1.408  1.9925 -1.2196 -1.2944
 7752SOL     OW34888   1.542   3.641   6.152 -0.1286 -0.6368  0.3393
 7752SOL    HW134889   1.491   3.584   6.209  1.2991 -2.3201 -0.0248
 7752SOL    HW234890   1.479   3.698   6.109  0.3863  0.3356  0.8633
 7753SOL     OW34891   0.702   4.719   1.904  0.3881  0.4989 -0.1170
 7753SOL    HW134892   0.699   4.663   1.981  0.6935  0.2256 -0.3042
 7753SOL    HW234893   0.651   0.054   1.939  0.8867  1.0662 -0.5506
 7754SOL     OW34894   2.652   2.636   2.599  0.0037  0.3146  0.6709
 7754SOL    HW134895   2.684   2.690   2.671 -0.1415 -0.6253  1.4396
 7754SOL    HW234896   2.728   2.632   2.540  0.5003 -0.7440  1.3754
 7755SOL     OW34897   1.161   0.590   7.078  0.1637 -0.0218 -0.0950
 7755SOL    HW134898   1.134   0.619   7.165  0.6617  0.0780  0.0232
 7755SOL    HW234899   1.139   0.660   7.016 -1.3178  1.2418  1.8889
 7756SOL     OW34900   2.566   0.842   4.999  0.0406  0.3275 -0.1313
 7756SOL    HW134901   2.491   0.895   5.025 -0.4016 -0.7378  0.7549
 7756SOL    HW234902   2.579   0.779   5.070  1.5492  0.1358 -0.5662
 7757SOL     OW34903   1.888   1.561  13.436  0.4936  0.2470 -0.3863
 7757SOL    HW134904   1.877   1.585  13.344 -1.0284 -0.6547 -0.4400
 7757SOL    HW234905   1.937   1.639  13.463  0.6016 -0.6613  2.0852
 7758SOL     OW34906   4.478   4.633   7.908  0.1962  0.3866  0.3151
 7758SOL    HW134907   4.411   4.701   7.910 -1.1911 -1.0348  1.8956
 7758SOL    HW234908   4.463   4.591   7.823  2.4414  1.9161 -0.8439
 7759SOL     OW34909   2.102   2.279   9.064 -0.5731  0.1554 -0.1021
 7759SOL    HW134910   2.082   2.352   9.123  1.0685  0.9109 -0.4669
 7759SOL    HW234911   2.190   2.291   9.028 -1.3999  0.7463 -1.9328
 7760SOL     OW34912   4.061   1.517   1.898 -0.1728  0.2585 -0.6920
 7760SOL    HW134913   4.023   1.435   1.929 -1.1968  1.3318  0.9027
 7760SOL    HW234914   4.156   1.504   1.902 -0.6007 -2.1255  1.5312
 7761SOL     OW34915   4.547   0.242   7.080 -0.2655 -0.2148  0.0546
 7761SOL    HW134916   4.511   0.196   7.005  1.9112  0.9556 -1.7200
 7761SOL    HW234917   4.479   0.254   7.146 -1.5504 -1.7403 -1.0126
 7762SOL     OW34918   0.927   2.842  12.324 -0.1662  0.0416  1.0282
 7762SOL    HW134919   0.861   2.851  12.393  1.8760  0.6799  2.8834
 7762SOL    HW234920   0.887   2.779  12.264 -0.6976  1.6028 -0.2527
 7763SOL     OW34921   1.657   4.588   4.072  0.1827 -0.1918 -0.8426
 7763SOL    HW134922   1.703   4.641   4.137 -1.1998 -0.4774  0.4009
 7763SOL    HW234923   1.623   4.652   4.010  0.2802  1.0506  0.3865
 7764SOL     OW34924   3.764   4.583   6.478  0.0399 -0.0170  0.2462
 7764SOL    HW134925   3.765   4.517   6.409 -1.3608 -1.3842  1.5406
 7764SOL    HW234926   3.807   4.649   6.424 -0.3360  0.8016  0.9536
 7765SOL     OW34927   2.652   2.177   7.063  0.2498 -0.7824  0.3400
 7765SOL    HW134928   2.613   2.263   7.047 -0.6225 -1.4388 -1.0416
 7765SOL    HW234929   2.728   2.201   7.117  1.3480 -0.3636 -1.4092
 7766SOL     OW34930   2.761   0.237  10.662  0.4015 -0.2719  0.1440
 7766SOL    HW134931   2.800   0.283  10.736  1.2403 -0.8448  0.0628
 7766SOL    HW234932   2.731   0.308  10.606  1.4967  1.6079  1.9553
 7767SOL     OW34933   3.478   3.569   2.141 -0.2978  0.8970  0.2452
 7767SOL    HW134934   3.399   3.593   2.092 -0.7386 -1.6125 -0.2520
 7767SOL    HW234935   3.543   3.559   2.072  0.3001 -0.8386  1.0568
 7768SOL     OW34936   0.120   1.513  11.907  0.3138  0.4235  0.3716
 7768SOL    HW134937   0.203   1.559  11.920  1.3139 -1.7774  1.7550
 7768SOL    HW234938   0.117   1.446  11.975  0.3326 -0.4109 -0.4634
 7769SOL     OW34939   1.936   0.857   3.486 -0.3483  0.0949 -0.3237
 7769SOL    HW134940   1.969   0.789   3.428  2.2397  1.1007 -0.0054
 7769SOL    HW234941   1.939   0.804   3.566  0.1749 -0.0330 -0.4277
 7770SOL     OW34942   3.567   3.648   2.392 -0.1489  0.5385 -0.2816
 7770SOL    HW134943   3.658   3.664   2.364 -0.2897  1.4654 -0.2188
 7770SOL    HW234944   3.541   3.620   2.304 -2.8230 -0.5414  0.8790
 7771SOL     OW34945   2.939   4.170   4.953 -0.4630  0.2976 -0.4017
 7771SOL    HW134946   2.845   4.150   4.955 -0.2160 -0.6129  2.1241
 7771SOL    HW234947   2.935   4.263   4.975 -0.7103  0.0526  0.5837
 7772SOL     OW34948   1.364   0.795  17.163 -0.3544  0.6561 -0.5069
 7772SOL    HW134949   1.314   0.864  17.206  1.0217  1.9892 -1.0897
 7772SOL    HW234950   1.302   0.722  17.174  1.6889 -0.7611  1.5917
 7773SOL     OW34951   1.453   0.329  13.405 -0.2796 -0.7261  0.0970
 7773SOL    HW134952   1.525   0.348  13.345 -0.8613 -1.0878 -0.7310
 7773SOL    HW234953   1.477   0.394  13.471 -1.1792 -1.0762  0.7679
 7774SOL     OW34954   2.837   4.104   6.109  1.0368  0.1820  0.6375
 7774SOL    HW134955   2.838   4.057   6.026 -0.5413  1.7199 -0.2549
 7774SOL    HW234956   2.807   4.033   6.166 -1.6880 -0.3156 -1.4312
 7775SOL     OW34957   2.115   0.823  11.331 -0.2912  0.0626 -0.3622
 7775SOL    HW134958   2.172   0.899  11.318 -0.3579  0.3144  0.8136
 7775SOL    HW234959   2.143   0.763  11.262 -0.7705 -1.0603  0.4197
 7776SOL     OW34960   2.414   3.782  14.764 -0.1446  0.3693  0.3661
 7776SOL    HW134961   2.424   3.688  14.751  3.0837  0.1563  4.2665
 7776SOL    HW234962   2.486   3.822  14.715 -0.3570  1.8710  1.2589
 7777SOL     OW34963   0.043   1.615   5.125  0.3091 -0.1680  0.1227
 7777SOL    HW134964   0.066   1.651   5.039  1.3683 -3.7085 -1.0569
 7777SOL    HW234965   0.128   1.595   5.165  1.1832  1.2836 -0.9981
 7778SOL     OW34966   4.695   1.588   4.640 -0.0565  0.2490  0.4996
 7778SOL    HW134967   0.037   1.542   4.667 -1.2001 -2.0024  0.0538
 7778SOL    HW234968   4.722   1.637   4.562 -2.0633 -0.4464 -0.6332
 7779SOL     OW34969   0.230   1.847   5.069 -0.2305 -0.2694 -0.2187
 7779SOL    HW134970   0.320   1.814   5.067 -1.0305 -2.4311 -0.0652
 7779SOL    HW234971   0.201   1.831   4.979 -1.9817 -0.8190  0.4464
 7780SOL     OW34972   4.432   4.327  12.193 -0.2456 -0.0273  0.3632
 7780SOL    HW134973   4.461   4.242  12.162  0.3579  0.6228 -0.8793
 7780SOL    HW234974   4.499   4.351  12.257 -0.9672  0.6183  0.8779
 7781SOL     OW34975   0.930   2.389   4.014 -0.1560 -0.6294  0.2718
 7781SOL    HW134976   0.856   2.329   4.003 -0.3972 -0.6609  2.1936
 7781SOL    HW234977   0.980   2.327   4.067 -1.2468 -1.8586 -0.1346
 7782SOL     OW34978   2.165   3.239   6.066 -0.7261  0.0833  0.2987
 7782SOL    HW134979   2.163   3.156   6.115 -0.3345  0.7497  1.4496
 7782SOL    HW234980   2.259   3.245   6.051 -0.2876 -1.6998  2.1995
 7783SOL     OW34981   2.775   0.230   4.493  0.6227 -0.2548 -0.2559
 7783SOL    HW134982   2.757   0.324   4.482  1.0519  0.1060  2.1909
 7783SOL    HW234983   2.818   0.232   4.578  1.0283  1.0477 -0.4922
 7784SOL     OW34984   0.964   1.802  17.633 -0.3474 -0.1865 -0.4431
 7784SOL    HW134985   0.903   1.854  17.580 -1.5241 -2.8203 -1.6465
 7784SOL    HW234986   1.045   1.817  17.585 -0.8979 -0.9860 -1.6232
 7785SOL     OW34987   1.853   1.265   7.021  0.6652  0.2419  0.1213
 7785SOL    HW134988   1.774   1.223   6.987  0.1995  2.1163 -1.0914
 7785SOL    HW234989   1.865   1.331   6.952 -1.9110  0.6840  0.0798
 7786SOL     OW34990   0.923   0.984  10.408  0.0630  0.2954 -0.3479
 7786SOL    HW134991   0.922   0.949  10.497 -1.1931 -0.6805 -0.7441
 7786SOL    HW234992   1.004   1.034  10.419 -1.2918  2.1881  0.9778
 7787SOL     OW34993   3.656   4.366   9.014 -0.0327  0.3725  0.0856
 7787SOL    HW134994   3.610   4.435   8.966  1.5371  0.2838 -1.5607
 7787SOL    HW234995   3.576   4.326   9.049 -0.8660  2.7329  0.8557
 7788SOL     OW34996   0.251   3.924   8.568  0.5320  0.0394  0.5058
 7788SOL    HW134997   0.263   3.832   8.590  0.2427 -0.2202 -0.3931
 7788SOL    HW234998   0.253   3.965   8.655  1.3133  0.0970  0.4596
 7789SOL     OW34999   0.168   3.974   9.333  0.1630  0.0815 -0.6810
 7789SOL    HW135000   0.260   3.990   9.313  0.3842  1.5306  1.4964
 7789SOL    HW235001   0.181   3.916   9.408  0.5215 -0.4428 -1.1456
 7790SOL     OW35002   2.511   0.252   8.191  0.1721 -0.3505 -0.2119
 7790SOL    HW135003   2.427   0.206   8.197  1.1068 -1.6233  3.3389
 7790SOL    HW235004   2.562   0.198   8.251 -0.9836  0.2238  1.2785
 7791SOL     OW35005   4.441   0.914   6.981  0.2548 -0.2232 -0.2013
 7791SOL    HW135006   4.465   0.980   7.045 -3.0894  0.1819  0.6752
 7791SOL    HW235007   4.521   0.862   6.977  0.1481 -0.3768 -0.3904
 7792SOL     OW35008   0.095   4.052   6.613 -0.0533  0.6922 -0.1778
 7792SOL    HW135009   0.021   4.089   6.565 -0.9847 -0.9335 -0.0135
 7792SOL    HW235010   0.145   4.132   6.629  0.0696  0.0190  2.7658
 7793SOL     OW35011   2.250   2.065   9.609 -0.2022 -0.1392  0.3155
 7793SOL    HW135012   2.256   2.153   9.647 -1.1383  0.1554 -0.2084
 7793SOL    HW235013   2.175   2.024   9.652  0.5587 -1.3149  0.4963
 7794SOL     OW35014   3.486   3.677   5.879  0.3321  0.2269 -0.6066
 7794SOL    HW135015   3.485   3.658   5.973 -0.7949  0.6259 -0.5270
 7794SOL    HW235016   3.393   3.675   5.857  0.0647  2.1592  0.2672
 7795SOL     OW35017   4.601   1.390  12.900  0.0475  0.1937 -0.1043
 7795SOL    HW135018   4.664   1.413  12.832  0.3669 -2.6584 -0.7488
 7795SOL    HW235019   4.637   1.449  12.966 -0.9437 -0.7562  1.2744
 7796SOL     OW35020   1.491   4.596  13.247 -0.0829 -0.1787 -0.4473
 7796SOL    HW135021   1.526   4.525  13.300 -0.9734 -0.6642 -0.4967
 7796SOL    HW235022   1.440   4.641  13.314 -1.3059  1.0503 -2.1932
 7797SOL     OW35023   3.939   2.070   7.572  0.3762 -0.4012 -0.2960
 7797SOL    HW135024   3.932   2.149   7.518 -0.4648  1.5091  2.5869
 7797SOL    HW235025   4.005   2.028   7.518 -0.1976 -1.1763 -0.4002
 7798SOL     OW35026   1.312   2.418   2.181 -0.4668  0.0553 -0.5058
 7798SOL    HW135027   1.275   2.501   2.210 -1.5027 -1.3640  2.1811
 7798SOL    HW235028   1.402   2.449   2.171 -1.0807  2.0983  0.1935
 7799SOL     OW35029   0.602   1.048   0.967 -0.0312  0.0317 -0.5603
 7799SOL    HW135030   0.580   1.095   0.886  1.0154  0.1001 -0.8095
 7799SOL    HW235031   0.640   1.122   1.015 -1.8864 -0.0796  1.0655
 7800SOL     OW35032   1.200   2.627   2.282  0.7442  1.1435  0.3400
 7800SOL    HW135033   1.121   2.633   2.335 -0.6763  2.3850 -1.9454
 7800SOL    HW235034   1.180   2.690   2.213 -2.5030 -0.3849 -0.0640
 7801SOL     OW35035   2.405   2.395   9.588  0.1442 -0.5109  0.1393
 7801SOL    HW135036   2.485   2.342   9.594 -0.8027 -2.1545 -1.7854
 7801SOL    HW235037   2.406   2.448   9.668 -1.4884  1.3562 -1.0702
 7802SOL     OW35038   4.706   1.730   4.333 -0.3134 -0.1600  0.5025
 7802SOL    HW135039   4.727   1.744   4.240 -1.9145 -0.2997  0.1248
 7802SOL    HW235040   4.717   1.637   4.350  1.5940 -0.1683 -0.7380
 7803SOL     OW35041   3.497   0.797  17.249  0.0283 -0.8045  0.0325
 7803SOL    HW135042   3.492   0.892  17.250  0.5581 -0.7569 -1.1397
 7803SOL    HW235043   3.575   0.776  17.198  1.8924  2.0909  1.7503
 7804SOL     OW35044   2.010   4.694   4.907  0.1728 -0.2281 -0.1645
 7804SOL    HW135045   2.041   0.017   4.840 -0.4775  1.2384  0.8835
 7804SOL    HW235046   2.088   4.675   4.958  1.0366  1.3418 -0.9067
 7805SOL     OW35047   1.329   0.252   7.196 -0.2671 -0.7732 -0.1543
 7805SOL    HW135048   1.270   0.204   7.138  0.8937 -1.0722 -1.0943
 7805SOL    HW235049   1.414   0.225   7.160  0.3514  1.0703 -0.0735
 7806SOL     OW35050   2.246   3.000   8.034  0.0009 -0.2328 -0.2474
 7806SOL    HW135051   2.240   3.095   8.038  0.6115 -0.2517  0.8843
 7806SOL    HW235052   2.196   2.988   7.953 -2.3525 -1.3129  1.3886
 7807SOL     OW35053   2.121   0.195   6.823  0.2164 -0.0609 -0.0413
 7807SOL    HW135054   2.210   0.161   6.821  0.2534  0.1519 -1.9917
 7807SOL    HW235055   2.081   0.138   6.889  0.5488  0.1740  0.3644
 7808SOL     OW35056   1.298   0.454   5.791  0.0584 -0.0335  0.2639
 7808SOL    HW135057   1.346   0.510   5.729 -1.6600 -1.9568 -2.7978
 7808SOL    HW235058   1.321   0.364   5.768 -0.3562 -0.5661  1.9540
 7809SOL     OW35059   2.514   0.434   7.569 -0.5230 -0.5930  0.4801
 7809SOL    HW135060   2.598   0.477   7.587 -0.4488 -1.1437  1.4517
 7809SOL    HW235061   2.528   0.347   7.605 -1.3892 -1.1428 -0.5311
 7810SOL     OW35062   0.445   2.212   5.360  0.2973  0.0221 -0.5231
 7810SOL    HW135063   0.412   2.160   5.287  0.7969 -0.6017 -0.2949
 7810SOL    HW235064   0.508   2.272   5.320  0.6469  1.2023  1.7800
 7811SOL     OW35065   3.843   3.307   3.811  0.5713 -0.1746 -0.3354
 7811SOL    HW135066   3.871   3.265   3.892 -1.0708 -1.3322 -0.3581
 7811SOL    HW235067   3.751   3.324   3.832 -0.0835 -1.1672 -2.3689
 7812SOL     OW35068   2.985   2.733   5.906 -0.2793 -0.3071  0.0115
 7812SOL    HW135069   2.915   2.746   5.843  0.0401  3.2106  0.3751
 7812SOL    HW235070   3.066   2.762   5.864 -1.0497  2.0112  0.1252
 7813SOL     OW35071   1.094   1.029   5.060 -0.2858  0.0223  0.5104
 7813SOL    HW135072   1.133   0.973   4.993 -1.3335 -0.1256  0.0224
 7813SOL    HW235073   1.009   0.990   5.077 -0.1667 -0.3901  0.1317
 7814SOL     OW35074   3.259   3.404   8.400 -0.0075 -0.2852  0.2753
 7814SOL    HW135075   3.225   3.440   8.483 -0.1582 -1.6848  0.8236
 7814SOL    HW235076   3.197   3.333   8.383 -1.0774  0.7721 -0.2615
 7815SOL     OW35077   2.482   0.327   6.853 -0.1615  0.1470  0.0105
 7815SOL    HW135078   2.412   0.352   6.913  0.9773  0.3058  1.2873
 7815SOL    HW235079   2.441   0.257   6.802 -2.8063  0.1712  2.0757
 7816SOL     OW35080   0.247   4.524   4.304  0.8267 -0.0356  0.1065
 7816SOL    HW135081   0.293   4.571   4.234  1.3087 -0.9247 -0.1708
 7816SOL    HW235082   0.225   4.445   4.255 -0.5065 -0.6787  1.7312
 7817SOL     OW35083   2.005   1.890   8.016  0.2804  0.3380 -0.5844
 7817SOL    HW135084   2.076   1.952   7.999  2.0443 -1.0794  1.6374
 7817SOL    HW235085   1.964   1.931   8.092  0.9612  1.4739 -0.8284
 7818SOL     OW35086   2.764   4.315   6.266  0.2523  0.2339 -0.3337
 7818SOL    HW135087   2.737   4.252   6.332  0.0079  0.1758 -0.4920
 7818SOL    HW235088   2.777   4.264   6.185  2.1946 -2.9497  1.9801
 7819SOL     OW35089   4.718   3.079  15.329 -0.0006  0.4145 -0.3075
 7819SOL    HW135090   4.638   3.093  15.380 -0.0223 -3.5191  0.6942
 7819SOL    HW235091   0.036   3.047  15.399 -0.3324  1.9798  0.6602
 7820SOL     OW35092   0.100   3.733  17.297  0.1186  0.0393  0.0870
 7820SOL    HW135093   0.123   3.775  17.214 -2.2735 -2.0762 -1.6465
 7820SOL    HW235094   0.168   3.764  17.357 -0.9191  1.0212  0.7357
 7821SOL     OW35095   3.977   0.705   8.631 -0.5122 -0.6131  0.3062
 7821SOL    HW135096   3.951   0.795   8.650 -0.6207 -0.8332  1.2208
 7821SOL    HW235097   3.917   0.675   8.700  0.5260 -2.1158  0.5491
 7822SOL     OW35098   4.535   2.994   2.164  0.0168 -0.5396 -0.9851
 7822SOL    HW135099   4.627   3.017   2.157 -0.3640  0.8681 -1.4228
 7822SOL    HW235100   4.512   3.049   2.239  0.8827  0.9128 -1.7794
 7823SOL     OW35101   1.156   3.393   6.347 -0.0962  0.1841  0.0171
 7823SOL    HW135102   1.089   3.393   6.278 -0.8099 -0.8462  0.7162
 7823SOL    HW235103   1.150   3.301   6.373 -3.5273  0.4667  0.1406
 7824SOL     OW35104   4.239   1.351   6.796  0.1311 -0.3183 -0.5766
 7824SOL    HW135105   4.334   1.362   6.788  0.2393  0.8620  2.5580
 7824SOL    HW235106   4.229   1.255   6.795  2.9896 -0.6579  2.3491
 7825SOL     OW35107   2.728   3.730   5.963  0.3230 -0.4186  0.5870
 7825SOL    HW135108   2.820   3.737   5.988 -0.2341  1.7001  2.0777
 7825SOL    HW235109   2.713   3.824   5.958  0.1006 -0.4096  1.4181
 7826SOL     OW35110   2.170   2.860  11.517  0.3408  0.4976  0.5683
 7826SOL    HW135111   2.143   2.952  11.527 -0.5093  0.2051  0.9438
 7826SOL    HW235112   2.105   2.815  11.571 -0.2880  0.5674 -0.1136
 7827SOL     OW35113   3.889   4.290   3.131  0.1556 -0.1681 -0.4230
 7827SOL    HW135114   3.854   4.232   3.198  1.2833  1.5544  1.6724
 7827SOL    HW235115   3.811   4.308   3.079 -0.0408  0.6780  0.1603
 7828SOL     OW35116   2.101   0.736   7.010  0.0045  0.1004  0.3104
 7828SOL    HW135117   2.020   0.712   6.965 -0.6302  2.1576  0.3442
 7828SOL    HW235118   2.094   0.690   7.093  0.4641 -0.9048 -0.2112
 7829SOL     OW35119   1.805   3.316   1.647 -0.3792 -0.9785 -0.3259
 7829SOL    HW135120   1.726   3.306   1.699 -1.3404 -1.0825 -1.8209
 7829SOL    HW235121   1.824   3.228   1.613 -1.1181 -1.0553 -0.5212
 7830SOL     OW35122   1.271   4.122   8.564 -0.5411 -0.3328 -0.2553
 7830SOL    HW135123   1.340   4.073   8.521 -0.1920 -0.7072  0.7415
 7830SOL    HW235124   1.231   4.157   8.484  0.3845 -0.0872 -0.6086
 7831SOL     OW35125   2.849   3.784  11.882 -0.0476  0.6582  0.4884
 7831SOL    HW135126   2.808   3.778  11.968 -0.5337 -2.0510  0.0728
 7831SOL    HW235127   2.885   3.872  11.893 -2.2559  1.5609  0.5151
 7832SOL     OW35128   3.029   1.758   8.743 -1.2252  0.2467  0.0692
 7832SOL    HW135129   3.050   1.767   8.836  0.1498 -0.2638 -0.1880
 7832SOL    HW235130   2.977   1.838   8.732  1.0396  1.8926  1.4268
 7833SOL     OW35131   0.688   1.739   7.351  0.6035 -0.3372 -0.0020
 7833SOL    HW135132   0.600   1.729   7.315  0.2380  4.2183 -0.3053
 7833SOL    HW235133   0.713   1.650   7.377  0.6896 -0.0683  0.8310
 7834SOL     OW35134   2.910   3.883  14.324  0.4872  0.2641 -0.4575
 7834SOL    HW135135   2.961   3.889  14.405  1.5936  2.9903 -1.3534
 7834SOL    HW235136   2.969   3.854  14.255 -0.1099 -1.0512 -0.4092
 7835SOL     OW35137   2.246   0.260   5.741  0.2503  0.0667 -0.0231
 7835SOL    HW135138   2.266   0.167   5.748  0.7556  0.3003  1.6252
 7835SOL    HW235139   2.153   0.265   5.718  0.5522  0.1141 -1.2017
 7836SOL     OW35140   1.609   1.654  13.015  0.0892  0.1697  0.0547
 7836SOL    HW135141   1.526   1.607  13.016  0.3958 -0.4031 -1.5665
 7836SOL    HW235142   1.606   1.680  12.923 -0.3609  0.0099  0.0259
 7837SOL     OW35143   4.040   1.430   0.477 -0.5262  0.4065  0.0069
 7837SOL    HW135144   3.991   1.368   0.424  0.5670 -1.0966  0.7653
 7837SOL    HW235145   4.118   1.446   0.424  0.2925  0.5112  1.2363
 7838SOL     OW35146   2.002   0.466   4.043  0.1675  0.2775  0.6571
 7838SOL    HW135147   1.947   0.388   4.050  0.0682  0.4172  1.4523
 7838SOL    HW235148   2.036   0.452   3.955 -1.7134  0.7321 -0.1441
 7839SOL     OW35149   2.647   1.076  14.570  0.0072 -0.6295  0.0544
 7839SOL    HW135150   2.697   1.157  14.572  0.4483 -0.8984 -0.1132
 7839SOL    HW235151   2.715   1.024  14.527  1.8308  2.3411 -0.6885
 7840SOL     OW35152   2.115   0.555  10.370  0.2486  0.5125 -0.5497
 7840SOL    HW135153   2.071   0.472  10.385 -0.2803  0.4624 -2.3871
 7840SOL    HW235154   2.204   0.528  10.348 -0.7191 -1.1094 -2.5109
 7841SOL     OW35155   3.940   4.710  11.146  0.0792 -0.7496  0.4977
 7841SOL    HW135156   3.922   4.656  11.069  0.1955 -0.8288  0.5259
 7841SOL    HW235157   3.950   4.639  11.209  0.0772  0.8387  2.2910
 7842SOL     OW35158   3.017   0.933   8.306 -0.2189  0.0174  0.9664
 7842SOL    HW135159   2.956   0.909   8.375 -2.7986 -2.2134 -2.0816
 7842SOL    HW235160   2.966   1.013   8.292  1.0660  0.5413 -0.6245
 7843SOL     OW35161   3.743   4.057  17.520  0.2998  0.1142  0.2017
 7843SOL    HW135162   3.830   4.043  17.558  0.9601 -0.3695 -1.4857
 7843SOL    HW235163   3.717   4.131  17.575  1.5504  1.0153 -0.3922
 7844SOL     OW35164   1.963   2.730   6.100  0.1875  0.1888 -0.3643
 7844SOL    HW135165   1.966   2.678   6.181 -2.6528 -0.0571 -0.4042
 7844SOL    HW235166   1.882   2.701   6.057  0.8455 -1.3943 -0.5662
 7845SOL     OW35167   2.652   3.778   8.835  0.4579  0.1178 -0.0604
 7845SOL    HW135168   2.668   3.734   8.919 -1.2257 -4.7200 -2.2240
 7845SOL    HW235169   2.621   3.704   8.783 -1.2110  2.1969 -2.0198
 7846SOL     OW35170   1.716   2.510   4.733  0.0987  0.5785 -0.0046
 7846SOL    HW135171   1.782   2.564   4.689  0.4781 -0.5309 -0.8186
 7846SOL    HW235172   1.780   2.442   4.756  1.4884  1.4306 -1.3113
 7847SOL     OW35173   0.404   1.685  10.529 -0.2766 -0.3042  0.1157
 7847SOL    HW135174   0.440   1.772  10.512 -0.1266 -0.4170 -0.1541
 7847SOL    HW235175   0.392   1.688  10.624 -0.5152  2.5671  0.0110
 7848SOL     OW35176   1.325   0.800   0.402  0.3664 -0.6326  0.1268
 7848SOL    HW135177   1.362   0.820   0.317 -1.6390  0.2613 -0.5421
 7848SOL    HW235178   1.366   0.715   0.423  3.3649  0.8805  0.3510
 7849SOL     OW35179   1.968   1.361   4.000  0.5160 -0.0494 -0.0461
 7849SOL    HW135180   1.908   1.339   3.929  1.2301  2.1934 -1.3543
 7849SOL    HW235181   1.970   1.275   4.042 -1.5165 -0.8873 -1.6590
 7850SOL     OW35182   1.989   3.856   6.315  0.3855 -0.0018 -0.5074
 7850SOL    HW135183   1.914   3.810   6.350  0.7855 -1.7842 -1.9568
 7850SOL    HW235184   2.013   3.909   6.390  2.0274  1.5779 -2.1487
 7851SOL     OW35185   3.128   2.493   8.532  0.1343 -0.3735 -0.0817
 7851SOL    HW135186   3.061   2.443   8.486 -0.9370  0.0911  0.9599
 7851SOL    HW235187   3.070   2.565   8.555  0.6189 -0.4632  1.4268
 7852SOL     OW35188   4.561   2.278   3.689 -0.3981 -0.0239 -0.4358
 7852SOL    HW135189   4.583   2.313   3.776  0.6854 -2.0897  0.1156
 7852SOL    HW235190   4.468   2.277   3.713 -0.0909 -0.8470  0.7062
 7853SOL     OW35191   2.591   0.194  15.404 -0.0055 -0.0658  0.3463
 7853SOL    HW135192   2.599   0.099  15.413  1.5129  0.0292 -0.0840
 7853SOL    HW235193   2.503   0.211  15.370  0.2753 -1.1279 -0.8923
 7854SOL     OW35194   2.105   2.644   9.750  0.1408  0.4142 -0.3058
 7854SOL    HW135195   2.135   2.713   9.692 -1.8121 -0.5951 -2.5324
 7854SOL    HW235196   2.140   2.672   9.835  0.8075 -0.3422 -0.3319
 7855SOL     OW35197   0.575   1.278   8.004 -0.0182 -0.0904  0.3314
 7855SOL    HW135198   0.496   1.261   8.056 -1.7797  0.6623 -2.0805
 7855SOL    HW235199   0.548   1.273   7.912  2.1407 -0.9699 -0.2387
 7856SOL     OW35200   1.489   3.214   8.931 -0.0580 -0.2907 -0.1611
 7856SOL    HW135201   1.551   3.277   8.966 -0.9589  0.9413 -0.8071
 7856SOL    HW235202   1.488   3.251   8.843  1.4815  0.3139  0.0914
 7857SOL     OW35203   2.619   1.661  11.340  0.0862 -0.2015 -0.5648
 7857SOL    HW135204   2.588   1.751  11.334 -0.7421 -0.7466 -4.4644
 7857SOL    HW235205   2.552   1.604  11.301  0.0390 -0.8166  0.4238
 7858SOL     OW35206   3.275   1.268   3.590  0.2737 -0.2595  0.3493
 7858SOL    HW135207   3.257   1.177   3.565 -0.1605 -0.3997  1.1626
 7858SOL    HW235208   3.348   1.272   3.651  1.5297  1.2817 -1.2759
 7859SOL     OW35209   4.415   3.175   9.799 -0.2039 -0.2109 -0.4811
 7859SOL    HW135210   4.477   3.130   9.741  1.6462 -0.1089  1.4189
 7859SOL    HW235211   4.333   3.155   9.754  0.1867 -0.1957 -1.1968
 7860SOL     OW35212   4.005   3.459   3.635  0.0573 -0.7533 -0.2473
 7860SOL    HW135213   3.932   3.499   3.589  1.9560 -1.1161 -3.5220
 7860SOL    HW235214   3.961   3.417   3.709  0.1711 -0.3523  0.0488
 7861SOL     OW35215   1.826   2.966  17.724  0.3091  0.6115 -0.6343
 7861SOL    HW135216   1.846   3.059  17.725 -0.9626  0.8834  0.0575
 7861SOL    HW235217   1.789   2.961  17.635 -0.2094 -0.6994 -0.3454
 7862SOL     OW35218   3.528   0.385   2.844 -0.5389  0.3087 -0.4516
 7862SOL    HW135219   3.443   0.388   2.888  1.0633  1.5076  2.5405
 7862SOL    HW235220   3.506   0.399   2.752 -0.2769  0.3432 -0.5085
 7863SOL     OW35221   4.599   2.079   2.327  0.2285  0.5866 -0.0155
 7863SOL    HW135222   4.637   2.004   2.373  0.4474  1.5212  1.3285
 7863SOL    HW235223   4.564   2.129   2.401  0.4777 -0.1756  0.6105
 7864SOL     OW35224   3.171   0.987   6.267  0.1345 -0.4443  0.0742
 7864SOL    HW135225   3.100   1.050   6.254 -0.7004 -1.2079  1.0195
 7864SOL    HW235226   3.161   0.936   6.187  0.3410 -1.4812  0.7135
 7865SOL     OW35227   1.632   4.677   0.023  0.1051 -0.0599 -0.2732
 7865SOL    HW135228   1.620   4.583   0.014 -1.3358 -0.0538  1.7384
 7865SOL    HW235229   1.654   4.698  17.682 -0.9517 -1.9547 -0.9775
 7866SOL     OW35230   3.257   4.714  16.708 -0.0847  0.2571  0.7247
 7866SOL    HW135231   3.341   4.731  16.749  0.9541  0.4460 -1.4823
 7866SOL    HW235232   3.285   4.675  16.625 -0.6060  0.5761  0.3901
 7867SOL     OW35233   3.458   3.130   6.530  0.6775  0.4784  0.2311
 7867SOL    HW135234   3.449   3.136   6.435  1.2335 -0.6425  0.1135
 7867SOL    HW235235   3.486   3.039   6.542  0.6149  0.4241 -0.0477
 7868SOL     OW35236   4.591   0.300   6.732 -0.1790 -0.2214  0.3605
 7868SOL    HW135237   4.533   0.369   6.763  0.6410  0.8243 -0.4375
 7868SOL    HW235238   4.577   0.227   6.792 -1.1173 -0.6281 -0.3434
 7869SOL     OW35239   1.901   0.426   3.517 -0.0272  0.3410 -0.1780
 7869SOL    HW135240   1.875   0.504   3.468  3.0944  1.4559 -0.0598
 7869SOL    HW235241   1.980   0.415   3.464 -1.7051 -1.1701 -2.3724
 7870SOL     OW35242   0.303   4.651   8.159  0.0843 -0.4702  0.2511
 7870SOL    HW135243   0.286   4.646   8.253  0.9299 -1.0739  0.3738
 7870SOL    HW235244   0.394   4.680   8.160  0.1372 -0.6865  1.6082
 7871SOL     OW35245   0.102   0.653   2.983  0.3557 -0.3388 -0.1144
 7871SOL    HW135246   0.049   0.703   2.922  1.0932 -1.2287 -1.4861
 7871SOL    HW235247   0.052   0.659   3.065 -0.9383  1.3346 -1.0285
 7872SOL     OW35248   3.805   1.373   8.415  0.2670 -0.1020 -0.0817
 7872SOL    HW135249   3.733   1.433   8.436 -0.9351  0.2628 -5.4148
 7872SOL    HW235250   3.882   1.429   8.411 -0.6441  1.1328 -0.0552
 7873SOL     OW35251   2.311   3.255  10.485  0.2149  0.0037 -0.4230
 7873SOL    HW135252   2.385   3.271  10.427  2.0223  0.1459  1.9513
 7873SOL    HW235253   2.242   3.298  10.434  0.0893  1.5022  0.9825
 7874SOL     OW35254   1.071   3.173  11.651 -0.0126 -0.2012  0.7016
 7874SOL    HW135255   0.982   3.197  11.676  0.5657  0.8599  1.7173
 7874SOL    HW235256   1.107   3.260  11.668 -0.9641  0.6032 -1.4351
 7875SOL     OW35257   0.988   3.369   3.188  0.6502  0.0167 -0.0975
 7875SOL    HW135258   0.894   3.353   3.186  0.6537 -0.1519  0.9086
 7875SOL    HW235259   1.001   3.339   3.098  1.3220  0.8097 -0.2699
 7876SOL     OW35260   3.489   0.071   3.201  0.4139 -0.5402  0.0187
 7876SOL    HW135261   3.548   0.028   3.139  1.2981 -0.0035  0.4964
 7876SOL    HW235262   3.540   0.076   3.282  0.9572 -1.4882 -0.2741
 7877SOL     OW35263   2.333   2.079   8.253  0.0828  0.0430 -0.6226
 7877SOL    HW135264   2.394   2.046   8.319 -0.1795  1.2570  0.2101
 7877SOL    HW235265   2.282   2.144   8.301  1.3657  0.6469 -0.1074
 7878SOL     OW35266   4.436   4.312  12.728  0.2352  0.3329  0.2910
 7878SOL    HW135267   4.463   4.247  12.793  1.4361  0.7599  0.2256
 7878SOL    HW235268   4.395   4.259  12.660  0.4698 -3.4872  3.0969
 7879SOL     OW35269   4.440   0.480   5.987  0.1160 -0.1266  0.2201
 7879SOL    HW135270   4.418   0.410   5.926 -0.3359 -2.2918  2.9058
 7879SOL    HW235271   4.405   0.556   5.939  0.9274  0.0560 -0.0854
 7880SOL     OW35272   4.372   3.746   8.939  0.4278  0.4794 -0.3762
 7880SOL    HW135273   4.390   3.701   8.856  2.1526  0.1773  0.1742
 7880SOL    HW235274   4.278   3.756   8.926  0.5848  1.3256 -0.9242
 7881SOL     OW35275   2.944   1.939   5.496 -0.1981 -0.3423 -0.2998
 7881SOL    HW135276   2.933   2.033   5.511 -0.2551 -0.5917  1.1816
 7881SOL    HW235277   2.990   1.915   5.577  0.1983 -0.9082 -0.6912
 7882SOL     OW35278   1.276   4.557   1.377  0.2049  0.0031  0.2374
 7882SOL    HW135279   1.354   4.572   1.323 -0.7052 -0.8978 -1.3436
 7882SOL    HW235280   1.213   4.554   1.305  2.7936 -0.7195 -1.9949
 7883SOL     OW35281   0.699   4.619   1.571 -0.4844  0.1968 -0.1616
 7883SOL    HW135282   0.692   4.714   1.565 -0.1870  0.3554  2.1764
 7883SOL    HW235283   0.645   4.591   1.645  0.8000 -0.6743  0.4588
 7884SOL     OW35284   0.417   2.220   1.642  0.0523  0.5637 -0.1142
 7884SOL    HW135285   0.342   2.173   1.604 -0.6576  2.2908 -0.8564
 7884SOL    HW235286   0.374   2.294   1.686  0.6608  1.6707 -1.3610
 7885SOL     OW35287   2.922   0.586  11.534 -0.1323 -0.1865 -0.4799
 7885SOL    HW135288   2.936   0.641  11.611 -2.5209 -0.5826  0.2523
 7885SOL    HW235289   2.828   0.597  11.517  0.0294  1.3572 -0.3246
 7886SOL     OW35290   3.689   3.744   8.810 -0.6658  0.5164  0.0880
 7886SOL    HW135291   3.625   3.797   8.763  0.1216  0.2319 -1.2869
 7886SOL    HW235292   3.636   3.716   8.885 -1.3541  2.9791  0.5361
 7887SOL     OW35293   0.190   3.396   2.756 -0.0888  0.3062  0.0746
 7887SOL    HW135294   0.248   3.371   2.827 -2.5275  1.4717  2.5002
 7887SOL    HW235295   0.250   3.460   2.719 -0.4849  0.9185  0.4852
 7888SOL     OW35296   1.056   2.729   8.280 -0.1995 -0.2170 -0.1201
 7888SOL    HW135297   1.125   2.676   8.239 -0.5098 -1.0162  0.3791
 7888SOL    HW235298   1.060   2.811   8.232 -2.9947 -0.9312 -1.5658
 7889SOL     OW35299   3.555   2.872   6.493  0.0753  0.2233  0.1700
 7889SOL    HW135300   3.510   2.788   6.490 -2.9456  1.8361  0.7590
 7889SOL    HW235301   3.629   2.842   6.546 -0.6078 -1.5518  0.1205
 7890SOL     OW35302   0.686   0.619   9.446  0.0447  0.3042  0.0273
 7890SOL    HW135303   0.682   0.711   9.420 -3.8080  0.3827  0.7824
 7890SOL    HW235304   0.730   0.623   9.531  1.8131  1.7072 -0.9767
 7891SOL     OW35305   0.517   1.176   6.247 -0.5400  0.1288  0.1548
 7891SOL    HW135306   0.442   1.215   6.202  0.1434  2.1974  0.8575
 7891SOL    HW235307   0.583   1.244   6.235 -0.0960 -0.1300  1.1733
 7892SOL     OW35308   0.537   2.984   4.926 -0.2930  0.3782  0.2022
 7892SOL    HW135309   0.514   2.909   4.981 -0.9018 -0.1973 -0.8252
 7892SOL    HW235310   0.536   2.954   4.835 -0.6999 -0.5994  0.5304
 7893SOL     OW35311   1.951   3.347  11.746 -0.5344  0.2323  0.3475
 7893SOL    HW135312   1.917   3.393  11.670 -0.3184 -1.4409 -0.7587
 7893SOL    HW235313   2.000   3.419  11.785 -0.8953  0.8387 -0.3349
 7894SOL     OW35314   3.683   3.049   5.653  0.0188  0.0056  0.0261
 7894SOL    HW135315   3.656   2.969   5.699 -0.9473  0.1817 -0.2352
 7894SOL    HW235316   3.689   3.110   5.726  2.1694 -1.8379  1.4108
 7895SOL     OW35317   4.596   2.856   5.964 -0.1845 -0.4295  0.0277
 7895SOL    HW135318   4.531   2.923   5.985  0.3690  0.1001  0.0462
 7895SOL    HW235319   4.582   2.843   5.871  0.3600 -1.0706  0.0329
 7896SOL     OW35320   2.908   0.674  17.294 -0.4572  0.1198  0.1969
 7896SOL    HW135321   2.888   0.584  17.268 -0.8814 -0.1428  1.4158
 7896SOL    HW235322   2.996   0.689  17.260 -0.3182  0.1680  0.5782
 7897SOL     OW35323   1.541   3.725   1.531 -0.5379  0.0836 -0.0408
 7897SOL    HW135324   1.532   3.788   1.459  1.7465 -0.5646 -0.9048
 7897SOL    HW235325   1.634   3.703   1.522 -0.5631  0.1496 -0.5051
 7898SOL     OW35326   2.506   0.647   6.423 -0.2985  0.3289  0.1721
 7898SOL    HW135327   2.570   0.673   6.357 -1.7459 -0.2247 -1.4678
 7898SOL    HW235328   2.423   0.667   6.380 -0.7426 -1.3164  0.2377
 7899SOL     OW35329   3.080   0.102   8.853  0.4114  0.8738 -0.0980
 7899SOL    HW135330   3.068   0.087   8.759  0.8790  1.8340 -0.3096
 7899SOL    HW235331   3.042   0.190   8.848 -0.2487  0.4747 -2.3151
 7900SOL     OW35332   1.497   3.059   7.458 -0.1462 -0.1189  0.2012
 7900SOL    HW135333   1.547   3.014   7.525 -0.3483 -0.5039  0.0911
 7900SOL    HW235334   1.536   3.145   7.439 -0.7477 -0.2043 -1.4025
 7901SOL     OW35335   0.159   4.612  15.172 -0.3249 -0.3438 -0.5889
 7901SOL    HW135336   0.076   4.656  15.153  0.2242  0.2863 -1.4918
 7901SOL    HW235337   0.204   4.603  15.088  1.7863 -1.2516  0.6296
 7902SOL     OW35338   3.365   1.441   6.637  0.0245  0.4695 -0.3782
 7902SOL    HW135339   3.400   1.353   6.655  2.6014  1.6750  0.5517
 7902SOL    HW235340   3.445   1.492   6.650  0.1674  0.2258 -0.2833
 7903SOL     OW35341   2.724   2.284   1.031  0.1053 -0.1961  0.0912
 7903SOL    HW135342   2.674   2.358   0.997 -1.5026 -0.7812  1.1996
 7903SOL    HW235343   2.671   2.230   1.089  0.0416  1.9914  2.0427
 7904SOL     OW35344   1.120   3.965   4.272  0.1427  0.6122 -0.2261
 7904SOL    HW135345   1.154   3.949   4.360 -1.5061  0.6400  0.4172
 7904SOL    HW235346   1.064   3.888   4.260 -1.6186  1.9131 -0.4908
 7905SOL     OW35347   1.784   0.015   1.950  0.6001 -0.0748 -0.4539
 7905SOL    HW135348   1.839   0.024   1.872 -0.8396  2.6736 -1.1736
 7905SOL    HW235349   1.699   4.727   1.914  1.2758 -0.1810 -1.9697
 7906SOL     OW35350   1.571   1.274  16.137  0.1852 -0.2360 -0.2792
 7906SOL    HW135351   1.609   1.354  16.174  1.5039 -0.0788 -1.9596
 7906SOL    HW235352   1.644   1.213  16.140 -0.5760 -1.2384 -1.9198
 7907SOL     OW35353   2.181   3.958   6.996  0.0731 -0.1411 -0.7882
 7907SOL    HW135354   2.177   3.909   6.914 -1.8853  0.0103 -0.7883
 7907SOL    HW235355   2.250   3.910   7.042 -0.9137  2.5427  3.4125
 7908SOL     OW35356   0.942   3.047   6.934 -0.0469  0.0566 -0.4678
 7908SOL    HW135357   0.976   3.117   6.878  0.6249  0.8824  0.9651
 7908SOL    HW235358   0.954   3.076   7.025  1.3200  0.4128 -0.7652
 7909SOL     OW35359   3.170   0.152   2.711 -0.2410 -0.2558  0.0546
 7909SOL    HW135360   3.186   0.224   2.772 -0.4189  1.6932 -2.2020
 7909SOL    HW235361   3.189   0.188   2.624  1.8823 -0.0978  0.5896
 7910SOL     OW35362   0.279   3.715  17.037  0.0041 -0.3943 -0.5802
 7910SOL    HW135363   0.293   3.675  16.951  0.9644 -0.3165 -0.4571
 7910SOL    HW235364   0.365   3.755  17.054  0.1831 -0.0972 -2.1076
 7911SOL     OW35365   0.403   0.380   3.410 -0.7110 -0.0984  0.7038
 7911SOL    HW135366   0.331   0.422   3.456 -1.6637 -0.2301 -0.6791
 7911SOL    HW235367   0.413   0.295   3.452 -2.6252 -1.3814 -1.4552
 7912SOL     OW35368   3.246   0.613   9.770 -0.1121 -0.4786 -0.4703
 7912SOL    HW135369   3.253   0.521   9.747 -0.2759 -0.8886  1.1273
 7912SOL    HW235370   3.310   0.625   9.840 -0.0345 -1.7189 -0.3319
 7913SOL     OW35371   2.842   2.864   0.542 -0.2221  0.1736  0.4679
 7913SOL    HW135372   2.881   2.777   0.553 -0.4036  0.0216 -0.1139
 7913SOL    HW235373   2.921   2.896   0.499  1.0140 -1.6124  1.3954
 7914SOL     OW35374   2.388   0.488   8.251 -0.0728 -0.1633  0.4022
 7914SOL    HW135375   2.344   0.451   8.328 -2.3586 -1.0104 -1.2976
 7914SOL    HW235376   2.460   0.428   8.233 -0.2227 -0.4341  0.7083
 7915SOL     OW35377   1.987   0.749   8.382 -0.6142  0.1598  0.0624
 7915SOL    HW135378   1.956   0.838   8.399  0.7223  0.9417 -1.6097
 7915SOL    HW235379   2.075   0.751   8.418 -0.5144 -0.4565 -0.1414
 7916SOL     OW35380   3.652   0.816   7.267 -0.2218 -0.3429  0.3305
 7916SOL    HW135381   3.581   0.777   7.318  1.4874 -0.7462  2.4072
 7916SOL    HW235382   3.688   0.738   7.226 -1.7345 -1.3294  0.8613
 7917SOL     OW35383   1.526   3.017   5.075 -0.3552  0.4154  0.4492
 7917SOL    HW135384   1.475   2.936   5.070 -0.2131  0.3753 -0.2972
 7917SOL    HW235385   1.591   3.011   5.005 -2.4988  0.0154 -1.5134
 7918SOL     OW35386   0.903   4.017   4.530  0.2886  0.2498 -0.0309
 7918SOL    HW135387   0.997   4.003   4.523  0.0166 -1.5925 -0.0569
 7918SOL    HW235388   0.883   3.974   4.613 -1.3392  0.3032 -0.3857
 7919SOL     OW35389   4.167   3.199  16.913 -0.3479 -0.2846 -0.4402
 7919SOL    HW135390   4.173   3.209  16.818  2.2842  1.8260 -0.0514
 7919SOL    HW235391   4.098   3.133  16.924 -2.1179  1.2881 -2.0960
 7920SOL     OW35392   0.068   2.023  15.809  0.4321 -0.6150 -0.3751
 7920SOL    HW135393   0.101   2.062  15.728  0.6570  1.0765  0.5040
 7920SOL    HW235394   0.038   1.938  15.780 -1.0785 -0.2712  0.1705
 7921SOL     OW35395   0.904   0.971   5.314  0.0973 -0.4818  0.1370
 7921SOL    HW135396   0.877   0.888   5.274 -2.1288  0.1235  0.4067
 7921SOL    HW235397   0.952   0.940   5.391  0.5122 -0.0628  0.0492
 7922SOL     OW35398   3.313   1.915   6.822  0.1330 -0.0261  0.2359
 7922SOL    HW135399   3.300   1.993   6.875 -0.1725  0.4781 -0.5814
 7922SOL    HW235400   3.303   1.946   6.732 -3.7078 -0.0042  0.6654
 7923SOL     OW35401   4.661   0.684   8.302  0.0914  0.6006  0.4591
 7923SOL    HW135402   4.572   0.694   8.268  0.5134 -2.5139 -1.5766
 7923SOL    HW235403   4.708   0.718   8.226  0.5317 -0.8882  0.0591
 7924SOL     OW35404   4.320   1.542   3.351 -0.1170 -0.1060  0.2798
 7924SOL    HW135405   4.320   1.498   3.436  0.1742 -0.3750  0.1392
 7924SOL    HW235406   4.231   1.539   3.316 -0.4120 -0.6979  1.0842
 7925SOL     OW35407   3.654   2.422   9.024 -0.3100  0.8658 -0.6865
 7925SOL    HW135408   3.585   2.459   8.969  0.9163  1.6953 -1.6375
 7925SOL    HW235409   3.721   2.403   8.959 -0.8655 -1.3899 -0.6079
 7926SOL     OW35410   2.109   2.987   2.118 -0.0164  0.5488 -0.1955
 7926SOL    HW135411   2.136   2.917   2.059 -1.9271 -3.5742  3.7826
 7926SOL    HW235412   2.161   2.983   2.198  0.4182  3.2082 -0.3511
 7927SOL     OW35413   4.237   3.839   8.047 -0.1122 -0.0429  0.3753
 7927SOL    HW135414   4.224   3.934   8.040  1.4932 -0.0056 -1.6786
 7927SOL    HW235415   4.181   3.806   7.977 -1.0747  1.9791  0.1934
 7928SOL     OW35416   3.975   2.912  17.540  0.0852 -0.6091  0.0534
 7928SOL    HW135417   4.048   2.886  17.483 -0.5193  2.1396 -1.9455
 7928SOL    HW235418   4.022   2.944  17.617 -0.5106 -0.4241  0.3346
 7929SOL     OW35419   1.834   2.356   8.166 -0.0820 -0.0559 -0.1723
 7929SOL    HW135420   1.801   2.420   8.230  0.1993  1.6442 -1.7345
 7929SOL    HW235421   1.897   2.408   8.116 -0.4615 -0.0246 -0.6134
 7930SOL     OW35422   3.392   1.416   5.938  0.6429 -0.2547  0.7351
 7930SOL    HW135423   3.421   1.504   5.963 -3.9779  1.0024  1.6325
 7930SOL    HW235424   3.458   1.362   5.982 -1.2003 -1.6729  1.7559
 7931SOL     OW35425   3.320   2.474   5.132  0.6142  0.4106  0.2009
 7931SOL    HW135426   3.376   2.507   5.061  0.0223  0.4246 -0.2618
 7931SOL    HW235427   3.368   2.514   5.205  2.4493 -1.1863 -0.1513
 7932SOL     OW35428   1.278   2.630  17.576  0.2417  0.1124 -0.5488
 7932SOL    HW135429   1.356   2.678  17.603 -0.6049  2.2122 -1.7937
 7932SOL    HW235430   1.318   2.549  17.543  0.1205 -0.5667  0.9885
 7933SOL     OW35431   2.098   3.284   7.541  0.3939  0.0936 -0.0813
 7933SOL    HW135432   2.106   3.251   7.630  0.6034 -0.9169 -0.4845
 7933SOL    HW235433   2.034   3.229   7.498 -1.1390  1.0788  0.9177
 7934SOL     OW35434   1.486   2.237   3.831  0.5401  0.4218  0.4455
 7934SOL    HW135435   1.443   2.291   3.765 -1.9311  0.1005  1.7959
 7934SOL    HW235436   1.437   2.157   3.813 -0.8590  1.0025  1.7575
 7935SOL     OW35437   2.966   3.653   4.083 -0.1230 -0.4258 -0.2533
 7935SOL    HW135438   3.008   3.734   4.109  1.2212 -0.5346 -2.0232
 7935SOL    HW235439   2.872   3.671   4.085  0.2715  1.2135  2.5283
 7936SOL     OW35440   4.232   2.946   0.365  0.5793  0.1911 -0.1573
 7936SOL    HW135441   4.228   2.918   0.274  0.2437 -1.2037  0.2900
 7936SOL    HW235442   4.149   2.994   0.372  0.3355 -0.2923  0.2895
 7937SOL     OW35443   2.223   0.147   9.722 -0.0053 -0.0730  0.1589
 7937SOL    HW135444   2.290   0.206   9.758 -0.1773 -2.2698  4.0537
 7937SOL    HW235445   2.272   0.066   9.713  2.1255  1.0330  1.7545
 7938SOL     OW35446   4.501   3.684   2.527 -0.1586  0.4509  0.1908
 7938SOL    HW135447   4.555   3.608   2.550 -2.0407 -1.0488 -0.3654
 7938SOL    HW235448   4.522   3.742   2.601 -1.5002  0.5336  0.5002
 7939SOL     OW35449   4.674   0.112   7.520 -0.2570  0.4294  0.3216
 7939SOL    HW135450   0.002   0.087   7.584 -1.5402 -1.4176  0.9186
 7939SOL    HW235451   4.603   0.057   7.554 -2.4554  3.1076  0.0710
 7940SOL     OW35452   1.181   3.118   6.597 -0.8384 -0.6291  0.3675
 7940SOL    HW135453   1.176   3.096   6.504 -1.6311  1.0247  0.0089
 7940SOL    HW235454   1.088   3.121   6.616 -1.1841 -2.7813 -1.0521
 7941SOL     OW35455   0.942   3.677   5.280 -0.1216  0.0537 -0.3097
 7941SOL    HW135456   1.012   3.733   5.312 -0.4778 -0.6929  1.7513
 7941SOL    HW235457   0.965   3.593   5.320  0.2822  0.7288  0.8418
 7942SOL     OW35458   2.854   3.978   9.542  0.0176  0.1626 -0.7494
 7942SOL    HW135459   2.904   3.910   9.586  1.1444  0.9764 -0.7856
 7942SOL    HW235460   2.839   4.036   9.616  0.4229  0.0887 -0.6132
 7943SOL     OW35461   1.994   3.687   8.901  0.0712 -0.0449  0.5215
 7943SOL    HW135462   2.038   3.641   8.973  0.5748 -2.2503 -1.2166
 7943SOL    HW235463   1.913   3.709   8.948 -0.5350  2.3322 -1.6281
 7944SOL     OW35464   4.517   2.192   8.631 -0.2998 -0.3504  0.2336
 7944SOL    HW135465   4.443   2.211   8.689 -3.1392 -1.3075 -3.0610
 7944SOL    HW235466   4.578   2.188   8.705 -0.5445 -0.2861  0.4396
 7945SOL     OW35467   2.060   0.707   2.335 -0.0004  0.5451  0.0142
 7945SOL    HW135468   2.056   0.627   2.283 -1.3379  0.1580  0.7117
 7945SOL    HW235469   1.974   0.689   2.373  0.2121  2.1554  1.2403
 7946SOL     OW35470   1.544   2.669   3.189  0.6071  0.2743 -0.2942
 7946SOL    HW135471   1.551   2.754   3.144  1.8137 -0.3387 -1.2600
 7946SOL    HW235472   1.551   2.693   3.281  2.3348 -2.1404  0.1891
 7947SOL     OW35473   2.673   3.634   7.749 -0.0290 -0.7571  0.0348
 7947SOL    HW135474   2.653   3.722   7.717 -0.5500 -0.4889  1.1259
 7947SOL    HW235475   2.724   3.662   7.826  0.4638 -1.1819 -0.1343
 7948SOL     OW35476   0.628   0.786   2.681  0.5502 -0.0360  0.0124
 7948SOL    HW135477   0.544   0.745   2.657 -0.4200  0.4158  2.7122
 7948SOL    HW235478   0.618   0.776   2.775  2.0844  0.0695  0.1821
 7949SOL     OW35479   4.321   1.015   5.331 -0.0131 -0.3005 -0.2426
 7949SOL    HW135480   4.336   0.961   5.253 -1.8827 -0.6593 -0.3351
 7949SOL    HW235481   4.410   1.029   5.364  0.7354 -0.9520 -1.9662
 7950SOL     OW35482   3.662   0.414   6.782 -0.5747 -0.0574  0.0367
 7950SOL    HW135483   3.739   0.391   6.730  0.4707  0.0774  1.5472
 7950SOL    HW235484   3.594   0.438   6.719 -0.4032  1.4019  0.4014
 7951SOL     OW35485   2.612   2.632   6.313  0.4921  0.2612 -0.3590
 7951SOL    HW135486   2.659   2.641   6.395  1.1675 -0.4530 -0.6592
 7951SOL    HW235487   2.683   2.646   6.250 -1.1823  1.4847 -1.9662
 7952SOL     OW35488   0.889   4.435   4.270 -0.5614 -0.0259  0.4550
 7952SOL    HW135489   0.901   4.385   4.189 -0.2989 -0.4656  0.7626
 7952SOL    HW235490   0.960   4.400   4.323  0.4517  0.2500 -0.7229
 7953SOL     OW35491   3.034   1.356   9.298 -0.1931 -0.1778  0.2586
 7953SOL    HW135492   2.991   1.439   9.275 -0.3389  0.1825  1.8278
 7953SOL    HW235493   2.966   1.307   9.344 -0.8621  1.0790  0.6054
 7954SOL     OW35494   0.967   4.086  10.110 -0.4455  0.4602  0.0030
 7954SOL    HW135495   0.944   4.045  10.193  0.5114 -1.0213 -0.4688
 7954SOL    HW235496   0.913   4.035  10.050 -0.7145 -0.0914  0.7126
 7955SOL     OW35497   0.121   1.463   3.716 -0.0303  0.3183 -0.0512
 7955SOL    HW135498   0.126   1.542   3.663 -2.4805 -0.5616 -1.5855
 7955SOL    HW235499   0.212   1.433   3.717 -0.2657 -0.4135  0.0650
 7956SOL     OW35500   0.232   3.183   8.339  0.0349 -0.0084  0.4085
 7956SOL    HW135501   0.268   3.102   8.303 -2.3173 -0.2199 -1.4618
 7956SOL    HW235502   0.292   3.213   8.407 -1.9172  3.0951  0.7771
 7957SOL     OW35503   0.588   3.882   8.227 -0.3967 -0.1481  0.0857
 7957SOL    HW135504   0.505   3.927   8.244 -0.0266  0.2882  0.6918
 7957SOL    HW235505   0.552   3.800   8.191 -0.7130  1.0659 -2.3953
 7958SOL     OW35506   1.861   4.208   9.202 -0.3473  0.2015 -0.4579
 7958SOL    HW135507   1.822   4.208   9.115  1.6741  2.2765 -1.3733
 7958SOL    HW235508   1.915   4.130   9.189  0.0288  0.2955  0.5132
 7959SOL     OW35509   1.701   0.095   2.465 -0.3349  0.0342 -0.5006
 7959SOL    HW135510   1.747   0.014   2.488  1.3314  0.9453 -0.6133
 7959SOL    HW235511   1.685   0.083   2.371 -1.3438  1.0983 -0.4696
 7960SOL     OW35512   3.115   1.469   3.504  0.0225  0.1974  0.0148
 7960SOL    HW135513   3.112   1.417   3.423 -1.1064 -0.0468  0.2142
 7960SOL    HW235514   3.157   1.405   3.562  0.0806 -1.4428 -1.8206
 7961SOL     OW35515   1.000   1.769   8.866  0.0251  0.3351 -0.0969
 7961SOL    HW135516   1.014   1.725   8.950  0.6168 -1.2022 -1.0114
 7961SOL    HW235517   0.911   1.743   8.844  0.2918  1.1286 -2.0926
 7962SOL     OW35518   1.252   1.486   6.107  0.0554  0.4128  0.6219
 7962SOL    HW135519   1.256   1.434   6.027 -0.2281  1.0053  0.2148
 7962SOL    HW235520   1.216   1.567   6.069 -2.6400  0.8581  4.1254
 7963SOL     OW35521   0.438   4.237   4.140  0.0820  1.1014  0.3363
 7963SOL    HW135522   0.362   4.183   4.161  0.9783  0.4493  1.8620
 7963SOL    HW235523   0.403   4.273   4.058  0.5554  0.3137 -0.2075
 7964SOL     OW35524   3.725   0.526   0.143  0.5509 -0.0211 -0.0703
 7964SOL    HW135525   3.718   0.433   0.123  0.6291  0.0076 -0.2353
 7964SOL    HW235526   3.644   0.545   0.189  0.4132 -0.3690 -0.1741
 7965SOL     OW35527   3.398   2.552   6.353  0.8646 -0.3426  0.1062
 7965SOL    HW135528   3.347   2.472   6.364  1.7926 -0.5615  2.7594
 7965SOL    HW235529   3.445   2.555   6.436  1.6183 -0.3817 -0.3148
 7966SOL     OW35530   2.150   4.467   7.770  0.3441 -0.1226 -0.0110
 7966SOL    HW135531   2.107   4.492   7.688  0.5933  1.2171  0.2751
 7966SOL    HW235532   2.109   4.529   7.831 -0.1021 -0.2038 -0.2229
 7967SOL     OW35533   0.658   4.032  10.264 -0.2155 -0.3630  0.1752
 7967SOL    HW135534   0.660   4.127  10.255  1.7042 -0.5830 -2.0128
 7967SOL    HW235535   0.749   4.020  10.294  0.6720  0.2351 -2.2673
 7968SOL     OW35536   3.268   3.189   3.078 -0.2837 -0.8371 -0.1034
 7968SOL    HW135537   3.249   3.128   3.006 -0.8746 -0.1696 -0.5184
 7968SOL    HW235538   3.333   3.142   3.130 -0.1684  0.3072  0.7866
 7969SOL     OW35539   3.551   0.455   9.759 -0.0734 -0.5320 -0.4394
 7969SOL    HW135540   3.512   0.520   9.818 -0.6601  0.4270 -1.8579
 7969SOL    HW235541   3.584   0.517   9.694  1.2388 -1.3923 -0.5885
 7970SOL     OW35542   4.382   0.774   6.400 -0.1418 -0.1548 -0.4595
 7970SOL    HW135543   4.329   0.720   6.342 -1.1077 -0.1775  0.4373
 7970SOL    HW235544   4.458   0.717   6.410  1.2633  1.5983 -1.2638
 7971SOL     OW35545   3.371   3.310   1.228  0.4770  0.4410 -0.2388
 7971SOL    HW135546   3.421   3.267   1.298  0.0872 -0.1933 -0.3481
 7971SOL    HW235547   3.284   3.321   1.265  0.3760  2.2215 -1.0292
 7972SOL     OW35548   1.848   0.701  11.821  0.0745  0.7675  0.2023
 7972SOL    HW135549   1.855   0.606  11.831  0.3403  0.6228 -1.3497
 7972SOL    HW235550   1.898   0.704  11.739  2.2721  1.7262  1.5987
 7973SOL     OW35551   1.699   4.375   1.177 -0.7429  0.8255  0.4764
 7973SOL    HW135552   1.750   4.298   1.202  0.2777  0.8827 -1.4860
 7973SOL    HW235553   1.761   4.445   1.196  0.6815  0.3183 -2.2988
 7974SOL     OW35554   3.913   0.032  15.545 -0.1925  0.4794 -0.1030
 7974SOL    HW135555   3.826   0.051  15.582 -1.2880 -2.5252 -1.1536
 7974SOL    HW235556   3.911   0.058  15.454 -1.5734 -0.2691 -0.2947
 7975SOL     OW35557   3.411   0.418   1.950 -0.9254 -0.3666  0.6578
 7975SOL    HW135558   3.384   0.367   2.026  2.2864 -0.1520  1.9317
 7975SOL    HW235559   3.360   0.368   1.886 -2.4110 -1.0314  2.3796
 7976SOL     OW35560   1.082   1.085   8.797 -0.1128  0.0532 -0.6279
 7976SOL    HW135561   1.135   1.007   8.813 -2.0548 -0.8223  1.5298
 7976SOL    HW235562   1.102   1.106   8.706  0.1869  0.6325 -0.4292
 7977SOL     OW35563   2.834   0.462   9.279  0.7089  0.3227 -0.1618
 7977SOL    HW135564   2.889   0.483   9.204 -0.1174  0.5461 -0.6999
 7977SOL    HW235565   2.817   0.552   9.305 -0.6584 -0.9160  3.2986
 7978SOL     OW35566   1.987   0.770   6.010 -0.5870 -0.4507 -0.1974
 7978SOL    HW135567   2.009   0.678   6.024  0.8048 -0.2295 -0.9872
 7978SOL    HW235568   1.962   0.795   6.099 -0.7632  0.0571 -0.3937
 7979SOL     OW35569   0.210   4.118   6.077 -0.6435 -0.7236  0.1468
 7979SOL    HW135570   0.261   4.071   6.011 -1.3915 -1.6007  0.1859
 7979SOL    HW235571   0.213   4.050   6.144 -0.0304 -1.0890 -0.2535
 7980SOL     OW35572   0.738   1.575   5.081  0.0921  0.1548  0.0027
 7980SOL    HW135573   0.798   1.510   5.043 -0.2193 -0.0813 -0.0857
 7980SOL    HW235574   0.762   1.565   5.173  0.1577  0.0571 -0.0245
 7981SOL     OW35575   1.291   0.494   2.961  0.7056  0.6958 -0.5146
 7981SOL    HW135576   1.291   0.422   2.898  0.8322 -0.7990  1.2234
 7981SOL    HW235577   1.207   0.538   2.944 -0.1875 -1.3027 -1.2088
 7982SOL     OW35578   1.747   0.509  10.519 -0.1072 -0.2849 -0.9184
 7982SOL    HW135579   1.827   0.466  10.491 -1.4596 -3.2015 -0.3250
 7982SOL    HW235580   1.697   0.442  10.566 -0.1873 -0.9485 -1.9508
 7983SOL     OW35581   0.143   0.436   5.680  0.1173  0.0285 -0.0014
 7983SOL    HW135582   0.228   0.478   5.672  1.4382 -2.5007  0.6645
 7983SOL    HW235583   0.151   0.377   5.604  0.4142 -1.0589  0.8645
 7984SOL     OW35584   4.125   2.417   0.029 -0.0475  0.0924  0.1514
 7984SOL    HW135585   4.052   2.445  17.724 -1.4259  0.6130  2.2062
 7984SOL    HW235586   4.086   2.338   0.068  0.0901  0.6012  1.3416
 7985SOL     OW35587   0.473   0.530   7.982  0.6549  0.1941 -0.1805
 7985SOL    HW135588   0.452   0.561   8.070  0.8698 -3.2452  1.0708
 7985SOL    HW235589   0.391   0.534   7.932  0.0151 -0.7909  0.7965
 7986SOL     OW35590   4.189   2.621   8.942 -0.0743 -0.3125  0.0743
 7986SOL    HW135591   4.146   2.705   8.958 -0.6210 -0.1167 -2.3911
 7986SOL    HW235592   4.153   2.571   9.016  3.2098  0.0957  1.9193
 7987SOL     OW35593   2.929   3.136   6.094 -0.3467  0.4065 -0.3575
 7987SOL    HW135594   3.004   3.087   6.127 -1.4991 -0.2774  1.2532
 7987SOL    HW235595   2.861   3.082   6.135 -0.8979  0.9766 -0.5207
 7988SOL     OW35596   1.159   4.219   8.306  0.1721  0.3995  0.4121
 7988SOL    HW135597   1.091   4.244   8.243  0.8036  0.8208 -0.1009
 7988SOL    HW235598   1.236   4.270   8.279 -0.3164  0.8494 -0.1219
 7989SOL     OW35599   1.573   1.128   5.036 -1.2111  0.0199  0.7691
 7989SOL    HW135600   1.635   1.132   5.109 -1.5926 -0.5518  1.1251
 7989SOL    HW235601   1.601   1.208   4.991 -0.6671 -0.6120 -0.0254
 7990SOL     OW35602   2.836   1.418   6.347 -0.3038  0.7246  0.2804
 7990SOL    HW135603   2.793   1.471   6.414 -1.4217  0.2449 -0.0633
 7990SOL    HW235604   2.843   1.480   6.275  0.2497  0.6562  0.2692
 7991SOL     OW35605   4.148   3.918  11.550  0.4282  0.2920 -0.1874
 7991SOL    HW135606   4.230   3.968  11.545  1.4260 -1.4167 -0.6246
 7991SOL    HW235607   4.161   3.851  11.483 -0.7571  0.1290 -0.2529
 7992SOL     OW35608   1.094   3.041   7.189 -0.1584 -0.1031 -0.6139
 7992SOL    HW135609   1.139   2.958   7.176 -0.0166 -0.0381 -0.5400
 7992SOL    HW235610   1.038   3.023   7.265 -0.8959 -1.5028 -1.4960
 7993SOL     OW35611   4.590   1.399   3.989  0.4592 -0.6957 -0.2402
 7993SOL    HW135612   4.602   1.318   3.940  1.7805 -1.8189  1.9223
 7993SOL    HW235613   4.507   1.381   4.034  0.7560 -0.2502  0.4814
 7994SOL     OW35614   4.069   2.687   1.827 -0.3555 -0.1288 -0.3975
 7994SOL    HW135615   4.151   2.731   1.851  1.0333 -1.4977 -2.6386
 7994SOL    HW235616   4.020   2.762   1.793 -1.7325 -1.1388 -0.6175
 7995SOL     OW35617   3.160   2.212   8.364  0.4043  0.3988 -0.2878
 7995SOL    HW135618   3.097   2.188   8.297  0.2957 -0.4648  0.1203
 7995SOL    HW235619   3.107   2.284   8.397 -1.7251 -0.6611 -1.4764
 7996SOL     OW35620   0.363   2.076   2.459  0.6299 -0.2673  0.3676
 7996SOL    HW135621   0.364   2.125   2.376 -1.6571 -0.4553  0.2109
 7996SOL    HW235622   0.453   2.094   2.482  0.2876  0.9990  0.6653
 7997SOL     OW35623   2.947   3.633   3.644  0.6996  0.1652 -0.1976
 7997SOL    HW135624   2.882   3.624   3.715  0.9078  1.5409  0.1713
 7997SOL    HW235625   2.914   3.703   3.588  0.3079 -0.2994 -0.5435
 7998SOL     OW35626   4.641   1.556  13.096 -0.8381  0.6738 -0.1738
 7998SOL    HW135627   4.598   1.579  13.178  1.3533  3.3891  0.2115
 7998SOL    HW235628   4.731   1.586  13.109 -0.3185 -1.4790  1.1337
 7999SOL     OW35629   1.956   3.967   7.866  0.1189  0.4204 -0.2944
 7999SOL    HW135630   2.038   3.947   7.911 -0.3951 -2.9959 -0.8999
 7999SOL    HW235631   1.951   3.888   7.813  0.4444  0.0958  0.1607
 8000SOL     OW35632   0.662   2.504   5.670 -0.5060  0.6400  0.5195
 8000SOL    HW135633   0.717   2.530   5.596  0.2729 -2.0668  0.1396
 8000SOL    HW235634   0.723   2.485   5.741 -1.3193  0.3521  1.1352
 8001SOL     OW35635   3.307   2.875   7.457 -0.1514  0.3865  0.7206
 8001SOL    HW135636   3.271   2.844   7.540 -2.1419  0.2211 -0.2213
 8001SOL    HW235637   3.223   2.904   7.423  0.2102  0.0345 -0.4815
 8002SOL     OW35638   4.094   3.331   8.001 -0.2361 -0.1602  0.2436
 8002SOL    HW135639   4.050   3.276   7.937  0.3588 -0.6011  0.2228
 8002SOL    HW235640   4.093   3.282   8.084 -2.5515  0.3218  0.5036
 8003SOL     OW35641   1.042   2.179   3.277 -0.2686  0.0374 -0.3703
 8003SOL    HW135642   1.083   2.217   3.354  1.2603  1.3621 -1.8475
 8003SOL    HW235643   1.033   2.259   3.225 -1.9476 -0.6819 -1.2008
 8004SOL     OW35644   0.828   1.862   5.058  0.5806 -0.2625  0.2851
 8004SOL    HW135645   0.921   1.854   5.079  0.4624  2.1995  1.7820
 8004SOL    HW235646   0.791   1.924   5.121  0.3098  0.2947 -0.4206
 8005SOL     OW35647   4.060   1.333   3.982  0.2598  0.4528 -0.0635
 8005SOL    HW135648   4.135   1.389   4.001 -1.0937  1.6549  1.7715
 8005SOL    HW235649   3.995   1.373   4.040 -1.0214 -0.9600 -0.5124
 8006SOL     OW35650   0.024   1.730  15.674  0.0340  0.0755  0.3638
 8006SOL    HW135651   0.115   1.740  15.646  0.2343 -0.3068  0.8741
 8006SOL    HW235652   0.040   1.663  15.741  1.3801  1.6671  1.6473
 8007SOL     OW35653   3.330   1.008   8.035  0.1595 -0.3468  0.0924
 8007SOL    HW135654   3.275   1.086   8.024 -2.2971 -1.8756  1.4125
 8007SOL    HW235655   3.418   1.045   8.027  0.2070 -0.2327  1.1023
 8008SOL     OW35656   3.267   1.960   1.386  0.9798  0.0851 -0.3938
 8008SOL    HW135657   3.183   2.002   1.366  0.6287 -0.2328  0.4119
 8008SOL    HW235658   3.265   1.949   1.481  1.0772 -1.2403 -0.5465
 8009SOL     OW35659   4.231   1.747  15.801  0.5242  0.1486 -0.1999
 8009SOL    HW135660   4.293   1.799  15.749  0.0233  0.9999  0.0538
 8009SOL    HW235661   4.268   1.735  15.888 -2.2949  0.0360  0.9651
 8010SOL     OW35662   2.491   3.963   3.893 -0.5564 -0.1498 -0.1918
 8010SOL    HW135663   2.498   3.944   3.986 -1.5698  0.3586 -0.0151
 8010SOL    HW235664   2.504   4.057   3.887 -2.8033  0.2272  1.1438
 8011SOL     OW35665   3.982   0.285   5.321 -0.4425 -0.2167 -0.0700
 8011SOL    HW135666   3.912   0.226   5.347 -0.3788  0.4563  1.6545
 8011SOL    HW235667   3.978   0.346   5.395 -1.8148  0.0344 -0.3694
 8012SOL     OW35668   3.238   1.719   3.474 -0.6998 -0.6188 -0.0724
 8012SOL    HW135669   3.202   1.636   3.505  0.4474 -0.9390  0.4003
 8012SOL    HW235670   3.170   1.747   3.412  1.0926  1.0120 -1.3048
 8013SOL     OW35671   1.395   1.910  10.395 -0.3904 -0.1410 -0.0575
 8013SOL    HW135672   1.459   1.973  10.361 -1.8448  0.9131 -0.8315
 8013SOL    HW235673   1.315   1.949  10.359 -0.8095 -0.7321  0.2305
 8014SOL     OW35674   2.294   2.505   3.349  0.3870 -0.4189  0.0772
 8014SOL    HW135675   2.267   2.451   3.275 -1.1790  1.9575 -1.1044
 8014SOL    HW235676   2.364   2.457   3.393  0.5795  0.7463  1.0575
 8015SOL     OW35677   2.636   4.204   0.866 -0.3137  0.3249 -0.0673
 8015SOL    HW135678   2.546   4.216   0.895 -0.4378 -0.0707 -0.2825
 8015SOL    HW235679   2.684   4.283   0.890  0.0817 -0.2409  1.0337
 8016SOL     OW35680   4.020   1.775   1.500  0.3648  0.3769  0.3808
 8016SOL    HW135681   3.937   1.760   1.454  2.2020 -2.5968 -2.0131
 8016SOL    HW235682   4.073   1.705   1.461  2.6106  2.7918 -0.8214
 8017SOL     OW35683   3.560   2.514   6.575  0.0897 -0.2560 -0.5221
 8017SOL    HW135684   3.621   2.482   6.642 -1.6772 -2.8576 -0.1502
 8017SOL    HW235685   3.539   2.430   6.535  2.3680  0.1922 -2.6300
 8018SOL     OW35686   0.289   0.400   7.497  0.2350 -0.0496 -0.4062
 8018SOL    HW135687   0.224   0.352   7.445 -0.2976  0.9208 -0.6428
 8018SOL    HW235688   0.329   0.333   7.552 -0.4972 -1.3264 -1.4288
 8019SOL     OW35689   1.599   3.605   1.232 -0.0677  0.2501  0.2189
 8019SOL    HW135690   1.557   3.656   1.163 -1.3370 -2.3287 -0.9451
 8019SOL    HW235691   1.618   3.527   1.180  0.2650  1.0142 -0.8131
 8020SOL     OW35692   1.707   3.630   6.691  0.0553  0.8458  0.3871
 8020SOL    HW135693   1.789   3.615   6.644 -0.8179 -0.6129 -0.6652
 8020SOL    HW235694   1.726   3.709   6.742 -1.2407  1.4925 -0.1320
 8021SOL     OW35695   4.038   3.639   2.409 -0.1732 -0.0266  0.4677
 8021SOL    HW135696   4.127   3.672   2.409  0.4128 -1.6150  0.8190
 8021SOL    HW235697   4.051   3.579   2.482  0.6532 -1.4498 -0.8406
 8022SOL     OW35698   2.625   4.418   2.409 -0.2914 -0.3009 -0.0790
 8022SOL    HW135699   2.582   4.435   2.493 -0.3085 -0.8327  0.0203
 8022SOL    HW235700   2.711   4.387   2.440 -1.2666 -1.0031  1.9271
 8023SOL     OW35701   3.798   1.926  15.610 -0.6074  0.1001  0.8372
 8023SOL    HW135702   3.865   1.929  15.679 -0.5358 -0.8677  0.8162
 8023SOL    HW235703   3.755   1.845  15.636 -1.1415 -0.7061 -2.5561
 8024SOL     OW35704   4.084   2.289   8.373  0.2676  0.2538  0.4504
 8024SOL    HW135705   4.168   2.330   8.354 -0.5024  1.7411  0.1680
 8024SOL    HW235706   4.112   2.199   8.386 -2.8878 -0.7650  0.1473
 8025SOL     OW35707   0.343   2.120   1.217  0.3950 -0.2871  0.4532
 8025SOL    HW135708   0.333   2.070   1.299  0.6201 -2.4557 -0.8419
 8025SOL    HW235709   0.275   2.089   1.157  2.0682  1.3179 -2.2668
 8026SOL     OW35710   0.057   2.704   6.679  0.3311 -0.3842 -0.3486
 8026SOL    HW135711   0.094   2.747   6.756 -0.7890 -0.0933  0.0248
 8026SOL    HW235712   4.703   2.701   6.705  0.6555 -0.7165  0.7480
 8027SOL     OW35713   0.137   1.396   2.379  0.0663  0.7259 -0.4074
 8027SOL    HW135714   0.079   1.452   2.430  0.4929 -2.6945  3.8335
 8027SOL    HW235715   0.213   1.373   2.432 -1.6906 -0.0243  1.7973
 8028SOL     OW35716   1.354   2.307  11.317  0.3761 -0.3425  0.6844
 8028SOL    HW135717   1.316   2.221  11.336  0.6996 -0.6335  0.0084
 8028SOL    HW235718   1.353   2.348  11.403  1.5540  0.4319  0.3190
 8029SOL     OW35719   1.778   2.656  13.845 -0.4303  0.2427 -0.5138
 8029SOL    HW135720   1.802   2.694  13.929  1.5036  0.3193 -1.0872
 8029SOL    HW235721   1.773   2.561  13.861  0.2551 -0.1217 -2.4227
 8030SOL     OW35722   0.424   2.968  14.609  0.0868 -0.2699 -0.3110
 8030SOL    HW135723   0.482   2.896  14.635 -0.2623 -0.3298  0.2940
 8030SOL    HW235724   0.389   2.999  14.692 -0.6036 -2.1236  0.0885
 8031SOL     OW35725   2.037   0.213  14.443 -0.2842 -0.1442  0.2181
 8031SOL    HW135726   2.097   0.139  14.452 -0.6458 -0.4040  0.5608
 8031SOL    HW235727   2.096   0.279  14.409 -0.2598 -0.5937 -0.5995
 8032SOL     OW35728   0.323   1.809   4.269  0.7313 -0.5868  0.7500
 8032SOL    HW135729   0.296   1.782   4.182  0.9880  0.6048  0.2965
 8032SOL    HW235730   0.331   1.904   4.255 -0.2453 -0.8383 -1.4383
 8033SOL     OW35731   0.515   3.795   6.226  0.0176  0.4163 -0.5003
 8033SOL    HW135732   0.503   3.712   6.273  0.3426  0.1294 -0.9199
 8033SOL    HW235733   0.564   3.848   6.288 -0.4318  0.1968  0.0428
 8034SOL     OW35734   4.596   3.378   8.359  0.2016  0.0419 -0.2523
 8034SOL    HW135735   4.601   3.382   8.263 -1.6996  1.9573 -0.2815
 8034SOL    HW235736   4.500   3.375   8.367  0.2465  1.3931  0.7210
 8035SOL     OW35737   3.960   2.332  14.277 -0.4597 -0.2656 -0.3128
 8035SOL    HW135738   4.027   2.266  14.263  1.3609  1.4101  0.4297
 8035SOL    HW235739   4.001   2.393  14.338 -1.0170 -0.7492  0.5438
 8036SOL     OW35740   3.231   3.138   4.925 -0.0534  0.1780  0.2582
 8036SOL    HW135741   3.321   3.117   4.952  0.2674 -1.0578 -1.8525
 8036SOL    HW235742   3.207   3.204   4.990  0.7575 -0.1489  0.8924
 8037SOL     OW35743   2.332   2.584  15.582  0.4687 -0.1788 -0.2371
 8037SOL    HW135744   2.281   2.506  15.558  0.1963 -0.4112  1.0601
 8037SOL    HW235745   2.336   2.625  15.496 -0.1240  1.2370  0.4125
 8038SOL     OW35746   1.138   2.664   3.798 -0.4941  0.1146 -0.0306
 8038SOL    HW135747   1.071   2.656   3.866 -1.2197  0.4314 -0.7180
 8038SOL    HW235748   1.097   2.729   3.741 -0.9593 -0.7446 -0.6800
 8039SOL     OW35749   0.476   4.709   8.765 -0.3294  0.1815 -0.0237
 8039SOL    HW135750   0.469   4.641   8.832 -0.3097 -1.0824 -1.2824
 8039SOL    HW235751   0.520   0.037   8.818 -1.1534  0.7879 -0.0875
 8040SOL     OW35752   1.373   2.627   6.512  0.2406  0.1615 -0.0737
 8040SOL    HW135753   1.285   2.661   6.528  0.7422  1.5075 -0.1406
 8040SOL    HW235754   1.427   2.678   6.572  2.1872 -1.0453 -0.8036
 8041SOL     OW35755   1.878   2.718  12.627 -0.2199 -0.7460  0.2091
 8041SOL    HW135756   1.810   2.659  12.659  0.6371  0.0583  3.5339
 8041SOL    HW235757   1.840   2.803  12.647  2.8921  1.0904 -1.5827
 8042SOL     OW35758   3.350   2.351   1.646 -0.4353 -0.1548  0.3347
 8042SOL    HW135759   3.384   2.269   1.612  0.2094  0.4366 -0.4502
 8042SOL    HW235760   3.416   2.382   1.708 -1.1692 -0.0917  1.0854
 8043SOL     OW35761   2.073   0.508  12.609 -0.3048 -0.3497  0.3266
 8043SOL    HW135762   1.994   0.561  12.599  0.9119  1.5184  0.7053
 8043SOL    HW235763   2.085   0.467  12.524  3.1075 -0.0143  0.6453
 8044SOL     OW35764   1.728   1.921   6.350  0.4432 -0.0725 -0.3470
 8044SOL    HW135765   1.701   1.881   6.267 -2.2749  0.2274  0.4035
 8044SOL    HW235766   1.791   1.851   6.364 -0.5049 -1.2975 -2.1830
 8045SOL     OW35767   4.179   3.470  12.987  0.4158 -0.2075  0.2397
 8045SOL    HW135768   4.254   3.528  12.975  0.7683 -0.9238 -1.0757
 8045SOL    HW235769   4.154   3.447  12.898  1.1827 -2.1201  0.5058
 8046SOL     OW35770   1.630   3.582  16.606  0.5966  0.8849  0.0989
 8046SOL    HW135771   1.559   3.521  16.624  1.6143  0.2247  1.8967
 8046SOL    HW235772   1.595   3.670  16.616 -1.0447  0.3155 -0.6614
 8047SOL     OW35773   3.967   3.980   5.732 -0.2044 -0.1534 -0.0468
 8047SOL    HW135774   3.910   3.916   5.773 -0.6796  0.1447 -0.2498
 8047SOL    HW235775   3.918   4.057   5.760  0.9021  1.2374 -1.9163
 8048SOL     OW35776   4.460   2.595   4.783  0.0638 -0.5021 -0.4136
 8048SOL    HW135777   4.433   2.624   4.695 -0.0886 -1.5731 -0.7136
 8048SOL    HW235778   4.530   2.659   4.799 -0.3114 -0.2354  0.1457
 8049SOL     OW35779   3.137   1.620   7.800  0.5653  0.6082  0.1822
 8049SOL    HW135780   3.061   1.563   7.795  2.2010 -1.2672 -2.9062
 8049SOL    HW235781   3.108   1.672   7.875 -0.6501  0.8620 -0.4662
 8050SOL     OW35782   1.141   3.235   2.289 -0.2413 -0.3966  0.3638
 8050SOL    HW135783   1.181   3.233   2.376  1.5374 -2.0690 -0.4925
 8050SOL    HW235784   1.049   3.225   2.316 -0.3847 -0.0857 -0.0240
 8051SOL     OW35785   1.226   0.766   3.098 -0.2951  0.0124 -0.6199
 8051SOL    HW135786   1.256   0.675   3.088  1.3604  0.5735 -0.7301
 8051SOL    HW235787   1.132   0.758   3.077 -0.3485  2.1790 -1.1834
 8052SOL     OW35788   3.548   4.303   7.786  0.3757  0.2264  0.0604
 8052SOL    HW135789   3.501   4.260   7.857 -1.9821  2.0377 -0.3830
 8052SOL    HW235790   3.477   4.349   7.742  0.9088 -0.1082 -1.1410
 8053SOL     OW35791   4.674   3.314   4.804 -0.7519 -0.0665  0.2611
 8053SOL    HW135792   4.722   3.254   4.747 -0.4095 -0.0816  0.5621
 8053SOL    HW235793   0.006   3.376   4.825 -0.8938 -0.5982  2.3530
 8054SOL     OW35794   1.284   3.063   7.654  0.2966 -0.1494 -0.0369
 8054SOL    HW135795   1.350   3.068   7.585  1.2295  2.8927  1.0966
 8054SOL    HW235796   1.241   3.146   7.635  0.0610 -0.6480 -1.7163
 8055SOL     OW35797   3.143   1.159  17.441  0.0348 -0.3865  0.1306
 8055SOL    HW135798   3.123   1.126  17.354  2.1232 -2.5166  0.4582
 8055SOL    HW235799   3.185   1.079  17.471  0.0801 -0.7860 -1.0298
 8056SOL     OW35800   0.241   4.026   6.958 -0.3098  0.0660 -0.1068
 8056SOL    HW135801   0.331   4.036   6.988 -0.0838  1.5565 -1.3141
 8056SOL    HW235802   0.240   3.966   6.883  0.8122 -0.4436  0.2878
 8057SOL     OW35803   0.211   1.305   9.636 -0.1698  0.0140  0.4202
 8057SOL    HW135804   0.158   1.377   9.672 -1.4531 -0.1923 -1.0851
 8057SOL    HW235805   0.265   1.280   9.711 -0.1149  0.0501  0.3924
 8058SOL     OW35806   1.552   4.708   8.381 -0.5685 -0.2929 -0.0002
 8058SOL    HW135807   1.498   4.635   8.410  0.3864 -0.2401  1.8871
 8058SOL    HW235808   1.502   4.728   8.301 -1.0943 -0.2714  0.3390
 8059SOL     OW35809   0.391   0.285   7.052 -0.2999  0.1893  0.5602
 8059SOL    HW135810   0.297   0.292   7.068 -0.3160  3.0226 -0.7936
 8059SOL    HW235811   0.415   0.377   7.039 -0.4438  0.2381  0.6476
 8060SOL     OW35812   4.125   2.274   5.911  0.5361  0.4330  0.1816
 8060SOL    HW135813   4.173   2.325   5.976 -0.4107  0.6225  0.7346
 8060SOL    HW235814   4.182   2.197   5.902 -1.1905 -0.6647 -1.3311
 8061SOL     OW35815   3.580   2.322   0.595 -0.4638 -0.0788 -0.1047
 8061SOL    HW135816   3.612   2.238   0.562 -1.6638  0.2189 -2.0705
 8061SOL    HW235817   3.649   2.364   0.646  1.1788 -0.1810 -2.2593
 8062SOL     OW35818   2.401   3.871   7.141  0.2917 -0.0610 -0.6033
 8062SOL    HW135819   2.458   3.814   7.192 -1.4047 -1.6276 -0.4317
 8062SOL    HW235820   2.334   3.890   7.208  1.7238  1.8119  0.2954
 8063SOL     OW35821   2.064   1.474   6.527  0.7356  0.6083 -0.2842
 8063SOL    HW135822   2.131   1.407   6.514 -0.2839 -0.7540  1.5846
 8063SOL    HW235823   1.985   1.421   6.527  0.5260  0.9204 -0.9638
 8064SOL     OW35824   3.733   1.658   3.180 -0.1536 -0.7609 -0.0345
 8064SOL    HW135825   3.712   1.705   3.261  0.0160 -0.4265 -0.1837
 8064SOL    HW235826   3.787   1.586   3.213 -1.3703 -1.6415  0.0246
 8065SOL     OW35827   0.685   3.640   5.595  0.7545  0.3499  0.3367
 8065SOL    HW135828   0.623   3.667   5.662 -1.1616  2.1670 -2.1722
 8065SOL    HW235829   0.751   3.594   5.647  0.4427 -0.2480  0.2041
 8066SOL     OW35830   2.436   4.005   6.741  0.6828  0.6291 -0.1138
 8066SOL    HW135831   2.452   3.996   6.647  1.6023  1.3841 -0.0245
 8066SOL    HW235832   2.355   3.954   6.739  2.7790 -2.6625  0.0686
 8067SOL     OW35833   0.924   1.966   7.130 -0.3623  0.8599 -0.2306
 8067SOL    HW135834   0.953   1.905   7.197  1.9465  1.2144 -0.8841
 8067SOL    HW235835   0.938   2.057   7.155  0.0415  0.9065 -0.6300
 8068SOL     OW35836   4.053   2.754  15.600 -0.3701 -0.0728 -0.1975
 8068SOL    HW135837   4.145   2.779  15.606 -1.2559  2.4565  3.1522
 8068SOL    HW235838   4.046   2.757  15.505  0.3125 -3.2924 -0.3493
 8069SOL     OW35839   0.850   3.052   3.936  0.3023 -0.1549 -0.2366
 8069SOL    HW135840   0.841   3.055   4.031 -0.5610  1.3006 -0.3525
 8069SOL    HW235841   0.846   3.146   3.915  2.9038 -0.3054 -1.3955
 8070SOL     OW35842   2.547   1.658   9.327  0.1861 -0.5973  0.1191
 8070SOL    HW135843   2.463   1.628   9.363  0.2400  0.9386  1.5279
 8070SOL    HW235844   2.568   1.595   9.258 -0.0755  1.0487 -1.4623
 8071SOL     OW35845   2.666   1.102  16.253  0.2410 -0.0869 -0.5624
 8071SOL    HW135846   2.682   1.117  16.159 -1.2829 -1.1061 -0.9838
 8071SOL    HW235847   2.741   1.052  16.285  0.0773  0.7739  1.1516
 8072SOL     OW35848   2.173   1.525  13.541 -0.5086 -0.3951  0.4245
 8072SOL    HW135849   2.178   1.511  13.636 -0.7202  0.2601  0.5360
 8072SOL    HW235850   2.232   1.455  13.515  2.5298  3.6678 -3.6434
 8073SOL     OW35851   4.719   0.250   5.230 -0.1916 -0.1880 -0.0225
 8073SOL    HW135852   4.656   0.229   5.299  0.8069  1.3925  1.3756
 8073SOL    HW235853   0.058   0.199   5.258  0.3038  0.4077 -0.2979
 8074SOL     OW35854   2.070   1.164   5.334  0.0176  0.2068  0.3418
 8074SOL    HW135855   2.089   1.221   5.409  3.1595 -0.0591 -0.2658
 8074SOL    HW235856   2.139   1.198   5.277  0.2995  0.2411  0.6988
 8075SOL     OW35857   1.399   2.518   2.496 -0.2477  0.1321  0.0362
 8075SOL    HW135858   1.363   2.504   2.409 -0.9798  0.2540  0.3183
 8075SOL    HW235859   1.437   2.605   2.485  2.1203 -0.9340 -0.1130
 8076SOL     OW35860   2.325   0.958   9.773 -0.1393  0.1383  0.1799
 8076SOL    HW135861   2.255   0.991   9.717  0.9944  2.6224  0.2438
 8076SOL    HW235862   2.398   0.958   9.710 -0.0671 -0.9915  0.2489
 8077SOL     OW35863   1.119   2.763   7.137  0.1701 -0.4105 -0.4320
 8077SOL    HW135864   1.055   2.701   7.102  0.7247 -1.1721 -0.1120
 8077SOL    HW235865   1.194   2.713   7.170  0.5107  1.5508  1.7641
 8078SOL     OW35866   4.069   3.678  17.559 -0.1775 -0.4121 -0.3531
 8078SOL    HW135867   4.020   3.723  17.490  1.6574  1.2844 -0.5402
 8078SOL    HW235868   4.132   3.749  17.568 -0.2411 -0.5509  1.0626
 8079SOL     OW35869   0.371   4.152   2.395  0.0525 -0.1171 -0.0933
 8079SOL    HW135870   0.351   4.075   2.342 -0.4811  0.0237 -0.0940
 8079SOL    HW235871   0.458   4.132   2.429  0.6058  2.8228  0.2362
 8080SOL     OW35872   0.971   3.527   8.755 -0.5879 -0.1478 -0.1933
 8080SOL    HW135873   1.057   3.567   8.744 -0.2003 -0.2629  2.4176
 8080SOL    HW235874   0.938   3.566   8.836 -0.9446  0.5830 -0.6977
 8081SOL     OW35875   4.609   1.263  16.875 -0.2132 -0.1349  0.0344
 8081SOL    HW135876   4.672   1.334  16.862  2.9426 -3.2133 -1.4919
 8081SOL    HW235877   4.613   1.205  16.798 -4.8858 -0.6646  0.1956
 8082SOL     OW35878   3.767   3.381   2.940  0.2783  0.7143  0.2617
 8082SOL    HW135879   3.783   3.332   2.859  1.6214  0.2951  0.7847
 8082SOL    HW235880   3.706   3.447   2.906  1.2267  1.5723  0.2315
 8083SOL     OW35881   2.116   3.629  15.821 -0.0522  0.1331  0.3221
 8083SOL    HW135882   2.076   3.716  15.817  1.2883  0.7518  0.1937
 8083SOL    HW235883   2.164   3.622  15.738 -0.1398  0.6090  0.2286
 8084SOL     OW35884   0.123   1.386  10.678 -0.0249  0.3252  0.2326
 8084SOL    HW135885   0.119   1.378  10.774 -2.9325 -0.8603  0.0271
 8084SOL    HW235886   0.050   1.443  10.655  1.0587  1.9768  0.8867
 8085SOL     OW35887   1.295   1.090   6.169  0.1116  0.2015  0.1059
 8085SOL    HW135888   1.270   1.084   6.262 -0.8555 -0.2513 -0.1841
 8085SOL    HW235889   1.390   1.093   6.180  0.2720 -2.4605 -0.4094
 8086SOL     OW35890   0.813   1.510   3.660  0.0841 -0.1869 -0.1739
 8086SOL    HW135891   0.867   1.439   3.625 -1.9207 -0.8124 -2.0602
 8086SOL    HW235892   0.768   1.542   3.582 -1.6350  0.1798  0.9645
 8087SOL     OW35893   0.693   4.637   0.404 -0.3839 -0.0805 -0.0162
 8087SOL    HW135894   0.760   4.702   0.383 -1.1506  1.0376  0.9540
 8087SOL    HW235895   0.629   4.659   0.336  0.6740 -4.1718 -2.3162
 8088SOL     OW35896   0.065   1.595   0.161 -0.0003  0.3963  0.4743
 8088SOL    HW135897   0.058   1.558   0.073 -0.4905  2.8197 -0.4992
 8088SOL    HW235898   0.022   1.526   0.212  0.4820 -0.4075 -0.2127
 8089SOL     OW35899   3.446   0.294   5.849  1.0157  0.1945  0.4530
 8089SOL    HW135900   3.359   0.266   5.879  0.8725 -1.7370 -1.7716
 8089SOL    HW235901   3.503   0.265   5.920  3.0850 -0.8610 -1.6295
 8090SOL     OW35902   2.547   2.291   6.389  0.0301 -0.0934 -0.3649
 8090SOL    HW135903   2.531   2.375   6.345 -1.0602 -0.5166 -0.7572
 8090SOL    HW235904   2.524   2.311   6.480 -0.0585 -0.3828 -0.3248
 8091SOL     OW35905   4.648   1.096   5.762 -0.0591 -0.5753 -0.2789
 8091SOL    HW135906   4.695   1.025   5.806  0.2717  0.4881  1.0888
 8091SOL    HW235907   4.570   1.100   5.817 -0.3328  0.9656 -0.7685
 8092SOL     OW35908   4.173   0.751   3.792  0.1653  0.1059 -0.1795
 8092SOL    HW135909   4.083   0.781   3.802 -0.0451  0.0102 -1.8141
 8092SOL    HW235910   4.179   0.704   3.709  1.9275  0.4552 -0.2538
 8093SOL     OW35911   0.869   1.744   4.102  0.2000 -0.1052 -0.0907
 8093SOL    HW135912   0.835   1.712   4.019 -1.1142 -0.3657  0.5469
 8093SOL    HW235913   0.895   1.835   4.091  0.6803 -0.5274 -2.3679
 8094SOL     OW35914   2.642   2.374   4.881  0.4564  1.2476  0.3824
 8094SOL    HW135915   2.687   2.336   4.956  1.6640  1.9582  0.0258
 8094SOL    HW235916   2.704   2.377   4.808  0.3304  0.4115  0.2470
 8095SOL     OW35917   0.967   2.880   7.401  0.3740 -0.0836  0.0376
 8095SOL    HW135918   0.952   2.794   7.363 -0.6648 -0.8159  2.1223
 8095SOL    HW235919   1.029   2.868   7.474  0.5832 -1.6009 -0.3945
 8096SOL     OW35920   1.487   4.225   8.994 -0.3500  0.5266  0.1998
 8096SOL    HW135921   1.435   4.255   8.920 -1.0615 -0.0771  0.4598
 8096SOL    HW235922   1.445   4.141   9.010  3.3788 -1.1861  0.9945
 8097SOL     OW35923   3.318   0.022  15.542  0.2197 -0.2184  0.4208
 8097SOL    HW135924   3.239   0.050  15.495  0.5766  1.0301  0.5786
 8097SOL    HW235925   3.394   0.063  15.502  0.3244 -0.7105  0.1082
 8098SOL     OW35926   2.544   4.396   5.520  0.7674 -0.2647 -0.1244
 8098SOL    HW135927   2.459   4.352   5.525 -0.6136  2.1286 -2.0539
 8098SOL    HW235928   2.510   4.474   5.476 -0.3443  0.2444  1.6372
 8099SOL     OW35929   4.023   0.530   3.007 -0.2020 -0.5356 -0.2670
 8099SOL    HW135930   3.986   0.488   3.084 -3.0997 -0.4002 -1.5657
 8099SOL    HW235931   4.004   0.622   3.025  2.7129  0.1138 -0.4475
 8100SOL     OW35932   1.798   1.128   2.296 -0.1235 -0.0210 -0.1577
 8100SOL    HW135933   1.866   1.196   2.297 -1.1424  0.9729  1.9433
 8100SOL    HW235934   1.834   1.087   2.374  1.2865  2.0135  0.2621
 8101SOL     OW35935   1.003   3.948   5.846  0.2633  0.1718  0.2807
 8101SOL    HW135936   1.021   3.913   5.933  1.7037 -1.2859 -0.6139
 8101SOL    HW235937   1.052   4.030   5.855 -1.5299  1.4999 -2.2874
 8102SOL     OW35938   0.411   4.098   8.031  0.0170  0.0858 -0.3624
 8102SOL    HW135939   0.415   4.055   8.117 -2.1008  0.6908  0.0436
 8102SOL    HW235940   0.318   4.096   8.009 -0.0030 -0.5736 -0.2006
 8103SOL     OW35941   3.913   1.397   6.069 -0.0127  0.7409  0.3262
 8103SOL    HW135942   3.887   1.347   5.992 -0.9294  1.6126  0.0724
 8103SOL    HW235943   3.850   1.376   6.137 -2.8701  0.8168 -2.3267
 8104SOL     OW35944   0.278   2.168  12.179  0.1306  0.2153 -0.2341
 8104SOL    HW135945   0.328   2.185  12.258 -0.5771  0.5324  0.1395
 8104SOL    HW235946   0.327   2.218  12.114  0.9999  0.7038  0.7996
 8105SOL     OW35947   1.977   2.501   6.984 -0.2449 -0.3607  0.2635
 8105SOL    HW135948   2.021   2.530   6.904  1.9979 -1.1064  1.2287
 8105SOL    HW235949   2.047   2.529   7.042  0.1458 -2.0275  0.6064
 8106SOL     OW35950   0.895   0.092  13.308 -0.2212 -0.6164 -0.1098
 8106SOL    HW135951   0.955   0.116  13.379 -0.6910 -2.0503  0.7662
 8106SOL    HW235952   0.949   0.057  13.237 -0.8987 -1.0642 -0.3972
 8107SOL     OW35953   0.142   0.844   3.219  0.7955  0.3065 -0.3441
 8107SOL    HW135954   0.192   0.827   3.140  0.3197 -1.0411 -0.3500
 8107SOL    HW235955   0.113   0.936   3.220 -1.0993 -0.2838 -0.8154
 8108SOL     OW35956   1.806   2.030  12.927 -0.0967 -0.6107 -0.3254
 8108SOL    HW135957   1.815   1.976  12.849  0.0624  0.5772 -1.1331
 8108SOL    HW235958   1.808   1.964  12.996  1.4308  1.6873  1.8452
 8109SOL     OW35959   1.809   3.675   5.263  0.2040 -0.7370 -0.1831
 8109SOL    HW135960   1.812   3.669   5.359  2.7267  1.6207 -0.1157
 8109SOL    HW235961   1.807   3.583   5.236  0.0798  0.1078 -3.0248
 8110SOL     OW35962   0.451   4.252  10.755  0.5396 -0.2499  0.6910
 8110SOL    HW135963   0.427   4.331  10.804  0.1478 -0.5939  1.0508
 8110SOL    HW235964   0.518   4.270  10.688 -0.0573 -1.1945 -0.1675
 8111SOL     OW35965   3.186   1.179   7.549 -0.5700  0.6514 -0.1405
 8111SOL    HW135966   3.275   1.153   7.524 -0.4993  1.9196 -1.2106
 8111SOL    HW235967   3.183   1.272   7.525  1.0296  0.4560 -1.1285
 8112SOL     OW35968   0.188   4.460   0.496  0.0881  0.8038  0.3765
 8112SOL    HW135969   0.173   4.423   0.583 -2.3316  1.4318  0.2233
 8112SOL    HW235970   0.284   4.458   0.497  0.1073  1.0937 -1.5729
 8113SOL     OW35971   2.625   0.887   5.305 -0.0468 -0.3151  0.4849
 8113SOL    HW135972   2.599   0.941   5.379 -1.8852 -0.1293 -0.2957
 8113SOL    HW235973   2.663   0.953   5.246 -1.5312 -0.1708 -0.3185
 8114SOL     OW35974   3.930   3.737   6.485 -0.2912 -0.4288  0.0028
 8114SOL    HW135975   3.845   3.772   6.512 -0.8178 -2.4525  0.9936
 8114SOL    HW235976   3.987   3.812   6.501 -0.7444 -0.1311  0.2251
 8115SOL     OW35977   0.717   4.464   9.441 -0.1710 -0.1916  0.1210
 8115SOL    HW135978   0.738   4.556   9.424  0.2198 -0.4531 -0.8445
 8115SOL    HW235979   0.738   4.463   9.534  0.2506  2.2084  0.0527
 8116SOL     OW35980   3.899   3.937   4.600  0.4778 -0.1554  0.0461
 8116SOL    HW135981   3.805   3.948   4.585  0.6495  0.5596 -0.4750
 8116SOL    HW235982   3.921   3.965   4.689  1.1968  1.0364 -0.5153
 8117SOL     OW35983   0.708   2.152  11.252  0.4018 -0.1412 -0.1478
 8117SOL    HW135984   0.621   2.169  11.213  0.9203 -1.2933 -1.8270
 8117SOL    HW235985   0.711   2.056  11.257  3.1615 -0.0676 -0.5083
 8118SOL     OW35986   2.591   3.093  13.775  0.7287  0.4373  0.1003
 8118SOL    HW135987   2.603   3.090  13.869 -0.8916 -2.0594  0.2094
 8118SOL    HW235988   2.665   3.147  13.748  1.8664 -0.2809  1.8295
 8119SOL     OW35989   2.500   1.814  12.239 -0.1396  0.1055 -0.4252
 8119SOL    HW135990   2.463   1.795  12.326  1.3109 -2.1673 -0.3161
 8119SOL    HW235991   2.588   1.791  12.269 -0.2900  1.4274  1.0594
 8120SOL     OW35992   0.599   0.281   7.391  0.0451  0.4232  0.2202
 8120SOL    HW135993   0.556   0.225   7.457  2.7926 -1.4329  0.4246
 8120SOL    HW235994   0.639   0.215   7.334  1.9743  1.0803  0.8236
 8121SOL     OW35995   0.723   3.193   9.220 -0.1896  0.2492 -0.3698
 8121SOL    HW135996   0.749   3.154   9.303  1.1093 -0.6794 -1.2164
 8121SOL    HW235997   0.674   3.272   9.245 -0.1242  0.8163 -2.0018
 8122SOL     OW35998   0.475   2.805   8.637  0.2676 -0.0426  0.6718
 8122SOL    HW135999   0.469   2.711   8.622 -1.7920  0.4954 -2.0128
 8122SOL    HW236000   0.550   2.813   8.695  1.8525 -1.3394 -1.1874
 8123SOL     OW36001   4.314   4.153   4.469 -0.1349  0.0387 -0.0391
 8123SOL    HW136002   4.343   4.066   4.441  0.1600 -0.3675  1.5631
 8123SOL    HW236003   4.220   4.134   4.462 -0.1012  0.6059 -2.1872
 8124SOL     OW36004   3.316   3.605   7.487 -0.1726  0.2047 -0.3333
 8124SOL    HW136005   3.396   3.560   7.511  1.0094  0.7137 -3.2868
 8124SOL    HW236006   3.332   3.636   7.398  1.4614  1.0539  0.2549
 8125SOL     OW36007   4.527   0.203  10.859 -0.5311 -0.4292  0.4432
 8125SOL    HW136008   4.574   0.224  10.779 -0.7232  3.0152  1.2605
 8125SOL    HW236009   4.458   0.151  10.818  0.5090 -2.8615  1.7293
 8126SOL     OW36010   2.362   0.457   5.112  0.7801 -0.2146 -0.1432
 8126SOL    HW136011   2.322   0.543   5.126 -0.2724 -0.8501  0.7406
 8126SOL    HW236012   2.285   0.413   5.074  0.0546  0.1493  0.9127
 8127SOL     OW36013   0.537   3.702   6.997  0.0207 -0.1403  0.4044
 8127SOL    HW136014   0.547   3.626   7.054 -2.3827  1.0972  2.4611
 8127SOL    HW236015   0.527   3.777   7.056 -1.5651  1.4874 -1.9257
 8128SOL     OW36016   1.025   3.675   4.567  0.4759 -0.2341 -0.1964
 8128SOL    HW136017   0.948   3.722   4.597  1.5976  1.9761 -0.7896
 8128SOL    HW236018   1.081   3.669   4.644 -0.1266  0.8627  0.3213
 8129SOL     OW36019   3.574   2.194  15.017 -0.1563  0.0298 -0.2617
 8129SOL    HW136020   3.594   2.282  14.987  0.4360 -1.3924 -3.9597
 8129SOL    HW236021   3.667   2.174  15.032 -0.3882 -0.5037  0.4534
 8130SOL     OW36022   1.823   2.727   2.928 -0.0344 -0.0549 -0.1951
 8130SOL    HW136023   1.777   2.801   2.969 -0.9567 -2.5858  3.3543
 8130SOL    HW236024   1.875   2.764   2.857  1.2817  0.2899  0.9490
 8131SOL     OW36025   2.107   1.076   9.615  0.5345  0.3445 -0.3673
 8131SOL    HW136026   2.074   1.056   9.527 -1.1769  1.1802  0.0779
 8131SOL    HW236027   2.024   1.068   9.662  1.0965  0.9712  0.7320
 8132SOL     OW36028   3.435   1.364   6.260  0.1830 -0.6198  0.0974
 8132SOL    HW136029   3.353   1.399   6.224 -0.0346 -0.4347  0.7629
 8132SOL    HW236030   3.398   1.291   6.310  0.8070 -0.4178  0.8541
 8133SOL     OW36031   3.623   3.839   6.858 -0.0492  0.1602  0.1319
 8133SOL    HW136032   3.534   3.874   6.847 -0.7251 -1.8735 -0.7880
 8133SOL    HW236033   3.654   3.837   6.767  0.6191 -1.9717  0.4284
 8134SOL     OW36034   4.707   1.222   7.995 -0.5073  0.3016  0.3307
 8134SOL    HW136035   4.718   1.191   8.084  2.2578 -0.8632 -0.4211
 8134SOL    HW236036   4.671   1.307   8.020 -0.3686  0.2946  0.5510
 8135SOL     OW36037   2.907   1.343   6.007 -0.0461 -0.0849  0.1146
 8135SOL    HW136038   2.817   1.347   5.975  0.4734 -0.3226 -1.3875
 8135SOL    HW236039   2.942   1.404   5.942  0.8204  1.0822  1.6532
 8136SOL     OW36040   0.115   3.999   3.861  0.3850 -0.9460 -0.0633
 8136SOL    HW136041   0.207   3.975   3.871  0.1437 -1.3429  1.2023
 8136SOL    HW236042   0.103   3.997   3.766  2.2024  0.6300 -0.2994
 8137SOL     OW36043   0.848   4.251   7.897 -0.4225 -0.5852  0.2094
 8137SOL    HW136044   0.753   4.252   7.891 -0.4309 -1.9832  0.1821
 8137SOL    HW236045   0.873   4.282   7.810  0.4983 -0.1063  0.6421
 8138SOL     OW36046   3.045   1.280   2.812 -0.3877 -0.2828 -0.3599
 8138SOL    HW136047   3.121   1.221   2.819  0.0215  0.5517  2.1367
 8138SOL    HW236048   2.983   1.231   2.758 -0.7106 -1.7085  1.2943
 8139SOL     OW36049   0.073   4.412   6.497 -0.2882 -0.2968  0.0302
 8139SOL    HW136050   0.040   4.371   6.577 -0.8657  1.1579  0.5308
 8139SOL    HW236051   0.011   4.374   6.435  0.0729 -1.0073  0.1129
 8140SOL     OW36052   4.655   2.683   3.783  0.6993 -0.3346 -0.1591
 8140SOL    HW136053   0.009   2.710   3.781  0.7162 -0.2727  1.4205
 8140SOL    HW236054   4.645   2.659   3.875  1.9347  1.9306  0.5862
 8141SOL     OW36055   0.755   0.204   7.900 -0.2037  0.5823 -0.3318
 8141SOL    HW136056   0.793   0.173   7.983 -0.5081  0.4191 -0.2512
 8141SOL    HW236057   0.828   0.254   7.863 -0.7903  0.1877 -2.0418
 8142SOL     OW36058   4.695   0.034  10.515  0.3704 -0.2654 -1.1017
 8142SOL    HW136059   4.725   0.104  10.574  0.0603 -0.1214 -1.1163
 8142SOL    HW236060   4.681   0.083  10.434  0.4523 -0.0697 -0.9978
 8143SOL     OW36061   0.039   3.512   7.793 -0.0678  0.4202 -0.4495
 8143SOL    HW136062   0.014   3.425   7.762  1.6821  0.7971 -2.9517
 8143SOL    HW236063   0.115   3.523   7.735  0.2826 -2.9822 -0.6300
 8144SOL     OW36064   4.433   4.119   1.176 -0.7649  0.2413 -0.1544
 8144SOL    HW136065   4.346   4.124   1.215 -0.2530 -1.2860  1.1797
 8144SOL    HW236066   4.413   4.154   1.089  1.6284 -0.6977 -1.0756
 8145SOL     OW36067   4.494   3.000   0.406  0.8997 -0.7810 -0.1273
 8145SOL    HW136068   4.400   2.990   0.419  0.8092 -1.5541 -1.3577
 8145SOL    HW236069   4.505   2.964   0.318  0.6417  0.0954 -0.5219
 8146SOL     OW36070   1.741   3.010   3.840 -0.7104 -0.0422 -0.4254
 8146SOL    HW136071   1.764   2.917   3.848  0.7169  0.2326 -1.3297
 8146SOL    HW236072   1.822   3.050   3.870 -1.2701  1.8253 -1.4278
 8147SOL     OW36073   3.647   4.429   4.768  0.2928 -0.3553 -0.4195
 8147SOL    HW136074   3.635   4.521   4.743  0.6367 -0.0871  0.4091
 8147SOL    HW236075   3.660   4.439   4.862 -1.7790  0.1192 -0.1758
 8148SOL     OW36076   4.170   1.628   8.915 -0.1684 -0.1244  0.1092
 8148SOL    HW136077   4.190   1.562   8.848  1.3430  0.2377  0.2146
 8148SOL    HW236078   4.255   1.667   8.935 -0.5300 -0.0214  1.3913
 8149SOL     OW36079   2.772   1.815   7.765  0.2869 -0.4434 -0.1265
 8149SOL    HW136080   2.857   1.854   7.788 -1.3958  2.6023  0.9952
 8149SOL    HW236081   2.716   1.826   7.842 -0.3448 -1.8825 -0.3719
 8150SOL     OW36082   3.165   1.981   7.605  0.0769  0.0926 -0.0917
 8150SOL    HW136083   3.185   1.907   7.548 -3.1376 -0.1858 -0.8821
 8150SOL    HW236084   3.238   2.040   7.586  0.9248 -0.4084  1.6538
 8151SOL     OW36085   4.278   3.999   5.368 -1.0037  0.3800 -0.9984
 8151SOL    HW136086   4.211   3.954   5.317 -0.6991 -0.4093 -0.7010
 8151SOL    HW236087   4.232   4.011   5.452 -0.1393  0.0131 -0.4764
 8152SOL     OW36088   1.506   0.380   9.292  0.2229 -0.0982 -0.7469
 8152SOL    HW136089   1.594   0.365   9.327 -0.8654 -1.6921  1.2355
 8152SOL    HW236090   1.519   0.351   9.201  1.3680 -2.1896  0.0933
 8153SOL     OW36091   4.474   2.590   5.153  0.2005  0.1910 -0.0073
 8153SOL    HW136092   4.388   2.583   5.111  0.5583 -1.3942 -0.4666
 8153SOL    HW236093   4.454   2.544   5.234 -3.3616  0.5088 -0.6977
 8154SOL     OW36094   1.831   1.971   5.599  0.1365 -0.3415 -0.4202
 8154SOL    HW136095   1.884   1.892   5.588  0.6188 -0.0163 -0.4207
 8154SOL    HW236096   1.839   2.024   5.520 -0.4056  0.3773  0.0111
 8155SOL     OW36097   0.032   4.482  16.469  0.4731 -0.3862 -0.4154
 8155SOL    HW136098   0.124   4.454  16.470  0.7155  0.3151 -2.7788
 8155SOL    HW236099   0.040   4.560  16.413  1.2006 -0.9876 -1.1497
 8156SOL     OW36100   2.873   1.916   2.300 -0.5836 -0.2773  0.5183
 8156SOL    HW136101   2.879   2.011   2.311  1.3822 -0.1922 -1.3071
 8156SOL    HW236102   2.888   1.918   2.206  0.2608 -2.2439  0.6051
 8157SOL     OW36103   1.122   4.445   5.386 -0.7010  0.4301 -0.5050
 8157SOL    HW136104   1.113   4.390   5.308  0.9817 -0.1313 -0.3193
 8157SOL    HW236105   1.140   4.530   5.347 -0.6930  1.9478  2.7817
 8158SOL     OW36106   3.314   1.589   8.178  0.1265 -0.0888  0.1629
 8158SOL    HW136107   3.276   1.502   8.188 -0.4004  0.1222 -0.0053
 8158SOL    HW236108   3.332   1.606   8.271  2.3893 -0.4927 -0.2099
 8159SOL     OW36109   0.259   0.147   7.976  0.2043  0.0353 -0.2034
 8159SOL    HW136110   0.255   0.071   8.034 -2.1950  0.3449  0.0414
 8159SOL    HW236111   0.336   0.198   8.001 -1.1846  1.8580  0.3130
 8160SOL     OW36112   1.199   0.168   5.132  0.0375  0.6377  0.0746
 8160SOL    HW136113   1.205   0.126   5.047  0.8007 -1.3027  1.0904
 8160SOL    HW236114   1.223   0.257   5.108 -0.5887  0.3882 -1.4965
 8161SOL     OW36115   0.216   4.163   9.066  0.0383  0.5731  0.0088
 8161SOL    HW136116   0.209   4.104   9.141 -0.5821  0.5986 -0.0318
 8161SOL    HW236117   0.132   4.208   9.069  0.7202  1.6339  3.7260
 8162SOL     OW36118   2.879   0.368   2.483  0.4225 -0.0624  0.1258
 8162SOL    HW136119   2.851   0.278   2.466  1.2366 -0.8964  3.3187
 8162SOL    HW236120   2.895   0.393   2.392  0.0121 -0.4647 -0.0560
 8163SOL     OW36121   1.782   3.232  11.930  0.3886  0.3276 -0.4405
 8163SOL    HW136122   1.825   3.277  12.002 -1.2340  2.8640 -1.0402
 8163SOL    HW236123   1.823   3.278  11.856 -0.0655 -2.3948 -2.3786
 8164SOL     OW36124   2.676   4.096   1.893 -0.3363 -0.3711 -0.5201
 8164SOL    HW136125   2.672   4.016   1.840 -1.2251  0.3704 -1.5784
 8164SOL    HW236126   2.610   4.151   1.852 -0.0556  0.0093 -0.4604
 8165SOL     OW36127   4.630   2.848   4.069 -0.6812 -0.1490 -0.3194
 8165SOL    HW136128   4.612   2.938   4.095 -0.5633 -0.6824  1.6278
 8165SOL    HW236129   4.548   2.821   4.027 -1.4040  1.5385  0.0278
 8166SOL     OW36130   3.715   1.563  15.413  0.2477 -0.0587  0.1434
 8166SOL    HW136131   3.670   1.597  15.336  2.2595  0.6127 -0.7212
 8166SOL    HW236132   3.709   1.647  15.459  1.0122  1.0406 -1.8037
 8167SOL     OW36133   0.919   3.669   9.783 -0.2819  0.1603 -0.5346
 8167SOL    HW136134   0.855   3.675   9.712 -0.0772  1.5633 -0.6029
 8167SOL    HW236135   0.883   3.598   9.835 -1.1722  2.0420  1.4231
 8168SOL     OW36136   1.526   1.564  11.904 -0.2570 -0.6119 -0.5269
 8168SOL    HW136137   1.557   1.589  11.991 -2.0164 -0.9955  0.2239
 8168SOL    HW236138   1.607   1.528  11.869  1.3167  0.1838  2.2974
 8169SOL     OW36139   1.390   0.093   9.057  0.0069  0.0732  0.1806
 8169SOL    HW136140   1.296   0.105   9.066 -0.0800 -1.0854  0.7328
 8169SOL    HW236141   1.393   4.736   9.046 -0.5892  0.1836 -0.8951
 8170SOL     OW36142   2.165   4.137  13.471 -0.1662 -0.2465 -0.2267
 8170SOL    HW136143   2.236   4.151  13.409 -0.2095 -2.0063 -0.6674
 8170SOL    HW236144   2.103   4.192  13.425 -1.8893 -1.3854  0.7169
 8171SOL     OW36145   3.531   4.338   8.475  0.2688  0.4726  0.2004
 8171SOL    HW136146   3.473   4.308   8.405 -2.5482  0.2589  2.6307
 8171SOL    HW236147   3.607   4.279   8.480 -0.3000 -0.1396  1.8565
 8172SOL     OW36148   3.028   1.240  15.314  0.4927  0.2115  0.1392
 8172SOL    HW136149   2.944   1.257  15.357  0.4364  0.4186 -0.0534
 8172SOL    HW236150   3.060   1.162  15.359 -0.1848 -1.8242 -2.9804
 8173SOL     OW36151   0.422   3.056   4.615 -0.3294  0.3867 -0.0629
 8173SOL    HW136152   0.492   2.991   4.605 -1.1424 -0.2249 -1.6969
 8173SOL    HW236153   0.375   3.039   4.534  1.1184  1.7090 -1.1931
 8174SOL     OW36154   4.336   2.560   0.136 -0.4685  0.0588 -0.5239
 8174SOL    HW136155   4.415   2.521   0.098  0.0804 -0.4725  1.1717
 8174SOL    HW236156   4.266   2.510   0.093 -0.8495 -1.4064  1.8308
 8175SOL     OW36157   1.146   0.835  12.748  0.7234 -0.1042  0.4655
 8175SOL    HW136158   1.063   0.877  12.726  1.5807  1.2247 -0.2228
 8175SOL    HW236159   1.186   0.887  12.818 -1.6003  0.8682  1.0678
 8176SOL     OW36160   0.427   3.662   4.683 -0.6167 -0.1441  0.1202
 8176SOL    HW136161   0.439   3.567   4.683  1.8429  0.1640  0.5405
 8176SOL    HW236162   0.466   3.683   4.768 -0.5411  0.4660 -0.0646
 8177SOL     OW36163   2.181   4.612   5.120  0.1400 -0.3339 -0.0646
 8177SOL    HW136164   2.211   4.550   5.053 -0.6814 -0.7300 -0.0733
 8177SOL    HW236165   2.123   4.556   5.172  1.7788 -0.6627  1.3909
 8178SOL     OW36166   2.208   1.824   5.987  0.3380 -0.6425  0.6541
 8178SOL    HW136167   2.120   1.860   5.997  1.1484  1.7377 -0.6214
 8178SOL    HW236168   2.267   1.895   6.015  2.1519 -0.2818 -4.0276
 8179SOL     OW36169   1.860   0.627  17.483 -0.0882 -0.0911  0.0330
 8179SOL    HW136170   1.884   0.700  17.540  0.8026  1.6820 -2.6089
 8179SOL    HW236171   1.836   0.690  17.415 -0.1634 -0.7171 -0.5207
 8180SOL     OW36172   4.058   1.810  14.287  0.5005  0.0300 -0.1462
 8180SOL    HW136173   4.135   1.866  14.300  0.5367 -0.3278  1.2502
 8180SOL    HW236174   3.990   1.875  14.304 -0.9951 -1.6095  0.1169
 8181SOL     OW36175   1.374   3.668   6.881  0.4957  0.3741  0.0264
 8181SOL    HW136176   1.425   3.731   6.830  2.7468 -0.5685  1.1388
 8181SOL    HW236177   1.339   3.723   6.952  2.3652  0.9244  0.5412
 8182SOL     OW36178   2.112   4.217  10.251  0.6744 -0.3020  0.5404
 8182SOL    HW136179   2.183   4.245  10.192  0.3051 -1.5120 -0.5038
 8182SOL    HW236180   2.145   4.129  10.272  0.7217 -0.4426 -0.1151
 8183SOL     OW36181   1.547   3.947   4.504  0.3672 -0.3675  0.4193
 8183SOL    HW136182   1.610   3.877   4.520  0.6948 -0.6109 -1.9051
 8183SOL    HW236183   1.606   4.006   4.458 -0.2320  1.4852  2.0568
 8184SOL     OW36184   1.145   2.851   2.106  0.3308 -0.3159  0.1161
 8184SOL    HW136185   1.135   2.887   2.018  0.5183 -0.9871 -0.1801
 8184SOL    HW236186   1.056   2.850   2.141  0.2523 -0.0634 -0.0788
 8185SOL     OW36187   4.022   1.724   4.998 -0.5169 -0.4818  0.2524
 8185SOL    HW136188   3.961   1.701   5.068 -0.9547  1.7749  0.5982
 8185SOL    HW236189   4.065   1.640   4.982 -1.6823 -1.0482  0.1163
 8186SOL     OW36190   3.523   1.650  11.201 -0.3843 -0.5775 -0.5721
 8186SOL    HW136191   3.514   1.745  11.205 -1.1518 -0.6722  0.0435
 8186SOL    HW236192   3.493   1.627  11.113 -0.7611 -0.0454 -0.5825
 8187SOL     OW36193   2.741   1.896   4.744 -0.0351  0.0802  0.3666
 8187SOL    HW136194   2.774   1.823   4.691 -0.3775 -0.1559  0.4729
 8187SOL    HW236195   2.797   1.892   4.821 -0.7944 -2.3565  0.8023
 8188SOL     OW36196   1.436   0.047  13.432  0.2534  0.3119  0.1133
 8188SOL    HW136197   1.437   0.115  13.365 -0.8776 -0.3406 -0.5645
 8188SOL    HW236198   1.379   0.095  13.492  0.3570  1.7136 -0.8971
 8189SOL     OW36199   4.731   3.710  14.324 -0.2118 -0.1934 -0.2415
 8189SOL    HW136200   0.034   3.643  14.269  2.2183  0.7958  0.3477
 8189SOL    HW236201   0.075   3.758  14.338 -0.1160 -1.2235  2.6011
 8190SOL     OW36202   0.953   0.342   2.810 -0.3476  0.5828  0.2226
 8190SOL    HW136203   0.943   0.357   2.903  0.0360  1.4392  0.1206
 8190SOL    HW236204   0.863   0.343   2.777  0.7772 -1.2964 -2.9292
 8191SOL     OW36205   0.660   2.800  10.956 -0.3989  0.7664  0.0800
 8191SOL    HW136206   0.594   2.747  11.002 -1.7499  2.6903  0.3903
 8191SOL    HW236207   0.703   2.730  10.908  1.0193  0.3123  2.0171
 8192SOL     OW36208   1.181   0.008   9.684  0.3214  0.4288 -0.0272
 8192SOL    HW136209   1.260   4.730   9.632  0.6409 -1.6733  1.0978
 8192SOL    HW236210   1.210   0.059   9.760 -0.0085  0.2178  0.2390
 8193SOL     OW36211   1.058   4.386   6.226  0.1140  0.3339  0.2608
 8193SOL    HW136212   1.057   4.321   6.296 -0.9177  2.3290  2.0939
 8193SOL    HW236213   0.985   4.441   6.253 -1.4510 -1.0340 -1.2275
 8194SOL     OW36214   2.247   0.939   7.217  0.0603 -0.0645  0.5869
 8194SOL    HW136215   2.231   0.868   7.154 -0.4017  0.4223  0.1673
 8194SOL    HW236216   2.235   1.007   7.151 -1.6789 -2.0998 -1.2155
 8195SOL     OW36217   2.319   1.402   6.337  0.1519 -1.0296 -0.1106
 8195SOL    HW136218   2.250   1.388   6.273  0.0798 -1.7401  0.1246
 8195SOL    HW236219   2.343   1.494   6.322  3.5340 -1.5074  2.4997
 8196SOL     OW36220   4.437   0.548   9.224 -0.0046 -0.4916 -0.5217
 8196SOL    HW136221   4.385   0.582   9.151  1.5679  1.5346 -0.6945
 8196SOL    HW236222   4.478   0.629   9.252 -0.0667 -0.6283 -0.0303
 8197SOL     OW36223   1.405   4.496  10.583  0.0299 -0.1362 -0.1222
 8197SOL    HW136224   1.341   4.426  10.591  1.0435 -1.0382  0.0639
 8197SOL    HW236225   1.373   4.563  10.643 -0.4299 -0.2397 -0.2570
 8198SOL     OW36226   1.748   1.044   0.458  0.5542 -0.2137  0.1826
 8198SOL    HW136227   1.716   1.038   0.548 -1.4634  0.6921 -0.4894
 8198SOL    HW236228   1.718   0.963   0.418  1.6092 -1.1479  1.2654
 8199SOL     OW36229   4.356   1.311   8.038  0.8830 -0.0412 -0.1338
 8199SOL    HW136230   4.283   1.321   7.977  1.1491  0.3874 -0.3837
 8199SOL    HW236231   4.409   1.240   8.003  2.4281  1.3075 -0.5786
 8200SOL     OW36232   3.917   2.794   5.739 -0.5639 -0.4924 -0.0365
 8200SOL    HW136233   3.972   2.725   5.777 -1.8315 -2.0226 -0.9331
 8200SOL    HW236234   3.854   2.817   5.806 -0.8491  0.1046 -0.5078
 8201SOL     OW36235   0.600   1.486   8.934  0.0526 -0.6118 -0.3473
 8201SOL    HW136236   0.610   1.394   8.958 -1.6280 -0.6067  0.3365
 8201SOL    HW236237   0.519   1.488   8.883  0.0271 -1.5393 -0.3463
 8202SOL     OW36238   1.569   2.850   6.260 -0.2176 -0.8496  0.2828
 8202SOL    HW136239   1.555   2.932   6.308 -1.1024 -2.0833  2.0950
 8202SOL    HW236240   1.656   2.866   6.224  0.1281 -3.6217 -0.0726
 8203SOL     OW36241   1.206   4.292  10.552  0.3962  0.0565  0.7235
 8203SOL    HW136242   1.160   4.373  10.528 -0.6778 -0.4467  1.0842
 8203SOL    HW236243   1.229   4.262  10.464  0.9744 -0.0980  0.9320
 8204SOL     OW36244   3.388   0.644   3.609 -0.2589 -0.2726  0.3817
 8204SOL    HW136245   3.404   0.734   3.581 -1.2978  0.1371  1.1037
 8204SOL    HW236246   3.297   0.634   3.580 -0.8684  1.2019  1.7921
 8205SOL     OW36247   4.695   1.551  11.406 -0.9015 -0.6416  0.2458
 8205SOL    HW136248   4.680   1.584  11.495  0.5155  0.1067  0.2078
 8205SOL    HW236249   4.609   1.563  11.365 -0.6180  1.5395  0.2660
 8206SOL     OW36250   1.014   0.576  12.134  0.9427  0.2215  0.9996
 8206SOL    HW136251   0.941   0.616  12.087  0.5914 -2.5222 -0.8193
 8206SOL    HW236252   1.018   0.496  12.081 -0.4179  1.1785 -0.5604
 8207SOL     OW36253   1.871   4.615   2.167 -0.7625  0.3030 -0.1868
 8207SOL    HW136254   1.870   4.676   2.094  2.4377 -2.2053 -2.3216
 8207SOL    HW236255   1.931   4.547   2.135  0.0501  0.7426  0.3860
 8208SOL     OW36256   4.472   3.929   5.736  0.5646 -0.6924 -1.2213
 8208SOL    HW136257   4.388   3.906   5.696 -1.0489  0.6956  1.3971
 8208SOL    HW236258   4.481   3.864   5.806  1.9022  0.1913 -0.5688
 8209SOL     OW36259   2.000   0.628   1.518 -0.5821 -0.5175  0.0872
 8209SOL    HW136260   1.981   0.714   1.482 -0.6002 -0.3666  0.4621
 8209SOL    HW236261   1.989   0.656   1.609 -1.8590 -1.7501  0.3143
 8210SOL     OW36262   2.389   1.749   0.918 -0.1864  0.9291 -0.1917
 8210SOL    HW136263   2.451   1.818   0.943  1.2028 -0.4117  0.0103
 8210SOL    HW236264   2.434   1.665   0.910  1.2342  1.6292  0.5218
 8211SOL     OW36265   1.951   0.032   1.738 -0.3874  0.0062 -0.5243
 8211SOL    HW136266   2.026   0.088   1.753 -1.5089  1.6229 -0.9509
 8211SOL    HW236267   2.005   4.700   1.702 -1.6539 -0.7317 -1.0073
 8212SOL     OW36268   2.847   0.260   8.763 -0.0231  0.3118 -0.3500
 8212SOL    HW136269   2.825   0.269   8.670  0.0737  0.6674 -0.3400
 8212SOL    HW236270   2.870   0.169   8.776  1.8595  0.6995 -0.9610
 8213SOL     OW36271   3.041   1.548  16.167 -0.3860 -0.2972 -0.3473
 8213SOL    HW136272   3.016   1.635  16.197 -1.4267 -0.5812 -0.3970
 8213SOL    HW236273   3.024   1.542  16.073  0.2232  1.6533 -0.5832
 8214SOL     OW36274   1.932   1.338   0.304  0.1755  0.5352 -0.0671
 8214SOL    HW136275   1.994   1.379   0.243 -0.6080  0.2606 -1.0430
 8214SOL    HW236276   1.862   1.314   0.244  1.6098  0.1517 -1.5930
 8215SOL     OW36277   3.942   3.144   3.373  0.4176  0.0544 -0.0428
 8215SOL    HW136278   3.874   3.121   3.310  1.7584 -1.9623 -0.7563
 8215SOL    HW236279   3.887   3.141   3.450 -3.7336  0.4199 -3.0158
 8216SOL     OW36280   2.334   1.778   8.365 -0.6351 -0.1421 -0.0466
 8216SOL    HW136281   2.372   1.690   8.369 -1.1169 -0.3023  1.0117
 8216SOL    HW236282   2.314   1.787   8.272 -0.2017 -0.6830 -0.1869
 8217SOL     OW36283   0.038   4.425   1.517  0.5074 -0.0062  0.2747
 8217SOL    HW136284   0.126   4.442   1.483  1.1253  0.2425  1.9983
 8217SOL    HW236285   4.732   4.373   1.450  0.7049 -0.0655  0.1914
 8218SOL     OW36286   4.414   0.494   6.784  0.3632 -0.4459 -0.8139
 8218SOL    HW136287   4.495   0.544   6.792  0.6089 -0.9461 -0.1396
 8218SOL    HW236288   4.361   0.519   6.860  1.0360  0.7990 -0.7509
 8219SOL     OW36289   4.454   4.058  14.131  0.0269 -0.6566 -0.8422
 8219SOL    HW136290   4.434   4.124  14.197 -0.5581 -0.1869 -1.4808
 8219SOL    HW236291   4.367   4.031  14.103  0.0022  1.5367 -2.8945
 8220SOL     OW36292   1.764   2.356   6.058  0.6284  0.1946  0.7724
 8220SOL    HW136293   1.856   2.358   6.033  0.1173  1.8546 -1.0405
 8220SOL    HW236294   1.770   2.284   6.120  0.3317  0.4541  1.1061
 8221SOL     OW36295   3.492   0.033   7.287  0.2443  0.3690  0.1034
 8221SOL    HW136296   3.530   4.684   7.272 -1.4783 -0.4200  0.2629
 8221SOL    HW236297   3.565   0.090   7.263  1.5526 -1.0474  0.6904
 8222SOL     OW36298   4.175   3.288  11.512 -0.2797  0.1232 -0.0669
 8222SOL    HW136299   4.230   3.213  11.534 -2.3413 -1.5788 -0.7142
 8222SOL    HW236300   4.236   3.350  11.472 -0.1244  1.1937  1.8218
 8223SOL     OW36301   0.237   1.947   3.881 -0.1711 -0.2827 -0.6149
 8223SOL    HW136302   0.268   1.913   3.797  0.0133  0.8849 -1.0210
 8223SOL    HW236303   0.264   1.875   3.938 -1.3074  0.7212  1.1729
 8224SOL     OW36304   2.864   2.283   2.984  0.0840  0.1236  0.2146
 8224SOL    HW136305   2.886   2.191   2.969  2.7214  1.1100 -1.9765
 8224SOL    HW236306   2.953   2.319   2.989  0.4156 -0.7269  0.4422
 8225SOL     OW36307   4.622   1.980  16.619 -0.1828 -0.6139 -0.7898
 8225SOL    HW136308   4.608   1.918  16.690  0.8520  2.9850  2.5910
 8225SOL    HW236309   4.627   1.918  16.546 -1.7009 -0.5929 -0.9118
 8226SOL     OW36310   2.914   2.380   8.437  0.6352 -0.3708  0.4377
 8226SOL    HW136311   2.899   2.348   8.526  3.2440  2.1920  1.8049
 8226SOL    HW236312   2.826   2.400   8.404  0.9920 -1.9381 -1.4640
 8227SOL     OW36313   2.208   3.272   9.075  0.2463  0.2957 -0.7540
 8227SOL    HW136314   2.243   3.242   9.159 -1.3439  1.7769  0.4403
 8227SOL    HW236315   2.129   3.219   9.065  0.6830 -0.3871 -0.6080
 8228SOL     OW36316   3.827   1.068   5.310  0.2524 -0.0443  0.2015
 8228SOL    HW136317   3.805   1.145   5.363  0.4982 -0.1007  0.3859
 8228SOL    HW236318   3.744   1.022   5.321  1.1880 -2.0461 -0.9967
 8229SOL     OW36319   3.274   3.775   0.622  0.1073  0.2982  0.0932
 8229SOL    HW136320   3.350   3.768   0.680  1.5934 -0.2678 -1.8987
 8229SOL    HW236321   3.275   3.868   0.600  0.7992  0.1640 -0.4312
 8230SOL     OW36322   1.576   2.202   7.913  0.0694 -0.2079  0.1931
 8230SOL    HW136323   1.642   2.134   7.906 -0.8960 -1.4245  2.9232
 8230SOL    HW236324   1.511   2.169   7.851  0.3579 -1.3031  0.4814
 8231SOL     OW36325   0.595   4.401   9.211 -0.0254 -0.6086  0.0857
 8231SOL    HW136326   0.654   4.420   9.284 -1.1436  0.7076  0.6402
 8231SOL    HW236327   0.518   4.376   9.260  0.2938 -1.5404  0.1134
 8232SOL     OW36328   3.651   3.506   1.877 -0.3188 -0.3555 -0.2585
 8232SOL    HW136329   3.660   3.593   1.915 -2.8357 -0.0812 -0.2871
 8232SOL    HW236330   3.727   3.453   1.900  0.2957  0.4735 -0.3686
 8233SOL     OW36331   4.418   2.594   8.053 -0.0435  0.5341  0.1734
 8233SOL    HW136332   4.401   2.656   8.124 -0.4101 -0.2115  0.7415
 8233SOL    HW236333   4.508   2.619   8.030 -0.5356  1.7261 -0.4408
 8234SOL     OW36334   3.306   4.486   4.241 -0.4586 -0.0906 -0.0772
 8234SOL    HW136335   3.326   4.578   4.225 -0.4066 -0.2309 -0.8362
 8234SOL    HW236336   3.324   4.439   4.159  1.8519  2.2727 -0.9365
 8235SOL     OW36337   3.634   0.110   8.072  0.8349 -0.6068 -0.1385
 8235SOL    HW136338   3.727   0.085   8.077  1.0793 -0.1763 -2.5756
 8235SOL    HW236339   3.640   0.206   8.078 -0.2830 -0.5578  0.2069
 8236SOL     OW36340   1.096   3.806   3.561  0.2926  0.3795  0.8099
 8236SOL    HW136341   1.191   3.802   3.566  0.2474 -1.2400  0.5405
 8236SOL    HW236342   1.091   3.727   3.614 -0.3693  0.6397  1.1304
 8237SOL     OW36343   4.621   1.657   9.374 -0.2879 -0.1993  0.4270
 8237SOL    HW136344   4.589   1.627   9.289  0.6566 -2.3729  0.8402
 8237SOL    HW236345   4.687   1.723   9.350 -0.6212 -0.0932 -0.1943
 8238SOL     OW36346   4.533   0.055   6.881  0.5678  0.0090  0.2353
 8238SOL    HW136347   4.456   4.737   6.886 -1.1229  2.2823  0.0990
 8238SOL    HW236348   4.597   4.731   6.846  0.1181 -0.4618  0.2581
 8239SOL     OW36349   3.107   2.971  12.607 -0.1578 -0.2390  0.0099
 8239SOL    HW136350   3.067   2.935  12.686  0.4983 -1.9106 -0.4320
 8239SOL    HW236351   3.040   3.034  12.580 -0.8489 -1.9028 -2.2170
 8240SOL     OW36352   1.101   2.011  11.690  0.0945 -0.2630 -0.4367
 8240SOL    HW136353   1.049   1.951  11.637  0.9313 -2.4030  1.1362
 8240SOL    HW236354   1.028   2.063  11.722 -0.8611 -4.0540  3.7100
 8241SOL     OW36355   2.123   4.591   4.124 -0.7024  0.4030 -0.2419
 8241SOL    HW136356   2.042   4.567   4.170 -1.3554  0.4145 -1.3783
 8241SOL    HW236357   2.172   4.509   4.132 -1.4708 -0.1427 -1.0777
 8242SOL     OW36358   1.375   4.381   3.273  0.0676  0.1727  0.4324
 8242SOL    HW136359   1.462   4.372   3.235 -0.5070  0.1533 -0.8789
 8242SOL    HW236360   1.325   4.431   3.209 -1.2704 -1.3615  0.2647
 8243SOL     OW36361   2.859   3.378   6.166  0.0829 -0.1503  0.0005
 8243SOL    HW136362   2.879   3.285   6.156 -1.8043 -0.6600  1.0144
 8243SOL    HW236363   2.845   3.387   6.260  2.9986 -0.5923  0.4552
 8244SOL     OW36364   0.270   1.868   4.607  0.2730 -0.5524  0.4688
 8244SOL    HW136365   0.196   1.879   4.546  2.5856  1.4839 -2.0022
 8244SOL    HW236366   0.329   1.883   4.533  0.0596  0.8047  0.5718
 8245SOL     OW36367   3.838   1.851   3.704 -0.6039  0.3503  0.4652
 8245SOL    HW136368   3.914   1.839   3.761  1.4735  0.2384 -2.3366
 8245SOL    HW236369   3.790   1.920   3.749 -1.4081  0.1538 -0.0905
 8246SOL     OW36370   1.926   0.298   2.039 -0.0925 -0.6207  0.1007
 8246SOL    HW136371   1.894   0.296   2.129  2.0252 -3.5636  0.8162
 8246SOL    HW236372   1.897   0.211   2.009  1.9568 -1.8584  1.6667
 8247SOL     OW36373   0.392   1.007  12.611 -0.2734 -0.1461  0.9235
 8247SOL    HW136374   0.395   0.948  12.687  0.9515 -0.7215  0.4276
 8247SOL    HW236375   0.299   1.028  12.602  0.0121  0.1847 -1.2429
 8248SOL     OW36376   2.787   1.719   9.432 -0.3691 -0.3108 -0.1452
 8248SOL    HW136377   2.698   1.701   9.402 -0.3686 -1.1933  0.3819
 8248SOL    HW236378   2.751   1.801   9.467  0.8312  1.3636 -2.8335
 8249SOL     OW36379   2.312   0.698   9.228  0.0299  0.0908  0.4453
 8249SOL    HW136380   2.394   0.680   9.181 -0.8286  0.2743 -1.1108
 8249SOL    HW236381   2.299   0.612   9.269 -1.2341 -0.5317 -1.2592
 8250SOL     OW36382   1.113   1.400  16.925  0.3818 -0.7602 -0.0806
 8250SOL    HW136383   1.185   1.456  16.951  0.6761 -1.0348 -0.2985
 8250SOL    HW236384   1.168   1.324  16.906 -0.3241 -1.2713 -0.1113
 8251SOL     OW36385   1.717   4.480  17.029 -0.5333 -0.4964 -1.0301
 8251SOL    HW136386   1.778   4.478  16.955  0.6753 -0.2982 -0.0484
 8251SOL    HW236387   1.731   4.571  17.056 -1.1900 -0.2834 -1.4274
 8252SOL     OW36388   2.392   3.039   2.603  0.0337  0.6627  0.3642
 8252SOL    HW136389   2.456   3.089   2.655 -0.5134 -0.1849  1.8670
 8252SOL    HW236390   2.399   2.957   2.653 -0.6792 -0.1659 -0.9006
 8253SOL     OW36391   3.849   2.337   8.065 -0.0025  0.2496 -0.1144
 8253SOL    HW136392   3.878   2.395   8.135  0.4150 -2.1819  1.7346
 8253SOL    HW236393   3.798   2.279   8.121  1.3962  0.3089  1.2162
 8254SOL     OW36394   0.758   4.702  10.538  0.6896 -0.2730 -0.5570
 8254SOL    HW136395   0.801   4.730  10.619 -0.6354  1.1639 -0.3652
 8254SOL    HW236396   0.815   0.017  10.482 -1.3531 -0.2574 -2.6228
 8255SOL     OW36397   0.454   0.027  17.200  0.0576 -0.2952 -0.0255
 8255SOL    HW136398   0.435   4.673  17.220  0.4283 -0.2674  0.4590
 8255SOL    HW236399   0.386   0.069  17.254 -0.8272  0.5477 -1.8172
 8256SOL     OW36400   1.934   1.706   8.947 -0.4678  0.1756 -0.6132
 8256SOL    HW136401   1.876   1.631   8.932 -0.4081  0.5970 -2.9709
 8256SOL    HW236402   1.901   1.777   8.891 -0.7764 -1.5769 -2.6402
 8257SOL     OW36403   1.575   4.107   7.785  0.1163  0.6261 -0.2052
 8257SOL    HW136404   1.597   4.200   7.777  0.8796  0.4330 -0.4166
 8257SOL    HW236405   1.639   4.083   7.851 -0.4954  4.3557  1.7086
 8258SOL     OW36406   4.606   2.542  12.767  0.9190  0.1796  0.1715
 8258SOL    HW136407   4.644   2.544  12.680 -1.1294 -0.5049 -0.7430
 8258SOL    HW236408   4.544   2.469  12.769  0.0503  0.9106 -0.1688
 8259SOL     OW36409   0.852   1.369   3.914  0.1106  0.5898  0.2627
 8259SOL    HW136410   0.816   1.409   3.835  1.0898 -1.4732 -1.2204
 8259SOL    HW236411   0.814   1.420   3.985 -2.4145  1.3956 -1.6779
 8260SOL     OW36412   3.018   1.729   3.314  0.0990 -0.2456 -0.2941
 8260SOL    HW136413   2.973   1.728   3.230 -0.5561 -0.4590  0.0647
 8260SOL    HW236414   3.001   1.638   3.340 -2.6463  0.1182 -0.9016
 8261SOL     OW36415   1.058   4.622  10.979 -0.3565 -0.4372  0.4246
 8261SOL    HW136416   0.967   4.606  11.003 -0.5086 -0.5714 -0.2632
 8261SOL    HW236417   1.077   4.546  10.925  0.1637 -1.3211  1.8543
 8262SOL     OW36418   2.586   0.679   8.033  0.5507 -0.2756 -0.2231
 8262SOL    HW136419   2.671   0.647   8.004  0.2172  0.9384 -2.6040
 8262SOL    HW236420   2.524   0.609   8.012 -0.8090 -0.2569  3.6621
 8263SOL     OW36421   2.118   1.620   1.590  0.3746  0.1745 -0.0683
 8263SOL    HW136422   2.087   1.678   1.660  2.2579  0.7591  0.3069
 8263SOL    HW236423   2.184   1.568   1.636  0.8492  0.8199 -0.0127
 8264SOL     OW36424   3.332   4.482   6.529  0.1006 -0.2192 -0.1725
 8264SOL    HW136425   3.296   4.459   6.615 -1.2685 -0.4609 -0.8099
 8264SOL    HW236426   3.400   4.547   6.547 -0.3806  0.1040  0.5019
 8265SOL     OW36427   2.611   2.983   7.150  0.0887 -0.0292 -0.1145
 8265SOL    HW136428   2.653   3.064   7.120 -0.2919  0.3377  0.3265
 8265SOL    HW236429   2.674   2.959   7.218  0.6882 -1.2924 -1.1223
 8266SOL     OW36430   2.074   3.688   5.150  0.1124  0.4049 -0.0708
 8266SOL    HW136431   1.998   3.746   5.157 -1.3882 -1.4391 -1.0810
 8266SOL    HW236432   2.055   3.630   5.223  0.3212 -0.0656 -0.3919
 8267SOL     OW36433   3.029   3.693   1.330 -0.2485  0.4556  0.5685
 8267SOL    HW136434   3.055   3.752   1.260  1.0136  0.2862  0.8819
 8267SOL    HW236435   3.085   3.718   1.405  3.2611 -2.0991 -1.1882
 8268SOL     OW36436   2.382   0.547   4.803 -0.5675  0.0686 -0.0616
 8268SOL    HW136437   2.390   0.542   4.708  0.6114  0.7861  0.0044
 8268SOL    HW236438   2.300   0.503   4.827 -0.3275 -0.3103  0.0635
 8269SOL     OW36439   3.241   4.157   5.119  0.3723 -0.0323  0.2433
 8269SOL    HW136440   3.170   4.178   5.179  0.3032 -3.2882  1.3421
 8269SOL    HW236441   3.216   4.067   5.096  1.2087 -0.2242  0.0782
 8270SOL     OW36442   0.790   1.997   8.209 -0.6419 -0.2462  0.1839
 8270SOL    HW136443   0.864   2.026   8.262 -0.9894 -1.4608  1.3223
 8270SOL    HW236444   0.754   2.080   8.177  0.4331 -0.7581 -2.3189
 8271SOL     OW36445   2.979   3.844  14.023  0.0245 -0.0346  0.4554
 8271SOL    HW136446   3.068   3.847  13.989  0.0208 -0.6378  0.3801
 8271SOL    HW236447   2.964   3.754  13.992  1.1220  0.6961 -2.1898
 8272SOL     OW36448   1.491   4.620   7.208 -0.3246  0.0387 -0.6086
 8272SOL    HW136449   1.432   4.554   7.172  0.4697 -0.6199 -0.6779
 8272SOL    HW236450   1.487   4.685   7.138 -0.9082  0.5123 -0.1480
 8273SOL     OW36451   0.614   2.232   1.268 -0.1497 -0.0564  0.6859
 8273SOL    HW136452   0.567   2.161   1.224  0.2825  0.0142  0.1132
 8273SOL    HW236453   0.644   2.196   1.352 -0.7909 -0.0507  0.9181
 8274SOL     OW36454   3.802   0.306   8.320  0.3068  0.0072 -0.2812
 8274SOL    HW136455   3.879   0.357   8.347  0.3573 -0.7227  0.9041
 8274SOL    HW236456   3.837   0.217   8.316 -0.7464 -0.2935 -3.1290
 8275SOL     OW36457   1.976   4.541   4.369 -0.3876  0.7360  0.0931
 8275SOL    HW136458   1.959   4.481   4.441 -3.1931  0.5745 -0.7002
 8275SOL    HW236459   1.898   4.597   4.370 -1.1294 -0.2587 -2.1227
 8276SOL     OW36460   2.902   4.339   1.714  0.9221  0.7202  0.5047
 8276SOL    HW136461   2.836   4.271   1.703  0.4351  1.1138  0.9820
 8276SOL    HW236462   2.855   4.414   1.679  0.9721  0.0312 -1.0121
 8277SOL     OW36463   1.804   0.383   5.311  0.1306 -0.1856 -0.9862
 8277SOL    HW136464   1.877   0.325   5.292 -0.0157 -0.2052 -1.5027
 8277SOL    HW236465   1.732   0.325   5.285 -2.3124  2.0666  0.7119
 8278SOL     OW36466   0.205   0.189   5.819 -0.4599  0.0486  0.0289
 8278SOL    HW136467   0.298   0.187   5.796 -0.1725  0.3429  1.1713
 8278SOL    HW236468   0.180   0.280   5.803  1.2165  0.3709 -0.6758
 8279SOL     OW36469   3.021   4.311   5.275 -0.0002 -0.0213  0.3231
 8279SOL    HW136470   2.935   4.352   5.287 -0.7458 -2.1508  2.5253
 8279SOL    HW236471   3.081   4.376   5.239 -1.7921  0.8298 -1.1255
 8280SOL     OW36472   0.737   0.811   2.408 -0.1553 -0.1683 -0.2248
 8280SOL    HW136473   0.813   0.851   2.451  0.3054 -2.6140  1.2669
 8280SOL    HW236474   0.682   0.809   2.487 -0.7456  3.1611 -0.5788
 8281SOL     OW36475   0.987   2.662  15.510  0.5394  0.7412  0.2871
 8281SOL    HW136476   0.976   2.752  15.540 -2.7372 -0.5589  3.0834
 8281SOL    HW236477   0.896   2.638  15.490 -0.7803  3.0897  3.5350
 8282SOL     OW36478   2.266   1.217  12.286 -0.5102 -0.2837 -0.3888
 8282SOL    HW136479   2.337   1.253  12.339 -1.6805  1.5870 -0.0998
 8282SOL    HW236480   2.319   1.197  12.209  0.6404  1.5060 -0.0461
 8283SOL     OW36481   2.118   1.459   9.364 -0.2072  0.0843  0.4805
 8283SOL    HW136482   2.063   1.450   9.286  0.8567  2.2671 -0.5029
 8283SOL    HW236483   2.166   1.541   9.349  0.2033 -0.1671  0.4323
 8284SOL     OW36484   1.375   0.808  14.446 -0.3439  0.1345 -0.0895
 8284SOL    HW136485   1.455   0.774  14.407  0.4477 -0.3964  1.9957
 8284SOL    HW236486   1.378   0.762  14.530  1.9421  1.8916  0.7864
 8285SOL     OW36487   1.729   2.515   3.084 -0.2123 -0.3732 -0.4044
 8285SOL    HW136488   1.764   2.573   3.017  1.0331  1.2467  1.6584
 8285SOL    HW236489   1.680   2.579   3.135  2.8429  1.6403 -0.0121
 8286SOL     OW36490   4.386   3.463   5.607  0.9224  0.3316  0.1375
 8286SOL    HW136491   4.425   3.394   5.554 -0.1551  0.0336 -0.2652
 8286SOL    HW236492   4.296   3.442   5.584  0.7654  1.9602 -0.7414
 8287SOL     OW36493   0.554   2.772  10.106 -0.4340 -0.3878  0.2534
 8287SOL    HW136494   0.493   2.737  10.041  1.3085 -2.8569 -0.0661
 8287SOL    HW236495   0.506   2.750  10.186  0.9470 -0.0734  1.1590
 8288SOL     OW36496   1.043   0.774  14.881 -0.3325 -0.4586 -0.4754
 8288SOL    HW136497   0.970   0.762  14.820 -1.5287 -0.3896  0.9465
 8288SOL    HW236498   1.080   0.687  14.866 -1.6109 -1.5333  2.4997
 8289SOL     OW36499   0.821   1.215   7.238 -0.5048  0.3546 -0.7544
 8289SOL    HW136500   0.760   1.171   7.297 -1.8101  0.0787 -2.3094
 8289SOL    HW236501   0.811   1.168   7.155  0.7624  0.2261 -0.8350
 8290SOL     OW36502   3.224   1.898  12.797 -0.0184  0.2291 -0.3974
 8290SOL    HW136503   3.237   1.973  12.739  0.3747  0.0259 -0.5721
 8290SOL    HW236504   3.146   1.927  12.844  2.0953  1.1408  2.5558
 8291SOL     OW36505   0.772   0.821   9.006 -0.5785 -0.5936  0.4230
 8291SOL    HW136506   0.856   0.776   9.006 -0.0948  0.3388 -1.1199
 8291SOL    HW236507   0.793   0.908   8.974  0.7589 -1.4468 -0.9604
 8292SOL     OW36508   3.200   2.115   0.856 -0.3783  0.1313  0.4168
 8292SOL    HW136509   3.244   2.172   0.792 -0.2609 -0.0561  0.3274
 8292SOL    HW236510   3.108   2.139   0.845 -0.6775 -0.4941  1.5412
 8293SOL     OW36511   2.574   2.999   2.928  0.0973  0.4434 -0.4328
 8293SOL    HW136512   2.549   2.919   2.881  0.4141 -0.7365  1.3950
 8293SOL    HW236513   2.555   2.982   3.020  4.7849 -1.6065  0.1571
 8294SOL     OW36514   1.321   2.726   5.623 -0.1725  0.0225 -0.7912
 8294SOL    HW136515   1.378   2.800   5.645 -0.5922  0.5098 -1.3280
 8294SOL    HW236516   1.262   2.744   5.695  2.0103  2.6390  0.3453
 8295SOL     OW36517   1.987   3.185   2.413 -0.3713  0.5373  0.2454
 8295SOL    HW136518   1.985   3.233   2.330  0.8484 -0.6974 -0.5071
 8295SOL    HW236519   2.078   3.191   2.444 -1.1118  3.3769  1.8666
 8296SOL     OW36520   0.340   1.962  12.029 -0.3683 -0.2263 -0.9701
 8296SOL    HW136521   0.420   2.013  12.016 -0.2150 -0.7015 -1.8944
 8296SOL    HW236522   0.296   2.021  12.090 -0.7670  0.1947 -1.6627
 8297SOL     OW36523   4.273   3.568  13.546  0.9160 -0.0669  0.0869
 8297SOL    HW136524   4.205   3.501  13.553  0.8734 -0.2182 -1.8680
 8297SOL    HW236525   4.288   3.578  13.453  2.0207  0.9990  0.3865
 8298SOL     OW36526   0.758   2.825  17.527 -0.2949  0.1490  0.2227
 8298SOL    HW136527   0.729   2.894  17.587 -0.6388  0.5035 -0.3572
 8298SOL    HW236528   0.848   2.823  17.559 -0.1187 -0.8583 -0.3346
 8299SOL     OW36529   3.160   2.207   1.315  0.0577 -0.2189  0.0876
 8299SOL    HW136530   3.089   2.190   1.253 -0.5092  0.2069  0.6201
 8299SOL    HW236531   3.184   2.298   1.298 -0.2200  0.5836  3.8650
 8300SOL     OW36532   2.762   4.215  17.308  0.5532 -0.5327 -0.1244
 8300SOL    HW136533   2.799   4.127  17.303 -2.2680 -1.6379 -1.4641
 8300SOL    HW236534   2.841   4.269  17.305 -1.5244  2.5253 -0.4868
 8301SOL     OW36535   3.105   1.562   8.459  0.3265  0.4014  0.2126
 8301SOL    HW136536   3.159   1.633   8.494  0.6668 -1.5851  3.7848
 8301SOL    HW236537   3.020   1.603   8.448  0.8354  1.6115  0.7620
 8302SOL     OW36538   2.525   4.642   6.693  0.4403  0.7761 -0.3389
 8302SOL    HW136539   2.473   4.596   6.627  2.4975 -2.1487  0.1144
 8302SOL    HW236540   2.575   4.569   6.728 -0.0294  1.2490  1.3161
 8303SOL     OW36541   3.257   4.460  17.291 -0.0731 -0.1609  0.0541
 8303SOL    HW136542   3.340   4.424  17.320  2.2565  4.7587 -0.5290
 8303SOL    HW236543   3.251   4.534  17.352  0.2626  3.5141 -4.3776
 8304SOL     OW36544   1.609   3.229   3.937 -0.1932 -0.2117  0.2654
 8304SOL    HW136545   1.682   3.290   3.927 -0.5096 -0.2848 -2.3885
 8304SOL    HW236546   1.641   3.149   3.895  1.0569  0.4347 -0.0026
 8305SOL     OW36547   4.249   2.980   1.765  0.1277  0.5077 -0.5344
 8305SOL    HW136548   4.279   3.070   1.778  1.0957  0.5289 -2.8416
 8305SOL    HW236549   4.325   2.928   1.790  0.7391  1.7221  0.1351
 8306SOL     OW36550   0.914   2.606   0.030  0.1598 -0.1723  0.3004
 8306SOL    HW136551   0.997   2.575   0.065  1.0949  2.0958  0.0324
 8306SOL    HW236552   0.944   2.667  17.713  0.5769 -1.0972 -0.3550
 8307SOL     OW36553   1.878   3.022   3.170  0.0278  0.2885  0.0739
 8307SOL    HW136554   1.881   2.995   3.079  1.5909 -1.9935  0.7962
 8307SOL    HW236555   1.962   3.068   3.169  1.1144 -1.7626 -1.9061
 8308SOL     OW36556   1.635   4.028  12.076  0.0084 -0.5893  0.1806
 8308SOL    HW136557   1.565   4.066  12.129  0.1816  1.3669 -0.9565
 8308SOL    HW236558   1.609   4.060  11.989 -0.0473  1.8625  1.0903
 8309SOL     OW36559   3.120   2.209   8.837 -0.2924  0.1663  0.3389
 8309SOL    HW136560   3.153   2.291   8.873 -4.7777  2.9399 -1.9746
 8309SOL    HW236561   3.196   2.188   8.783 -1.2231 -0.9574 -0.5422
 8310SOL     OW36562   4.376   4.390   3.797 -0.1665  0.3380 -0.3104
 8310SOL    HW136563   4.443   4.454   3.773  1.4216 -1.6913 -1.2960
 8310SOL    HW236564   4.341   4.439   3.872  2.1118  0.6032  0.5894
 8311SOL     OW36565   1.844   3.163   7.303 -0.3405  0.1892 -0.0331
 8311SOL    HW136566   1.763   3.195   7.342 -0.4124  1.5898 -1.3332
 8311SOL    HW236567   1.806   3.128   7.223  0.4863  0.4387 -0.5389
 8312SOL     OW36568   4.393   4.260   2.566 -0.4401  0.5258 -0.0756
 8312SOL    HW136569   4.396   4.202   2.642  0.1028 -2.2899 -2.2462
 8312SOL    HW236570   4.451   4.328   2.599 -0.7756 -0.1833  1.9552
 8313SOL     OW36571   3.289   4.679   5.347  0.3960  0.0453  0.6594
 8313SOL    HW136572   3.244   4.612   5.296  0.7475  0.8386 -0.6928
 8313SOL    HW236573   3.279   4.646   5.436 -1.8903 -1.7959 -0.2926
 8314SOL     OW36574   0.098   1.770   4.838  0.5608 -0.3579  0.5288
 8314SOL    HW136575   0.143   1.817   4.768  0.1598  1.1740  1.2768
 8314SOL    HW236576   0.024   1.729   4.793 -0.3542  1.1731  0.6350
 8315SOL     OW36577   1.187   2.259   5.200 -0.6316 -0.0766 -0.2417
 8315SOL    HW136578   1.137   2.252   5.119 -1.6800  1.4428  0.2669
 8315SOL    HW236579   1.275   2.280   5.170 -1.2200  1.2382 -1.0646
 8316SOL     OW36580   0.703   1.377   9.216 -0.2617  0.3560 -0.5491
 8316SOL    HW136581   0.618   1.342   9.187  0.6578 -2.2350 -0.0682
 8316SOL    HW236582   0.714   1.350   9.307  2.5314  0.7448 -0.7956
 8317SOL     OW36583   2.412   2.543   5.668 -0.1266  0.2720  0.1033
 8317SOL    HW136584   2.349   2.550   5.596 -0.2731 -0.3583  0.1660
 8317SOL    HW236585   2.355   2.504   5.735  1.0227  0.6789  1.3134
 8318SOL     OW36586   1.931   4.210   9.531  0.3644  0.2806  0.3195
 8318SOL    HW136587   1.975   4.132   9.494 -1.0151 -1.4535  2.3259
 8318SOL    HW236588   1.982   4.280   9.492  0.7566  0.1269  0.5482
 8319SOL     OW36589   4.634   2.794   9.847 -0.3850  0.2511 -0.3428
 8319SOL    HW136590   4.592   2.845   9.915 -1.3792 -0.7009 -0.2350
 8319SOL    HW236591   4.610   2.844   9.769 -0.0067 -1.0746 -1.3144
 8320SOL     OW36592   3.586   2.398  11.140 -0.1879 -0.4787  0.6801
 8320SOL    HW136593   3.648   2.423  11.072  0.7109 -0.3726  1.5325
 8320SOL    HW236594   3.538   2.479  11.154  0.9733 -0.0525  2.1598
 8321SOL     OW36595   0.751   3.724  16.312 -0.1330  0.6709  0.9103
 8321SOL    HW136596   0.694   3.732  16.388  0.2564 -1.3183  1.4065
 8321SOL    HW236597   0.711   3.795  16.262 -0.4000  0.6409  1.0819
 8322SOL     OW36598   0.192   2.235   7.370 -0.1247 -0.2322  0.0704
 8322SOL    HW136599   0.280   2.243   7.408  0.7066  1.4432 -2.1726
 8322SOL    HW236600   0.206   2.217   7.277 -1.5815 -0.7835 -0.0454
 8323SOL     OW36601   0.664   2.482   1.171  0.1596  0.0277  0.3080
 8323SOL    HW136602   0.648   2.395   1.207  0.7565  0.8072  2.4784
 8323SOL    HW236603   0.759   2.497   1.177  0.4959 -0.5658 -3.7023
 8324SOL     OW36604   4.100   1.643   8.150  0.4207  0.0228  0.0313
 8324SOL    HW136605   4.011   1.667   8.126 -0.8797 -1.8270  3.0140
 8324SOL    HW236606   4.139   1.623   8.064  2.0043  1.1081  0.4919
 8325SOL     OW36607   3.907   3.102   2.665 -0.5524 -0.4423 -0.0207
 8325SOL    HW136608   3.927   3.101   2.758 -3.2949 -1.1421  0.5673
 8325SOL    HW236609   3.946   3.188   2.652  2.1247 -1.7310 -0.4948
 8326SOL     OW36610   3.084   0.486   5.542 -0.1845  0.9207 -0.2332
 8326SOL    HW136611   3.114   0.478   5.452 -0.4808  2.5741 -0.4711
 8326SOL    HW236612   3.051   0.576   5.545  1.4875  1.5629 -1.1758
 8327SOL     OW36613   0.500   4.613   5.598  0.0409 -0.0992 -0.2107
 8327SOL    HW136614   0.562   4.617   5.526  0.3872  0.6414  0.1304
 8327SOL    HW236615   0.554   4.656   5.664 -2.4521  1.0955  1.0769
 8328SOL     OW36616   3.494   4.189   4.893 -0.0766  0.2223  0.4433
 8328SOL    HW136617   3.471   4.221   4.805  0.1737 -1.3287 -0.1882
 8328SOL    HW236618   3.500   4.097   4.868  1.4972  0.8810 -1.6330
 8329SOL     OW36619   3.025   1.953   7.214 -0.3005 -0.2529 -0.1590
 8329SOL    HW136620   3.040   1.986   7.303 -1.8132  1.6738 -0.6160
 8329SOL    HW236621   2.945   1.905   7.234 -1.8062  1.6033 -1.7380
 8330SOL     OW36622   1.125   4.159   9.511  0.6395 -0.2145 -0.0196
 8330SOL    HW136623   1.139   4.151   9.606  0.5423  0.6882  0.0707
 8330SOL    HW236624   1.175   4.236   9.485  0.6454 -0.0114  0.5897
 8331SOL     OW36625   0.661   2.488   2.033  0.2694 -0.2957 -0.3808
 8331SOL    HW136626   0.672   2.429   2.107 -1.7254  1.2038  1.0972
 8331SOL    HW236627   0.732   2.551   2.042  1.1249 -1.2344 -0.5399
 8332SOL     OW36628   4.594   2.361   3.932 -0.0699  0.3904  0.2511
 8332SOL    HW136629   4.615   2.448   3.965  0.8572  0.0699  0.4910
 8332SOL    HW236630   4.559   2.322   4.012  0.5381  2.3284  1.4637
 8333SOL     OW36631   3.642   1.210  10.335 -0.0754  0.1046 -0.4761
 8333SOL    HW136632   3.560   1.218  10.286 -0.7722 -0.7790  0.5655
 8333SOL    HW236633   3.618   1.153  10.407  0.7194  0.5174  0.1172
 8334SOL     OW36634   1.450   4.676   3.763  0.2883  0.3346 -0.1632
 8334SOL    HW136635   1.543   4.673   3.738  0.3773  0.3134  0.1631
 8334SOL    HW236636   1.404   4.668   3.680  2.6789  1.3126 -1.5947
 8335SOL     OW36637   2.852   0.257   9.775  0.3241  0.2833 -0.0244
 8335SOL    HW136638   2.942   0.225   9.784 -0.0993 -1.3324 -1.5953
 8335SOL    HW236639   2.837   0.310   9.853  0.2346  1.0926 -0.5900
 8336SOL     OW36640   2.791   3.224   1.627  0.3795 -0.6362 -0.0189
 8336SOL    HW136641   2.715   3.218   1.569  0.6200 -0.4003 -0.3619
 8336SOL    HW236642   2.827   3.136   1.613  1.4407 -0.2961  0.5455
 8337SOL     OW36643   2.409   0.221   9.477  0.1038  0.2548 -0.6571
 8337SOL    HW136644   2.425   0.144   9.532  0.5233 -0.4328 -1.7253
 8337SOL    HW236645   2.492   0.235   9.432  0.2707  0.3100 -0.3333
 8338SOL     OW36646   2.812   1.222   9.359 -0.1886 -0.7520 -0.0653
 8338SOL    HW136647   2.815   1.170   9.439  1.8693 -0.5058  0.0208
 8338SOL    HW236648   2.823   1.150   9.296 -0.7755 -0.0279 -0.9996
 8339SOL     OW36649   0.604   1.050   5.607 -0.1355 -0.2587  0.1896
 8339SOL    HW136650   0.597   1.073   5.515  1.6968  0.3506  0.2093
 8339SOL    HW236651   0.661   1.119   5.642  2.2839 -1.4013 -1.5593
 8340SOL     OW36652   3.395   0.523  12.195 -0.1788 -0.3311  0.5480
 8340SOL    HW136653   3.391   0.429  12.211 -2.4532 -0.4374 -0.6279
 8340SOL    HW236654   3.467   0.528  12.132  0.0205 -1.0903  0.7094
 8341SOL     OW36655   0.152   0.479   8.245 -0.0878 -0.3877 -0.3771
 8341SOL    HW136656   0.178   0.391   8.273  1.0027  0.4953  1.3694
 8341SOL    HW236657   0.151   0.529   8.326 -2.1757  2.2390 -2.0282
 8342SOL     OW36658   2.931   3.862   1.931  0.0080 -0.1106  0.2047
 8342SOL    HW136659   2.947   3.851   1.837 -1.5940  1.7925 -0.2919
 8342SOL    HW236660   2.865   3.931   1.925  1.4116  1.1534 -0.7404
 8343SOL     OW36661   3.881   3.578   8.744  0.3912  0.1713  0.1441
 8343SOL    HW136662   3.823   3.508   8.712 -0.9134  1.5864 -0.5895
 8343SOL    HW236663   3.811   3.637   8.771 -0.0422 -1.3639  2.3614
 8344SOL     OW36664   1.174   0.673  12.346 -0.0251  0.1236  0.1967
 8344SOL    HW136665   1.137   0.628  12.270 -1.1486 -1.5451  1.7477
 8344SOL    HW236666   1.197   0.763  12.321 -0.6675 -0.3434 -2.0655
 8345SOL     OW36667   2.963   2.579  13.504 -0.2424  0.0727 -0.4880
 8345SOL    HW136668   2.934   2.562  13.594  0.2811  1.2073 -0.1065
 8345SOL    HW236669   3.007   2.496  13.487  0.8808  0.9452 -1.7827
 8346SOL     OW36670   2.885   3.416   4.833 -0.4087 -0.0237 -0.2057
 8346SOL    HW136671   2.860   3.333   4.793  0.0038 -1.5283  2.6466
 8346SOL    HW236672   2.871   3.393   4.924  1.6007  0.3903  0.2223
 8347SOL     OW36673   3.317   3.273   4.699 -0.2930 -0.4777  0.0369
 8347SOL    HW136674   3.315   3.214   4.775 -0.8389 -0.1348  0.2861
 8347SOL    HW236675   3.367   3.347   4.732 -2.2793  1.2397 -0.7910
 8348SOL     OW36676   1.235   1.990   3.245 -0.0185  0.1746  0.8270
 8348SOL    HW136677   1.300   2.029   3.186 -0.1027 -1.6923 -0.5089
 8348SOL    HW236678   1.179   2.066   3.258 -1.5890 -0.5231 -2.0197
 8349SOL     OW36679   2.550   0.503  12.238  0.0955 -1.4309  0.4730
 8349SOL    HW136680   2.492   0.538  12.306  2.0345 -0.8967  1.8523
 8349SOL    HW236681   2.524   0.558  12.165  0.8703 -1.2304  0.3570
 8350SOL     OW36682   1.646   0.639   3.606  1.0791 -0.2544  0.4137
 8350SOL    HW136683   1.682   0.608   3.689  0.0573 -2.1629  0.1535
 8350SOL    HW236684   1.554   0.652   3.630  0.7836  0.0547 -0.8872
 8351SOL     OW36685   1.450   2.779   1.629  0.0440 -0.0609 -0.1049
 8351SOL    HW136686   1.475   2.784   1.721  0.4030  0.7653 -0.2445
 8351SOL    HW236687   1.366   2.824   1.633 -0.0365 -0.2152 -0.0905
 8352SOL     OW36688   3.717   0.186   2.978 -0.2873  0.1597  0.3353
 8352SOL    HW136689   3.678   0.105   3.013 -2.6910  0.4800 -1.5706
 8352SOL    HW236690   3.635   0.220   2.941 -0.8065 -0.3653  0.9865
 8353SOL     OW36691   2.634   2.191   2.129 -0.3386 -0.5840 -0.4562
 8353SOL    HW136692   2.674   2.170   2.044  0.2006 -0.4894 -0.2302
 8353SOL    HW236693   2.543   2.173   2.109 -0.0976  0.2389 -2.2205
 8354SOL     OW36694   0.757   2.984   2.514  0.1892  0.1576 -0.6970
 8354SOL    HW136695   0.801   2.924   2.575 -1.0762  0.8839  0.9466
 8354SOL    HW236696   0.671   2.942   2.515  1.1087 -1.7322 -1.1002
 8355SOL     OW36697   0.439   0.929   2.231 -0.3397 -0.0477 -0.1136
 8355SOL    HW136698   0.518   0.888   2.198  0.3809  0.0403  1.4748
 8355SOL    HW236699   0.473   1.012   2.264 -0.1762 -1.0203  2.1584
 8356SOL     OW36700   1.417   1.370   7.401 -0.0934  0.7081 -0.3311
 8356SOL    HW136701   1.487   1.318   7.361 -1.5606  0.4604 -2.5842
 8356SOL    HW236702   1.462   1.455   7.407 -0.3018  0.9599 -2.2274
 8357SOL     OW36703   3.499   2.138   2.946 -0.2357 -0.5749  0.0867
 8357SOL    HW136704   3.563   2.074   2.977  0.8855  0.1353 -0.7685
 8357SOL    HW236705   3.417   2.090   2.936  1.2513 -3.0651 -0.2553
 8358SOL     OW36706   4.654   0.103   2.378 -0.0267 -0.2121 -0.8477
 8358SOL    HW136707   4.615   0.058   2.303 -0.1174  1.1898 -1.6375
 8358SOL    HW236708   4.624   0.190   2.351 -0.2674 -0.0457 -0.0367
 8359SOL     OW36709   2.765   0.054   5.504  0.5527 -0.8711 -0.0667
 8359SOL    HW136710   2.811   0.128   5.543 -0.6810 -0.4283  0.5362
 8359SOL    HW236711   2.674   0.070   5.530  0.6070  0.5133 -0.6854
 8360SOL     OW36712   3.546   0.997   6.934 -0.3934 -0.3613  0.2887
 8360SOL    HW136713   3.556   1.077   6.882  1.0958  1.1070  2.8250
 8360SOL    HW236714   3.477   0.957   6.882  1.9550 -2.7341 -0.9781
 8361SOL     OW36715   2.520   2.403   6.067  0.0822 -0.2139 -0.8217
 8361SOL    HW136716   2.477   2.487   6.079 -0.7218 -0.6398 -0.7602
 8361SOL    HW236717   2.545   2.371   6.154  0.4471 -1.2019 -1.2894
 8362SOL     OW36718   4.231   3.846   6.158  0.0696 -0.2758  0.2142
 8362SOL    HW136719   4.231   3.941   6.148  0.3254 -0.5118 -2.1335
 8362SOL    HW236720   4.139   3.823   6.140 -0.0068  2.2300 -2.7003
 8363SOL     OW36721   0.276   2.331   9.424  0.2858  0.5210  0.3535
 8363SOL    HW136722   0.274   2.413   9.375  3.3295  0.4150  0.0627
 8363SOL    HW236723   0.221   2.360   9.496  0.5457  0.9579  0.3765
 8364SOL     OW36724   4.553   3.334   4.260 -0.6411  0.3909 -0.2314
 8364SOL    HW136725   4.578   3.350   4.169 -0.1391 -0.2385 -0.1991
 8364SOL    HW236726   4.499   3.412   4.277 -0.7455  0.4372 -0.7824
 8365SOL     OW36727   0.076   4.730   8.653  0.3247  0.3234 -0.2618
 8365SOL    HW136728   0.064   4.670   8.578 -0.4563  1.2741 -0.8994
 8365SOL    HW236729   4.734   4.715   8.703 -1.8996  0.5781 -3.6948
 8366SOL     OW36730   2.099   3.746   2.219  0.4791 -0.3730  0.2089
 8366SOL    HW136731   2.112   3.759   2.125 -1.6759 -1.4428 -0.2289
 8366SOL    HW236732   2.103   3.833   2.258 -0.2498 -0.4314  0.4166
 8367SOL     OW36733   0.345   1.316   8.848  0.1211 -0.0456 -0.0739
 8367SOL    HW136734   0.374   1.300   8.937 -0.1601  1.9903  0.3806
 8367SOL    HW236735   0.284   1.390   8.854  0.3769  0.2730 -1.3000
 8368SOL     OW36736   0.444   2.501   1.855  0.0404 -0.1300  0.0032
 8368SOL    HW136737   0.449   2.560   1.779  0.6827  1.0693  0.9774
 8368SOL    HW236738   0.520   2.529   1.906 -0.5660 -0.0681  0.8757
 8369SOL     OW36739   2.888   2.090   8.856 -0.0983 -0.5992 -0.3820
 8369SOL    HW136740   2.971   2.136   8.843 -2.0622  2.8904 -0.5380
 8369SOL    HW236741   2.838   2.143   8.795  0.0727 -0.1104 -0.0935
 8370SOL     OW36742   2.320   4.017   6.302 -0.0066  0.4127  0.2259
 8370SOL    HW136743   2.251   4.082   6.288 -0.8743 -0.2405  1.4656
 8370SOL    HW236744   2.316   3.955   6.229  3.0788 -0.3835  0.7430
 8371SOL     OW36745   1.067   1.972   8.674  0.4440  0.3804  0.0655
 8371SOL    HW136746   1.007   1.939   8.741 -0.1072 -0.8894 -1.0431
 8371SOL    HW236747   1.037   1.929   8.593 -0.6918  0.7510  0.2901
 8372SOL     OW36748   2.673   3.034   0.413 -0.1853 -0.6338 -0.1372
 8372SOL    HW136749   2.709   3.044   0.325  0.4009  1.7843  0.3869
 8372SOL    HW236750   2.735   2.970   0.449  0.4604 -0.6535 -1.2718
 8373SOL     OW36751   1.812   1.279   9.358  0.4353 -0.2610 -0.4754
 8373SOL    HW136752   1.844   1.232   9.281 -0.5248 -1.7695  0.0453
 8373SOL    HW236753   1.897   1.313   9.385  0.8896 -0.9712 -0.9898
 8374SOL     OW36754   3.565   3.129   9.787 -0.1297  0.9414 -0.1679
 8374SOL    HW136755   3.610   3.163   9.864 -0.6760 -0.1261  0.6322
 8374SOL    HW236756   3.480   3.108   9.826  0.0445 -1.0912 -0.8952
 8375SOL     OW36757   3.802   1.746   6.603 -0.4774 -0.1643 -0.6758
 8375SOL    HW136758   3.729   1.687   6.621 -1.3241  0.9484 -0.4362
 8375SOL    HW236759   3.846   1.701   6.531 -2.7950 -2.7306 -0.4696
 8376SOL     OW36760   3.570   1.948   5.137 -0.5256  0.2649 -0.1432
 8376SOL    HW136761   3.557   2.010   5.065 -2.0056 -0.3858 -0.4388
 8376SOL    HW236762   3.631   1.881   5.104  0.0538  0.9038 -0.3724
 8377SOL     OW36763   1.391   4.657   9.504  0.4459 -0.1230 -0.2545
 8377SOL    HW136764   1.431   4.624   9.424  2.4151 -0.1045  0.7190
 8377SOL    HW236765   1.470   4.662   9.558  0.5562 -1.8817 -0.2521
 8378SOL     OW36766   4.068   0.969   1.012  0.2479 -0.2766  0.2361
 8378SOL    HW136767   4.152   0.925   0.999 -0.9113 -2.6726  0.7479
 8378SOL    HW236768   4.013   0.905   0.966 -2.1098  3.1847 -1.7135
 8379SOL     OW36769   4.142   0.242   6.201  0.4414 -0.1782  0.3165
 8379SOL    HW136770   4.230   0.221   6.171  1.0539  3.5538 -0.4831
 8379SOL    HW236771   4.154   0.280   6.288 -1.8518  1.5007 -0.1162
 8380SOL     OW36772   4.048   3.438  17.006 -0.5838 -0.1932  0.5511
 8380SOL    HW136773   4.043   3.409  17.098  1.9809  0.9543  1.0480
 8380SOL    HW236774   4.101   3.369  16.967 -1.0046  1.6157 -3.1383
 8381SOL     OW36775   3.206   2.045   4.020  0.1425 -0.7397  0.2973
 8381SOL    HW136776   3.210   1.979   4.089  1.1709 -3.0778 -1.9595
 8381SOL    HW236777   3.249   2.121   4.059  0.6247 -0.8184 -0.0838
 8382SOL     OW36778   0.761   3.607   9.438  0.4216  0.6340  0.1687
 8382SOL    HW136779   0.735   3.586   9.349  0.3895 -1.2982  0.6286
 8382SOL    HW236780   0.780   3.700   9.425  1.2792  0.1642 -1.8257
 8383SOL     OW36781   2.967   2.133   9.399 -0.3828  0.2607  0.2784
 8383SOL    HW136782   3.037   2.197   9.385  1.8891 -2.3322 -0.0803
 8383SOL    HW236783   2.998   2.062   9.343 -1.3893  0.3927 -0.4550
 8384SOL     OW36784   2.008   1.162  16.778  0.1121  0.4022  0.1932
 8384SOL    HW136785   2.102   1.177  16.778  0.1994 -0.0214  3.7294
 8384SOL    HW236786   1.980   1.234  16.722  1.3519  0.1776 -0.6983
 8385SOL     OW36787   1.221   1.744   3.712 -0.1468  0.2244 -0.4618
 8385SOL    HW136788   1.261   1.816   3.663 -2.3299  0.0902 -2.4363
 8385SOL    HW236789   1.167   1.784   3.780 -3.0715 -2.3218 -1.3301
 8386SOL     OW36790   0.234   2.099   8.844 -0.4608 -0.0760  0.1868
 8386SOL    HW136791   0.236   2.039   8.769  0.3063 -0.8633  0.8373
 8386SOL    HW236792   0.320   2.134   8.820 -0.7735  1.2581  1.0116
 8387SOL     OW36793   2.369   1.081  14.305 -0.5264 -0.6569 -0.1041
 8387SOL    HW136794   2.364   1.128  14.221  1.7517 -0.0241  0.1225
 8387SOL    HW236795   2.283   1.098  14.345 -1.0705 -2.1212 -0.6715
 8388SOL     OW36796   2.167   0.372   3.064  0.3322  0.4870  0.0002
 8388SOL    HW136797   2.221   0.419   2.999  1.5537 -1.9403 -0.7225
 8388SOL    HW236798   2.202   0.284   3.069  2.8493  1.3743 -2.1844
 8389SOL     OW36799   1.297   4.333   8.748 -0.1003  0.3988  0.2041
 8389SOL    HW136800   1.328   4.416   8.713  0.4477 -0.1751 -0.6636
 8389SOL    HW236801   1.311   4.268   8.679 -1.1197  1.2125 -0.7780
 8390SOL     OW36802   1.171   1.030   4.543 -0.2080 -0.2972 -0.1108
 8390SOL    HW136803   1.083   1.015   4.509 -0.4666  0.3101  0.2866
 8390SOL    HW236804   1.203   1.101   4.487 -1.3916  0.7920  0.6011
 8391SOL     OW36805   0.401   3.424   2.447  0.3566 -0.6812  0.3500
 8391SOL    HW136806   0.366   3.492   2.505  2.4090  2.7357 -2.3889
 8391SOL    HW236807   0.479   3.472   2.417  1.0257 -2.1905 -0.2947
 8392SOL     OW36808   1.611   1.891   3.927 -0.1492 -0.6647  0.6110
 8392SOL    HW136809   1.669   1.937   3.987 -2.7982  1.0977  1.8474
 8392SOL    HW236810   1.660   1.896   3.845 -0.2064 -0.4409  0.5900
 8393SOL     OW36811   4.633   2.462   5.647  0.2777  0.9757 -0.1021
 8393SOL    HW136812   4.573   2.396   5.682 -0.9219  0.2930 -3.3783
 8393SOL    HW236813   4.670   2.414   5.573 -1.9468  0.3615 -0.8294
 8394SOL     OW36814   3.064   3.974   8.055 -0.1472 -0.0804  0.0610
 8394SOL    HW136815   3.146   3.946   8.095  0.3400 -0.3361 -1.1304
 8394SOL    HW236816   3.089   4.050   8.002 -1.3879 -0.1190 -0.5954
 8395SOL     OW36817   2.818   0.799   6.975 -0.3485  0.1691  0.0165
 8395SOL    HW136818   2.745   0.745   6.944  1.0112 -1.5682 -0.1372
 8395SOL    HW236819   2.877   0.784   6.901 -1.0526 -0.4312 -0.4357
 8396SOL     OW36820   1.421   2.294   9.208 -0.0464 -0.2967  0.5730
 8396SOL    HW136821   1.352   2.309   9.144  0.4427 -1.0630 -0.1503
 8396SOL    HW236822   1.471   2.221   9.170  0.4199  0.4665 -0.2684
 8397SOL     OW36823   0.961   1.162   2.009  0.0339 -0.7297  0.0386
 8397SOL    HW136824   0.943   1.105   2.084 -2.0724  0.4285  0.4338
 8397SOL    HW236825   0.909   1.242   2.023  2.4589  0.4036  2.5853
 8398SOL     OW36826   2.683   1.638   1.178  0.0398  0.1884 -0.2892
 8398SOL    HW136827   2.683   1.718   1.125  0.5997  0.3375 -0.0613
 8398SOL    HW236828   2.765   1.595   1.153  1.8255  2.3678  1.8275
 8399SOL     OW36829   4.279   2.960   8.442  0.4825  0.4467 -0.3720
 8399SOL    HW136830   4.197   2.997   8.472 -0.1987 -1.5534  0.2647
 8399SOL    HW236831   4.338   3.010   8.498  0.6043 -3.0436  2.6471
 8400SOL     OW36832   1.763   1.201   5.847  0.3432 -0.0244  0.4297
 8400SOL    HW136833   1.765   1.216   5.752 -1.6230 -3.3505 -0.1323
 8400SOL    HW236834   1.670   1.184   5.865 -0.0529  2.7219  1.0620
 8401SOL     OW36835   4.499   3.116   7.062 -0.3108 -0.5433  0.1187
 8401SOL    HW136836   4.416   3.076   7.037  0.3088 -2.5817  1.4198
 8401SOL    HW236837   4.532   3.037   7.103  2.3046 -0.1246 -1.1775
 8402SOL     OW36838   2.348   3.902   3.056 -0.2909 -0.1410  0.1863
 8402SOL    HW136839   2.442   3.916   3.059 -0.7038  2.5569  0.6039
 8402SOL    HW236840   2.332   3.870   3.145  0.2660 -1.6130 -0.2462
 8403SOL     OW36841   2.434   2.820   2.743  0.0455  0.1852 -0.5572
 8403SOL    HW136842   2.453   2.729   2.721 -2.4960 -1.1340  2.6671
 8403SOL    HW236843   2.354   2.803   2.793 -1.4624 -0.6694 -3.2336
 8404SOL     OW36844   4.116   2.685  15.951  0.4769 -0.8963  0.3772
 8404SOL    HW136845   4.161   2.701  16.034  2.2765  2.1413 -1.1998
 8404SOL    HW236846   4.196   2.663  15.903  0.5272  0.3371 -0.0913
 8405SOL     OW36847   1.029   0.466  16.333  0.2624 -0.2620 -0.1231
 8405SOL    HW136848   1.050   0.558  16.348 -1.5551 -0.1430  1.6238
 8405SOL    HW236849   0.971   0.465  16.257  1.1632 -1.9342 -0.8127
 8406SOL     OW36850   2.097   0.510   6.458 -0.1583 -0.5758 -0.2628
 8406SOL    HW136851   2.174   0.513   6.401 -0.6071  0.9575 -0.7974
 8406SOL    HW236852   2.100   0.586   6.516  1.3361 -2.0793  1.6269
 8407SOL     OW36853   3.800   1.592  12.672 -0.0082 -0.6226  0.1252
 8407SOL    HW136854   3.848   1.579  12.753 -2.0569 -0.3297  1.3904
 8407SOL    HW236855   3.714   1.563  12.703 -1.3075  2.3541 -0.7497
 8408SOL     OW36856   1.775   0.349   6.466  0.3144  0.2078  0.0585
 8408SOL    HW136857   1.718   0.356   6.543  0.4689  0.3212  0.1619
 8408SOL    HW236858   1.856   0.324   6.512 -0.0988  1.6919  1.5664
 8409SOL     OW36859   2.096   1.691   4.848 -0.7947 -0.0187  0.1046
 8409SOL    HW136860   2.166   1.689   4.913  1.9410 -2.6974 -2.9233
 8409SOL    HW236861   2.125   1.745   4.774  1.9560  0.4577  1.5207
 8410SOL     OW36862   4.091   3.329  15.638  0.4659 -0.3889  0.1683
 8410SOL    HW136863   4.082   3.247  15.590  0.6244 -1.6362  2.3115
 8410SOL    HW236864   4.038   3.390  15.586 -0.3915 -1.1445  0.1560
 8411SOL     OW36865   1.088   0.731   9.050 -0.3011  0.3184 -0.4466
 8411SOL    HW136866   1.149   0.720   8.977 -0.5952 -0.5816 -0.5518
 8411SOL    HW236867   1.131   0.675   9.114  0.0441  0.2096 -0.7770
 8412SOL     OW36868   4.344   0.334   7.264 -0.3209  0.4634 -0.6748
 8412SOL    HW136869   4.282   0.371   7.327 -1.3993  0.9232 -2.0159
 8412SOL    HW236870   4.399   0.408   7.235 -1.7576  2.0151  0.5411
 8413SOL     OW36871   3.155   2.048   3.507 -0.4546  0.5229 -0.2025
 8413SOL    HW136872   3.165   1.957   3.532  0.8639  0.5082 -0.8007
 8413SOL    HW236873   3.198   2.102   3.573  0.6772  1.2765 -1.5339
 8414SOL     OW36874   1.707   1.357   8.269 -0.1352  0.1206  0.1587
 8414SOL    HW136875   1.668   1.440   8.242 -0.4110  0.2638  0.9932
 8414SOL    HW236876   1.742   1.367   8.358 -0.4054 -1.5252  0.4515
 8415SOL     OW36877   0.769   0.447   9.218 -0.3393 -0.6821  0.5921
 8415SOL    HW136878   0.724   0.522   9.255  0.9836 -0.5340  1.9152
 8415SOL    HW236879   0.792   0.396   9.296 -1.3022 -0.5327  0.9667
 8416SOL     OW36880   0.234   0.969   5.175 -0.4016 -0.7394  0.2431
 8416SOL    HW136881   0.294   1.043   5.164 -0.2970 -0.8626 -0.0169
 8416SOL    HW236882   0.239   0.931   5.087  0.9093  0.9770 -0.4338
 8417SOL     OW36883   2.497   2.616   7.837  0.1654  0.1361 -0.1395
 8417SOL    HW136884   2.462   2.637   7.750 -1.8443 -0.0100  0.6316
 8417SOL    HW236885   2.575   2.565   7.816  0.2424  0.9838 -1.9646
 8418SOL     OW36886   0.813   4.190   8.413  0.3906 -0.2069  0.4028
 8418SOL    HW136887   0.811   4.252   8.486 -2.4854  1.8392 -1.3910
 8418SOL    HW236888   0.726   4.151   8.417  0.3956 -0.2655 -0.1130
 8419SOL     OW36889   4.497   3.060  17.506  0.2642  0.1998 -0.0370
 8419SOL    HW136890   4.496   2.968  17.530 -0.5249 -0.1374 -1.3360
 8419SOL    HW236891   4.414   3.091  17.542 -0.6375 -2.4981  0.1549
 8420SOL     OW36892   2.068   3.973  15.698 -0.2046 -0.0027  0.4429
 8420SOL    HW136893   2.096   3.933  15.616  1.4321 -0.8425  1.4054
 8420SOL    HW236894   2.003   4.038  15.671  0.2303 -0.4043 -1.5920
 8421SOL     OW36895   4.700   4.319   5.975  0.4532 -0.3362  0.0529
 8421SOL    HW136896   0.034   4.305   5.914  0.5461  0.4756 -0.0218
 8421SOL    HW236897   4.643   4.373   5.920  1.6601  1.7228  0.8392
 8422SOL     OW36898   0.832   2.263   1.537 -0.4542  0.1691 -0.1300
 8422SOL    HW136899   0.918   2.303   1.547 -1.0135  1.4773 -0.5843
 8422SOL    HW236900   0.769   2.335   1.529  0.2339  0.8050  0.2256
 8423SOL     OW36901   2.907   4.334   4.686 -0.5978 -0.4788  0.5771
 8423SOL    HW136902   2.854   4.255   4.676  2.3828 -2.2936 -0.8307
 8423SOL    HW236903   2.974   4.305   4.748 -0.0676  0.4321  0.4403
 8424SOL     OW36904   3.313   0.693   8.780 -0.4907 -0.1856  0.0347
 8424SOL    HW136905   3.224   0.659   8.770 -0.0417 -1.0095 -1.1866
 8424SOL    HW236906   3.309   0.766   8.718 -3.0369 -1.2471 -1.0136
 8425SOL     OW36907   2.856   0.493  13.420 -0.1087  0.1515 -0.0967
 8425SOL    HW136908   2.869   0.435  13.495 -0.3107  1.1307  0.6907
 8425SOL    HW236909   2.762   0.507  13.427  0.1714  0.9527  1.9924
 8426SOL     OW36910   4.663   3.990   3.294 -0.3273  0.0010  0.2817
 8426SOL    HW136911   4.620   3.944   3.366 -1.1364 -1.1022 -0.9144
 8426SOL    HW236912   4.624   4.076   3.280  0.6307  0.1155 -1.6654
 8427SOL     OW36913   2.401   4.671   2.419 -0.1802  0.1648  0.1318
 8427SOL    HW136914   2.456   0.008   2.399  2.1526 -1.8226 -0.8068
 8427SOL    HW236915   2.323   4.720   2.448 -0.1892 -0.1071  0.5755
 8428SOL     OW36916   3.100   3.774   6.611  0.0793 -0.0594 -0.1117
 8428SOL    HW136917   3.114   3.709   6.679 -0.2933 -0.5542 -0.5044
 8428SOL    HW236918   3.012   3.808   6.631  0.3096 -0.2396  1.1927
 8429SOL     OW36919   0.806   2.876   9.082  0.0119  0.2098  0.3654
 8429SOL    HW136920   0.885   2.896   9.033 -0.0710  0.0928  0.1867
 8429SOL    HW236921   0.827   2.900   9.173 -0.5801  0.3432  0.4687
 8430SOL     OW36922   1.686   0.478   2.840 -0.2473  0.4211  0.1160
 8430SOL    HW136923   1.775   0.485   2.805  0.2259 -1.4430  0.9344
 8430SOL    HW236924   1.683   0.553   2.899  0.6199  0.2057  0.4450
 8431SOL     OW36925   3.002   0.883   5.332 -0.4689  0.0842 -0.7587
 8431SOL    HW136926   3.085   0.844   5.360 -1.5697 -1.4053  0.4496
 8431SOL    HW236927   2.941   0.810   5.343 -0.6673  0.3993  0.2523
 8432SOL     OW36928   2.368   1.333   9.355 -0.0776 -0.4674  0.6781
 8432SOL    HW136929   2.276   1.356   9.368  0.1946  1.1615 -0.3049
 8432SOL    HW236930   2.413   1.382   9.424 -3.2877  1.6532  1.2433
 8433SOL     OW36931   2.598   1.564   8.832 -0.1999 -0.3576  0.3689
 8433SOL    HW136932   2.544   1.529   8.761  0.7745  1.2316 -1.1733
 8433SOL    HW236933   2.685   1.529   8.813  0.3183  0.4971  1.1745
 8434SOL     OW36934   2.920   2.715   5.110  0.0362  0.2230 -0.5234
 8434SOL    HW136935   2.824   2.707   5.111  0.1120 -1.0043 -2.5573
 8434SOL    HW236936   2.945   2.746   5.197 -1.4545 -0.1969  0.0498
 8435SOL     OW36937   4.193   3.240  12.107 -0.3212 -0.5798  0.2082
 8435SOL    HW136938   4.117   3.291  12.134  0.0506 -0.6997  1.4479
 8435SOL    HW236939   4.141   3.196  12.040  0.4893  1.0794 -1.5164
 8436SOL     OW36940   2.618   3.978   9.416  0.3934  0.3042 -0.0788
 8436SOL    HW136941   2.569   3.903   9.450  0.8664  0.0159 -0.0372
 8436SOL    HW236942   2.701   3.981   9.463  0.6324 -1.1636 -0.4038
 8437SOL     OW36943   2.235   2.516   4.304 -0.3644  0.2157 -0.3065
 8437SOL    HW136944   2.166   2.507   4.238 -0.5837  1.9889 -0.3196
 8437SOL    HW236945   2.261   2.424   4.313  1.2384  0.8484  1.3840
 8438SOL     OW36946   1.302   0.501  13.818 -0.4897  0.3167  0.1716
 8438SOL    HW136947   1.226   0.515  13.762 -1.1079  3.0146  1.6741
 8438SOL    HW236948   1.262   0.459  13.894  0.3779 -1.4628 -0.3488
 8439SOL     OW36949   1.842   2.926   9.013  0.2557  0.3138  0.2282
 8439SOL    HW136950   1.899   2.973   9.074  2.1529 -1.7535  0.0425
 8439SOL    HW236951   1.752   2.937   9.044 -0.5561 -1.4480 -1.4721
 8440SOL     OW36952   1.474   0.517   6.403 -0.4944 -0.1878  0.5741
 8440SOL    HW136953   1.406   0.470   6.452  0.5109 -0.4736  1.6789
 8440SOL    HW236954   1.464   0.469   6.321  0.1933 -1.1691  1.0741
 8441SOL     OW36955   3.898   0.700   1.799  0.0383  0.6794  0.2992
 8441SOL    HW136956   3.903   0.769   1.733 -0.6440  2.1795  1.8124
 8441SOL    HW236957   3.809   0.705   1.835 -1.6618  0.2182 -3.8379
 8442SOL     OW36958   0.485   3.995   7.492 -0.1189 -0.2046  0.7748
 8442SOL    HW136959   0.433   4.032   7.563  0.8770  0.6686  1.0620
 8442SOL    HW236960   0.571   4.020   7.527  0.8297 -0.0069 -1.6979
 8443SOL     OW36961   1.796   2.990   6.155 -0.3234 -0.3549 -0.5297
 8443SOL    HW136962   1.874   2.934   6.158 -0.1744 -0.1652 -0.8181
 8443SOL    HW236963   1.792   3.022   6.065  1.4426  2.3391  0.3606
 8444SOL     OW36964   0.794   1.390   5.604 -0.2933 -0.0068  0.4199
 8444SOL    HW136965   0.875   1.353   5.569  1.2340  3.1415  0.6650
 8444SOL    HW236966   0.748   1.428   5.530  1.6005  0.3576 -0.5779
 8445SOL     OW36967   4.449   1.607   5.960  0.6424 -0.0986  0.1618
 8445SOL    HW136968   4.517   1.547   5.929 -0.5935 -1.0934 -0.6014
 8445SOL    HW236969   4.390   1.542   5.998  0.4999 -0.3466 -0.5004
 8446SOL     OW36970   2.717   0.913  12.289  1.0461  0.1769  0.0966
 8446SOL    HW136971   2.799   0.962  12.279  0.8054  0.6884  0.6059
 8446SOL    HW236972   2.717   0.905  12.385 -1.8028  1.3785  0.2189
 8447SOL     OW36973   4.683   2.284  12.528  0.1800  0.5575  0.0834
 8447SOL    HW136974   4.628   2.362  12.531 -0.7817 -0.1612  1.4523
 8447SOL    HW236975   0.026   2.334  12.542  0.6733  0.7734 -3.6024
 8448SOL     OW36976   1.384   1.512  13.040  0.1479  0.3882 -0.6436
 8448SOL    HW136977   1.300   1.508  12.994 -1.0695  2.6247  1.3654
 8448SOL    HW236978   1.405   1.419  13.048 -0.8155  0.2015 -0.3376
 8449SOL     OW36979   1.959   0.512   0.082  0.0095  0.2626  0.0694
 8449SOL    HW136980   1.882   0.497   0.026 -0.5269 -1.9161  1.3970
 8449SOL    HW236981   2.006   0.430   0.069  1.1734  0.8155  0.7939
 8450SOL     OW36982   1.091   2.638   4.916 -0.0526 -0.4508  0.1458
 8450SOL    HW136983   1.073   2.640   5.010 -0.1478  2.8862  0.0487
 8450SOL    HW236984   1.137   2.721   4.909 -1.8613  0.4156 -1.3716
 8451SOL     OW36985   0.585   1.926   6.333 -0.3046  0.3080 -0.0156
 8451SOL    HW136986   0.512   1.866   6.347  0.4620 -0.8691 -1.0628
 8451SOL    HW236987   0.618   1.929   6.423  0.1203  1.9656 -0.2315
 8452SOL     OW36988   3.135   1.908  12.042 -0.2137 -0.4824 -0.0612
 8452SOL    HW136989   3.145   1.983  11.983  0.4149 -2.1893 -2.1311
 8452SOL    HW236990   3.213   1.916  12.097 -0.0995 -1.3443 -0.0892
 8453SOL     OW36991   3.687   4.488   8.200 -0.2991  0.2878  0.3760
 8453SOL    HW136992   3.740   4.479   8.121  0.3023 -1.5492  0.9969
 8453SOL    HW236993   3.723   4.426   8.263 -3.4060 -1.4638  0.4184
 8454SOL     OW36994   3.756   3.031  14.500 -0.0719  0.1029  0.5630
 8454SOL    HW136995   3.684   2.969  14.495  0.8171 -0.9910  1.4411
 8454SOL    HW236996   3.712   3.110  14.532  0.4850  0.1754  1.1519
 8455SOL     OW36997   1.105   4.707   5.310  0.0742  0.2967 -0.5219
 8455SOL    HW136998   1.106   0.040   5.246 -3.6690  0.4201 -0.4373
 8455SOL    HW236999   1.075   0.021   5.385 -0.6245  0.5477 -0.9771
 8456SOL     OW37000   3.111   2.209   1.583  0.3412  0.6804  0.4014
 8456SOL    HW137001   3.127   2.193   1.490  1.1892  3.3873  0.0819
 8456SOL    HW237002   3.189   2.247   1.623 -1.0652  3.8290  0.1555
 8457SOL     OW37003   2.546   1.559   1.638  0.1980  0.3949  0.0523
 8457SOL    HW137004   2.590   1.643   1.647 -1.7233  1.4408 -0.2700
 8457SOL    HW237005   2.551   1.527   1.548  0.4074 -0.0631  0.2288
 8458SOL     OW37006   2.480   3.823   2.657  0.0728  0.0824  0.3263
 8458SOL    HW137007   2.470   3.861   2.570  0.7111  0.2831  0.3399
 8458SOL    HW237008   2.568   3.857   2.674  1.7814 -4.5219  0.8181
 8459SOL     OW37009   0.840   4.602   5.246 -0.3834  0.2857 -0.4251
 8459SOL    HW137010   0.931   4.602   5.216 -0.3535 -1.0040 -0.3425
 8459SOL    HW237011   0.807   4.650   5.170  0.5458  0.0121 -0.9980
 8460SOL     OW37012   3.351   4.092   7.698  0.2549  0.2677  0.7586
 8460SOL    HW137013   3.348   4.148   7.775 -4.4895 -0.8604  1.4425
 8460SOL    HW237014   3.374   4.007   7.736  1.6643 -1.1305 -3.2300
 8461SOL     OW37015   3.981   2.800   9.455 -0.2045 -0.2240 -0.0619
 8461SOL    HW137016   3.910   2.760   9.503  0.4107 -3.0839 -1.5576
 8461SOL    HW237017   4.051   2.741   9.481 -1.9135 -1.8139  0.8530
 8462SOL     OW37018   1.670   4.228   5.837  0.1177  0.1691  0.0325
 8462SOL    HW137019   1.659   4.136   5.859 -0.6882  0.1907 -0.3114
 8462SOL    HW237020   1.705   4.268   5.917  1.5292 -0.4159 -0.2842
 8463SOL     OW37021   1.956   4.605   6.653  0.0576  0.1591 -0.0297
 8463SOL    HW137022   1.949   4.661   6.730  2.8680  1.6829 -0.9152
 8463SOL    HW237023   1.887   4.638   6.595 -1.4604 -1.4953  0.8237
 8464SOL     OW37024   1.389   1.175  14.558  0.0925  0.6272 -0.4765
 8464SOL    HW137025   1.392   1.253  14.613  1.2943  1.2591 -1.4291
 8464SOL    HW237026   1.456   1.188  14.491  0.6886  3.7322  0.7218
 8465SOL     OW37027   2.832   4.269   7.777 -0.6928 -0.0562 -0.5585
 8465SOL    HW137028   2.884   4.335   7.731  0.9631 -1.9826 -1.4787
 8465SOL    HW237029   2.805   4.229   7.694  0.3743  0.6442 -1.2542
 8466SOL     OW37030   1.743   4.234   0.112  0.1519  0.5508 -0.1468
 8466SOL    HW137031   1.813   4.169   0.103  1.1654  1.6022  0.0659
 8466SOL    HW237032   1.701   4.202   0.192 -1.8571 -1.3496 -1.9800
 8467SOL     OW37033   3.180   3.638   5.885  0.4662 -0.4761  0.0832
 8467SOL    HW137034   3.177   3.573   5.956  0.9118 -0.9236 -0.3107
 8467SOL    HW237035   3.090   3.670   5.883  0.0133 -1.8284 -0.8462
 8468SOL     OW37036   2.679   2.467   7.306 -0.1309  0.5215 -0.0204
 8468SOL    HW137037   2.624   2.398   7.342  0.9215 -0.9064 -1.1667
 8468SOL    HW237038   2.644   2.486   7.219 -0.8863 -2.9273 -0.4493
 8469SOL     OW37039   1.217   0.684   2.612 -0.1777  0.0878 -0.0196
 8469SOL    HW137040   1.309   0.657   2.604 -0.6373 -0.9132 -2.0498
 8469SOL    HW237041   1.231   0.767   2.658 -1.6575  0.5178 -0.3718
 8470SOL     OW37042   2.485   0.833  11.242 -0.5478  0.0250  0.0043
 8470SOL    HW137043   2.409   0.820  11.185 -0.3673 -0.7157 -0.0644
 8470SOL    HW237044   2.529   0.911  11.207  1.1404 -1.1664 -0.4870
 8471SOL     OW37045   2.504   1.236   7.681  0.3086 -0.1118 -0.5018
 8471SOL    HW137046   2.409   1.242   7.691  0.2303  0.3993 -1.5825
 8471SOL    HW237047   2.529   1.201   7.766  0.2843 -0.5744 -0.6830
 8472SOL     OW37048   1.732   4.715   7.316  0.4191  0.2222  0.2685
 8472SOL    HW137049   1.637   4.712   7.312  0.4098  0.8270  0.1169
 8472SOL    HW237050   1.751   0.034   7.242 -0.5924  0.6462  0.3378
 8473SOL     OW37051   0.877   4.506  13.628  0.1973 -0.1830 -0.8334
 8473SOL    HW137052   0.873   4.465  13.541  0.3057 -1.6409 -0.1635
 8473SOL    HW237053   0.841   4.592  13.607 -0.8719 -0.2409  0.7432
 8474SOL     OW37054   2.686   1.916   3.679 -0.2029 -0.0761  0.2577
 8474SOL    HW137055   2.723   1.961   3.755  0.6083 -2.2508  1.1404
 8474SOL    HW237056   2.763   1.862   3.663  2.2992  3.5770 -0.1368
 8475SOL     OW37057   0.299   1.540   4.994  0.1215  0.1839 -0.3112
 8475SOL    HW137058   0.374   1.573   5.043  0.7760 -0.9537 -0.5470
 8475SOL    HW237059   0.328   1.575   4.909  1.9976 -0.7241 -0.0302
 8476SOL     OW37060   1.582   0.737   6.082 -0.4323 -0.3413  0.1300
 8476SOL    HW137061   1.620   0.823   6.064 -0.0365 -0.6884 -0.6768
 8476SOL    HW237062   1.604   0.708   5.994  2.2903 -0.8568  0.9787
 8477SOL     OW37063   2.629   2.195   7.948  0.5541  0.0847 -0.0310
 8477SOL    HW137064   2.698   2.256   7.921  1.5244 -1.8458 -1.8367
 8477SOL    HW237065   2.662   2.183   8.037 -1.6657  0.0741  0.8111
 8478SOL     OW37066   1.399   1.812  11.591 -1.0127 -0.0714 -0.0290
 8478SOL    HW137067   1.342   1.735  11.599 -2.0160  0.5295 -1.4059
 8478SOL    HW237068   1.334   1.882  11.586 -1.1779 -0.2074  0.1848
 8479SOL     OW37069   0.022   1.805   6.946  0.4282  0.0313 -0.5344
 8479SOL    HW137070   0.023   1.897   6.923 -0.5880 -0.1035 -1.0927
 8479SOL    HW237071   0.106   1.773   6.912  0.7212  2.3181 -1.8883
 8480SOL     OW37072   2.027   4.637   0.939  0.1599 -0.6285  0.0988
 8480SOL    HW137073   2.112   4.598   0.960  0.1024 -0.0201  1.4900
 8480SOL    HW237074   2.021   4.602   0.851  0.8541  1.3807 -0.7572
 8481SOL     OW37075   1.875   2.777   5.052 -0.4132 -0.2215 -0.3868
 8481SOL    HW137076   1.959   2.735   5.038  0.2621  0.9137  0.2609
 8481SOL    HW237077   1.892   2.858   5.004 -1.0113  1.0186  1.4701
 8482SOL     OW37078   4.372   4.035   2.385 -0.4953 -0.2068  0.3341
 8482SOL    HW137079   4.312   4.076   2.447  0.6961  2.1036 -0.0476
 8482SOL    HW237080   4.380   4.110   2.326 -0.9942  1.2407  2.1122
 8483SOL     OW37081   2.910   1.195   4.473 -0.1987  0.3667  0.9302
 8483SOL    HW137082   2.819   1.224   4.460  0.6241  2.6933  0.3793
 8483SOL    HW237083   2.897   1.112   4.518 -0.0641 -0.5407 -0.6963
 8484SOL     OW37084   3.698   0.428   7.802 -0.2773 -0.0824  0.3751
 8484SOL    HW137085   3.723   0.341   7.832  0.0577  0.4802  1.7476
 8484SOL    HW237086   3.641   0.463   7.871 -0.5070 -1.6395  0.9636
 8485SOL     OW37087   4.132   3.591   7.211 -0.5971 -0.0177  0.1303
 8485SOL    HW137088   4.131   3.498   7.188 -2.3499 -0.2330  1.0879
 8485SOL    HW237089   4.058   3.632   7.165 -0.5748  0.2404  0.3269
 8486SOL     OW37090   4.194   1.594   3.729  0.0318  0.0463 -0.3066
 8486SOL    HW137091   4.196   1.512   3.680  1.8419  0.5821 -1.1273
 8486SOL    HW237092   4.285   1.622   3.729  0.3323 -0.9456  1.9121
 8487SOL     OW37093   1.459   0.865   4.041  0.0721  0.0907 -0.6741
 8487SOL    HW137094   1.499   0.906   3.964 -2.4763  2.2303 -0.8211
 8487SOL    HW237095   1.455   0.942   4.096  0.7450 -1.1385  1.0904
 8488SOL     OW37096   1.211   0.314   2.767 -0.6079 -0.2808 -0.5388
 8488SOL    HW137097   1.118   0.334   2.778 -0.8894 -2.7689  1.7358
 8488SOL    HW237098   1.228   0.358   2.684  0.6882  0.3725  0.0821
 8489SOL     OW37099   0.232   3.910   6.278 -0.2747  0.6004  0.2098
 8489SOL    HW137100   0.320   3.877   6.261 -0.3756  0.3739  0.1264
 8489SOL    HW237101   0.209   3.845   6.344 -0.7133 -0.6638 -1.1596
 8490SOL     OW37102   0.402   1.587   1.882  0.1341 -0.0095 -0.1710
 8490SOL    HW137103   0.339   1.515   1.883  0.1973 -0.0684 -0.4989
 8490SOL    HW237104   0.348   1.656   1.843  0.6644  1.4393  1.6709
 8491SOL     OW37105   0.888   1.207  11.057 -0.3125  0.1595 -0.1552
 8491SOL    HW137106   0.940   1.234  10.982  1.1920  0.0140  0.8234
 8491SOL    HW237107   0.955   1.177  11.119  1.5685 -1.6043 -3.0770
 8492SOL     OW37108   1.983   2.771  11.681 -0.3562 -0.1299 -0.1539
 8492SOL    HW137109   1.966   2.860  11.711  1.9802  0.5347 -0.7593
 8492SOL    HW237110   1.981   2.723  11.764  1.4653 -0.8927 -0.5402
 8493SOL     OW37111   3.229   0.015   3.287 -0.5850  0.1748 -0.1713
 8493SOL    HW137112   3.201   0.027   3.378 -0.4050  0.9613 -0.2187
 8493SOL    HW237113   3.324   0.025   3.288 -0.7755  1.9943 -0.9937
 8494SOL     OW37114   1.998   4.670   6.924 -0.3029  0.6012  0.0536
 8494SOL    HW137115   1.953   4.724   6.989 -0.3469  1.1214 -0.4070
 8494SOL    HW237116   2.035   4.597   6.975  0.2391  1.1440  0.4304
 8495SOL     OW37117   1.351   0.875   1.320  0.0562 -0.3556  0.3907
 8495SOL    HW137118   1.281   0.940   1.327  0.6137  0.3425 -0.6408
 8495SOL    HW237119   1.375   0.881   1.228 -0.1199  1.0003  0.4390
 8496SOL     OW37120   4.613   1.692   6.538  0.4202 -0.0353  0.1942
 8496SOL    HW137121   4.576   1.603   6.534 -0.2246  0.3224 -1.4166
 8496SOL    HW237122   4.538   1.750   6.520 -0.8127 -1.5750  0.3213
 8497SOL     OW37123   3.220   2.882   8.645  0.2619 -0.5069 -0.0817
 8497SOL    HW137124   3.147   2.846   8.595  1.1732 -1.4525 -0.7304
 8497SOL    HW237125   3.219   2.973   8.614  1.1281 -0.2873  0.5422
 8498SOL     OW37126   4.401   0.178   6.139  0.7430 -0.2693 -0.1403
 8498SOL    HW137127   4.436   0.155   6.225 -0.6331  2.9974  1.3072
 8498SOL    HW237128   4.429   0.109   6.079  0.9862 -1.9814  1.9229
 8499SOL     OW37129   4.102   3.945  10.638  0.3865  0.5280  0.2827
 8499SOL    HW137130   4.153   4.025  10.655 -0.6648  1.1022  0.7602
 8499SOL    HW237131   4.036   3.947  10.708  0.4003  0.7860  0.2898
 8500SOL     OW37132   0.412   3.400  13.878  0.2430  0.1517  0.1442
 8500SOL    HW137133   0.470   3.475  13.867  0.1421  0.3242  0.7899
 8500SOL    HW237134   0.331   3.425  13.835  2.0346  3.9313 -0.9826
 8501SOL     OW37135   1.816   0.076   8.673  0.4051  0.5702 -0.4360
 8501SOL    HW137136   1.827   0.145   8.607  0.6911  0.0763 -0.9075
 8501SOL    HW237137   1.812   0.009   8.605 -0.5012  1.6228 -1.4162
 8502SOL     OW37138   3.543   1.475   8.126 -0.2327 -0.2789  0.3140
 8502SOL    HW137139   3.491   1.411   8.078 -1.6959  1.4036 -0.3343
 8502SOL    HW237140   3.478   1.543   8.142 -0.6032 -0.4248 -0.5613
 8503SOL     OW37141   3.642   1.983   1.355  0.6394 -0.6105  0.0486
 8503SOL    HW137142   3.722   1.939   1.382  0.5980 -0.1040  0.9888
 8503SOL    HW237143   3.588   1.915   1.315  0.3345 -0.4969  0.2640
 8504SOL     OW37144   3.707   2.767   4.609 -0.8076 -0.3481 -0.6301
 8504SOL    HW137145   3.656   2.834   4.656  1.0808 -0.3156  1.4023
 8504SOL    HW237146   3.789   2.783   4.656 -1.1043 -1.2509  0.2173
 8505SOL     OW37147   0.469   3.876  16.388 -0.0884 -0.3568 -0.1587
 8505SOL    HW137148   0.394   3.818  16.399  0.0613 -0.4443  0.3610
 8505SOL    HW237149   0.444   3.911  16.302  0.5172 -1.5539 -0.8257
 8506SOL     OW37150   3.712   4.603   0.660  0.1028 -0.0717  0.6929
 8506SOL    HW137151   3.632   4.644   0.627  1.7136  2.2637 -0.3880
 8506SOL    HW237152   3.770   4.601   0.584  0.4589  1.6160  0.9004
 8507SOL     OW37153   4.687   1.929   3.397  0.9600  0.3189 -0.2372
 8507SOL    HW137154   4.640   1.847   3.383 -0.6394  1.0108  1.0646
 8507SOL    HW237155   4.629   1.972   3.459  0.4775  0.2434 -0.6319
 8508SOL     OW37156   3.828   0.907   8.799 -0.3688  0.1192 -0.3127
 8508SOL    HW137157   3.735   0.915   8.818 -0.3436 -1.4620  0.4476
 8508SOL    HW237158   3.863   0.907   8.888 -1.3853 -2.0577  0.0865
 8509SOL     OW37159   3.849   0.045  13.448  0.2576  0.4727 -0.2026
 8509SOL    HW137160   3.894   0.024  13.366  1.0159  0.4517  0.2181
 8509SOL    HW237161   3.898   4.735  13.515 -1.4801 -1.5101 -0.3736
 8510SOL     OW37162   2.328   3.658  15.637  0.1088 -0.1492  0.4691
 8510SOL    HW137163   2.422   3.668  15.648 -0.0013 -0.0589  1.3125
 8510SOL    HW237164   2.317   3.564  15.645  0.2103 -0.3093 -1.1599
 8511SOL     OW37165   0.497   1.196   4.878  0.1969 -0.1651  0.1256
 8511SOL    HW137166   0.553   1.261   4.836  0.3969  0.4449  1.3430
 8511SOL    HW237167   0.525   1.112   4.842  4.0160  1.6932 -1.1236
 8512SOL     OW37168   2.545   1.905   9.256  0.2273 -0.4968  0.1233
 8512SOL    HW137169   2.616   1.909   9.192  0.2624  0.6775  0.2375
 8512SOL    HW237170   2.559   1.816   9.291  1.3433 -0.6861 -0.7987
 8513SOL     OW37171   3.351   0.239  12.420  0.0132 -0.0321  0.0143
 8513SOL    HW137172   3.383   0.300  12.487 -0.9969  2.3446 -1.6508
 8513SOL    HW237173   3.351   0.156  12.467  1.7672  0.3243  0.6566
 8514SOL     OW37174   0.561   4.473   1.774 -0.1620  0.0704  0.1155
 8514SOL    HW137175   0.611   4.478   1.855  3.6522 -0.5153 -2.1977
 8514SOL    HW237176   0.479   4.433   1.801  0.1328  0.7112  1.9550
 8515SOL     OW37177   2.327   2.508  13.177  0.6348 -0.2036 -0.0786
 8515SOL    HW137178   2.237   2.481  13.197  0.8319 -1.0047 -0.2612
 8515SOL    HW237179   2.326   2.599  13.208  0.8023  0.1897 -1.2486
 8516SOL     OW37180   2.189   3.664   0.057  0.0092 -0.1149  1.0053
 8516SOL    HW137181   2.158   3.648  17.718  1.2644  0.0795  0.5361
 8516SOL    HW237182   2.221   3.579   0.086  1.4570 -0.0071 -0.3057
 8517SOL     OW37183   2.896   4.119  12.393  0.7951 -0.4086 -0.0107
 8517SOL    HW137184   2.891   4.212  12.415  1.2931 -0.8838  2.0491
 8517SOL    HW237185   2.838   4.082  12.460  0.5626 -0.0194  0.0034
 8518SOL     OW37186   4.414   0.170  10.452  0.1029 -0.2710 -0.5315
 8518SOL    HW137187   4.466   0.107  10.503  1.0187 -0.3834 -1.6094
 8518SOL    HW237188   4.387   0.231  10.521  2.0332 -0.0989  0.0590
 8519SOL     OW37189   1.338   2.194   2.380  0.0173 -0.5024 -0.5066
 8519SOL    HW137190   1.316   2.266   2.321  1.2706 -0.1961 -0.6005
 8519SOL    HW237191   1.426   2.174   2.350  1.0532  0.2128  2.0140
 8520SOL     OW37192   1.474   3.824  16.718 -0.0224  0.1263 -0.4882
 8520SOL    HW137193   1.446   3.903  16.766  1.1420 -0.1643  0.6746
 8520SOL    HW237194   1.385   3.789  16.707 -0.7273  1.7038  0.1321
 8521SOL     OW37195   3.142   3.603  15.080  0.3068  0.5815 -0.2169
 8521SOL    HW137196   3.051   3.587  15.107 -0.0966  0.0577 -1.8618
 8521SOL    HW237197   3.153   3.675  15.141  2.2693  0.2051 -0.1505
 8522SOL     OW37198   1.932   1.790   3.631 -0.0954 -0.2953  1.2021
 8522SOL    HW137199   1.985   1.863   3.663  0.6204  0.3915 -1.5792
 8522SOL    HW237200   1.957   1.734   3.705 -0.9652  1.6388  2.9539
 8523SOL     OW37201   4.696   2.765   4.881  0.1356  0.6811  0.0520
 8523SOL    HW137202   4.662   2.746   4.969 -0.6694 -0.3648 -0.4852
 8523SOL    HW237203   0.022   2.830   4.910 -2.4709  2.7182  1.3019
 8524SOL     OW37204   4.127   0.824   9.289 -0.1393  0.2652  0.6479
 8524SOL    HW137205   4.085   0.745   9.255 -0.8626  0.3819  1.2695
 8524SOL    HW237206   4.080   0.840   9.370 -0.8119  0.1344  0.2804
 8525SOL     OW37207   4.222   1.046  14.199  0.3434  0.5253 -0.2891
 8525SOL    HW137208   4.302   1.097  14.210 -0.2154  1.4086 -0.2877
 8525SOL    HW237209   4.217   1.056  14.104  0.1639  0.9345 -0.2381
 8526SOL     OW37210   2.715   4.603   6.297 -0.2619  0.1407 -0.2064
 8526SOL    HW137211   2.623   4.579   6.311 -0.0476  0.2076  1.3514
 8526SOL    HW237212   2.747   4.539   6.234  1.1076 -1.2593  1.9324
 8527SOL     OW37213   0.170   0.261  12.989  0.0925  0.1412  0.1925
 8527SOL    HW137214   0.238   0.233  13.050 -0.2707 -0.7718  0.1725
 8527SOL    HW237215   0.135   0.182  12.948 -1.1004  1.0092 -0.4470
 8528SOL     OW37216   3.784   2.734   6.566 -0.1467 -0.0945  0.1577
 8528SOL    HW137217   3.749   2.645   6.575 -2.7853  0.6839 -2.3712
 8528SOL    HW237218   3.876   2.719   6.584 -0.9786  1.2221  5.5208
 8529SOL     OW37219   3.286   4.633  11.966 -0.1939  0.0142  0.2455
 8529SOL    HW137220   3.335   4.707  12.002  0.2086 -0.7368  1.2499
 8529SOL    HW237221   3.318   4.575  12.035 -1.8423 -0.5002  0.5553
 8530SOL     OW37222   0.094   2.213   9.636  0.2257 -0.0150  0.2772
 8530SOL    HW137223   0.182   2.183   9.614  0.5273  0.4789  0.8165
 8530SOL    HW237224   0.044   2.197   9.556  2.1431 -2.6590 -0.4076
 8531SOL     OW37225   4.551   2.928   9.600 -0.2142  0.4000  0.1729
 8531SOL    HW137226   4.459   2.916   9.575 -0.0515 -0.8141  0.1719
 8531SOL    HW237227   4.591   2.905   9.516  0.1673  0.0027  0.4680
 8532SOL     OW37228   2.280   2.679   6.820 -0.2244 -0.1661  0.1847
 8532SOL    HW137229   2.297   2.755   6.765 -1.0103  0.0751  0.2812
 8532SOL    HW237230   2.204   2.637   6.779  0.3181 -0.6873 -0.2764
 8533SOL     OW37231   0.583   4.439  11.490 -0.2541 -0.3935  0.4421
 8533SOL    HW137232   0.618   4.362  11.535  1.0613 -0.8527 -1.3564
 8533SOL    HW237233   0.509   4.454  11.549 -1.7038 -0.8096 -1.2866
 8534SOL     OW37234   4.281   1.120   3.348  0.1088 -0.4225  0.1844
 8534SOL    HW137235   4.319   1.085   3.428  2.1087  0.7898 -0.2264
 8534SOL    HW237236   4.260   1.044   3.294  0.8337 -2.0779  2.2522
 8535SOL     OW37237   3.626   3.086   2.529 -0.1800  0.1651 -0.2116
 8535SOL    HW137238   3.607   3.004   2.485 -1.9296 -0.1199  1.0514
 8535SOL    HW237239   3.721   3.083   2.534 -0.1302  0.1506 -1.2197
 8536SOL     OW37240   0.576   0.403  17.639  0.5082  0.2994 -0.6280
 8536SOL    HW137241   0.529   0.325  17.609  1.0725 -0.5780  0.7944
 8536SOL    HW237242   0.627   0.360  17.708 -1.0446  0.5336  0.6616
 8537SOL     OW37243   1.911   3.055  11.678 -0.1168 -0.4269  0.2865
 8537SOL    HW137244   1.880   3.077  11.590  2.7479 -1.2859 -0.9369
 8537SOL    HW237245   1.938   3.144  11.702 -2.5288  0.8934 -1.9432
 8538SOL     OW37246   2.589   0.709   2.769  0.3225  0.5727  0.2012
 8538SOL    HW137247   2.680   0.736   2.758  0.1370  0.7050 -1.0170
 8538SOL    HW237248   2.599   0.618   2.738  2.1531  1.0006 -0.4540
 8539SOL     OW37249   2.002   1.601   7.325  0.0641  0.2133  0.1766
 8539SOL    HW137250   2.030   1.577   7.413  0.9580 -0.9417 -0.4261
 8539SOL    HW237251   1.969   1.518   7.291 -0.3294 -0.0360  1.1534
 8540SOL     OW37252   2.911   1.804   3.573  0.0839  0.2340  0.6374
 8540SOL    HW137253   2.862   1.722   3.562  0.0394  0.0762  2.0520
 8540SOL    HW237254   2.944   1.817   3.484  0.2390 -0.2791  0.6201
 8541SOL     OW37255   1.306   0.986  12.217 -0.5497  0.2209 -0.0928
 8541SOL    HW137256   1.230   1.037  12.245 -0.7933 -0.0273 -0.2932
 8541SOL    HW237257   1.381   1.045  12.222 -0.3898 -0.0593  0.7671
 8542SOL     OW37258   2.972   2.667   4.597  0.1525  0.4660 -0.7501
 8542SOL    HW137259   2.988   2.674   4.691  0.6204 -2.8147 -0.6050
 8542SOL    HW237260   3.047   2.714   4.559  0.3795  1.0891  0.4698
 8543SOL     OW37261   2.804   2.816   7.868  0.4736 -0.2214 -0.0233
 8543SOL    HW137262   2.860   2.782   7.938  0.0995 -1.8983 -0.5304
 8543SOL    HW237263   2.715   2.790   7.892  0.5718 -0.3974  0.1501
 8544SOL     OW37264   0.644   2.095   2.920  0.3983 -0.1366 -0.5453
 8544SOL    HW137265   0.700   2.093   2.842 -0.0277 -1.2757 -0.8238
 8544SOL    HW237266   0.698   2.152   2.974 -0.8779 -1.6637  2.3348
 8545SOL     OW37267   1.942   2.482  12.880 -0.1021  0.0637  0.5909
 8545SOL    HW137268   1.853   2.476  12.847  0.2324 -0.7231 -0.1813
 8545SOL    HW237269   1.966   2.572  12.855  2.5194 -1.1747 -1.4044
 8546SOL     OW37270   2.752   1.969   9.068  0.6452 -0.5255  0.1200
 8546SOL    HW137271   2.795   2.055   9.073 -2.0958  0.8394 -0.0962
 8546SOL    HW237272   2.757   1.955   8.974  1.1659 -0.6569  0.1653
 8547SOL     OW37273   4.294   0.976   1.531 -0.0958  0.1329 -0.4382
 8547SOL    HW137274   4.256   0.975   1.619 -0.1195  1.8373 -0.4233
 8547SOL    HW237275   4.248   0.900   1.495  1.8309 -1.2491  0.0445
 8548SOL     OW37276   3.036   4.523   3.690 -0.7097  0.3487 -0.1927
 8548SOL    HW137277   3.012   4.597   3.746 -0.6385  0.8137 -0.7706
 8548SOL    HW237278   2.990   4.548   3.610  0.3640 -0.2165 -0.9966
 8549SOL     OW37279   1.152   3.398   7.383 -0.1542 -0.6835 -0.4588
 8549SOL    HW137280   1.057   3.394   7.378 -0.2431 -1.0803  1.5506
 8549SOL    HW237281   1.173   3.387   7.476 -2.6251 -3.6447 -0.2529
 8550SOL     OW37282   3.752   0.863   7.599  0.3158 -0.0421  0.2510
 8550SOL    HW137283   3.661   0.884   7.575 -0.2496 -2.5586  0.1105
 8550SOL    HW237284   3.746   0.899   7.687 -0.3415  0.8401 -0.1529
 8551SOL     OW37285   0.072   3.560  14.050  0.3940  0.4850  0.2891
 8551SOL    HW137286   0.044   3.566  13.959 -0.0212 -0.5693  0.3448
 8551SOL    HW237287   0.105   3.649  14.062  1.2551  0.3572 -1.0340
 8552SOL     OW37288   3.776   4.648   7.009  0.1610  0.0730 -0.1364
 8552SOL    HW137289   3.829   4.674   6.933  0.3341 -3.8949 -1.3889
 8552SOL    HW237290   3.847   4.618   7.066 -0.3246 -0.9331 -0.0605
 8553SOL     OW37291   0.176   3.207   9.363  0.3956  0.0244  0.0357
 8553SOL    HW137292   0.109   3.208   9.295 -0.5069 -0.3874  0.9289
 8553SOL    HW237293   0.159   3.276   9.427 -0.6852 -0.2138  0.0039
 8554SOL     OW37294   1.528   4.374   4.193 -0.6416  0.4635 -0.1768
 8554SOL    HW137295   1.510   4.299   4.136  1.8224  0.6217 -1.1382
 8554SOL    HW237296   1.590   4.424   4.141 -0.3451  1.2192  0.9070
 8555SOL     OW37297   2.872   2.844   4.295  0.1115  0.2606 -0.1079
 8555SOL    HW137298   2.863   2.896   4.216  3.1603  1.6446  0.4419
 8555SOL    HW237299   2.892   2.756   4.263  0.1092  0.2562 -0.0974
 8556SOL     OW37300   0.845   3.445  17.676  0.4363  0.3170 -0.0309
 8556SOL    HW137301   0.798   3.410  17.601 -0.0786  0.3927  0.2554
 8556SOL    HW237302   0.769   3.447  17.733 -1.9527 -2.0403 -3.1647
 8557SOL     OW37303   2.215   4.245   9.165  0.2578  0.4633 -0.0025
 8557SOL    HW137304   2.134   4.247   9.217  0.2609  1.2801 -0.0395
 8557SOL    HW237305   2.262   4.177   9.214  0.9665  1.2902  0.4455
 8558SOL     OW37306   3.349   2.647   8.369 -0.0143 -0.1461  0.3861
 8558SOL    HW137307   3.300   2.565   8.373  0.2012 -0.2622  0.6695
 8558SOL    HW237308   3.378   2.654   8.460 -0.9402  0.0594  0.6687
 8559SOL     OW37309   2.146   2.599   3.537  0.0011  0.2835  0.1979
 8559SOL    HW137310   2.169   2.690   3.514  2.8424 -0.1897  1.2496
 8559SOL    HW237311   2.185   2.564   3.457 -1.9533  2.2330 -1.6247
 8560SOL     OW37312   3.616   0.860   8.125  0.5578  0.2545 -0.5134
 8560SOL    HW137313   3.575   0.940   8.092 -2.7056 -1.9309 -1.8713
 8560SOL    HW237314   3.551   0.792   8.105 -0.3164  1.2040 -0.9588
 8561SOL     OW37315   2.202   1.641   5.793  0.2004 -0.3783 -0.0370
 8561SOL    HW137316   2.172   1.694   5.867 -0.5096 -2.7112  1.3667
 8561SOL    HW237317   2.294   1.667   5.785  1.1037 -3.2791  0.6562
 8562SOL     OW37318   2.841   1.295   1.308 -0.4129  0.3988 -0.2790
 8562SOL    HW137319   2.858   1.226   1.372 -0.7637 -0.2263 -0.8505
 8562SOL    HW237320   2.914   1.286   1.246 -1.2917 -1.4289 -1.0485
 8563SOL     OW37321   2.555   3.460   5.555 -0.3593 -0.2773  0.0157
 8563SOL    HW137322   2.560   3.554   5.537  0.8288  0.0571  2.0541
 8563SOL    HW237323   2.623   3.457   5.623  1.0072  0.0905 -1.3156
 8564SOL     OW37324   4.036   3.597  16.224  0.1752  0.9465  0.4518
 8564SOL    HW137325   4.027   3.679  16.175  1.8081  1.1600  0.5143
 8564SOL    HW237326   4.092   3.620  16.298  0.4312  1.1381  0.2020
 8565SOL     OW37327   4.198   1.797   7.699 -0.2296  0.1210  0.0823
 8565SOL    HW137328   4.105   1.793   7.721  0.3832 -0.8621  2.4943
 8565SOL    HW237329   4.195   1.839   7.613  1.9488 -0.4674 -0.2728
 8566SOL     OW37330   0.126   1.700   5.753 -0.0227  0.1847  0.0819
 8566SOL    HW137331   0.179   1.763   5.704 -1.2804  0.9762 -0.2544
 8566SOL    HW237332   0.174   1.622   5.724  0.4334  1.1115 -1.6834
 8567SOL     OW37333   1.322   2.063   7.323 -0.8722  0.0878 -0.0183
 8567SOL    HW137334   1.373   2.017   7.256  0.3645  0.1079  0.9326
 8567SOL    HW237335   1.285   2.134   7.271  2.7521  2.7281  1.0798
 8568SOL     OW37336   2.693   0.621   8.457  0.4555  0.2777 -0.3118
 8568SOL    HW137337   2.709   0.570   8.378  3.3464  1.0880 -0.2402
 8568SOL    HW237338   2.734   0.572   8.528 -0.0174 -0.0923 -0.2912
 8569SOL     OW37339   0.421   4.667   6.272 -0.6166  0.4530  0.1044
 8569SOL    HW137340   0.456   4.723   6.342  0.0792 -1.5129  1.3128
 8569SOL    HW237341   0.445   4.723   6.198  0.1786 -0.8668 -0.6280
 8570SOL     OW37342   0.479   2.771   7.595  0.4948 -0.2254 -0.0802
 8570SOL    HW137343   0.556   2.828   7.590 -0.3756  0.9340 -0.1306
 8570SOL    HW237344   0.498   2.724   7.514  0.5009 -0.7111  0.2037
 8571SOL     OW37345   2.330   3.988   4.719  0.8481  0.0754  0.2036
 8571SOL    HW137346   2.364   4.048   4.653  2.1859 -1.5327 -0.5716
 8571SOL    HW237347   2.275   4.048   4.770 -1.1916 -0.3385 -1.4893
 8572SOL     OW37348   2.420   2.271  14.182  0.0338  0.5560 -0.1003
 8572SOL    HW137349   2.353   2.204  14.167 -0.0231  0.6304 -0.1831
 8572SOL    HW237350   2.363   2.340  14.217  3.0789  2.8491  0.3149
 8573SOL     OW37351   3.082   2.983   3.448 -0.3370 -0.1163  0.1354
 8573SOL    HW137352   3.003   3.037   3.454  0.4116  1.1862 -1.5389
 8573SOL    HW237353   3.084   2.977   3.352 -0.9057 -0.0887  0.1195
 8574SOL     OW37354   2.763   0.886   5.963  0.2800 -1.0194 -0.5773
 8574SOL    HW137355   2.682   0.913   6.006  1.9972 -1.4408  2.8970
 8574SOL    HW237356   2.759   0.944   5.887  1.9867  0.1266  0.2157
 8575SOL     OW37357   4.510   2.489   3.113  0.3825 -0.3952  0.0886
 8575SOL    HW137358   4.502   2.394   3.110 -0.9811 -0.3112  1.1823
 8575SOL    HW237359   4.525   2.502   3.206  0.2478  0.3954  0.0058
 8576SOL     OW37360   2.918   1.580   9.636  0.5793 -0.1444  0.2558
 8576SOL    HW137361   2.998   1.540   9.601 -0.1772  0.8055 -2.5763
 8576SOL    HW237362   2.884   1.639   9.568 -1.4116 -0.6113  0.8433
 8577SOL     OW37363   1.308   1.354   4.679  0.2718  0.7550 -0.2028
 8577SOL    HW137364   1.334   1.446   4.689  2.3785 -0.0352  1.5996
 8577SOL    HW237365   1.328   1.310   4.762 -2.6054  1.4651  0.8726
 8578SOL     OW37366   0.042   3.792  10.379  0.5587  0.1544  0.2922
 8578SOL    HW137367   0.064   3.866  10.436  2.3666  0.4469 -0.7859
 8578SOL    HW237368   0.050   3.835  10.294  0.5263 -0.4269 -0.0064
 8579SOL     OW37369   4.137   1.084   5.942  0.2300 -0.2829  0.0199
 8579SOL    HW137370   4.133   1.005   5.888  2.6966 -0.5096  0.1819
 8579SOL    HW237371   4.114   1.158   5.886  0.2831 -0.4744 -0.2586
 8580SOL     OW37372   3.734   3.187   6.308  0.0127 -0.0893 -0.2359
 8580SOL    HW137373   3.826   3.182   6.333 -0.1198 -2.3705 -0.1736
 8580SOL    HW237374   3.712   3.096   6.291  0.0113 -0.4503  1.6622
 8581SOL     OW37375   4.368   0.871   2.698  0.0306  0.0518 -0.7339
 8581SOL    HW137376   4.406   0.853   2.612  1.2314  0.2384 -0.2431
 8581SOL    HW237377   4.357   0.781   2.727 -0.0839 -0.4522 -2.3205
 8582SOL     OW37378   2.725   3.415   5.793  0.1237 -0.4657  0.0490
 8582SOL    HW137379   2.683   3.330   5.784 -1.5539  0.3236  0.3244
 8582SOL    HW237380   2.697   3.431   5.883 -2.7620 -0.6624 -0.8036
 8583SOL     OW37381   0.270   4.672   3.304  0.2354  0.2202 -0.3448
 8583SOL    HW137382   0.337   4.619   3.346 -1.2975 -1.9851 -0.6885
 8583SOL    HW237383   0.297   4.665   3.212 -1.2516 -0.9091 -0.7065
 8584SOL     OW37384   3.509   3.002  12.430  0.6395 -0.3900  0.0034
 8584SOL    HW137385   3.416   2.998  12.410  0.4217 -1.4443  1.2550
 8584SOL    HW237386   3.528   2.910  12.450 -0.6843 -0.0979  2.5583
 8585SOL     OW37387   2.084   4.298   8.908  0.3210  0.0974  0.0137
 8585SOL    HW137388   2.083   4.336   8.996  0.9914  0.6630 -0.2257
 8585SOL    HW237389   1.994   4.265   8.900  0.9863 -2.1427  1.7336
 8586SOL     OW37390   2.770   0.413   3.978  0.0450 -0.3146 -0.1612
 8586SOL    HW137391   2.790   0.490   4.032 -0.6618 -0.7144  0.6569
 8586SOL    HW237392   2.682   0.433   3.947  0.4198  1.6430  0.0103
 8587SOL     OW37393   2.284   2.349   3.987 -0.6483 -0.3535 -0.1380
 8587SOL    HW137394   2.256   2.363   3.897  0.0487  1.3777 -0.0799
 8587SOL    HW237395   2.245   2.263   4.004  1.4468 -0.9613  1.5292
 8588SOL     OW37396   1.929   0.476   9.511  0.3088  0.1946 -0.2766
 8588SOL    HW137397   1.979   0.538   9.459 -1.5652  2.3995  0.5396
 8588SOL    HW237398   2.002   0.443   9.563  0.7407  1.5700 -0.0198
 8589SOL     OW37399   4.568   1.930  16.122  0.0922 -0.2276  0.0068
 8589SOL    HW137400   4.568   1.857  16.060  3.2778  0.2473 -0.5292
 8589SOL    HW237401   4.592   1.997  16.059  0.4842 -0.4297 -0.0543
 8590SOL     OW37402   2.560   1.262   9.007  0.3536 -0.3272 -0.2973
 8590SOL    HW137403   2.640   1.276   8.955  0.3328 -0.7713 -0.4454
 8590SOL    HW237404   2.490   1.278   8.943  0.4666  0.4253 -0.2313
 8591SOL     OW37405   1.215   3.598   1.278 -0.3139 -0.7901 -0.4875
 8591SOL    HW137406   1.297   3.556   1.302  0.2928  0.9270  0.4547
 8591SOL    HW237407   1.167   3.584   1.360  0.8482  0.2570  0.3667
 8592SOL     OW37408   2.147   0.853  10.164 -0.0137 -0.1702 -0.0270
 8592SOL    HW137409   2.196   0.898  10.096 -0.2667 -1.7886 -1.2699
 8592SOL    HW237410   2.059   0.867  10.129 -1.2314 -1.7688  2.3337
 8593SOL     OW37411   1.376   0.318   1.791  0.0052 -0.0718  0.2155
 8593SOL    HW137412   1.284   0.303   1.770 -0.0379 -2.5732  2.2250
 8593SOL    HW237413   1.412   0.284   1.709 -0.0238  0.3691  0.0191
 8594SOL     OW37414   2.890   0.109   6.138 -0.0477  0.1065 -0.3018
 8594SOL    HW137415   2.902   0.152   6.223 -0.3712  0.5535 -0.4876
 8594SOL    HW237416   2.819   0.050   6.161 -1.3224  2.3792  1.5594
 8595SOL     OW37417   2.328   2.758   8.511 -0.5953  0.1656  0.6381
 8595SOL    HW137418   2.316   2.780   8.419 -0.8128  0.5639  0.7609
 8595SOL    HW237419   2.292   2.669   8.515 -2.1207  0.7694  0.0951
 8596SOL     OW37420   4.425   0.792   3.525 -0.4872  0.6189 -0.2158
 8596SOL    HW137421   4.494   0.857   3.508 -0.1914 -0.0149 -1.4165
 8596SOL    HW237422   4.391   0.762   3.440 -0.7184 -3.1250  1.2035
 8597SOL     OW37423   3.950   3.283   5.154  0.5611 -0.1503  0.7227
 8597SOL    HW137424   4.043   3.271   5.172  0.7920 -0.0407 -0.3884
 8597SOL    HW237425   3.944   3.234   5.072 -1.8957 -1.3038  1.6038
 8598SOL     OW37426   4.385   4.039  11.503  0.3327  0.1908  0.2953
 8598SOL    HW137427   4.422   4.087  11.578 -1.2587 -1.6283  2.2356
 8598SOL    HW237428   4.457   4.048  11.441  0.9284  0.1789  0.9729
 8599SOL     OW37429   3.220   0.658   6.466 -0.3336 -0.0247  0.0130
 8599SOL    HW137430   3.192   0.750   6.470  1.8738  0.4575  4.4749
 8599SOL    HW237431   3.295   0.674   6.409  0.0555 -0.6712  0.3469
 8600SOL     OW37432   1.242   2.678  11.751 -0.1207 -0.2050  0.7010
 8600SOL    HW137433   1.209   2.768  11.757  0.4954  0.0886 -0.3508
 8600SOL    HW237434   1.321   2.693  11.802  0.7179  0.7552 -0.8625
 8601SOL     OW37435   3.069   4.136   7.815 -0.5111 -0.1636 -0.0573
 8601SOL    HW137436   3.101   4.113   7.727 -0.3390 -0.7306  0.1583
 8601SOL    HW237437   2.980   4.165   7.796 -1.1745 -0.5124  2.6297
 8602SOL     OW37438   3.094   1.824   0.766 -1.1367 -0.5255  0.3362
 8602SOL    HW137439   3.163   1.774   0.723 -0.0550  1.3313 -0.0891
 8602SOL    HW237440   3.018   1.808   0.710 -0.0921 -0.8000 -0.9927
 8603SOL     OW37441   4.272   0.607  11.132 -0.2655 -0.2364  0.1492
 8603SOL    HW137442   4.198   0.550  11.151 -1.9215  1.6408 -0.7207
 8603SOL    HW237443   4.335   0.540  11.104  1.5602  1.3606  0.4758
 8604SOL     OW37444   3.423   4.563  16.917 -0.4293  0.4158 -0.4411
 8604SOL    HW137445   3.476   4.513  16.854 -0.1794 -2.3653  1.9793
 8604SOL    HW237446   3.434   4.653  16.885  1.7184 -0.2975 -1.7346
 8605SOL     OW37447   4.410   1.886   3.877  0.0650 -0.2516 -0.0596
 8605SOL    HW137448   4.494   1.859   3.839  0.2485 -3.0896  2.3758
 8605SOL    HW237449   4.362   1.922   3.803  0.3647  0.1676 -0.0460
 8606SOL     OW37450   0.015   3.412  13.556  0.0550  0.1219  0.7030
 8606SOL    HW137451   0.080   3.367  13.502 -0.5131 -1.4858  1.3837
 8606SOL    HW237452   4.692   3.343  13.583  0.6559 -1.0455 -0.9851
 8607SOL     OW37453   0.697   1.318  15.913  0.6302  0.2550  0.4152
 8607SOL    HW137454   0.653   1.393  15.872 -1.1299  0.0509  1.8925
 8607SOL    HW237455   0.785   1.350  15.932  0.2099  0.5065  1.9348
 8608SOL     OW37456   1.694   0.799  13.949 -0.7445  0.1307 -0.2951
 8608SOL    HW137457   1.619   0.748  13.918  1.7221 -2.4034 -2.0564
 8608SOL    HW237458   1.668   0.882  13.909 -0.1057  0.2129 -0.5508
 8609SOL     OW37459   2.909   1.095  12.185  0.0004 -0.0967 -0.6467
 8609SOL    HW137460   2.834   1.134  12.141  0.4049  1.3120 -0.0827
 8609SOL    HW237461   2.981   1.118  12.126  1.3672 -1.1817  0.5932
 8610SOL     OW37462   3.251   0.323   2.430 -0.3142  0.5495 -0.1385
 8610SOL    HW137463   3.212   0.410   2.416 -1.0390  0.3863  0.8668
 8610SOL    HW237464   3.326   0.344   2.486  0.2996 -0.8463 -0.4573
 8611SOL     OW37465   1.588   1.763   1.646 -0.6272  0.3841 -0.7066
 8611SOL    HW137466   1.568   1.746   1.554  0.2445 -3.0038 -0.2666
 8611SOL    HW237467   1.675   1.802   1.647 -0.4018 -0.1662  0.7708
 8612SOL     OW37468   2.641   4.024  14.911 -0.3817  0.1028  0.4219
 8612SOL    HW137469   2.681   3.939  14.893 -1.1495  0.0834 -1.1448
 8612SOL    HW237470   2.667   4.081  14.839 -0.3986 -1.0234 -0.4777
 8613SOL     OW37471   4.274   2.348  15.876 -0.5196 -0.9836  0.1115
 8613SOL    HW137472   4.256   2.255  15.886 -0.6821 -0.8615  0.9472
 8613SOL    HW237473   4.312   2.340  15.788 -1.5968 -1.3002 -0.3295
 8614SOL     OW37474   3.301   3.509   0.359  0.3374 -0.9464  0.5496
 8614SOL    HW137475   3.371   3.553   0.310 -1.3052 -0.6053 -1.5128
 8614SOL    HW237476   3.258   3.467   0.284 -1.0775  2.3687 -0.4792
 8615SOL     OW37477   3.164   4.410   7.454 -0.2585 -0.0693 -0.5125
 8615SOL    HW137478   3.124   4.334   7.413 -2.3582  0.2497  0.9382
 8615SOL    HW237479   3.110   4.478   7.415  0.9328  1.5494  0.6216
 8616SOL     OW37480   2.017   2.933   2.561  0.2329 -0.2501 -0.1135
 8616SOL    HW137481   2.004   3.000   2.494 -0.7486 -0.9039 -0.5727
 8616SOL    HW237482   1.963   2.966   2.633 -2.2885 -2.0410 -1.1787
 8617SOL     OW37483   0.277   2.163   8.460  0.5131  0.0331  0.5710
 8617SOL    HW137484   0.200   2.219   8.457 -0.6206 -1.4916  1.8446
 8617SOL    HW237485   0.311   2.175   8.371  0.1367  1.6417  0.6460
 8618SOL     OW37486   4.097   3.779   9.488 -0.2863 -0.0151  0.2600
 8618SOL    HW137487   4.134   3.709   9.542  0.4557  0.6992  0.6785
 8618SOL    HW237488   4.126   3.753   9.400  0.2033  1.2505  0.0436
 8619SOL     OW37489   0.164   2.881  10.366 -0.1063  0.1572  0.4427
 8619SOL    HW137490   0.121   2.816  10.422  0.3920  0.9716  1.7887
 8619SOL    HW237491   0.107   2.882  10.290 -1.0841  4.7639  1.2373
 8620SOL     OW37492   0.652   3.509   7.414  0.1687 -0.5636 -0.5777
 8620SOL    HW137493   0.582   3.574   7.415  2.1682  1.5090  3.4831
 8620SOL    HW237494   0.645   3.479   7.504  0.1979  3.1416  0.6775
 8621SOL     OW37495   4.242   2.499   4.952 -0.3553 -0.4672 -0.1567
 8621SOL    HW137496   4.293   2.558   4.896  0.8178 -0.2829  1.0973
 8621SOL    HW237497   4.270   2.408   4.936  0.9417 -0.2710  0.9988
 8622SOL     OW37498   1.841   4.408   7.285  0.1252 -0.6010 -0.0821
 8622SOL    HW137499   1.934   4.428   7.276 -0.3439  1.2419 -0.9315
 8622SOL    HW237500   1.813   4.485   7.336 -0.5258 -0.8897 -0.0001
 8623SOL     OW37501   3.292   4.399   8.669 -0.3148  0.3635 -0.3669
 8623SOL    HW137502   3.370   4.382   8.617  0.2690 -1.1888  1.0141
 8623SOL    HW237503   3.323   4.479   8.711  0.0415  0.8399 -1.5666
 8624SOL     OW37504   2.926   3.836   3.438  0.1484 -0.0301 -0.1730
 8624SOL    HW137505   2.976   3.912   3.408 -0.1847  0.5212  0.7042
 8624SOL    HW237506   2.987   3.773   3.398  0.0425 -0.0687 -0.2723
 8625SOL     OW37507   2.795   0.948   2.450  0.1633  0.2565 -0.0583
 8625SOL    HW137508   2.742   0.873   2.426 -2.5569  1.0829  3.2899
 8625SOL    HW237509   2.882   0.909   2.454  1.1772  2.4629 -0.7313
 8626SOL     OW37510   1.427   2.618   6.212 -0.0678 -0.3181  0.0158
 8626SOL    HW137511   1.402   2.607   6.303  0.9774 -0.5036  0.2876
 8626SOL    HW237512   1.471   2.703   6.219 -0.0839 -0.2290 -0.9207
 8627SOL     OW37513   0.735   0.466   2.654  0.3178  0.4417 -0.2518
 8627SOL    HW137514   0.774   0.553   2.645  0.2749  0.4513 -0.3509
 8627SOL    HW237515   0.644   0.479   2.678  0.9285  2.3641  1.0001
 8628SOL     OW37516   1.667   1.319  13.443 -0.3231  0.2909  0.3109
 8628SOL    HW137517   1.641   1.411  13.434 -1.4820 -0.0411  0.2833
 8628SOL    HW237518   1.656   1.305  13.349  1.5080 -1.0812  0.3010
 8629SOL     OW37519   2.401   2.628   1.699 -0.0023 -0.4582 -0.4725
 8629SOL    HW137520   2.474   2.570   1.677  0.1073 -0.3182 -0.4806
 8629SOL    HW237521   2.355   2.586   1.772 -0.3634  0.0926 -0.3809
 8630SOL     OW37522   1.111   2.689   6.582  0.2528 -0.0194 -0.4769
 8630SOL    HW137523   1.022   2.654   6.587  0.3855 -0.1715  0.8606
 8630SOL    HW237524   1.109   2.752   6.654 -0.1978 -1.7225  1.0006
 8631SOL     OW37525   2.086   1.746   3.969 -0.0924 -0.0570  0.0288
 8631SOL    HW137526   2.110   1.713   3.883  1.3804  1.7356 -0.2713
 8631SOL    HW237527   2.117   1.678   4.028 -3.1245 -0.8911  0.6194
 8632SOL     OW37528   0.168   4.169   7.911  0.1914  0.4918  0.2367
 8632SOL    HW137529   0.083   4.200   7.880 -0.1498 -1.3659 -0.7494
 8632SOL    HW237530   0.197   4.245   7.960  0.4701  0.8328 -0.4674
 8633SOL     OW37531   2.807   0.028   9.364  0.1500  0.1636 -0.0996
 8633SOL    HW137532   2.884   4.717   9.338  1.3540  1.2173  1.4471
 8633SOL    HW237533   2.749   4.723   9.301  1.5396 -1.1169 -0.4965
 8634SOL     OW37534   2.779   1.911  11.408  0.2494 -0.0030 -0.3755
 8634SOL    HW137535   2.783   1.836  11.469 -0.4360  0.1441 -0.1470
 8634SOL    HW237536   2.808   1.867  11.328  2.1194  0.2736  0.1400
 8635SOL     OW37537   4.393   3.687   7.842 -0.4667  0.3897  0.3203
 8635SOL    HW137538   4.349   3.603   7.850  1.6362 -0.8253 -1.1835
 8635SOL    HW237539   4.320   3.738   7.878 -1.4371 -0.3396 -0.6209
 8636SOL     OW37540   3.978   0.784   8.366  0.5221 -0.2819  0.0472
 8636SOL    HW137541   3.882   0.778   8.361  0.5944 -1.3060 -0.2260
 8636SOL    HW237542   3.995   0.748   8.453  2.6657  0.8712  0.0891
 8637SOL     OW37543   0.868   4.183   3.843  0.3314 -0.2775 -0.1323
 8637SOL    HW137544   0.846   4.154   3.932  0.9764  1.4052  0.5695
 8637SOL    HW237545   0.942   4.239   3.865 -1.7614  1.9994  1.0167
 8638SOL     OW37546   0.926   2.647  11.918 -0.1331 -0.5660 -0.0127
 8638SOL    HW137547   1.007   2.601  11.939 -0.7471 -1.6611 -0.0741
 8638SOL    HW237548   0.882   2.584  11.861 -0.7887  0.4396 -0.6385
 8639SOL     OW37549   1.902   1.697   9.250  0.2334 -0.8691  0.2240
 8639SOL    HW137550   1.921   1.706   9.343 -2.7673  0.8326  0.6846
 8639SOL    HW237551   1.991   1.721   9.224  0.7292 -2.1864  0.6816
 8640SOL     OW37552   2.535   3.758   9.845 -0.3198 -0.0257  0.1958
 8640SOL    HW137553   2.492   3.679   9.812 -1.4372  0.3448  0.7480
 8640SOL    HW237554   2.470   3.826   9.826  1.2395  1.1828 -0.7931
 8641SOL     OW37555   2.672   2.496  10.669  0.0176 -0.3599 -0.4871
 8641SOL    HW137556   2.609   2.423  10.665 -1.3050  0.7519 -0.0247
 8641SOL    HW237557   2.649   2.541  10.588  0.2123 -3.9640 -2.5484
 8642SOL     OW37558   0.211   1.539   8.950  0.5726  0.2298 -0.2066
 8642SOL    HW137559   0.265   1.565   9.026  0.6629 -1.6503  0.3734
 8642SOL    HW237560   0.236   1.604   8.884  0.7585 -0.5383 -0.8824
 8643SOL     OW37561   3.061   1.203  15.898 -0.8571  0.4838  0.2251
 8643SOL    HW137562   3.009   1.254  15.834 -1.8087 -0.2635  0.3953
 8643SOL    HW237563   3.148   1.240  15.885 -0.4681 -0.0924  1.2767
 8644SOL     OW37564   3.669   3.045   4.251  0.4410 -0.2197 -0.5496
 8644SOL    HW137565   3.631   3.037   4.164  2.1976 -1.8981 -1.1728
 8644SOL    HW237566   3.760   3.021   4.235  0.0527 -3.7998  2.5488
 8645SOL     OW37567   3.947   1.028  10.297  0.1895 -0.0661 -0.5978
 8645SOL    HW137568   4.013   1.088  10.262 -1.3733  2.2864  0.4398
 8645SOL    HW237569   3.985   0.940  10.297 -0.2387 -0.2530 -0.7593
 8646SOL     OW37570   1.401   4.235  12.172 -1.0922 -0.6140 -0.2331
 8646SOL    HW137571   1.316   4.222  12.213 -0.7696 -0.7417  0.4035
 8646SOL    HW237572   1.403   4.330  12.187 -2.3862 -0.6604  0.1949
 8647SOL     OW37573   3.225   4.368  16.782 -0.0829 -0.2450 -0.5962
 8647SOL    HW137574   3.150   4.397  16.833  0.5124 -0.1004  0.1863
 8647SOL    HW237575   3.280   4.446  16.781  0.2442 -0.4804 -1.5738
 8648SOL     OW37576   0.622   1.864   4.847  0.7237 -0.0599  0.2331
 8648SOL    HW137577   0.705   1.907   4.870  0.5231  1.8347 -2.5376
 8648SOL    HW237578   0.575   1.929   4.794 -1.5514 -0.2722  2.0036
 8649SOL     OW37579   4.695   4.449  12.819  0.0658 -0.4077  0.4912
 8649SOL    HW137580   4.609   4.449  12.777  0.0227  1.3362  0.5564
 8649SOL    HW237581   4.698   4.355  12.836 -1.0738 -0.7515 -1.1203
 8650SOL     OW37582   0.319   1.902  15.900 -0.5849  0.8664 -0.0819
 8650SOL    HW137583   0.326   1.842  15.826 -0.8386  1.0643 -0.2631
 8650SOL    HW237584   0.235   1.942  15.878 -1.1343  0.8903  2.0284
 8651SOL     OW37585   4.611   3.182   2.722 -0.3185  0.2519  0.3314
 8651SOL    HW137586   4.577   3.105   2.767  0.1307  0.6680  1.3732
 8651SOL    HW237587   4.533   3.230   2.695 -1.1276 -0.8989  0.6375
 8652SOL     OW37588   0.606   3.437   7.675  0.3832  0.2679 -0.1584
 8652SOL    HW137589   0.616   3.346   7.703  1.6097 -0.1621 -1.9400
 8652SOL    HW237590   0.600   3.482   7.759  0.0687 -0.1753  0.0553
 8653SOL     OW37591   4.697   4.681  12.040  0.4421  0.1774 -0.4021
 8653SOL    HW137592   4.680   4.625  11.964 -0.5509 -0.2212  0.1102
 8653SOL    HW237593   4.624   4.646  12.092  0.2749  0.6456 -0.3189
 8654SOL     OW37594   0.560   3.030   8.282  0.2058  0.5414  0.6180
 8654SOL    HW137595   0.488   3.035   8.346 -0.9187 -0.2539 -0.5924
 8654SOL    HW237596   0.514   2.978   8.216  2.0744 -0.3955  0.0541
 8655SOL     OW37597   1.016   3.654   3.221 -0.3357 -0.0669  0.3705
 8655SOL    HW137598   0.975   3.571   3.196  1.7199 -0.1915 -2.5912
 8655SOL    HW237599   1.092   3.624   3.271  0.8030 -0.5331 -1.6457
 8656SOL     OW37600   1.129   0.835   6.922  0.7177  0.2737  1.0139
 8656SOL    HW137601   1.109   0.921   6.885 -0.3333 -0.1040  0.7096
 8656SOL    HW237602   1.208   0.860   6.970  1.0994 -0.0549  0.5530
 8657SOL     OW37603   3.540   4.666   4.651  0.8856 -0.1082  0.1434
 8657SOL    HW137604   3.533   0.018   4.685 -2.9251 -1.7078  3.5677
 8657SOL    HW237605   3.592   4.685   4.572  1.3655 -1.5297  0.1310
 8658SOL     OW37606   0.916   2.367   9.041  0.5226  0.0920 -0.3896
 8658SOL    HW137607   0.854   2.425   9.085  1.4020 -0.4753  1.6512
 8658SOL    HW237608   0.992   2.423   9.028  0.6305 -0.1489 -0.8046
 8659SOL     OW37609   0.771   2.629   4.765  0.0889  0.2569  0.0778
 8659SOL    HW137610   0.823   2.676   4.831  1.4746 -1.8487  0.4949
 8659SOL    HW237611   0.834   2.579   4.713  0.4872  1.4551 -0.6051
 8660SOL     OW37612   2.558   3.178  14.449 -0.3658 -0.1813  0.6359
 8660SOL    HW137613   2.484   3.155  14.505  0.2544 -0.7333  1.2243
 8660SOL    HW237614   2.556   3.273  14.460 -2.4893 -0.2764  1.1643
 8661SOL     OW37615   2.012   0.846   2.074  0.1326  0.3585  0.4828
 8661SOL    HW137616   2.027   0.753   2.060  1.2286  0.6099  0.0039
 8661SOL    HW237617   1.920   0.851   2.048 -0.0680 -5.7724  0.0333
 8662SOL     OW37618   2.399   0.100   4.479  0.6236  0.8858  0.4294
 8662SOL    HW137619   2.453   0.058   4.413 -0.4033 -2.6171  1.8197
 8662SOL    HW237620   2.309   0.077   4.456  0.1497  1.4154  1.7506
 8663SOL     OW37621   1.397   2.969   7.933  0.4902  0.4361  0.1067
 8663SOL    HW137622   1.393   3.044   7.875 -2.8181  0.6336  0.5974
 8663SOL    HW237623   1.345   2.984   8.012  0.7160  1.9110 -0.0328
 8664SOL     OW37624   1.375   0.073   4.227  0.1883  0.5395  0.6901
 8664SOL    HW137625   1.415   0.083   4.313  2.7404 -1.1018 -0.3092
 8664SOL    HW237626   1.367   4.715   4.226 -0.5510  0.6234 -2.1334
 8665SOL     OW37627   3.342   2.088  12.371 -0.3593  0.0856  0.3269
 8665SOL    HW137628   3.290   2.010  12.390 -2.6887  1.3557 -0.8413
 8665SOL    HW237629   3.275   2.138  12.324  1.1346  0.9517 -0.8591
 8666SOL     OW37630   2.477   3.417   5.169  0.2020  0.2499  0.5110
 8666SOL    HW137631   2.478   3.356   5.095  0.2626  1.5542 -0.5673
 8666SOL    HW237632   2.536   3.484   5.136 -0.2338 -0.3159 -1.4540
 8667SOL     OW37633   0.748   1.738   0.877  0.4212 -0.2104 -0.3814
 8667SOL    HW137634   0.832   1.758   0.837 -0.0052  1.7777 -0.3004
 8667SOL    HW237635   0.763   1.790   0.956 -1.6034 -2.3103  1.3905
 8668SOL     OW37636   1.052   4.113   8.045  0.1767  0.1754  0.6688
 8668SOL    HW137637   0.985   4.064   8.093  0.5290 -0.0907  0.8906
 8668SOL    HW237638   0.999   4.163   7.983  3.2474  1.0238 -1.2920
 8669SOL     OW37639   0.318   0.167  13.194  0.5805  0.5026 -0.5193
 8669SOL    HW137640   0.331   0.074  13.214  0.8893  0.4784 -0.8371
 8669SOL    HW237641   0.301   0.208  13.279 -1.7025  1.9995 -1.6848
 8670SOL     OW37642   0.785   0.585  15.665 -0.2132 -0.1899  0.2419
 8670SOL    HW137643   0.735   0.662  15.637  0.7423  0.4867  0.3883
 8670SOL    HW237644   0.777   0.603  15.759  0.3415  1.5828 -0.0450
 8671SOL     OW37645   0.745   0.424   5.225  0.3881 -0.2272 -0.1279
 8671SOL    HW137646   0.737   0.371   5.304  1.6109 -1.4146 -0.8144
 8671SOL    HW237647   0.697   0.375   5.158  0.6587 -0.0563 -0.4498
 8672SOL     OW37648   4.147   3.868   7.801  0.2714  0.4568  0.2250
 8672SOL    HW137649   4.170   3.938   7.741  0.1736 -0.3446 -0.7581
 8672SOL    HW237650   4.099   3.807   7.744 -0.7434 -0.0378  1.6139
 8673SOL     OW37651   2.009   1.672   8.445  0.2699 -0.1413 -0.4157
 8673SOL    HW137652   1.922   1.656   8.481  1.0330  0.4801  1.6988
 8673SOL    HW237653   2.013   1.767   8.452  0.3676 -0.0309 -1.9735
 8674SOL     OW37654   1.807   0.374   9.093 -0.4895 -0.2878  0.6883
 8674SOL    HW137655   1.840   0.401   9.008  0.2259  0.5601  1.2382
 8674SOL    HW237656   1.717   0.347   9.075  0.3199 -0.6012 -2.7332
 8675SOL     OW37657   2.177   0.144   1.856 -0.5112  0.4657 -0.2384
 8675SOL    HW137658   2.224   0.063   1.873 -1.3018  0.0781  0.1339
 8675SOL    HW237659   2.183   0.181   1.945  1.4528  1.2139 -0.6789
 8676SOL     OW37660   2.223   2.789   5.218 -0.1437  0.0812 -0.2372
 8676SOL    HW137661   2.311   2.793   5.180 -0.0885 -0.2581 -0.1485
 8676SOL    HW237662   2.183   2.711   5.179  1.9662  0.7256 -3.6458
 8677SOL     OW37663   0.206   1.972   2.996  0.2644 -0.0301 -0.3263
 8677SOL    HW137664   0.187   1.949   2.905 -0.0794  1.0751 -0.5333
 8677SOL    HW237665   0.276   2.034   2.974  0.5891 -0.0402  0.7019
 8678SOL     OW37666   1.205   2.851   8.849 -0.2824 -0.1411 -0.3100
 8678SOL    HW137667   1.220   2.852   8.943 -2.4178 -1.0297  0.0449
 8678SOL    HW237668   1.254   2.770   8.834 -0.1653  0.0227 -0.8015
 8679SOL     OW37669   1.718   2.996   7.084  0.5035  0.1112 -0.0324
 8679SOL    HW137670   1.782   2.927   7.068 -0.3163 -0.5198 -0.6144
 8679SOL    HW237671   1.702   3.032   6.997  2.8155  0.3379 -0.3579
 8680SOL     OW37672   3.473   2.732  10.978 -0.7868 -0.1721 -0.4813
 8680SOL    HW137673   3.513   2.811  10.943  1.0307 -0.4899  0.8807
 8680SOL    HW237674   3.416   2.701  10.907  1.1271 -1.6918 -1.3671
 8681SOL     OW37675   1.142   2.057   7.925  0.4456 -0.2275  0.3946
 8681SOL    HW137676   1.153   2.030   7.834 -0.1255  1.0833 -0.0633
 8681SOL    HW237677   1.217   2.025   7.975  1.7408  0.4423 -1.1226
 8682SOL     OW37678   0.028   4.027   2.720  0.1206  0.1236 -0.2019
 8682SOL    HW137679   0.103   4.063   2.766  0.6012  0.4865 -1.2524
 8682SOL    HW237680   4.704   4.095   2.745  1.1784  1.2098 -0.5331
 8683SOL     OW37681   3.366   2.040   4.524  0.2595  0.5042  0.4717
 8683SOL    HW137682   3.338   2.074   4.440  0.2663  2.2144  1.1745
 8683SOL    HW237683   3.366   2.126   4.565 -0.2810  1.6609 -2.0021
 8684SOL     OW37684   2.671   2.342  14.106  0.0166 -0.0780  0.8435
 8684SOL    HW137685   2.586   2.311  14.134 -0.7631  1.5207  0.2667
 8684SOL    HW237686   2.659   2.432  14.075  2.0386  0.4388  1.5566
 8685SOL     OW37687   2.562   4.570   4.156 -0.1861  0.4854  0.5791
 8685SOL    HW137688   2.598   4.621   4.083  0.0067 -1.9910 -1.0518
 8685SOL    HW237689   2.489   4.631   4.170 -0.6565 -0.0155  0.3206
 8686SOL     OW37690   0.730   3.432   6.899  0.2384 -0.7798 -0.0301
 8686SOL    HW137691   0.673   3.440   6.976 -0.9711 -1.9282 -0.8015
 8686SOL    HW237692   0.730   3.340   6.872 -0.0686 -0.9519  0.5465
 8687SOL     OW37693   3.333   4.270  12.370  0.2312 -0.4294  0.4411
 8687SOL    HW137694   3.338   4.226  12.455  0.0778 -0.3079  0.5128
 8687SOL    HW237695   3.387   4.205  12.326  1.9151  0.9876  0.3952
 8688SOL     OW37696   1.683   4.695   8.003 -0.3876  0.3055 -0.6200
 8688SOL    HW137697   1.694   4.637   8.079  0.1078  0.5886 -0.4808
 8688SOL    HW237698   1.745   0.023   8.033 -0.1895 -0.2256  0.1410
 8689SOL     OW37699   4.320   0.603   2.452 -0.1226  0.5963 -0.5569
 8689SOL    HW137700   4.248   0.621   2.391 -1.4723  0.6194  1.0270
 8689SOL    HW237701   4.368   0.685   2.443 -1.1751  1.5077  2.1975
 8690SOL     OW37702   0.091   4.528  13.035 -0.3409 -0.5072 -0.3724
 8690SOL    HW137703   0.070   4.459  13.099  0.0588 -0.1666  0.1244
 8690SOL    HW237704   0.032   4.508  12.962 -2.3817 -1.1170  1.4302
 8691SOL     OW37705   0.397   4.693   3.077  0.5302  0.1033 -0.3776
 8691SOL    HW137706   0.446   4.734   3.006 -0.9887 -0.2304 -1.6085
 8691SOL    HW237707   0.425   4.602   3.075  2.9973  0.8668 -1.0858
 8692SOL     OW37708   4.242   1.043   6.844  0.2814 -0.8110  0.1336
 8692SOL    HW137709   4.331   1.018   6.868 -0.3160  0.1236  3.2537
 8692SOL    HW237710   4.199   1.047   6.929  3.3963  0.3700  1.6380
 8693SOL     OW37711   3.670   1.459   3.625  0.1027  0.1649 -0.3045
 8693SOL    HW137712   3.619   1.488   3.700  0.1414  1.5781 -0.8201
 8693SOL    HW237713   3.738   1.403   3.663 -0.3459 -0.0559  0.1657
 8694SOL     OW37714   3.497   0.722   2.606  0.1426 -0.1501  0.3462
 8694SOL    HW137715   3.532   0.742   2.692  1.3334 -0.8898  0.0409
 8694SOL    HW237716   3.467   0.803   2.565 -1.5191 -1.4610 -1.0186
 8695SOL     OW37717   4.256   3.563   8.648  0.0235  0.0594 -0.3930
 8695SOL    HW137718   4.248   3.505   8.573 -0.5264  0.0949 -0.3614
 8695SOL    HW237719   4.349   3.586   8.656  0.0002  0.0490 -0.0972
 8696SOL     OW37720   1.180   3.320   2.004  0.3396  0.0828 -0.3300
 8696SOL    HW137721   1.245   3.278   2.060  1.2889  0.4763 -1.1307
 8696SOL    HW237722   1.101   3.267   2.013  0.9010 -0.1359  3.2385
 8697SOL     OW37723   2.606   4.412  11.550 -0.8484 -0.0794 -0.0660
 8697SOL    HW137724   2.532   4.452  11.596  1.5814  3.9338  0.3283
 8697SOL    HW237725   2.625   4.477  11.482 -0.4690 -2.4035 -2.1864
 8698SOL     OW37726   0.137   4.653   6.349 -0.5605  0.9174  0.1570
 8698SOL    HW137727   0.228   4.653   6.318 -0.2630 -0.2401  1.0292
 8698SOL    HW237728   0.126   4.572   6.397  0.1651  1.8564  1.8879
 8699SOL     OW37729   2.411   0.537  13.903 -0.0261  0.5629  0.0951
 8699SOL    HW137730   2.315   0.538  13.897 -0.0957 -0.8340  1.0166
 8699SOL    HW237731   2.438   0.550  13.994  1.9965  0.4493 -0.5022
 8700SOL     OW37732   3.011   2.846   3.913  0.4049 -0.4416 -0.2405
 8700SOL    HW137733   3.049   2.835   3.826  0.1657  1.1419 -0.5397
 8700SOL    HW237734   3.035   2.765   3.959 -0.7986  0.5988  2.2347
 8701SOL     OW37735   2.536   2.573   9.095  0.1254 -0.0879  0.8479
 8701SOL    HW137736   2.521   2.663   9.125 -0.3772 -0.2080  0.9514
 8701SOL    HW237737   2.448   2.557   9.060  0.2825  1.9173 -0.4575
 8702SOL     OW37738   2.241   0.932  16.855  0.3419  0.0267  0.4145
 8702SOL    HW137739   2.173   0.872  16.886 -0.2919  0.5484  0.0247
 8702SOL    HW237740   2.309   0.869  16.831 -0.1475 -0.9666  1.6381
 8703SOL     OW37741   0.622   2.263   6.889  0.9894 -0.2125 -0.0430
 8703SOL    HW137742   0.600   2.179   6.850 -1.7737 -1.0207  3.2304
 8703SOL    HW237743   0.700   2.278   6.837 -0.6295 -0.4282 -2.5206
 8704SOL     OW37744   3.955   4.673  10.855  0.0922 -0.0771  0.6877
 8704SOL    HW137745   3.973   4.593  10.806 -0.4570  1.2132 -1.6323
 8704SOL    HW237746   3.992   0.002  10.798 -1.1504 -1.9472 -2.3062
 8705SOL     OW37747   3.877   2.979  12.937  0.9578  0.0458  0.4320
 8705SOL    HW137748   3.858   2.909  13.000  0.9424 -0.4978 -0.1801
 8705SOL    HW237749   3.834   2.948  12.857  0.0472  1.9496  0.1926
 8706SOL     OW37750   3.384   2.696  14.925 -0.0859  0.0860  0.4834
 8706SOL    HW137751   3.401   2.787  14.904  0.8155 -0.4200 -1.0010
 8706SOL    HW237752   3.459   2.679  14.982 -0.5162 -1.9443  0.4720
 8707SOL     OW37753   1.010   4.646  14.208 -0.7448  0.1990 -0.1187
 8707SOL    HW137754   1.001   4.564  14.160  2.1803 -0.2819  0.1986
 8707SOL    HW237755   0.968   4.622  14.291 -0.5113 -0.1299 -0.0991
 8708SOL     OW37756   0.386   2.444   4.678  0.4387 -0.1119  0.0601
 8708SOL    HW137757   0.329   2.368   4.679  2.3822 -1.5741 -0.8255
 8708SOL    HW237758   0.325   2.514   4.655  0.4229  0.1376  0.8705
 8709SOL     OW37759   3.369   1.951   7.993 -0.2145  0.3321 -0.0745
 8709SOL    HW137760   3.426   1.977   8.065  2.1120 -1.0996 -1.3974
 8709SOL    HW237761   3.288   1.925   8.037 -1.0066  0.2633 -1.5699
 8710SOL     OW37762   4.176   3.335   7.138 -0.1078  0.2046  0.1328
 8710SOL    HW137763   4.126   3.299   7.065  0.8649  0.3305 -0.6027
 8710SOL    HW237764   4.155   3.278   7.212  1.6033 -1.7415 -0.8701
 8711SOL     OW37765   0.589   2.605   2.844 -0.4379 -0.7418  0.0145
 8711SOL    HW137766   0.595   2.600   2.748  1.1224 -0.5395  0.1078
 8711SOL    HW237767   0.671   2.558   2.856 -0.0653 -0.0017  0.3710
 8712SOL     OW37768   3.655   1.732   8.931  0.1472 -0.1241 -0.0928
 8712SOL    HW137769   3.667   1.798   9.000  1.8137  0.7044 -1.1485
 8712SOL    HW237770   3.749   1.721   8.914 -0.0884 -0.3196 -1.2601
 8713SOL     OW37771   1.136   2.516   9.025 -0.0250 -0.0479 -0.0104
 8713SOL    HW137772   1.202   2.447   9.020 -0.1279 -0.1446 -0.0264
 8713SOL    HW237773   1.163   2.573   8.952  0.6526  1.4738  1.4152
 8714SOL     OW37774   0.644   1.594   4.839  0.0685 -0.2382  0.2817
 8714SOL    HW137775   0.650   1.580   4.934 -2.2165  1.9192  0.7422
 8714SOL    HW237776   0.643   1.689   4.827 -0.4509 -0.5051 -1.7447
 8715SOL     OW37777   1.072   4.025   3.384  0.4385 -0.5541  0.1489
 8715SOL    HW137778   1.134   4.085   3.426 -1.9099  0.9653  1.4622
 8715SOL    HW237779   1.105   3.939   3.410 -0.1098 -0.7107  0.3230
 8716SOL     OW37780   0.919   3.414   4.551 -0.0488  0.1369 -0.4342
 8716SOL    HW137781   0.922   3.433   4.457  0.7492  1.3679 -0.1605
 8716SOL    HW237782   0.960   3.498   4.573 -0.8576  0.1142  1.1849
 8717SOL     OW37783   1.434   2.757   5.097  0.2137  0.0832  0.4548
 8717SOL    HW137784   1.488   2.698   5.149  0.0888 -0.4686 -0.0301
 8717SOL    HW237785   1.359   2.746   5.155  0.2103  1.2016  0.6602
 8718SOL     OW37786   3.131   0.544   1.493 -0.1330 -0.1389 -0.3736
 8718SOL    HW137787   3.087   0.482   1.434 -0.7332 -0.4110  0.3710
 8718SOL    HW237788   3.139   0.622   1.438 -0.7518 -0.5615 -1.0595
 8719SOL     OW37789   4.208   1.090  14.725 -0.1354  0.3825 -0.9077
 8719SOL    HW137790   4.267   1.066  14.653 -0.1739  0.5053 -0.9811
 8719SOL    HW237791   4.152   1.157  14.685 -0.0985  0.8023 -0.2484
 8720SOL     OW37792   2.486   3.789   4.787 -0.4617 -0.3075 -0.0718
 8720SOL    HW137793   2.543   3.847   4.837 -1.1296 -0.6058  1.0477
 8720SOL    HW237794   2.408   3.844   4.777  0.5276  1.6149  2.8251
 8721SOL     OW37795   1.891   0.878  14.327  0.1978  0.4205  0.4002
 8721SOL    HW137796   1.803   0.914  14.319 -0.0246 -0.4760 -1.2103
 8721SOL    HW237797   1.946   0.945  14.285  0.9361 -1.8446 -2.2596
 8722SOL     OW37798   3.027   1.984   6.092  0.0843  0.0204  0.5159
 8722SOL    HW137799   3.079   2.042   6.037  0.0899  0.2066  0.7150
 8722SOL    HW237800   2.940   2.009   6.060 -0.0045 -1.2559 -0.2106
 8723SOL     OW37801   1.524   3.278  14.179 -0.1907  0.2916  0.0250
 8723SOL    HW137802   1.572   3.251  14.101 -0.6596 -0.8715  0.1357
 8723SOL    HW237803   1.464   3.339  14.135  0.8629  0.0973 -1.6810
 8724SOL     OW37804   3.984   2.922   1.740  0.6303 -0.2145  0.3951
 8724SOL    HW137805   3.943   2.974   1.671  1.0498  0.4791  0.6681
 8724SOL    HW237806   4.075   2.951   1.736  0.3989  0.2293 -1.3525
 8725SOL     OW37807   2.858   2.349  14.333  0.1700  0.1957 -0.3366
 8725SOL    HW137808   2.902   2.282  14.281  1.5815  0.6617  0.2469
 8725SOL    HW237809   2.772   2.329  14.297  0.4978  2.0293 -2.1302
 8726SOL     OW37810   1.738   3.358   5.475 -0.0909  0.7758  0.0093
 8726SOL    HW137811   1.773   3.287   5.421 -0.1489  0.7996 -0.0607
 8726SOL    HW237812   1.795   3.346   5.550  0.7936  3.4803 -0.2230
 8727SOL     OW37813   1.823   3.730   8.003 -0.5189  0.1702 -0.0249
 8727SOL    HW137814   1.915   3.710   8.021 -0.1292  0.1194 -2.1602
 8727SOL    HW237815   1.788   3.690   8.083 -0.7675  1.8438  0.7073
 8728SOL     OW37816   4.187   2.066  11.383 -0.5507  0.8111 -0.5991
 8728SOL    HW137817   4.205   2.066  11.289  0.4289 -0.9616 -0.4176
 8728SOL    HW237818   4.092   2.050  11.378 -0.5085  0.2839  0.2311
 8729SOL     OW37819   1.894   0.372   4.957  0.3021  0.6272  0.1780
 8729SOL    HW137820   1.895   0.288   5.002  0.2495  1.1017  1.0674
 8729SOL    HW237821   1.815   0.360   4.903 -0.9379  0.3702  2.0620
 8730SOL     OW37822   1.022   2.616   5.594  0.3472  0.0500  0.0120
 8730SOL    HW137823   0.990   2.636   5.682 -2.0770 -0.1045 -0.8376
 8730SOL    HW237824   1.076   2.537   5.594 -0.1063 -0.2651 -1.0997
 8731SOL     OW37825   2.458   3.140   3.611  0.6529  0.0327 -0.1379
 8731SOL    HW137826   2.455   3.231   3.638  2.8386  0.2598 -0.6736
 8731SOL    HW237827   2.531   3.093   3.652  0.5604  1.7659  1.9923
 8732SOL     OW37828   1.117   1.511   8.132 -0.4302  0.1429  0.3588
 8732SOL    HW137829   1.151   1.542   8.216 -1.1105 -0.2614  0.7930
 8732SOL    HW237830   1.174   1.436   8.119 -0.9461  0.0599 -1.4993
 8733SOL     OW37831   0.466   1.760  15.446 -0.1812 -1.1221 -0.7121
 8733SOL    HW137832   0.468   1.804  15.361  1.0911 -1.1064 -0.6756
 8733SOL    HW237833   0.497   1.673  15.423 -2.2760 -1.8160 -0.9024
 8734SOL     OW37834   0.275   1.477   6.460  0.2104  0.1310 -0.4433
 8734SOL    HW137835   0.294   1.515   6.374 -0.0129 -1.4096 -1.1755
 8734SOL    HW237836   0.295   1.384   6.444 -3.0091 -0.6050 -0.2794
 8735SOL     OW37837   3.376   4.179   2.639  0.2230 -0.4502 -0.2956
 8735SOL    HW137838   3.429   4.249   2.601 -0.7069 -0.0102 -0.7774
 8735SOL    HW237839   3.436   4.151   2.709 -0.6897  0.8820  1.0185
 8736SOL     OW37840   2.050   4.447   9.440  0.3195  0.5935  0.0443
 8736SOL    HW137841   2.050   4.540   9.462 -0.7803 -0.1693  3.1706
 8736SOL    HW237842   2.023   4.466   9.350 -0.6297  1.2941  0.4841
 8737SOL     OW37843   4.326   1.752   5.762 -0.4929 -0.5156  0.1396
 8737SOL    HW137844   4.379   1.686   5.806  0.9274  0.6074  0.1279
 8737SOL    HW237845   4.366   1.746   5.675 -1.0566 -0.6508 -0.1086
 8738SOL     OW37846   4.504   0.829   5.916  0.0853  0.6396  0.4947
 8738SOL    HW137847   4.474   0.918   5.934 -0.3389  1.0713 -2.3554
 8738SOL    HW237848   4.452   0.805   5.839  1.2424 -0.9744  0.2229
 8739SOL     OW37849   0.349   2.315   3.597  0.3743 -0.2436 -0.4090
 8739SOL    HW137850   0.270   2.311   3.543  0.3901 -3.1744 -0.2263
 8739SOL    HW237851   0.416   2.286   3.535  0.1934 -0.7922 -0.3460
 8740SOL     OW37852   1.498   1.198   6.305  0.0986 -0.4426 -0.1314
 8740SOL    HW137853   1.572   1.187   6.246 -2.3067 -0.6921 -3.0922
 8740SOL    HW237854   1.476   1.291   6.304  0.7140 -0.3034 -0.5308
 8741SOL     OW37855   3.646   4.559   8.786 -0.9606  0.2543  0.1609
 8741SOL    HW137856   3.570   4.599   8.744 -2.0857  1.4561  3.3230
 8741SOL    HW237857   3.684   4.642   8.812 -1.4540  0.3758  0.5052
 8742SOL     OW37858   0.436   1.330   1.735  0.1658  0.2851  0.0655
 8742SOL    HW137859   0.452   1.236   1.745  0.6481  0.6132  2.3595
 8742SOL    HW237860   0.370   1.346   1.801 -0.4464  1.8344 -0.9232
 8743SOL     OW37861   4.130   2.537   0.928  0.1837 -0.0834 -0.3374
 8743SOL    HW137862   4.196   2.527   0.996 -0.9917 -0.5815  0.7448
 8743SOL    HW237863   4.186   2.557   0.854  2.0548  2.0697  1.6659
 8744SOL     OW37864   2.668   1.505   0.698 -0.1630 -0.2434  0.3954
 8744SOL    HW137865   2.680   1.598   0.714  1.0373 -0.4626  0.7979
 8744SOL    HW237866   2.618   1.478   0.775  0.9841  1.1616  1.6333
 8745SOL     OW37867   2.185   1.645   3.685 -0.2379  0.2712  0.7553
 8745SOL    HW137868   2.262   1.701   3.695 -0.1437  0.4983 -1.1162
 8745SOL    HW237869   2.144   1.668   3.601  2.2444 -1.9191 -1.0416
 8746SOL     OW37870   4.687   4.302  13.163 -0.2425 -0.2053 -0.0419
 8746SOL    HW137871   4.690   4.241  13.089 -0.2082 -2.3317  1.6993
 8746SOL    HW237872   4.591   4.300  13.164 -0.2862  1.4347 -1.4663
 8747SOL     OW37873   4.401   0.467   1.948  0.2655 -0.5986  0.0279
 8747SOL    HW137874   4.414   0.373   1.961  0.1481 -0.8405 -1.5847
 8747SOL    HW237875   4.363   0.475   1.861 -0.3784 -1.3665  0.2378
 8748SOL     OW37876   1.469   1.929  11.351  0.2837  0.3003 -0.1201
 8748SOL    HW137877   1.542   1.879  11.386  0.2401  0.7112  0.5382
 8748SOL    HW237878   1.393   1.888  11.393  0.7276  0.4803  0.8516
 8749SOL     OW37879   1.632   0.811   0.392  0.1031  0.0293 -0.4727
 8749SOL    HW137880   1.561   0.747   0.406  0.6832 -0.8749 -1.7112
 8749SOL    HW237881   1.699   0.759   0.347 -1.1521 -0.0817 -2.2160
 8750SOL     OW37882   1.069   2.223   4.198  0.3741 -0.4096 -0.0262
 8750SOL    HW137883   1.162   2.200   4.191  0.2131 -1.0063 -0.2444
 8750SOL    HW237884   1.039   2.206   4.287 -0.8730  0.2830 -0.3059
 8751SOL     OW37885   4.515   3.374   0.630  0.5919 -0.0108 -0.3709
 8751SOL    HW137886   4.476   3.442   0.685 -0.8699 -1.2212  0.0881
 8751SOL    HW237887   4.469   3.396   0.549  1.4495  0.9354 -0.6056
 8752SOL     OW37888   3.336   0.939   7.280  0.2551 -0.0983 -0.1761
 8752SOL    HW137889   3.423   0.963   7.247  0.2953 -0.2681 -0.1937
 8752SOL    HW237890   3.360   0.860   7.327  0.1153 -0.2738 -0.4012
 8753SOL     OW37891   4.258   3.129  17.657 -0.3300  0.1896 -0.1481
 8753SOL    HW137892   4.213   3.061  17.707  0.5304 -0.0078  0.3601
 8753SOL    HW237893   4.253   3.195  17.726 -1.2881 -0.1389  0.0941
 8754SOL     OW37894   2.806   2.326   5.093  0.2989 -0.3743 -0.5313
 8754SOL    HW137895   2.834   2.265   5.161 -0.8290 -0.7712 -0.4228
 8754SOL    HW237896   2.896   2.341   5.063  0.4626 -3.0976 -1.4497
 8755SOL     OW37897   1.941   1.831   4.541  0.4792  0.1099  0.0029
 8755SOL    HW137898   2.028   1.802   4.568  1.2623  2.9950  0.5270
 8755SOL    HW237899   1.953   1.792   4.454  1.1566 -1.5592  0.8554
 8756SOL     OW37900   0.662   4.231   2.907 -0.2085  0.1356 -0.5064
 8756SOL    HW137901   0.575   4.256   2.876 -1.0354  1.3534  2.8341
 8756SOL    HW237902   0.638   4.160   2.967 -0.2300  1.0916  0.6176
 8757SOL     OW37903   3.302   2.770  16.442  0.2105  0.3315 -0.4169
 8757SOL    HW137904   3.379   2.783  16.496 -1.8257  0.2607  2.5384
 8757SOL    HW237905   3.309   2.830  16.367 -3.2299 -0.1670 -1.1535
 8758SOL     OW37906   3.227   0.467   6.162 -0.3063 -0.3950 -0.2113
 8758SOL    HW137907   3.186   0.443   6.078  0.0828 -2.3280  0.1449
 8758SOL    HW237908   3.266   0.550   6.133 -0.5685 -0.7024 -1.4626
 8759SOL     OW37909   1.305   2.067  16.670  0.0603  0.2893 -0.1309
 8759SOL    HW137910   1.248   2.003  16.713  0.3377  1.9490  2.7070
 8759SOL    HW237911   1.328   2.111  16.752 -0.9572  1.6824 -0.6014
 8760SOL     OW37912   2.678   1.749   0.796  0.0539 -0.2856 -0.2760
 8760SOL    HW137913   2.685   1.768   0.889  0.7363  1.0688 -0.5975
 8760SOL    HW237914   2.624   1.825   0.773 -1.4544 -0.6833  2.0179
 8761SOL     OW37915   0.084   1.822   3.174 -0.2835 -0.3904  0.3780
 8761SOL    HW137916   0.133   1.877   3.112 -0.6693 -0.4058  0.0553
 8761SOL    HW237917   0.063   1.874   3.252 -2.3142 -3.0785  1.6082
 8762SOL     OW37918   4.108   1.831  12.944  0.1953  0.0678 -0.3293
 8762SOL    HW137919   4.052   1.899  12.907  1.4266  0.1415 -2.0278
 8762SOL    HW237920   4.101   1.771  12.870 -3.5654  1.4766 -1.1404
 8763SOL     OW37921   2.386   2.507   9.818  0.1586 -0.2201  0.0997
 8763SOL    HW137922   2.295   2.485   9.836 -0.7567  1.8698 -2.0439
 8763SOL    HW237923   2.418   2.425   9.856  0.1026  0.8096  2.3594
 8764SOL     OW37924   3.560   3.834   3.215  0.6018 -0.6709 -0.3867
 8764SOL    HW137925   3.613   3.887   3.274  1.4981 -3.2253  1.0831
 8764SOL    HW237926   3.509   3.786   3.280 -1.7383  0.1572 -1.5973
 8765SOL     OW37927   3.254   2.068  14.110  0.1378 -0.1156 -0.5838
 8765SOL    HW137928   3.332   2.123  14.112 -0.3489  0.5686  0.0351
 8765SOL    HW237929   3.224   2.078  14.201 -1.5402 -2.2462 -0.8831
 8766SOL     OW37930   3.779   1.724   7.438  0.0704  0.0525  0.1286
 8766SOL    HW137931   3.750   1.657   7.376 -1.2872  1.0288 -0.2853
 8766SOL    HW237932   3.872   1.725   7.413  0.0448 -1.4856 -0.0759
 8767SOL     OW37933   1.999   3.613  14.478 -0.1444  0.1513  0.0958
 8767SOL    HW137934   2.089   3.598  14.507  0.4012 -2.1360 -2.7908
 8767SOL    HW237935   1.959   3.533  14.512  0.4313  0.2137  0.9186
 8768SOL     OW37936   1.321   1.294   1.253 -0.4154  0.2507  0.3025
 8768SOL    HW137937   1.257   1.224   1.236 -3.5566  3.6321 -1.7887
 8768SOL    HW237938   1.338   1.284   1.347  1.5241 -1.1669 -0.2054
 8769SOL     OW37939   2.028   0.347   0.943 -0.4331 -0.0034 -0.4521
 8769SOL    HW137940   1.971   0.272   0.924  3.0250 -2.3910 -1.5099
 8769SOL    HW237941   2.043   0.391   0.860  2.5145  0.2536  0.2245
 8770SOL     OW37942   3.147   3.617   6.825 -0.3233  0.0251  0.7048
 8770SOL    HW137943   3.160   3.688   6.889 -0.9577  0.8135 -0.0374
 8770SOL    HW237944   3.062   3.586   6.856 -0.3663 -0.6487 -0.1058
 8771SOL     OW37945   3.408   3.540   3.991  0.4004 -0.4073  0.4537
 8771SOL    HW137946   3.387   3.452   4.023 -1.8374  0.7702  2.1473
 8771SOL    HW237947   3.394   3.597   4.066  1.0575  1.6651 -0.9912
 8772SOL     OW37948   1.154   1.958   7.674  0.4952 -0.3472  0.0025
 8772SOL    HW137949   1.155   1.866   7.650 -0.5040 -0.1684 -0.7084
 8772SOL    HW237950   1.104   1.996   7.602  0.3090  0.1482  0.3943
 8773SOL     OW37951   2.754   0.580   7.581  0.1249 -0.0118 -0.3647
 8773SOL    HW137952   2.842   0.547   7.563  0.9148  1.8713  0.0839
 8773SOL    HW237953   2.757   0.575   7.677  0.0505  0.4355 -0.3383
 8774SOL     OW37954   1.094   1.711   9.135  0.2286 -0.6162 -0.0535
 8774SOL    HW137955   1.078   1.785   9.193 -0.6455 -0.2710 -0.7312
 8774SOL    HW237956   1.185   1.688   9.155  0.2950  0.0174  0.3678
 8775SOL     OW37957   3.690   1.912   6.420  0.1242  0.0154  0.1507
 8775SOL    HW137958   3.731   1.877   6.499  1.1782 -1.8346 -1.2021
 8775SOL    HW237959   3.644   1.834   6.390 -1.1163  0.8969 -0.2292
 8776SOL     OW37960   1.879   0.453   7.255 -0.1122 -0.9231 -0.1051
 8776SOL    HW137961   1.923   0.478   7.336  0.3371  3.6565 -1.7762
 8776SOL    HW237962   1.834   0.536   7.240  0.5758 -0.5191  0.0654
 8777SOL     OW37963   3.660   1.306   8.869  0.3011 -0.1043 -0.3515
 8777SOL    HW137964   3.691   1.238   8.929  1.5248  1.7428  1.1018
 8777SOL    HW237965   3.744   1.324   8.826 -0.0065  1.0084 -0.4842
 8778SOL     OW37966   4.174   2.549   2.129  0.0542  0.2210  0.0786
 8778SOL    HW137967   4.241   2.590   2.074 -1.3745  3.5992  0.8467
 8778SOL    HW237968   4.143   2.480   2.070 -0.6984 -0.8996  1.7857
 8779SOL     OW37969   2.139   1.640   9.972  0.3173  0.1920  0.0345
 8779SOL    HW137970   2.134   1.550   9.940  1.9978  0.2657 -0.4014
 8779SOL    HW237971   2.178   1.615  10.056 -1.4792 -0.5999  0.6374
 8780SOL     OW37972   3.298   1.257   9.350  0.1782  0.0273 -0.2799
 8780SOL    HW137973   3.328   1.237   9.261  0.3850 -0.5593 -0.0746
 8780SOL    HW237974   3.207   1.285   9.333 -0.6408 -1.6833  1.3529
 8781SOL     OW37975   1.475   2.614   4.768  0.6872  0.9053 -0.3736
 8781SOL    HW137976   1.565   2.590   4.747  0.6520  1.1598 -0.8076
 8781SOL    HW237977   1.479   2.693   4.822  2.1879  0.0363  0.7978
 8782SOL     OW37978   4.278   0.626   8.970  1.0120  0.0317 -0.1208
 8782SOL    HW137979   4.274   0.610   8.876  0.0128  3.1202 -0.6003
 8782SOL    HW237980   4.228   0.550   9.001 -0.2284  0.7062 -0.4726
 8783SOL     OW37981   1.182   1.992   1.893  0.2949  0.1779  0.1757
 8783SOL    HW137982   1.190   2.065   1.955  0.2308 -0.4749  0.9610
 8783SOL    HW237983   1.268   1.951   1.908  0.9498  1.6144  0.3431
 8784SOL     OW37984   3.649   0.523   2.099 -0.4231  0.2796 -0.2276
 8784SOL    HW137985   3.580   0.465   2.067  1.0277 -2.5493  1.8840
 8784SOL    HW237986   3.712   0.488   2.036 -1.7518 -1.2722 -0.6932
 8785SOL     OW37987   2.900   1.375  15.716 -0.2612  1.2006 -0.1225
 8785SOL    HW137988   2.896   1.459  15.670  0.8562  1.9372  1.1210
 8785SOL    HW237989   2.818   1.371  15.766  0.5754  0.2395  1.1583
 8786SOL     OW37990   2.888   4.361  14.906  0.1540 -0.5520  0.4498
 8786SOL    HW137991   2.904   4.269  14.884  0.9446  0.1209 -1.8185
 8786SOL    HW237992   2.811   4.348  14.961  0.8338  1.8270  1.9562
 8787SOL     OW37993   2.233   4.337   1.170  0.8966 -0.4088  0.1496
 8787SOL    HW137994   2.261   4.282   1.243  5.0700  1.1279 -0.2905
 8787SOL    HW237995   2.172   4.396   1.214  0.9570  0.8904 -1.5254
 8788SOL     OW37996   3.187   4.469   5.099  0.2611 -0.5021  0.1820
 8788SOL    HW137997   3.264   4.488   5.045  0.2735  0.2278  0.4599
 8788SOL    HW237998   3.120   4.466   5.032  0.1834  1.4838  0.1707
 8789SOL     OW37999   4.255   0.265   9.869  0.5130 -0.1041  0.0586
 8789SOL    HW138000   4.240   0.247   9.776 -1.9972 -0.4578  0.5347
 8789SOL    HW238001   4.165   0.273   9.903  0.2485 -1.2525 -0.3894
 8790SOL     OW38002   1.664   1.640   2.497  0.3728  0.1390  0.3739
 8790SOL    HW138003   1.596   1.602   2.442  0.3398  3.3045 -1.8273
 8790SOL    HW238004   1.691   1.714   2.442  1.8663  0.3039  1.3099
 8791SOL     OW38005   0.152   3.153  14.151 -0.4465 -0.4214  0.1447
 8791SOL    HW138006   0.146   3.069  14.106  1.6657 -0.5192  0.0168
 8791SOL    HW238007   0.161   3.112  14.237 -1.4594  0.0458  0.4687
 8792SOL     OW38008   4.374   4.626   2.654  0.0749 -0.4005 -0.0082
 8792SOL    HW138009   4.404   4.691   2.718 -1.3735  0.6959 -0.4270
 8792SOL    HW238010   4.431   4.553   2.679 -1.3733 -1.2906  0.6849
 8793SOL     OW38011   0.295   4.676   4.647 -0.3359 -0.1752 -0.5919
 8793SOL    HW138012   0.347   0.018   4.638 -0.4630 -0.1593 -1.1414
 8793SOL    HW238013   0.223   4.692   4.587 -0.9149 -2.8667 -0.6242
 8794SOL     OW38014   3.165   4.212   4.801 -0.2448  0.5090  0.0318
 8794SOL    HW138015   3.101   4.162   4.853 -1.0845  0.4366 -1.0774
 8794SOL    HW238016   3.220   4.229   4.877 -1.3515  0.8584  0.7622
 8795SOL     OW38017   1.947   3.450   6.266 -0.1930 -0.0462  0.2044
 8795SOL    HW138018   1.946   3.494   6.181  0.0022  2.0093  1.2653
 8795SOL    HW238019   1.875   3.387   6.259 -0.1713 -0.0630  0.1298
 8796SOL     OW38020   1.984   0.509  14.557 -0.2352  0.2813  0.6205
 8796SOL    HW138021   2.041   0.568  14.509 -1.0348 -0.2877 -1.0188
 8796SOL    HW238022   1.893   0.534  14.541 -0.4633 -0.8642  0.1248
 8797SOL     OW38023   3.387   4.269   0.175 -0.1196 -0.1354  1.2056
 8797SOL    HW138024   3.316   4.306   0.122  0.3555 -0.9384  0.0195
 8797SOL    HW238025   3.415   4.191   0.128 -3.9223  0.7842 -2.5403
 8798SOL     OW38026   2.101   1.149  13.364  0.5346  0.1381 -0.0631
 8798SOL    HW138027   2.095   1.064  13.407  1.0095  1.1429  1.9774
 8798SOL    HW238028   2.066   1.212  13.427  1.6618  0.0584  0.6475
 8799SOL     OW38029   1.057   0.146   5.500 -0.2804 -0.2491 -0.2546
 8799SOL    HW138030   1.014   0.231   5.490  0.0741 -0.1238 -0.6838
 8799SOL    HW238031   1.025   0.120   5.587 -0.8456 -1.5516 -0.8608
 8800SOL     OW38032   4.461   2.728   4.478 -0.5474 -0.2631 -0.3747
 8800SOL    HW138033   4.547   2.746   4.442 -1.5407  3.7260 -0.7085
 8800SOL    HW238034   4.437   2.817   4.503  3.7166  0.5757  0.5397
 8801SOL     OW38035   4.448   0.249  10.066 -0.2487 -0.5936  0.0473
 8801SOL    HW138036   4.433   0.337  10.100 -0.1816 -0.1217 -1.1318
 8801SOL    HW238037   4.381   0.255   9.997  1.3395 -0.3010 -1.4814
 8802SOL     OW38038   3.197   0.857   4.838  0.2117 -0.6197  0.1376
 8802SOL    HW138039   3.228   0.823   4.754  0.9679  0.8508 -0.1610
 8802SOL    HW238040   3.116   0.806   4.846 -0.3887  0.7071  2.4372
 8803SOL     OW38041   1.216   3.955   1.905 -0.0596  0.0752  0.4411
 8803SOL    HW138042   1.281   3.951   1.835 -1.1243  0.9599 -0.6057
 8803SOL    HW238043   1.143   3.998   1.861  0.3777  0.7563  0.3830
 8804SOL     OW38044   0.562   2.544   9.768 -0.1421 -0.2862  0.1221
 8804SOL    HW138045   0.590   2.455   9.748 -2.2359 -0.8956 -0.0803
 8804SOL    HW238046   0.519   2.573   9.687 -1.1573  1.0071  1.1383
 8805SOL     OW38047   3.095   3.530   8.132 -0.0696  0.2752  0.0300
 8805SOL    HW138048   3.033   3.507   8.201 -0.0057  1.2621  0.4100
 8805SOL    HW238049   3.134   3.611   8.167  0.7155 -1.5405  3.3647
 8806SOL     OW38050   2.617   0.475   2.602 -0.5134  0.8790 -0.3538
 8806SOL    HW138051   2.552   0.420   2.560  1.4344 -1.0773 -0.7687
 8806SOL    HW238052   2.697   0.451   2.555 -0.3013 -0.4033  0.6716
 8807SOL     OW38053   1.630   1.489  13.813  0.0628 -0.6412 -0.0648
 8807SOL    HW138054   1.660   1.413  13.762  0.9230 -0.3310 -0.0334
 8807SOL    HW238055   1.682   1.560  13.775  0.0544 -1.4790 -1.6840
 8808SOL     OW38056   1.126   0.168   1.767 -0.3371  0.5205  0.1963
 8808SOL    HW138057   1.063   0.130   1.706 -0.3845 -0.8836  1.1190
 8808SOL    HW238058   1.074   0.204   1.839  1.1682 -0.7080  1.8851
 8809SOL     OW38059   1.219   1.341   2.957 -0.2309 -0.4475 -0.1042
 8809SOL    HW138060   1.129   1.338   2.991  0.6888 -2.2199  2.2024
 8809SOL    HW238061   1.266   1.378   3.033  0.2946 -1.0580 -0.1321
 8810SOL     OW38062   3.534   3.400   9.198 -0.4255 -0.1404  0.3042
 8810SOL    HW138063   3.622   3.389   9.160 -0.0109 -0.7353  1.4320
 8810SOL    HW238064   3.532   3.493   9.175  1.4752  0.0414  0.8161
 8811SOL     OW38065   4.052   1.050   4.114 -0.3995 -0.1789 -0.2413
 8811SOL    HW138066   4.043   1.128   4.059 -0.1495 -0.8040 -1.1752
 8811SOL    HW238067   4.078   1.099   4.192  0.1564  1.8435 -1.6822
 8812SOL     OW38068   4.646   4.727  15.061  0.1643  0.4973  0.2076
 8812SOL    HW138069   4.664   4.642  15.021 -1.2171 -0.4985  1.7074
 8812SOL    HW238070   4.570   4.726  15.119  0.1691 -0.1504  0.2029
 8813SOL     OW38071   4.643   1.032  17.011 -0.5476 -0.2640 -0.2375
 8813SOL    HW138072   4.628   1.115  16.965  0.2838  0.1436  0.2220
 8813SOL    HW238073   4.584   0.963  16.980 -0.0498 -0.7699 -0.0629
 8814SOL     OW38074   2.459   1.103   2.928  0.1686 -0.2761  0.0985
 8814SOL    HW138075   2.493   1.192   2.938  0.5200 -0.5859  1.7298
 8814SOL    HW238076   2.528   1.063   2.981 -2.6092 -0.9948  3.2157
 8815SOL     OW38077   4.644   0.961   6.762  0.0945  0.1149 -0.0428
 8815SOL    HW138078   4.701   1.006   6.700 -1.3114  0.8530 -0.7751
 8815SOL    HW238079   4.635   1.030   6.827 -2.6614 -1.6274  1.4054
 8816SOL     OW38080   1.464   4.422   8.411  0.1035  1.0797 -0.9063
 8816SOL    HW138081   1.382   4.469   8.395  0.2385  1.9685  1.0339
 8816SOL    HW238082   1.483   4.372   8.331 -2.1191 -0.3537 -0.5181
 8817SOL     OW38083   2.030   3.294   9.395  0.0041 -0.3496 -0.1394
 8817SOL    HW138084   1.975   3.236   9.448  1.8898 -0.3243  1.8711
 8817SOL    HW238085   2.106   3.236   9.385  0.1321 -0.5032  1.5938
 8818SOL     OW38086   0.731   1.820   5.380 -0.2270  0.6592  0.0092
 8818SOL    HW138087   0.743   1.913   5.358 -0.7920  0.4330 -1.2657
 8818SOL    HW238088   0.638   1.814   5.359  0.1014 -2.5260 -0.4556
 8819SOL     OW38089   2.521   2.847   9.170  0.2067  0.8082 -0.5900
 8819SOL    HW138090   2.444   2.904   9.164 -0.0632  0.6026  0.9316
 8819SOL    HW238091   2.573   2.895   9.105 -0.9139  1.9545 -0.6407
 8820SOL     OW38092   2.023   1.025   0.338 -0.0347  0.5269 -0.0678
 8820SOL    HW138093   2.065   1.105   0.305  2.7012 -0.8962 -0.0797
 8820SOL    HW238094   1.943   1.067   0.370  0.6431  2.7475 -1.2671
 8821SOL     OW38095   1.835   2.321   1.930  0.0813  0.1160  0.2924
 8821SOL    HW138096   1.793   2.235   1.925 -0.4949  0.2760  2.6230
 8821SOL    HW238097   1.918   2.303   1.885 -1.4454 -0.2573 -2.4053
 8822SOL     OW38098   2.865   0.641  10.743  0.0551 -0.1271 -0.6690
 8822SOL    HW138099   2.924   0.678  10.678  0.9714 -2.5430 -1.2302
 8822SOL    HW238100   2.923   0.661  10.816  0.7811 -0.6371 -1.1052
 8823SOL     OW38101   1.128   0.973   8.111 -0.0450  0.2599 -0.0309
 8823SOL    HW138102   1.082   0.934   8.186 -0.4099  1.5953  0.4280
 8823SOL    HW238103   1.213   0.932   8.128  0.6180  0.1045 -3.7061
 8824SOL     OW38104   2.258   2.957   5.476 -0.7978  0.6035  0.2919
 8824SOL    HW138105   2.295   3.040   5.446  1.8421 -1.0464 -1.0392
 8824SOL    HW238106   2.228   2.926   5.391 -2.5429  2.2485  0.3038
 8825SOL     OW38107   4.134   3.885   5.140 -0.4460  0.0541  0.5663
 8825SOL    HW138108   4.118   3.852   5.052  1.2508 -1.6993  0.9024
 8825SOL    HW238109   4.051   3.929   5.158 -1.3731  0.0128 -3.7544
 8826SOL     OW38110   4.145   4.464   8.105 -0.6053 -0.2732 -0.8884
 8826SOL    HW138111   4.136   4.466   8.201  0.0223  2.5679 -0.8870
 8826SOL    HW238112   4.066   4.416   8.080 -1.4096  0.7002 -0.1939
 8827SOL     OW38113   0.467   1.855   5.294  0.1014 -0.2810 -0.1876
 8827SOL    HW138114   0.458   1.793   5.222 -1.1454  1.0619 -1.1926
 8827SOL    HW238115   0.464   1.938   5.247  0.1973 -2.0454 -3.2583
 8828SOL     OW38116   1.191   1.205   5.249 -0.3784 -0.0994  0.4473
 8828SOL    HW138117   1.236   1.273   5.199 -0.0977  0.2784  1.2024
 8828SOL    HW238118   1.133   1.155   5.191  1.5173 -0.7428 -0.8988
 8829SOL     OW38119   3.992   1.442  14.285 -0.1125 -0.6485 -0.0814
 8829SOL    HW138120   3.903   1.443  14.321  1.3231  1.8335  3.3780
 8829SOL    HW238121   3.957   1.424  14.198 -0.9032 -0.0306  0.1031
 8830SOL     OW38122   1.300   0.849   8.425 -0.6936  0.0923 -0.1784
 8830SOL    HW138123   1.350   0.855   8.506  1.9290 -0.8344 -1.7511
 8830SOL    HW238124   1.215   0.823   8.461  0.4741 -2.7533  0.5240
 8831SOL     OW38125   0.218   3.426   4.862  0.2296  0.1956 -0.5253
 8831SOL    HW138126   0.287   3.409   4.798 -0.7883 -0.7383 -1.3781
 8831SOL    HW238127   0.264   3.445   4.943  0.5387  0.3842 -0.7439
 8832SOL     OW38128   2.795   0.930   9.271 -0.0986 -0.2743  0.0798
 8832SOL    HW138129   2.701   0.923   9.290 -0.1607 -0.2467 -0.2213
 8832SOL    HW238130   2.831   0.872   9.338  1.1307  0.5237  0.1013
 8833SOL     OW38131   1.744   4.597   3.321  0.3503  0.2458  0.3971
 8833SOL    HW138132   1.702   4.683   3.312 -0.4835 -0.2121 -0.1621
 8833SOL    HW238133   1.694   4.550   3.254  0.5599 -1.4463  1.4349
 8834SOL     OW38134   0.402   4.024   2.128  0.0154  0.3151  0.2270
 8834SOL    HW138135   0.450   4.010   2.047 -0.0349 -3.3009  0.8324
 8834SOL    HW238136   0.318   3.988   2.099  1.5987 -3.3393  0.2520
 8835SOL     OW38137   0.371   4.372  11.100 -0.0682 -0.3376 -0.0434
 8835SOL    HW138138   0.307   4.441  11.115  0.1016 -0.0586 -0.6164
 8835SOL    HW238139   0.312   4.303  11.071 -1.0347  1.0834 -1.4063
 8836SOL     OW38140   0.101   1.528  15.847  0.0921  0.1296 -0.4734
 8836SOL    HW138141   0.191   1.530  15.815  0.3063  0.8129  0.1537
 8836SOL    HW238142   0.089   1.441  15.810  0.0260  0.1286 -0.4496
 8837SOL     OW38143   2.997   3.409   5.620  0.2538 -0.4138 -0.2776
 8837SOL    HW138144   3.045   3.338   5.663  2.3780  1.0662 -0.1929
 8837SOL    HW238145   2.974   3.469   5.690  0.8432 -0.3782 -0.1094
 8838SOL     OW38146   0.395   3.465   9.973 -0.3403 -0.3271  0.4002
 8838SOL    HW138147   0.337   3.436   9.903 -0.1791 -0.3549  0.2767
 8838SOL    HW238148   0.404   3.387  10.028 -1.3144 -0.6787  0.0487
 8839SOL     OW38149   1.209   0.317  13.987  0.2432 -0.1593  0.4010
 8839SOL    HW138150   1.160   0.360  14.056 -1.5925 -0.0708 -0.9655
 8839SOL    HW238151   1.174   0.230  14.005  0.1088 -0.3500 -0.7854
 8840SOL     OW38152   0.189   3.641   8.020  0.2282 -0.3415 -0.4937
 8840SOL    HW138153   0.105   3.685   8.008 -0.6346 -1.5614  1.0372
 8840SOL    HW238154   0.229   3.640   7.933 -0.4637  0.7672 -0.8213
 8841SOL     OW38155   4.643   2.426  14.602 -0.1693  0.4738  0.6072
 8841SOL    HW138156   4.717   2.367  14.614  0.7427  1.1737 -1.5561
 8841SOL    HW238157   4.570   2.378  14.642 -0.5925  0.3229 -0.3336
 8842SOL     OW38158   0.070   3.810   3.530 -0.0277 -0.4733  0.0863
 8842SOL    HW138159   0.104   3.799   3.441  0.7294  1.0778  0.2014
 8842SOL    HW238160   0.118   3.889   3.551 -0.4656  0.4264 -2.2541
 8843SOL     OW38161   2.327   2.534  17.749  0.4091 -0.1871  0.4334
 8843SOL    HW138162   2.337   2.462   0.062  0.2800 -0.4639  0.1373
 8843SOL    HW238163   2.420   2.555  17.743  0.2939 -0.2263 -1.6670
 8844SOL     OW38164   1.283   0.775   4.527  0.0047 -0.0113 -0.2888
 8844SOL    HW138165   1.322   0.750   4.444  1.0892  1.7377 -0.3145
 8844SOL    HW238166   1.293   0.870   4.524  0.6303  0.0009  2.1555
 8845SOL     OW38167   0.815   3.865   3.006  0.2639  1.0819 -0.0013
 8845SOL    HW138168   0.780   3.892   3.091 -2.1436 -1.0039 -0.3333
 8845SOL    HW238169   0.909   3.858   3.025 -0.0141  1.3208  1.5157
 8846SOL     OW38170   0.124   3.014  17.097  0.1096  0.1071  0.3712
 8846SOL    HW138171   0.193   2.974  17.150  0.7151 -0.2937 -0.6934
 8846SOL    HW238172   0.065   3.023  17.172 -0.5453  1.6298 -0.3251
 8847SOL     OW38173   0.192   2.866   1.747 -0.4239 -0.1298  0.2807
 8847SOL    HW138174   0.257   2.882   1.814  0.6278  2.0781 -1.2633
 8847SOL    HW238175   0.160   2.777   1.766 -0.1176 -0.1343  0.7681
 8848SOL     OW38176   4.611   1.869  13.492 -0.1103  0.2057  0.3670
 8848SOL    HW138177   4.567   1.918  13.561  1.4361  0.9897  0.7820
 8848SOL    HW238178   4.655   1.946  13.458  1.6171 -0.3684  1.3042
 8849SOL     OW38179   0.328   3.403   9.725 -0.3395 -0.3380  0.1845
 8849SOL    HW138180   0.309   3.317   9.688  0.3462 -0.7641  0.8389
 8849SOL    HW238181   0.417   3.415   9.694  0.2078 -1.9168  1.1768
 8850SOL     OW38182   1.312   1.282   7.796  0.0956 -0.6304 -0.5842
 8850SOL    HW138183   1.372   1.353   7.818 -1.5090  0.6189 -0.3024
 8850SOL    HW238184   1.363   1.207   7.766 -1.9217 -2.9609  1.7964
 8851SOL     OW38185   1.418   4.384  12.451  0.7505 -0.6564 -0.8189
 8851SOL    HW138186   1.331   4.345  12.457  0.5791 -0.4440 -1.7925
 8851SOL    HW238187   1.447   4.385  12.542  1.9535 -1.2490 -1.1962
 8852SOL     OW38188   3.570   1.237   7.185  0.1244  0.1050 -0.0435
 8852SOL    HW138189   3.563   1.199   7.097 -1.1123  1.9587 -0.7295
 8852SOL    HW238190   3.600   1.325   7.167  1.7915 -0.4804 -0.1129
 8853SOL     OW38191   1.313   0.652  16.437  0.3202  0.1862 -0.1013
 8853SOL    HW138192   1.311   0.748  16.427 -4.5428  0.1019  0.0788
 8853SOL    HW238193   1.322   0.622  16.347 -1.1332 -1.0248  0.1545
 8854SOL     OW38194   1.220   2.164   2.898 -0.5068  0.0047  0.0845
 8854SOL    HW138195   1.165   2.125   2.829  0.7313 -1.6976  0.0413
 8854SOL    HW238196   1.299   2.179   2.845 -0.4217  1.1384  0.5408
 8855SOL     OW38197   2.961   4.175  16.074 -0.6441  0.1378 -0.2807
 8855SOL    HW138198   3.026   4.108  16.096  0.1888  1.2555  0.6810
 8855SOL    HW238199   2.886   4.126  16.041  0.0671 -0.2632 -1.3123
 8856SOL     OW38200   4.428   0.022   7.578 -0.1507 -0.1147 -0.0701
 8856SOL    HW138201   4.415   4.666   7.597  1.0292 -0.2793 -0.1095
 8856SOL    HW238202   4.339   0.050   7.558  0.5115  1.3869 -0.8650
 8857SOL     OW38203   4.605   2.005   5.705 -0.0576 -0.0219  0.1837
 8857SOL    HW138204   4.609   1.963   5.790  1.4659  0.8306  0.5313
 8857SOL    HW238205   4.585   1.927   5.653  1.2779  0.2447 -0.7510
 8858SOL     OW38206   1.910   3.229   3.846 -0.2713  0.6330  0.5721
 8858SOL    HW138207   2.002   3.225   3.818 -0.2807 -0.9517  0.7675
 8858SOL    HW238208   1.891   3.323   3.854  0.5073  0.8944 -0.5897
 8859SOL     OW38209   1.832   3.495   3.948  0.4386  0.6117  0.3107
 8859SOL    HW138210   1.787   3.522   4.028  1.5396  1.2034  0.7248
 8859SOL    HW238211   1.820   3.569   3.889 -0.8092  0.6082  0.5502
 8860SOL     OW38212   1.469   4.304   5.477 -0.7545 -1.0118  0.2621
 8860SOL    HW138213   1.401   4.349   5.528 -0.6242 -1.8464  1.1782
 8860SOL    HW238214   1.429   4.291   5.391 -0.8177  3.2461 -0.3339
 8861SOL     OW38215   1.059   1.383  11.711  0.2935 -0.2724 -0.4401
 8861SOL    HW138216   1.151   1.382  11.739  0.0611  0.3251  0.3748
 8861SOL    HW238217   1.015   1.340  11.784  1.4942  1.6120  1.4199
 8862SOL     OW38218   1.887   0.971   7.359  0.1289 -0.2007  0.7249
 8862SOL    HW138219   1.961   0.916   7.387  1.7277  1.8738  0.5494
 8862SOL    HW238220   1.905   0.984   7.266  0.5473  0.9839  0.9782
 8863SOL     OW38221   2.104   2.913   4.402 -0.4282 -0.2014  0.0441
 8863SOL    HW138222   2.027   2.898   4.348 -1.7678  2.0076  1.3578
 8863SOL    HW238223   2.086   3.006   4.408 -0.5340 -0.3575  2.2623
 8864SOL     OW38224   3.425   4.334   8.211 -0.5023 -0.2150  0.1645
 8864SOL    HW138225   3.478   4.400   8.168 -1.7411  0.5781 -0.1380
 8864SOL    HW238226   3.485   4.260   8.212 -0.8892 -0.5259  0.6167
 8865SOL     OW38227   2.408   2.238   2.658  0.2334 -0.1692 -0.0202
 8865SOL    HW138228   2.433   2.328   2.639  2.4043 -1.0790 -1.5133
 8865SOL    HW238229   2.320   2.261   2.689  0.7173  1.8413 -0.1285
 8866SOL     OW38230   1.459   1.807  16.904 -0.5350  1.1271 -0.5196
 8866SOL    HW138231   1.528   1.851  16.853  1.0083 -2.4703 -1.5805
 8866SOL    HW238232   1.378   1.839  16.865 -0.0715  0.5181 -2.0180
 8867SOL     OW38233   3.274   1.982   2.922 -0.2451 -0.5709 -0.2598
 8867SOL    HW138234   3.254   1.924   2.996  0.6165  0.2192  0.5816
 8867SOL    HW238235   3.273   1.919   2.849  1.6869 -0.6665 -0.1924
 8868SOL     OW38236   0.156   3.021   7.866 -0.1336  0.8265  0.0386
 8868SOL    HW138237   0.061   3.029   7.863 -0.0772  1.5956  0.2611
 8868SOL    HW238238   0.175   2.958   7.797  0.2303 -0.3162  1.1815
 8869SOL     OW38239   1.261   2.558   8.170 -0.1960  0.3010 -0.3241
 8869SOL    HW138240   1.287   2.572   8.261  1.8884 -3.1118 -0.3951
 8869SOL    HW238241   1.336   2.508   8.140  1.5335  2.3759  0.5440
 8870SOL     OW38242   4.471   3.587   4.730 -0.3592  0.0785  0.2589
 8870SOL    HW138243   4.547   3.535   4.757 -0.0924 -0.3490 -1.3604
 8870SOL    HW238244   4.446   3.611   4.820 -1.0129 -0.2491  0.1636
 8871SOL     OW38245   0.539   3.419   9.546 -0.3204 -0.3067 -0.1123
 8871SOL    HW138246   0.596   3.495   9.537 -0.3675 -0.3666 -0.8813
 8871SOL    HW238247   0.508   3.402   9.458 -1.7442  1.8399 -0.0246
 8872SOL     OW38248   2.282   1.271  12.692 -0.5227 -0.3629 -0.0324
 8872SOL    HW138249   2.330   1.256  12.774 -0.3759  0.9445  0.1196
 8872SOL    HW238250   2.221   1.198  12.695 -1.2826  0.3810  2.4249
 8873SOL     OW38251   4.034   0.810   5.058 -0.0603  0.3479 -0.1318
 8873SOL    HW138252   3.981   0.846   4.987 -2.4262 -0.1257  1.3840
 8873SOL    HW238253   4.007   0.719   5.066 -0.3009  0.3894 -0.5101
 8874SOL     OW38254   3.358   2.021   6.154  0.6005 -0.6171  0.1768
 8874SOL    HW138255   3.300   2.014   6.077 -0.3564  2.1568  0.6566
 8874SOL    HW238256   3.332   1.945   6.205 -0.7013  1.6077  2.8204
 8875SOL     OW38257   3.180   3.613  11.396 -0.5738 -0.4646 -0.0778
 8875SOL    HW138258   3.151   3.704  11.397 -0.9471 -0.5897  0.8487
 8875SOL    HW238259   3.180   3.601  11.491  0.7252 -0.5055 -0.0931
 8876SOL     OW38260   0.912   4.267   4.648  0.1048 -0.3709  0.1963
 8876SOL    HW138261   0.858   4.217   4.710 -0.3110 -1.3471 -0.9609
 8876SOL    HW238262   0.955   4.192   4.608  1.5392  0.1978  0.6749
 8877SOL     OW38263   3.092   0.020   5.831  0.0932 -0.0781 -0.3228
 8877SOL    HW138264   3.123   0.106   5.804  0.8126  0.0166  0.7915
 8877SOL    HW238265   2.999   0.041   5.842  0.3423  1.3447 -1.0192
 8878SOL     OW38266   2.638   3.482   6.052  0.2988 -0.3170  0.0558
 8878SOL    HW138267   2.662   3.569   6.023  1.3205 -0.8916 -0.8241
 8878SOL    HW238268   2.717   3.441   6.087 -0.3540 -1.3621  0.3035
 8879SOL     OW38269   1.946   1.297  13.513  0.1960  0.0364 -0.3205
 8879SOL    HW138270   1.924   1.390  13.502  0.1365  0.2777  1.8019
 8879SOL    HW238271   1.873   1.277  13.455 -0.0461 -0.2552  0.0838
 8880SOL     OW38272   0.922   2.832   3.770 -0.0756 -0.1852  0.6097
 8880SOL    HW138273   0.997   2.873   3.727 -0.2537  0.6664  1.1191
 8880SOL    HW238274   0.914   2.894   3.842 -0.0262  0.7331 -0.1770
 8881SOL     OW38275   4.200   4.734   5.456 -0.4717  0.4075 -0.3718
 8881SOL    HW138276   4.228   4.643   5.455  0.8927  0.8121  0.7779
 8881SOL    HW238277   4.130   4.720   5.520  1.1231  0.8694  1.4761
 8882SOL     OW38278   4.160   2.826  15.104  0.4225  0.5072  0.3587
 8882SOL    HW138279   4.242   2.866  15.075 -0.7933  4.0873  1.9052
 8882SOL    HW238280   4.127   2.810  15.015  0.6242  2.9952 -0.1401
 8883SOL     OW38281   2.406   2.530  16.783 -0.1187  0.5971  0.4473
 8883SOL    HW138282   2.434   2.616  16.752  0.0076 -0.1135 -1.3927
 8883SOL    HW238283   2.376   2.485  16.704  2.2429 -1.5752  0.7856
 8884SOL     OW38284   0.979   0.602   1.936 -0.1416  0.0661 -0.7684
 8884SOL    HW138285   0.962   0.527   1.992 -0.9680  0.7762 -0.0513
 8884SOL    HW238286   1.009   0.568   1.852  3.3622 -0.1508  0.5955
 8885SOL     OW38287   2.786   1.206  12.772  0.1853  0.1334  0.0177
 8885SOL    HW138288   2.769   1.252  12.854 -3.0461  0.2621 -0.7088
 8885SOL    HW238289   2.758   1.116  12.787  1.3807 -0.3843 -0.8767
 8886SOL     OW38290   2.703   1.822   8.727  0.3366 -0.1579 -0.0704
 8886SOL    HW138291   2.667   1.860   8.807 -1.3922  0.0453 -0.9304
 8886SOL    HW238292   2.709   1.728   8.744 -1.3384  0.2471  2.7695
 8887SOL     OW38293   4.406   0.246  16.190  0.3273 -1.1921 -0.4880
 8887SOL    HW138294   4.378   0.307  16.258 -0.0083 -0.1429 -1.5556
 8887SOL    HW238295   4.375   0.288  16.110 -3.7348 -1.0307  1.1813
 8888SOL     OW38296   3.193   1.580   4.228  0.4632 -0.7381 -0.1902
 8888SOL    HW138297   3.275   1.530   4.236  0.8688  0.2212  1.7002
 8888SOL    HW238298   3.163   1.568   4.138  2.3218  0.5870 -0.9780
 8889SOL     OW38299   3.133   3.217   9.969  0.9079  0.3051 -0.0204
 8889SOL    HW138300   3.174   3.274   9.905  0.4380  1.3001  0.5710
 8889SOL    HW238301   3.199   3.148   9.968  0.7714  0.1610  0.5982
 8890SOL     OW38302   2.716   0.719   4.814  0.0344  0.0263 -0.2317
 8890SOL    HW138303   2.646   0.777   4.843 -0.2655  1.0123 -2.9222
 8890SOL    HW238304   2.708   0.644   4.872 -2.2226 -0.5220 -1.2691
 8891SOL     OW38305   3.113   0.602   1.930 -0.6667 -0.0868 -0.2905
 8891SOL    HW138306   3.208   0.608   1.938 -0.5898  0.0480 -1.2919
 8891SOL    HW238307   3.081   0.662   1.997 -0.2509  0.3628 -0.4928
 8892SOL     OW38308   4.144   4.472   8.403 -1.0599 -0.1329  0.4338
 8892SOL    HW138309   4.216   4.507   8.455  0.0013 -0.8323 -0.5613
 8892SOL    HW238310   4.069   4.525   8.429 -1.1867  0.2870 -0.7694
 8893SOL     OW38311   0.662   3.688   2.851 -0.7343  0.1921 -0.3166
 8893SOL    HW138312   0.667   3.721   2.761  2.3150 -0.9271 -0.5691
 8893SOL    HW238313   0.731   3.737   2.895 -0.3469 -1.3780  0.8162
 8894SOL     OW38314   2.493   1.049   8.394  0.1966 -0.0243 -0.1702
 8894SOL    HW138315   2.416   0.993   8.406  1.2132 -1.2370  0.7302
 8894SOL    HW238316   2.516   1.036   8.302 -0.7325 -1.3772 -0.2135
 8895SOL     OW38317   2.248   2.524   1.471  0.3584  0.6042 -0.2560
 8895SOL    HW138318   2.284   2.562   1.551 -0.8228  0.7288  0.2071
 8895SOL    HW238319   2.319   2.543   1.409  0.5984 -0.3032 -0.2660
 8896SOL     OW38320   2.766   4.282   4.355  0.0700 -0.1747  0.6952
 8896SOL    HW138321   2.785   4.363   4.403  1.1885  1.0952 -1.8962
 8896SOL    HW238322   2.671   4.290   4.347  0.2002 -1.2756 -1.8890
 8897SOL     OW38323   0.297   4.336  12.449 -0.3253  0.1403 -0.3567
 8897SOL    HW138324   0.230   4.374  12.393 -1.0552  1.0610  1.1345
 8897SOL    HW238325   0.359   4.294  12.389 -0.8981 -1.3267  0.0867
 8898SOL     OW38326   1.285   3.676  16.557  0.0922  0.6096 -0.0380
 8898SOL    HW138327   1.298   3.660  16.464 -1.9088  1.8091 -0.5156
 8898SOL    HW238328   1.193   3.702  16.561 -0.6680 -2.0639 -0.4386
 8899SOL     OW38329   3.440   3.316   8.628  0.0373 -0.4133 -0.0836
 8899SOL    HW138330   3.366   3.365   8.592  0.3632  2.4991  3.1821
 8899SOL    HW238331   3.392   3.274   8.699  2.3807 -1.6227  0.7629
 8900SOL     OW38332   0.913   3.089   6.575  0.2746 -0.0464  0.0997
 8900SOL    HW138333   0.907   2.994   6.575 -0.9132  0.0313 -0.8842
 8900SOL    HW238334   0.847   3.117   6.512  1.5943  2.1115 -0.3094
 8901SOL     OW38335   1.500   2.279   8.501 -0.5459 -0.0157 -0.0345
 8901SOL    HW138336   1.550   2.359   8.516  1.4353 -0.7793 -2.4882
 8901SOL    HW238337   1.419   2.298   8.548 -0.5634  0.1465 -0.1301
 8902SOL     OW38338   1.830   2.254   0.942  0.5576  0.7340  0.1310
 8902SOL    HW138339   1.781   2.185   0.898  1.5382  1.0531 -1.4503
 8902SOL    HW238340   1.810   2.246   1.035 -1.6493 -1.7522 -0.5868
 8903SOL     OW38341   1.886   2.664  17.403  0.1654 -0.0269 -0.2492
 8903SOL    HW138342   1.931   2.694  17.482 -2.2191  2.5681  0.1313
 8903SOL    HW238343   1.902   2.736  17.342 -1.5212 -0.3418 -1.0476
 8904SOL     OW38344   4.639   3.510   5.694  0.3545 -0.4723 -0.3544
 8904SOL    HW138345   4.546   3.519   5.672  0.2988  1.7727  0.8351
 8904SOL    HW238346   4.643   3.434   5.752  2.0819  0.5397  0.8375
 8905SOL     OW38347   2.045   4.202   5.258  0.4020  0.1605 -0.2982
 8905SOL    HW138348   1.971   4.180   5.314 -0.0803 -0.3700 -1.1451
 8905SOL    HW238349   2.093   4.122   5.274 -2.1487 -0.7894  2.6497
 8906SOL     OW38350   0.176   1.852  14.630  0.4263  0.3255 -0.5062
 8906SOL    HW138351   0.223   1.906  14.693  0.5864 -1.4721  0.9242
 8906SOL    HW238352   0.154   1.782  14.692  0.6611  1.2508  0.6324
 8907SOL     OW38353   1.159   4.633   7.743 -0.4176 -0.2303  0.0637
 8907SOL    HW138354   1.110   4.585   7.676 -1.0435 -2.5325  2.1578
 8907SOL    HW238355   1.232   4.661   7.688  0.6875 -0.7750  1.2523
 8908SOL     OW38356   1.605   1.384   6.671  0.2762 -0.1955 -0.0819
 8908SOL    HW138357   1.675   1.378   6.605  0.0983  0.1401 -0.3055
 8908SOL    HW238358   1.522   1.359   6.630 -0.0371  0.4067  0.1835
 8909SOL     OW38359   4.429   2.176  10.203  0.0192  0.1428  0.3683
 8909SOL    HW138360   4.499   2.194  10.140 -0.2157 -1.8100 -0.4387
 8909SOL    HW238361   4.484   2.151  10.278 -0.7006 -0.7082  0.6034
 8910SOL     OW38362   0.205   2.125   1.542  0.4089  0.0731  0.4453
 8910SOL    HW138363   0.136   2.159   1.486  1.2179  0.6073 -0.2248
 8910SOL    HW238364   0.202   2.033   1.513 -1.6310  0.4548 -0.5546
 8911SOL     OW38365   2.451   0.918   9.300  0.7782 -0.4105 -0.0243
 8911SOL    HW138366   2.414   0.970   9.228  0.1796 -0.6404  0.1187
 8911SOL    HW238367   2.426   0.829   9.274  1.8466 -0.4495 -0.9114
 8912SOL     OW38368   1.564   0.296   9.003  0.2014  0.2704 -0.5999
 8912SOL    HW138369   1.505   0.228   9.037  1.4483  0.0070  1.0219
 8912SOL    HW238370   1.516   0.334   8.929  1.6948  1.2261 -1.0556
 8913SOL     OW38371   4.049   1.188   9.655  0.0228 -0.7648  0.7474
 8913SOL    HW138372   4.020   1.277   9.675  1.4727  0.6910 -3.4604
 8913SOL    HW238373   4.136   1.194   9.694 -0.4992  1.5415  1.5474
 8914SOL     OW38374   1.302   3.761   7.852  0.2502  0.3239 -0.0505
 8914SOL    HW138375   1.373   3.813   7.887 -1.2589  1.2627  1.6427
 8914SOL    HW238376   1.240   3.823   7.814 -0.2071 -0.9004 -1.2947
 8915SOL     OW38377   0.183   3.259   3.555  0.4502 -0.1880  0.0635
 8915SOL    HW138378   0.101   3.299   3.524 -0.3762 -1.3297  0.7519
 8915SOL    HW238379   0.224   3.343   3.576 -1.1405  1.2536 -2.5207
 8916SOL     OW38380   0.553   2.785   4.324 -0.0044  0.5284  0.2451
 8916SOL    HW138381   0.636   2.764   4.367  0.1172 -0.7541 -0.6163
 8916SOL    HW238382   0.507   2.702   4.333 -1.4844  1.5811  2.1929
 8917SOL     OW38383   2.273   2.887   9.367  0.0522 -0.0610 -0.3023
 8917SOL    HW138384   2.344   2.871   9.429 -1.0465  0.9061  1.2152
 8917SOL    HW238385   2.197   2.861   9.419 -0.7366 -0.3983 -1.6054
 8918SOL     OW38386   2.770   2.795  11.094 -0.2979 -0.3160  0.0881
 8918SOL    HW138387   2.769   2.700  11.083 -3.0936 -0.3515  0.7096
 8918SOL    HW238388   2.681   2.817  11.064  0.6255  1.7649 -1.1317
 8919SOL     OW38389   2.924   2.299   7.641 -0.2864 -0.0699  0.3833
 8919SOL    HW138390   2.935   2.326   7.550  1.4424  0.5872  0.7874
 8919SOL    HW238391   3.012   2.272   7.666 -0.2375 -0.1116  0.1644
 8920SOL     OW38392   3.637   0.898   1.637 -0.4103 -0.3844 -0.0345
 8920SOL    HW138393   3.648   0.916   1.730  1.1855 -1.1480 -0.0785
 8920SOL    HW238394   3.728   0.899   1.606 -1.5040  1.4213 -3.2220
 8921SOL     OW38395   2.558   0.313   3.522 -0.0328 -0.6113 -0.1024
 8921SOL    HW138396   2.525   0.256   3.452  0.4333 -0.9879 -0.0092
 8921SOL    HW238397   2.521   0.279   3.603 -1.5884  1.8325  0.2273
 8922SOL     OW38398   4.667   3.308  16.749 -0.7799  0.3063  0.6237
 8922SOL    HW138399   4.688   3.339  16.661 -1.1820 -0.2038  0.3509
 8922SOL    HW238400   0.004   3.249  16.763  1.3384  2.3382 -2.0891
 8923SOL     OW38401   2.941   4.601   3.449 -0.3565 -1.0109 -0.1028
 8923SOL    HW138402   2.929   4.696   3.456  1.9033 -0.6045 -1.7981
 8923SOL    HW238403   2.975   4.591   3.360 -0.0720 -0.4942 -0.0559
 8924SOL     OW38404   3.758   2.736   7.668 -0.4443 -0.0920 -0.8312
 8924SOL    HW138405   3.697   2.692   7.727  0.3687 -2.4219 -1.7611
 8924SOL    HW238406   3.837   2.755   7.719 -1.1635  0.3379  0.1357
 8925SOL     OW38407   4.383   3.138  12.863 -0.3988  0.1742  0.7468
 8925SOL    HW138408   4.407   3.063  12.809  3.0603  1.3112  0.6698
 8925SOL    HW238409   4.290   3.133  12.881 -0.3700 -1.9205  0.2929
 8926SOL     OW38410   4.644   3.661   7.948 -0.4318  0.0806 -0.5651
 8926SOL    HW138411   4.559   3.660   7.905 -0.0240  2.2328 -1.4035
 8926SOL    HW238412   4.700   3.615   7.886 -0.9888 -0.4798 -0.6451
 8927SOL     OW38413   0.237   2.283  11.186  0.1053  0.7519 -0.1298
 8927SOL    HW138414   0.229   2.337  11.265  1.0843  2.4123 -1.1738
 8927SOL    HW238415   0.320   2.236  11.193  0.2822  0.7433 -2.3614
 8928SOL     OW38416   0.477   3.723   9.943 -0.2032  0.4472  0.0066
 8928SOL    HW138417   0.402   3.781   9.927  1.4830  1.8695 -2.8582
 8928SOL    HW238418   0.441   3.635   9.951 -2.2293  1.3644  1.0319
 8929SOL     OW38419   2.672   4.199   1.588 -0.1339  0.1972 -0.4715
 8929SOL    HW138420   2.628   4.256   1.525 -1.8440  0.4601  0.9757
 8929SOL    HW238421   2.624   4.117   1.581 -3.4841  2.0532  1.0483
 8930SOL     OW38422   2.485   3.470   9.428 -0.4627  0.6226 -0.5826
 8930SOL    HW138423   2.393   3.456   9.450  0.0074  1.7900  2.1256
 8930SOL    HW238424   2.519   3.482   9.516  1.7111  0.8006 -1.4430
 8931SOL     OW38425   2.512   3.024  10.017  0.2491  0.3289 -0.0442
 8931SOL    HW138426   2.572   3.084   9.972  0.8459 -0.5309 -0.3990
 8931SOL    HW238427   2.489   2.958   9.952  2.6303 -2.2201  1.7263
 8932SOL     OW38428   4.374   0.190   4.785 -0.3042  0.1824  0.3829
 8932SOL    HW138429   4.358   0.241   4.865  2.0399  0.0462  0.9442
 8932SOL    HW238430   4.468   0.170   4.796 -0.7784 -0.9771  2.3073
 8933SOL     OW38431   3.761   3.321   0.541  0.3556 -0.1131  0.3301
 8933SOL    HW138432   3.830   3.312   0.475  0.5163  0.9057  0.3555
 8933SOL    HW238433   3.789   3.405   0.577  0.7255 -0.8022  1.6341
 8934SOL     OW38434   1.565   1.336   9.421  1.0954  0.0536 -0.1217
 8934SOL    HW138435   1.654   1.302   9.411  0.4074 -1.8574  0.2862
 8934SOL    HW238436   1.518   1.311   9.342  1.1357 -3.2027  0.8740
 8935SOL     OW38437   4.056   4.011  11.217  0.2195 -0.2850  0.5123
 8935SOL    HW138438   4.130   3.993  11.274  0.1773 -2.6960 -0.1941
 8935SOL    HW238439   4.033   3.924  11.184  1.3220 -0.8334  1.1960
 8936SOL     OW38440   3.694   4.353  12.096  0.2005 -0.1915  0.5992
 8936SOL    HW138441   3.705   4.328  12.005  3.3906  2.9362  0.1534
 8936SOL    HW238442   3.620   4.294  12.113 -0.9264  0.2970 -2.5864
 8937SOL     OW38443   3.347   4.378   5.782  0.1214  0.0359  0.9054
 8937SOL    HW138444   3.339   4.431   5.703 -1.3636 -1.1835  0.2540
 8937SOL    HW238445   3.296   4.432   5.842  0.8531 -0.3961  1.9191
 8938SOL     OW38446   3.923   4.111  14.051  0.0303  0.0571 -0.1379
 8938SOL    HW138447   3.857   4.048  14.023  0.8748 -0.9656  0.1884
 8938SOL    HW238448   3.947   4.165  13.976  0.9048 -0.2602 -0.0796
 8939SOL     OW38449   3.314   4.310   1.627  0.3193  1.1922  0.4528
 8939SOL    HW138450   3.343   4.401   1.627  3.9351  0.0520  0.2579
 8939SOL    HW238451   3.401   4.273   1.639 -0.3366  0.0824  1.7267
 8940SOL     OW38452   4.528   1.360   8.872  0.2263 -0.1393 -0.4366
 8940SOL    HW138453   4.535   1.272   8.835 -0.8568 -0.6813  0.6440
 8940SOL    HW238454   4.463   1.339   8.940 -1.9740 -0.5893 -2.6714
 8941SOL     OW38455   3.094   1.082  16.165  0.4298  0.0242 -0.9589
 8941SOL    HW138456   3.067   1.160  16.214  0.7108 -0.7138  0.3613
 8941SOL    HW238457   3.093   1.122  16.078 -0.6486  0.6368 -0.6683
 8942SOL     OW38458   0.374   4.669  11.770 -0.3606 -0.5433 -0.1879
 8942SOL    HW138459   0.396   4.679  11.677  1.4540  0.9025  0.4031
 8942SOL    HW238460   0.333   0.016  11.785  1.3880  0.7117 -2.5295
 8943SOL     OW38461   4.072   4.303  13.881  0.5992  0.5259  0.7405
 8943SOL    HW138462   4.099   4.299  13.789 -0.8873 -1.1145  0.3708
 8943SOL    HW238463   4.125   4.377  13.912  2.4293 -0.7913  0.7712
 8944SOL     OW38464   4.599   3.133   0.987 -1.0072  0.3628  0.3068
 8944SOL    HW138465   4.571   3.107   1.075  0.6444 -2.4420  0.0124
 8944SOL    HW238466   4.521   3.109   0.937  0.7116 -0.3091 -2.0454
 8945SOL     OW38467   3.560   2.082  15.656  0.1914 -0.4465 -0.4444
 8945SOL    HW138468   3.638   2.031  15.636  1.3148  1.1546 -0.1269
 8945SOL    HW238469   3.504   2.016  15.696  1.0986 -1.3469 -0.6634
 8946SOL     OW38470   0.466   3.247   7.311 -0.1798  0.7229 -0.2039
 8946SOL    HW138471   0.438   3.234   7.401  0.6740  0.0891 -0.0305
 8946SOL    HW238472   0.405   3.185   7.272  3.4010 -2.1227 -1.3301
 8947SOL     OW38473   1.252   4.366  13.899 -0.4374  0.4915  0.4529
 8947SOL    HW138474   1.176   4.423  13.886 -1.3646 -0.0652  3.4358
 8947SOL    HW238475   1.280   4.345  13.810  0.7878 -1.4342  1.3163
 8948SOL     OW38476   4.519   4.712   5.528 -0.4075  0.3422 -0.0699
 8948SOL    HW138477   4.502   4.625   5.492  2.6777  0.1961 -1.1503
 8948SOL    HW238478   4.613   4.704   5.541 -0.5681  0.2658  1.0741
 8949SOL     OW38479   4.623   1.292  13.672  0.0965  0.6808  0.4812
 8949SOL    HW138480   4.691   1.263  13.612 -0.2497  1.9066 -0.5062
 8949SOL    HW238481   4.576   1.346  13.609 -0.2965  2.4560  2.2771
 8950SOL     OW38482   3.810   3.643   2.250  0.3414 -0.4414  0.5528
 8950SOL    HW138483   3.882   3.665   2.309  1.0563  0.6152 -0.7122
 8950SOL    HW238484   3.810   3.547   2.244 -0.2546 -0.4882  1.3224
 8951SOL     OW38485   3.536   1.857   0.625  0.0872  0.0401  0.2086
 8951SOL    HW138486   3.440   1.855   0.627  0.0623  1.0932 -0.0364
 8951SOL    HW238487   3.561   1.765   0.611  2.4948  1.0272 -2.1192
 8952SOL     OW38488   2.994   1.108  13.128 -0.9757 -1.1894  0.0877
 8952SOL    HW138489   3.031   1.059  13.055  0.3776  0.0401 -0.0554
 8952SOL    HW238490   2.903   1.081  13.125 -1.2920 -0.2675  1.2738
 8953SOL     OW38491   2.121   0.240   8.128  0.0801  0.6383  0.2638
 8953SOL    HW138492   2.053   0.221   8.193  1.8705  0.7375  2.1524
 8953SOL    HW238493   2.108   0.335   8.118  0.9209  0.9373  2.1121
 8954SOL     OW38494   1.255   0.163  10.046 -0.3126 -0.2636 -0.4124
 8954SOL    HW138495   1.346   0.139  10.027 -1.0954 -0.5970 -3.7687
 8954SOL    HW238496   1.263   0.244   9.996  0.4594  0.7577  1.4080
 8955SOL     OW38497   0.983   2.572   7.940 -0.4168 -0.3025  0.2301
 8955SOL    HW138498   0.995   2.478   7.946  0.3164 -0.2951 -1.1338
 8955SOL    HW238499   0.982   2.573   7.844 -1.2857  2.1212  0.2513
 8956SOL     OW38500   4.134   3.447   2.598  0.0642  0.4286  0.3751
 8956SOL    HW138501   4.219   3.403   2.593 -0.5104 -0.7057  0.6320
 8956SOL    HW238502   4.133   3.474   2.690  1.4136 -1.3091  0.8916
 8957SOL     OW38503   2.405   1.296   1.370 -0.0738  0.1174 -0.5527
 8957SOL    HW138504   2.399   1.201   1.359 -2.2052  0.2945 -0.8034
 8957SOL    HW238505   2.365   1.313   1.455  0.0973  2.9691 -1.0306
 8958SOL     OW38506   3.137   1.769   4.713  0.2662 -0.0468  0.5867
 8958SOL    HW138507   3.136   1.785   4.808 -0.9346  0.8149  0.4363
 8958SOL    HW238508   3.219   1.722   4.697 -0.4328 -0.9502 -0.3732
 8959SOL     OW38509   0.532   2.707   1.116  0.0892 -0.1945  0.4136
 8959SOL    HW138510   0.570   2.619   1.128  0.4644 -0.5251 -3.0997
 8959SOL    HW238511   0.561   2.753   1.195  0.5815 -1.0678  0.7405
 8960SOL     OW38512   1.414   1.121   4.157 -0.2256 -0.5091  0.3429
 8960SOL    HW138513   1.359   1.144   4.231 -1.6073 -0.6737 -0.6363
 8960SOL    HW238514   1.400   1.191   4.093  0.5597 -1.2049 -0.5994
 8961SOL     OW38515   0.294   1.729   0.258 -1.3653  0.2611  0.3880
 8961SOL    HW138516   0.349   1.767   0.190 -1.0385  0.9409  1.0305
 8961SOL    HW238517   0.215   1.714   0.207  0.0652 -0.1021 -1.6938
 8962SOL     OW38518   2.441   3.652   0.844  0.0454  0.1679  0.1169
 8962SOL    HW138519   2.397   3.737   0.850 -1.4468 -0.4375 -2.2396
 8962SOL    HW238520   2.532   3.679   0.855 -0.3477  1.6468 -0.3118
 8963SOL     OW38521   2.378   3.301   3.007  0.0181 -0.5540  0.1168
 8963SOL    HW138522   2.338   3.334   2.926 -0.0700 -1.5004 -0.2357
 8963SOL    HW238523   2.344   3.369   3.064  2.2399  0.8418 -0.2429
 8964SOL     OW38524   0.908   0.039  12.710  0.1360  0.3982 -0.1916
 8964SOL    HW138525   0.823   0.053  12.668 -1.3075  1.6580  3.1454
 8964SOL    HW238526   0.940   0.129  12.715 -0.5025  0.6997 -1.5092
 8965SOL     OW38527   1.715   0.869   9.723  0.6762  0.4026 -0.5982
 8965SOL    HW138528   1.746   0.931   9.657 -0.7459  0.7020 -0.9817
 8965SOL    HW238529   1.713   0.781   9.687 -1.2890  0.4155 -0.5494
 8966SOL     OW38530   0.312   0.117   8.623  0.3658 -0.2718 -0.5174
 8966SOL    HW138531   0.373   0.083   8.687 -1.0459  1.1918  1.6205
 8966SOL    HW238532   0.238   0.063   8.651 -0.3462  0.4390 -1.0339
 8967SOL     OW38533   2.663   4.509   0.322 -0.4003  0.7298  0.2613
 8967SOL    HW138534   2.708   4.523   0.239  1.8388 -3.8847  0.6706
 8967SOL    HW238535   2.605   4.435   0.302 -0.1506  0.8109 -0.7610
 8968SOL     OW38536   2.043   2.455  13.160  0.0365  0.5873  0.8324
 8968SOL    HW138537   1.976   2.495  13.215 -1.5958 -1.3821  0.2781
 8968SOL    HW238538   1.997   2.451  13.076 -0.0578 -0.5229  0.9372
 8969SOL     OW38539   2.861   1.670  12.577 -0.1778 -0.5928  0.3610
 8969SOL    HW138540   2.888   1.699  12.664  1.6311  0.1194 -0.4371
 8969SOL    HW238541   2.879   1.576  12.572 -0.9781 -0.7447  0.3131
 8970SOL     OW38542   1.180   3.684  13.924  0.2243 -0.3510  0.1682
 8970SOL    HW138543   1.223   3.762  13.959  1.9061 -0.8107 -0.9184
 8970SOL    HW238544   1.249   3.659  13.864  0.5591  0.7525  0.0926
 8971SOL     OW38545   1.249   2.605   6.891  0.1102  0.2700  0.3040
 8971SOL    HW138546   1.288   2.572   6.810  0.6239  0.5965  0.4190
 8971SOL    HW238547   1.286   2.693   6.896 -2.0549  1.2340 -0.6802
 8972SOL     OW38548   1.910   2.689   0.002 -0.3938  0.5909 -0.2578
 8972SOL    HW138549   1.826   2.658   0.035 -0.4406  0.1345 -0.8159
 8972SOL    HW238550   1.903   2.778   0.035 -1.0940  0.0208  1.1375
 8973SOL     OW38551   3.065   0.890   2.565  0.1548 -0.3714 -0.0364
 8973SOL    HW138552   3.122   0.814   2.573  1.8370  1.0151  1.2384
 8973SOL    HW238553   3.130   0.958   2.583 -0.7166  0.1414  1.1758
 8974SOL     OW38554   3.496   1.916   2.182  0.1559 -0.4342  0.3687
 8974SOL    HW138555   3.549   1.923   2.102 -0.8743 -2.1912 -0.4712
 8974SOL    HW238556   3.460   1.827   2.186 -1.5339  0.2290  0.0886
 8975SOL     OW38557   0.678   4.405   5.104 -0.7081  0.1586 -0.0968
 8975SOL    HW138558   0.704   4.427   5.014  0.6876 -1.2702 -0.0511
 8975SOL    HW238559   0.728   4.467   5.157 -2.1027  0.2883  1.0714
 8976SOL     OW38560   1.879   0.122   0.931 -0.4848  0.1236 -0.2462
 8976SOL    HW138561   1.806   0.079   0.885 -1.4797  1.4982  0.0575
 8976SOL    HW238562   1.930   0.041   0.941  0.3267  0.5043 -1.3993
 8977SOL     OW38563   2.318   3.444   5.389  0.2804  0.2914  0.7552
 8977SOL    HW138564   2.394   3.443   5.448  0.9571  2.5675 -0.0620
 8977SOL    HW238565   2.361   3.422   5.307 -1.0306  2.2357 -0.4437
 8978SOL     OW38566   2.548   0.677   1.955 -0.3682 -0.1680  0.4082
 8978SOL    HW138567   2.635   0.636   1.958 -0.7577 -1.1633 -1.9888
 8978SOL    HW238568   2.576   0.760   1.917 -0.0925 -0.8647 -0.9097
 8979SOL     OW38569   2.089   3.726  17.168 -0.0781  0.0262  0.1207
 8979SOL    HW138570   2.007   3.728  17.119 -1.4181 -0.6040  2.3305
 8979SOL    HW238571   2.055   3.696  17.252  0.9121 -1.8141 -0.1403
 8980SOL     OW38572   0.813   0.665   3.022 -0.7317  0.1275  0.6053
 8980SOL    HW138573   0.834   0.698   3.110  0.5756  1.3485 -0.1620
 8980SOL    HW238574   0.741   0.723   2.999 -0.0593 -0.0640 -1.9421
 8981SOL     OW38575   3.370   0.644   5.995  0.2929 -0.0912  0.2677
 8981SOL    HW138576   3.412   0.638   5.909  0.5906 -2.1435  0.5460
 8981SOL    HW238577   3.435   0.608   6.055 -1.2243  0.8489  2.4863
 8982SOL     OW38578   2.132   1.967   2.006  0.2197 -0.0006  0.0579
 8982SOL    HW138579   2.222   1.937   2.013  0.4626  1.2070  2.1694
 8982SOL    HW238580   2.140   2.039   2.068  1.3713 -0.9962  1.0656
 8983SOL     OW38581   1.305   4.106  13.998 -0.0870 -0.3836 -0.0937
 8983SOL    HW138582   1.272   4.196  14.000  1.4679  0.2112 -0.4824
 8983SOL    HW238583   1.347   4.086  14.082 -1.5413  0.6045  0.8541
 8984SOL     OW38584   0.020   3.734   5.186 -0.3548  0.1879  0.0538
 8984SOL    HW138585   4.683   3.773   5.231  0.7748  3.6892 -1.1073
 8984SOL    HW238586   0.098   3.763   5.232 -0.5665 -0.8948  1.0880
 8985SOL     OW38587   4.049   3.575   0.219 -0.2691  0.0609 -0.0199
 8985SOL    HW138588   4.117   3.580   0.153 -1.9351 -0.2388 -1.7437
 8985SOL    HW238589   4.040   3.667   0.246 -2.0515 -0.0977 -0.0893
 8986SOL     OW38590   0.858   1.238   5.244 -0.1752 -0.2583  0.7765
 8986SOL    HW138591   0.910   1.269   5.318 -0.2516  0.9250  0.3353
 8986SOL    HW238592   0.876   1.144   5.249 -1.8976 -0.4648  3.3853
 8987SOL     OW38593   1.264   2.298   5.834  0.0584 -0.7873  0.5449
 8987SOL    HW138594   1.319   2.370   5.862  1.5219 -1.7725  0.2089
 8987SOL    HW238595   1.324   2.223   5.843  1.6305  0.3160 -0.7049
 8988SOL     OW38596   4.099   1.268   3.181 -0.0425  0.1821  0.3798
 8988SOL    HW138597   4.166   1.219   3.228 -1.4815  0.1558  2.3873
 8988SOL    HW238598   4.135   1.258   3.093  0.4158 -0.4249  0.6412
 8989SOL     OW38599   1.764   1.301  13.190 -0.1028  0.4230 -0.4055
 8989SOL    HW138600   1.781   1.393  13.206  0.0065  0.2352  0.5390
 8989SOL    HW238601   1.845   1.275  13.145 -0.5921 -0.0604 -1.0032
 8990SOL     OW38602   0.784   0.080   8.129  0.5582  0.3117  0.0797
 8990SOL    HW138603   0.706   0.045   8.172  0.5668 -0.0855 -0.2190
 8990SOL    HW238604   0.838   0.083   8.207 -0.1019  0.0986  0.5476
 8991SOL     OW38605   1.221   4.514   3.062 -0.5291 -0.1998  0.0596
 8991SOL    HW138606   1.192   4.441   3.007  3.2263 -4.4150  3.7017
 8991SOL    HW238607   1.263   4.580   3.007  2.2648 -2.6490 -0.7424
 8992SOL     OW38608   1.264   1.419   5.757 -0.0885  0.6232 -0.2243
 8992SOL    HW138609   1.281   1.454   5.670  0.2971  0.0101 -0.3977
 8992SOL    HW238610   1.170   1.435   5.767 -0.0182  2.3318 -2.2208
 8993SOL     OW38611   0.323   1.207  13.521 -0.0912 -0.1303 -0.1086
 8993SOL    HW138612   0.371   1.234  13.599 -1.5728  3.5165 -0.4619
 8993SOL    HW238613   0.401   1.196  13.467  0.2905  0.5168  0.3070
 8994SOL     OW38614   4.580   0.509   0.994 -0.2716 -0.3030  0.5632
 8994SOL    HW138615   4.623   0.595   0.990  1.1086 -0.8954  2.5364
 8994SOL    HW238616   4.577   0.492   1.088 -1.0118 -0.5693  0.4940
 8995SOL     OW38617   1.389   3.790   5.944 -0.1704 -0.1377  0.2545
 8995SOL    HW138618   1.306   3.804   5.990 -0.7978 -1.9119 -0.3209
 8995SOL    HW238619   1.372   3.721   5.880  2.0790 -0.0723 -0.4134
 8996SOL     OW38620   1.959   1.271   7.565  0.0778  0.5047  0.0106
 8996SOL    HW138621   1.997   1.269   7.478  1.3888 -0.1869  0.5963
 8996SOL    HW238622   1.896   1.342   7.555 -0.3375 -0.3164 -2.9622
 8997SOL     OW38623   0.562   0.412  17.303  0.0143  0.2244  0.3328
 8997SOL    HW138624   0.573   0.452  17.390  2.0854  2.7179 -1.0876
 8997SOL    HW238625   0.585   0.490  17.253  2.5166  0.5797  1.9884
 8998SOL     OW38626   3.032   4.333  11.330  0.1183 -0.3755  0.1133
 8998SOL    HW138627   3.004   4.422  11.348  0.7912 -0.1073 -0.1969
 8998SOL    HW238628   3.042   4.303  11.420  0.7660 -1.9880 -0.4806
 8999SOL     OW38629   2.179   3.654  12.416  0.2686  0.0303 -0.5570
 8999SOL    HW138630   2.113   3.665  12.348 -3.2353 -0.6205  2.7403
 8999SOL    HW238631   2.253   3.687  12.365  1.7717 -0.4165  1.3079
 9000SOL     OW38632   2.055   4.482   0.074 -0.3400  0.2583 -0.0640
 9000SOL    HW138633   2.050   4.567   0.029  1.5732  1.1501  1.3967
 9000SOL    HW238634   2.147   4.476   0.100  0.0293  0.3904 -1.3450
 9001SOL     OW38635   1.569   1.930  11.738 -0.7355 -0.5934  0.1244
 9001SOL    HW138636   1.649   1.917  11.687 -0.8733  1.4832 -0.6417
 9001SOL    HW238637   1.511   1.877  11.684  0.1213 -3.0713  1.6782
 9002SOL     OW38638   1.712   4.636   4.388  0.3540  0.5472 -0.5103
 9002SOL    HW138639   1.619   4.622   4.372  0.5794 -1.1933 -0.3563
 9002SOL    HW238640   1.719   4.725   4.421 -0.1452  0.6810 -0.7620
 9003SOL     OW38641   1.731   1.627   8.533  0.7266  0.2481 -0.3071
 9003SOL    HW138642   1.653   1.590   8.491  2.3878 -1.3463 -2.0728
 9003SOL    HW238643   1.713   1.615   8.626  2.5528  2.6064  0.3597
 9004SOL     OW38644   0.338   3.980   8.287 -0.1126 -0.1015  0.6119
 9004SOL    HW138645   0.249   4.001   8.259  0.6813  2.1154 -0.1852
 9004SOL    HW238646   0.318   3.955   8.377 -0.6961  0.2272  0.5764
 9005SOL     OW38647   1.810   1.859   8.748 -0.1582 -0.0637  0.1155
 9005SOL    HW138648   1.735   1.916   8.764 -1.0708 -1.6647  1.5374
 9005SOL    HW238649   1.772   1.771   8.738 -0.4324  0.2210 -1.3293
 9006SOL     OW38650   4.444   3.789   3.053  0.0570  0.3483 -0.3008
 9006SOL    HW138651   4.477   3.878   3.040  0.5832  0.1466 -0.3628
 9006SOL    HW238652   4.392   3.817   3.128  1.7162  0.2659  0.8888
 9007SOL     OW38653   0.041   3.019   4.350 -0.2990  0.3226  0.7298
 9007SOL    HW138654   4.694   3.039   4.311 -0.4767 -2.0566 -0.0771
 9007SOL    HW238655   0.013   2.961   4.421 -0.9776  0.1573  0.3183
 9008SOL     OW38656   4.486   2.060  11.380  0.5347  0.0626  0.0438
 9008SOL    HW138657   4.502   2.134  11.321  0.3919  0.6102  0.6935
 9008SOL    HW238658   4.392   2.066  11.397  0.3972 -0.0641 -0.6387
 9009SOL     OW38659   0.772   4.014   9.256 -0.7813  0.1086 -0.5383
 9009SOL    HW138660   0.751   3.956   9.329  4.0762  1.1864  1.7302
 9009SOL    HW238661   0.769   4.101   9.298  0.4241 -0.2805  0.3586
 9010SOL     OW38662   3.524   4.459   4.423 -0.1661  0.1517 -0.0783
 9010SOL    HW138663   3.476   4.508   4.490 -0.4639 -1.1593  0.6566
 9010SOL    HW238664   3.460   4.463   4.352 -0.8026 -0.7899  0.4391
 9011SOL     OW38665   2.854   0.535   6.815  0.2836  0.4689 -0.7071
 9011SOL    HW138666   2.853   0.490   6.730  2.0076  0.8232 -0.9244
 9011SOL    HW238667   2.760   0.533   6.833  0.4725  0.3883  0.2714
 9012SOL     OW38668   4.293   1.017  16.788  1.0946 -0.1551 -0.4828
 9012SOL    HW138669   4.257   0.970  16.713 -0.7117  1.1617 -0.4521
 9012SOL    HW238670   4.376   1.048  16.753  2.3063 -3.6239 -0.7164
 9013SOL     OW38671   0.628   3.071  11.048  0.3507 -0.0260 -0.6453
 9013SOL    HW138672   0.535   3.062  11.029  0.4438 -1.6135 -0.3787
 9013SOL    HW238673   0.655   2.992  10.999  0.1431 -1.6403  1.8305
 9014SOL     OW38674   2.290   2.866   7.285 -0.1754  0.7295 -0.3897
 9014SOL    HW138675   2.213   2.915   7.315 -0.9394 -1.1199  0.6947
 9014SOL    HW238676   2.364   2.926   7.277  0.5006 -0.4576 -2.9972
 9015SOL     OW38677   2.162   2.740  13.181  0.8720 -0.8108 -0.2329
 9015SOL    HW138678   2.142   2.751  13.088 -0.4184  1.1175  0.2652
 9015SOL    HW238679   2.108   2.660  13.186  1.1653 -1.0342 -0.6511
 9016SOL     OW38680   3.495   3.877   9.340  0.5465 -0.3129 -0.5084
 9016SOL    HW138681   3.409   3.913   9.320  1.6451  2.3390 -0.5434
 9016SOL    HW238682   3.469   3.798   9.387 -0.7436  1.4949  1.8539
 9017SOL     OW38683   3.836   3.419  12.703  0.1833 -0.3515  0.1379
 9017SOL    HW138684   3.924   3.394  12.732 -0.2400 -1.3322  0.5877
 9017SOL    HW238685   3.862   3.452  12.617 -1.1330  0.0217 -0.1148
 9018SOL     OW38686   2.297   2.903   1.661 -0.0891  0.0432 -0.4217
 9018SOL    HW138687   2.351   2.973   1.698  0.5609 -2.0898  2.7133
 9018SOL    HW238688   2.355   2.827   1.659  0.0820  0.1529  0.2181
 9019SOL     OW38689   3.890   2.760   3.422 -0.1820 -0.4160 -0.0441
 9019SOL    HW138690   3.884   2.835   3.363  0.8309 -0.5099 -0.2623
 9019SOL    HW238691   3.798   2.752   3.446 -0.0364  1.6572  1.2243
 9020SOL     OW38692   3.864   0.421   3.475 -0.3174  0.0544  0.2878
 9020SOL    HW138693   3.776   0.387   3.465 -1.2372  2.3418  0.6753
 9020SOL    HW238694   3.860   0.451   3.566  1.4847 -0.8006  0.6558
 9021SOL     OW38695   3.329   2.174  15.471  0.0969  0.1217 -0.0910
 9021SOL    HW138696   3.369   2.175  15.558 -1.7865 -0.6062  0.7977
 9021SOL    HW238697   3.269   2.100  15.483 -0.9697  0.8201 -1.1257
 9022SOL     OW38698   0.784   3.880   9.480 -0.3644 -0.1688  0.1746
 9022SOL    HW138699   0.868   3.898   9.523  0.5450 -0.5393 -1.4317
 9022SOL    HW238700   0.731   3.853   9.554 -1.3441 -0.5651 -0.6769
 9023SOL     OW38701   4.434   1.141  13.806 -0.3371  0.1765 -0.1492
 9023SOL    HW138702   4.419   1.058  13.761  2.0926 -0.3216 -0.0111
 9023SOL    HW238703   4.490   1.180  13.740 -1.5219 -0.4496 -1.5216
 9024SOL     OW38704   4.339   4.631  13.739  0.1571 -0.2203 -0.1126
 9024SOL    HW138705   4.329   4.726  13.747 -1.9221 -0.4637  0.1597
 9024SOL    HW238706   4.274   4.616  13.808  1.0743 -0.7125  0.6446
 9025SOL     OW38707   0.720   3.291   8.797 -0.3088  0.5511 -0.1572
 9025SOL    HW138708   0.690   3.211   8.840 -0.7778  0.6080 -0.3769
 9025SOL    HW238709   0.736   3.254   8.710 -2.4007 -0.1687 -0.2249
 9026SOL     OW38710   3.031   4.605   9.248 -0.1196 -0.2834 -0.2376
 9026SOL    HW138711   3.099   4.627   9.185  0.5046 -2.5797 -0.3522
 9026SOL    HW238712   2.960   4.572   9.193 -1.3836  1.5205  0.2914
 9027SOL     OW38713   0.942   3.758   4.216  0.4560 -0.3494 -0.2266
 9027SOL    HW138714   0.901   3.672   4.228 -0.3202  0.0490  0.0270
 9027SOL    HW238715   0.988   3.747   4.133 -0.2446  3.4963 -1.1119
 9028SOL     OW38716   1.727   0.412   4.606 -0.5673  0.0784  0.5248
 9028SOL    HW138717   1.665   0.425   4.534 -1.2623 -0.4719  1.0356
 9028SOL    HW238718   1.773   0.496   4.594  0.5867 -0.4652  1.1055
 9029SOL     OW38719   3.391   3.239   0.975  0.0768 -0.6722 -0.4986
 9029SOL    HW138720   3.374   3.271   1.064 -0.2090  1.5295 -1.3594
 9029SOL    HW238721   3.484   3.222   0.986  0.0140  0.2552  1.6142
 9030SOL     OW38722   3.260   2.756   1.297  0.5235  0.0921 -0.0721
 9030SOL    HW138723   3.241   2.672   1.256 -1.5816  0.0485  1.0112
 9030SOL    HW238724   3.352   2.779   1.279  1.2390 -2.2587  0.5540
 9031SOL     OW38725   0.029   1.012   9.017 -0.7967  0.3363 -0.3938
 9031SOL    HW138726   0.103   1.058   9.057  0.3590  0.0894 -2.2152
 9031SOL    HW238727   4.724   1.087   8.977 -0.3851  1.2991  0.9645
 9032SOL     OW38728   0.459   1.703  11.683 -0.1802  0.2695 -0.2225
 9032SOL    HW138729   0.376   1.715  11.730 -1.0958  1.3274 -2.0973
 9032SOL    HW238730   0.498   1.624  11.722  2.9917  2.4090  0.9617
 9033SOL     OW38731   2.492   3.290   7.235  0.1597 -0.1977 -0.4674
 9033SOL    HW138732   2.461   3.266   7.322 -1.7313 -1.1897 -1.4214
 9033SOL    HW238733   2.490   3.210   7.183 -0.7086 -0.4510 -0.0432
 9034SOL     OW38734   4.053   3.103   7.864 -0.2885 -0.5463  0.7741
 9034SOL    HW138735   4.072   3.011   7.881  1.2301 -0.3287  0.2564
 9034SOL    HW238736   3.974   3.094   7.810  0.2193 -0.3173 -0.0047
 9035SOL     OW38737   3.839   2.349   1.676 -0.2023  0.2763 -0.9201
 9035SOL    HW138738   3.882   2.417   1.625  1.1763 -0.3576 -0.6244
 9035SOL    HW238739   3.758   2.348   1.625 -0.8533  0.4320  0.1072
 9036SOL     OW38740   3.204   2.737   7.677  0.1214 -0.1355 -1.2996
 9036SOL    HW138741   3.239   2.675   7.741  0.1952  1.7327  0.4772
 9036SOL    HW238742   3.203   2.819   7.726  2.1469 -0.1312 -1.2581
 9037SOL     OW38743   2.581   1.926   2.292  0.3736 -0.5373 -0.7407
 9037SOL    HW138744   2.662   1.890   2.328 -0.2372 -0.4982  0.6855
 9037SOL    HW238745   2.610   2.004   2.243  0.1504 -0.6344 -1.0266
 9038SOL     OW38746   1.161   3.812   5.419 -0.8598  0.9547  0.1566
 9038SOL    HW138747   1.195   3.873   5.354 -3.2170  0.8826 -1.1574
 9038SOL    HW238748   1.245   3.773   5.444 -1.4495  1.1453  2.4303
 9039SOL     OW38749   3.976   3.961   3.124 -0.2045 -0.7238  0.0244
 9039SOL    HW138750   3.895   3.962   3.072 -1.1444  1.8341  1.5525
 9039SOL    HW238751   3.953   3.909   3.200  0.1913 -3.2868 -1.5844
 9040SOL     OW38752   4.426   1.455   9.341  0.0068 -0.0234 -0.0523
 9040SOL    HW138753   4.394   1.443   9.431 -1.1666 -1.1331 -0.6168
 9040SOL    HW238754   4.511   1.489   9.370 -0.8354  1.7937  0.3060
 9041SOL     OW38755   3.439   0.125   1.985  0.2679  0.1819  0.1978
 9041SOL    HW138756   3.360   0.088   2.024 -1.2346  0.3410 -2.7099
 9041SOL    HW238757   3.401   0.162   1.905  0.7002  0.1572 -0.0193
 9042SOL     OW38758   2.801   2.141   4.515 -0.2268 -0.3005 -0.0564
 9042SOL    HW138759   2.733   2.200   4.483 -1.0775 -2.2939 -1.8833
 9042SOL    HW238760   2.811   2.073   4.448  0.1646 -2.4402  2.1661
 9043SOL     OW38761   0.420   1.977   3.638 -0.1026  0.0482 -0.2593
 9043SOL    HW138762   0.336   2.008   3.604 -0.2381 -0.5850 -0.5137
 9043SOL    HW238763   0.438   1.885   3.616 -1.4881 -0.3001  0.0724
 9044SOL     OW38764   0.205   0.443   2.289 -0.6114  0.3451 -0.0942
 9044SOL    HW138765   0.241   0.356   2.303  0.5630  0.7303 -0.8047
 9044SOL    HW238766   0.128   0.416   2.239 -0.1981  0.1631 -0.6161
 9045SOL     OW38767   3.343   1.173   8.435 -0.2213 -0.0804 -0.3293
 9045SOL    HW138768   3.431   1.135   8.426 -0.1575 -0.0008 -0.0358
 9045SOL    HW238769   3.350   1.201   8.526  0.1722 -0.8538 -0.1124
 9046SOL     OW38770   0.752   3.167   7.180 -0.2077  0.1429 -0.0882
 9046SOL    HW138771   0.802   3.248   7.166 -1.4866  1.0197  0.4107
 9046SOL    HW238772   0.685   3.201   7.240  1.5256  0.7958  1.4961
 9047SOL     OW38773   0.095   2.027   6.575 -0.1628 -0.3180 -0.3269
 9047SOL    HW138774   0.112   2.027   6.481 -0.6202  0.2560 -0.4102
 9047SOL    HW238775   0.012   1.981   6.580  0.7299 -1.9418 -0.3246
 9048SOL     OW38776   1.609   4.204   4.424  1.0761  0.1293  0.6343
 9048SOL    HW138777   1.620   4.284   4.475  0.2735 -0.7394  2.1804
 9048SOL    HW238778   1.541   4.224   4.360  2.2537  0.0613 -0.6343
 9049SOL     OW38779   2.916   0.656  11.788  1.0568  0.2727 -0.2702
 9049SOL    HW138780   2.949   0.688  11.872 -1.2689 -3.4434  2.0378
 9049SOL    HW238781   2.874   0.576  11.819 -0.0461  1.1388  0.4759
 9050SOL     OW38782   3.566   1.789   1.894  0.3641 -0.5200 -0.6234
 9050SOL    HW138783   3.570   1.772   1.800 -2.5364  0.3106 -0.8968
 9050SOL    HW238784   3.546   1.703   1.932 -0.2474 -0.1180 -0.0132
 9051SOL     OW38785   2.397   0.780   7.034  0.5664 -0.0049  0.5258
 9051SOL    HW138786   2.303   0.772   7.018 -0.0865  2.9984  2.6873
 9051SOL    HW238787   2.411   0.865   6.993  1.0707 -0.8684 -1.0745
 9052SOL     OW38788   1.098   0.566   5.926  0.0537 -0.7261  0.2140
 9052SOL    HW138789   1.168   0.522   5.878 -1.0829 -1.7332 -0.5089
 9052SOL    HW238790   1.151   0.619   5.985 -0.3219 -0.2819  0.1520
 9053SOL     OW38791   3.185   0.911   8.538  0.1489  0.1177 -0.7213
 9053SOL    HW138792   3.225   0.864   8.465 -1.3963 -0.8960 -0.9237
 9053SOL    HW238793   3.181   0.996   8.495  1.9536 -0.2563 -1.5898
 9054SOL     OW38794   0.892   2.605  15.153  0.2791 -0.1729 -0.3392
 9054SOL    HW138795   0.855   2.676  15.206  0.5010 -1.2426  1.2650
 9054SOL    HW238796   0.849   2.534  15.200 -1.6262  1.6843  0.7114
 9055SOL     OW38797   1.040   0.060   4.607  0.7514  0.1801 -0.4056
 9055SOL    HW138798   1.055   4.722   4.551 -1.7159  0.4415 -1.3970
 9055SOL    HW238799   1.132   0.087   4.613  0.6772  0.2922  0.2630
 9056SOL     OW38800   0.573   3.561   6.395 -0.4178  0.5610 -0.6447
 9056SOL    HW138801   0.635   3.519   6.454 -1.5113 -0.4936 -0.2360
 9056SOL    HW238802   0.490   3.540   6.439 -1.1713  0.6705 -2.0138
 9057SOL     OW38803   3.327   3.339   3.441 -0.3903 -0.6828 -0.1977
 9057SOL    HW138804   3.352   3.247   3.449  0.8352 -0.3190  0.2512
 9057SOL    HW238805   3.243   3.335   3.396 -0.1556  1.3007 -0.8379
 9058SOL     OW38806   3.525   0.179   2.437 -0.2295  0.0524  0.2937
 9058SOL    HW138807   3.459   0.199   2.371  0.5186  0.9878 -0.1710
 9058SOL    HW238808   3.603   0.165   2.383 -0.4740  1.2911 -0.3863
 9059SOL     OW38809   2.181   0.405   0.694 -0.3665 -0.3060  0.9399
 9059SOL    HW138810   2.193   0.422   0.601 -0.4966  1.0077  1.1733
 9059SOL    HW238811   2.238   0.329   0.704  1.1562  0.8163  0.6949
 9060SOL     OW38812   1.117   3.540   7.809 -0.6341  0.0439 -0.3522
 9060SOL    HW138813   1.182   3.606   7.832 -0.5621 -0.2501  0.2708
 9060SOL    HW238814   1.042   3.570   7.861 -0.7627 -0.4414 -0.2546
 9061SOL     OW38815   2.162   3.710   5.651  0.1289  0.1925 -0.2687
 9061SOL    HW138816   2.192   3.622   5.676  1.0219  0.8979  1.1568
 9061SOL    HW238817   2.212   3.767   5.710 -1.3828  0.2464  0.9606
 9062SOL     OW38818   0.998   3.329   8.591  0.4568  0.5066 -0.0129
 9062SOL    HW138819   0.992   3.402   8.652 -0.8759  1.3850 -1.2199
 9062SOL    HW238820   0.906   3.309   8.576 -0.1447  2.0138  1.6605
 9063SOL     OW38821   0.377   2.080   6.549  0.4244 -0.6952  0.1766
 9063SOL    HW138822   0.282   2.086   6.555  0.4199 -1.1017  0.4920
 9063SOL    HW238823   0.374   1.987   6.530 -2.7625 -0.4927 -0.2452
 9064SOL     OW38824   3.331   0.931   7.780 -0.0086 -0.2483  0.0859
 9064SOL    HW138825   3.276   1.008   7.767 -0.9568 -0.8734  0.3337
 9064SOL    HW238826   3.350   0.937   7.873  0.3720 -2.2955  0.1545
 9065SOL     OW38827   0.584   1.348   0.932 -0.1024  0.6552 -0.2958
 9065SOL    HW138828   0.521   1.421   0.927  0.1363  0.9286  0.6210
 9065SOL    HW238829   0.599   1.350   1.027 -0.7705  0.9646 -0.1958
 9066SOL     OW38830   0.192   2.253   4.709  0.3255 -0.2291  0.3652
 9066SOL    HW138831   0.134   2.328   4.724 -0.1618 -0.5771  0.2135
 9066SOL    HW238832   0.136   2.177   4.718  0.9610 -0.8013 -0.5219
 9067SOL     OW38833   2.031   3.537   8.692  0.2108  0.0932  0.0875
 9067SOL    HW138834   2.004   3.453   8.729  0.3425 -0.2088 -0.5059
 9067SOL    HW238835   2.010   3.594   8.766  0.7960 -0.9807  1.0916
 9068SOL     OW38836   0.578   3.395   3.467  0.0982 -0.0009 -0.3150
 9068SOL    HW138837   0.509   3.452   3.500  0.8444  1.2544 -0.9460
 9068SOL    HW238838   0.552   3.384   3.375  0.8111 -2.6634 -0.2148
 9069SOL     OW38839   3.012   0.771  13.353 -0.5284 -0.6795  0.1668
 9069SOL    HW138840   2.938   0.811  13.307  0.4537  1.0164  0.0844
 9069SOL    HW238841   2.972   0.703  13.407 -0.7577  0.5797  1.5826
 9070SOL     OW38842   4.474   1.746   4.449 -0.2561 -0.0788  0.4320
 9070SOL    HW138843   4.458   1.838   4.431  1.0545  0.2316  0.8209
 9070SOL    HW238844   4.558   1.743   4.403 -1.6326 -0.6654 -2.0648
 9071SOL     OW38845   3.819   3.698   2.929 -0.2048 -0.0139  0.0321
 9071SOL    HW138846   3.900   3.680   2.881 -1.0775  1.9356 -2.1847
 9071SOL    HW238847   3.755   3.679   2.860  0.4569  0.1708 -0.6293
 9072SOL     OW38848   2.908   2.465   6.571  0.6762  0.1854 -0.0858
 9072SOL    HW138849   2.837   2.439   6.630  2.7803 -0.1243  2.2739
 9072SOL    HW238850   2.877   2.551   6.544  2.9484  1.0857  0.2107
 9073SOL     OW38851   3.894   0.593   2.777  0.2843 -0.7484  0.3565
 9073SOL    HW138852   3.806   0.601   2.813  0.8880 -0.3644  1.7456
 9073SOL    HW238853   3.937   0.560   2.855 -1.0002  1.7170  2.1055
 9074SOL     OW38854   4.703   1.795   4.066  0.3518 -0.3206 -0.1142
 9074SOL    HW138855   4.614   1.764   4.052  0.5975 -0.8196 -0.5858
 9074SOL    HW238856   4.731   1.814   3.977  0.0419 -0.1588 -0.1737
 9075SOL     OW38857   2.343   1.924   5.278  0.1939  0.4735  0.1136
 9075SOL    HW138858   2.258   1.881   5.284  0.2651  0.4634  0.9708
 9075SOL    HW238859   2.344   1.962   5.365 -0.1985  0.1911  0.2410
 9076SOL     OW38860   3.984   0.525   6.129 -0.6032  0.6898  0.4692
 9076SOL    HW138861   3.983   0.439   6.088  1.7593  2.3578 -3.0267
 9076SOL    HW238862   4.077   0.550   6.131 -0.3448 -0.2443 -0.2809
 9077SOL     OW38863   1.180   4.143   2.143  0.0561  0.5020 -0.0449
 9077SOL    HW138864   1.252   4.106   2.194 -0.3179 -0.9954 -0.6047
 9077SOL    HW238865   1.142   4.064   2.104 -1.1036  0.1424  1.8052
 9078SOL     OW38866   2.215   2.907   6.593  0.3997  0.4182  0.0051
 9078SOL    HW138867   2.269   2.968   6.643  2.3156  0.2708 -1.9088
 9078SOL    HW238868   2.215   2.935   6.501 -1.3767  1.3648  0.2868
 9079SOL     OW38869   2.956   0.283   4.291  0.0433 -0.1611 -0.2667
 9079SOL    HW138870   2.870   0.321   4.306 -0.8689 -2.5708  0.5327
 9079SOL    HW238871   2.962   0.222   4.364 -0.7105  0.2105  0.0995
 9080SOL     OW38872   2.432   3.548   1.865 -0.0984  0.1306 -0.5119
 9080SOL    HW138873   2.505   3.502   1.823  0.7782  1.0939 -0.0295
 9080SOL    HW238874   2.370   3.476   1.854 -2.0711  1.1250  4.1193
 9081SOL     OW38875   1.083   0.910   5.490 -0.1389  0.7834 -0.2208
 9081SOL    HW138876   1.156   0.869   5.444  1.2158  1.8827  0.9444
 9081SOL    HW238877   1.075   0.852   5.565 -0.9844 -0.3548 -1.1909
 9082SOL     OW38878   0.459   1.136  10.052  0.4677  0.0427  0.4418
 9082SOL    HW138879   0.401   1.140   9.976  1.5347  1.8604 -0.2664
 9082SOL    HW238880   0.421   1.187  10.123 -1.0541 -1.8035  0.9488
 9083SOL     OW38881   0.775   0.411  16.188 -0.3429  0.0193  0.1231
 9083SOL    HW138882   0.736   0.472  16.250 -1.5569  1.4395 -2.0635
 9083SOL    HW238883   0.701   0.410  16.128 -1.2753 -1.8241  1.2838
 9084SOL     OW38884   3.915   0.880   1.599 -0.4272 -0.2850  0.5784
 9084SOL    HW138885   3.970   0.957   1.614 -1.7490  0.0488  3.7759
 9084SOL    HW238886   3.940   0.866   1.508  1.7341  1.9786  0.8260
 9085SOL     OW38887   1.616   2.343  11.484  0.0371  0.5504  0.2657
 9085SOL    HW138888   1.610   2.306  11.572 -1.4705 -1.7629 -0.7977
 9085SOL    HW238889   1.570   2.279  11.429  1.1462 -0.7036  0.8086
 9086SOL     OW38890   2.996   0.270   3.896  0.1792  0.1784  0.2704
 9086SOL    HW138891   3.060   0.274   3.967 -2.0822 -1.1099  2.3828
 9086SOL    HW238892   2.921   0.317   3.932 -1.0564 -1.2079 -0.4860
 9087SOL     OW38893   0.521   2.055   3.314  0.4982  0.1373  0.0378
 9087SOL    HW138894   0.432   2.089   3.328 -0.3080 -1.7738 -0.4793
 9087SOL    HW238895   0.561   2.135   3.280 -1.5186  0.7547 -0.8895
 9088SOL     OW38896   3.313   2.171  11.662 -0.1755 -0.2189 -0.2151
 9088SOL    HW138897   3.298   2.076  11.659  0.1850 -0.2289 -1.9764
 9088SOL    HW238898   3.263   2.196  11.584 -0.5233  1.6364  0.6013
 9089SOL     OW38899   4.093   3.563   3.910  0.0611 -0.0191  0.2151
 9089SOL    HW138900   4.186   3.585   3.898  0.0828 -0.5807 -0.6661
 9089SOL    HW238901   4.067   3.562   3.818 -1.2844  0.2237  0.6021
 9090SOL     OW38902   2.899   0.978   7.783 -0.2444  0.5045 -0.2393
 9090SOL    HW138903   2.933   0.892   7.808 -4.6952 -0.8139  1.4031
 9090SOL    HW238904   2.912   0.967   7.689 -2.2037 -0.1595 -0.4433
 9091SOL     OW38905   4.511   3.011  15.482 -0.3977  0.6469 -0.0649
 9091SOL    HW138906   4.455   2.989  15.556  0.3342 -0.9935  0.0070
 9091SOL    HW238907   4.525   2.930  15.432  0.3024  0.2061  0.8432
 9092SOL     OW38908   2.201   2.525  16.377 -0.1203  0.7221 -0.2393
 9092SOL    HW138909   2.173   2.611  16.410  0.1151 -0.1195  2.0997
 9092SOL    HW238910   2.128   2.509  16.317 -0.2078 -1.5208  0.4907
 9093SOL     OW38911   3.015   1.584   5.603  0.1988  0.6492  0.4683
 9093SOL    HW138912   3.021   1.578   5.507 -1.9920  1.6533  0.2552
 9093SOL    HW238913   3.010   1.677   5.623  0.7293  0.4726  1.3920
 9094SOL     OW38914   3.542   1.737   4.044  0.1486 -0.6759 -0.3341
 9094SOL    HW138915   3.479   1.786   3.991  1.0514 -1.2751 -1.9620
 9094SOL    HW238916   3.551   1.665   3.982 -1.2125 -2.6193  1.7061
 9095SOL     OW38917   0.250   2.221   3.315  0.1753  0.1636  0.2498
 9095SOL    HW138918   0.188   2.230   3.242  1.9958  0.9495 -1.1726
 9095SOL    HW238919   0.293   2.306   3.311  1.4526 -0.4765  0.3596
 9096SOL     OW38920   3.592   1.837   8.529 -0.1505  0.1011 -0.2500
 9096SOL    HW138921   3.609   1.928   8.508 -0.1022 -0.0294 -0.7605
 9096SOL    HW238922   3.577   1.841   8.624  0.7720  1.2162 -0.1518
 9097SOL     OW38923   1.973   1.612   6.037  0.0101  0.2721 -0.4235
 9097SOL    HW138924   1.917   1.580   6.108  0.3442  0.9407  0.1462
 9097SOL    HW238925   1.970   1.706   6.054 -1.3066 -0.0991  1.2902
 9098SOL     OW38926   4.728   2.493  11.257  0.2169 -0.5897  0.1111
 9098SOL    HW138927   4.728   2.505  11.352  0.6397 -3.8116  0.5177
 9098SOL    HW238928   0.082   2.498  11.231 -0.1195 -1.1344 -1.2143
 9099SOL     OW38929   1.529   3.367  17.055 -0.2535 -0.5549 -0.7031
 9099SOL    HW138930   1.529   3.323  16.970  0.1610 -1.5523 -0.1921
 9099SOL    HW238931   1.571   3.452  17.048  1.0683 -1.0113  1.5417
 9100SOL     OW38932   4.194   2.929   4.370  0.0485 -0.6978 -0.3060
 9100SOL    HW138933   4.270   2.952   4.424 -0.3507 -0.3743  0.1166
 9100SOL    HW238934   4.205   2.987   4.294 -0.1827 -0.3006 -0.0394
 9101SOL     OW38935   3.317   3.967   8.159  0.2983 -1.3603  0.1206
 9101SOL    HW138936   3.346   3.965   8.068 -0.4387 -3.1243 -0.0740
 9101SOL    HW238937   3.386   4.008   8.211 -1.0835 -1.0753  1.7073
 9102SOL     OW38938   1.052   0.735   3.604 -0.0081 -0.0913 -0.0957
 9102SOL    HW138939   1.092   0.780   3.678  2.0390 -1.0270 -0.6316
 9102SOL    HW238940   1.131   0.744   3.550  1.0156 -1.0485  1.2715
 9103SOL     OW38941   3.962   2.175   5.425 -0.0311 -0.2509 -0.3059
 9103SOL    HW138942   3.969   2.186   5.331  2.7719  0.5742 -0.0215
 9103SOL    HW238943   3.980   2.083   5.442  1.7117  0.2271  0.5015
 9104SOL     OW38944   0.191   0.513  12.372 -0.0742 -0.0160 -0.2224
 9104SOL    HW138945   0.163   0.493  12.461  2.7220 -0.0134  0.6816
 9104SOL    HW238946   0.190   0.431  12.323  1.9433 -0.9477  1.2620
 9105SOL     OW38947   4.477   2.724  11.172 -0.0032  0.2527  0.3647
 9105SOL    HW138948   4.399   2.711  11.227 -2.0023 -0.5355 -2.6103
 9105SOL    HW238949   4.537   2.750  11.241 -1.6908  0.5108  1.7402
 9106SOL     OW38950   0.078   3.438   7.490 -0.0246 -0.0995 -0.4556
 9106SOL    HW138951   0.170   3.438   7.516  0.4211 -0.9474 -2.0209
 9106SOL    HW238952   0.091   3.438   7.395 -0.4407 -0.6979 -0.5126
 9107SOL     OW38953   2.351   0.860   3.300  0.1765  0.5193  0.0497
 9107SOL    HW138954   2.334   0.953   3.315 -1.7245 -0.0154  1.3056
 9107SOL    HW238955   2.367   0.852   3.206  0.1680  2.3107 -0.1108
 9108SOL     OW38956   0.011   0.749   0.989 -0.3418 -0.5254  0.0083
 9108SOL    HW138957   4.681   0.795   1.038  0.4811  0.4463  0.2278
 9108SOL    HW238958   0.072   0.756   1.063 -1.4601  2.3820  0.6546
 9109SOL     OW38959   0.292   4.026   8.822 -0.5726  0.4318  0.5275
 9109SOL    HW138960   0.387   4.017   8.831 -0.5278 -1.4865 -2.2830
 9109SOL    HW238961   0.274   4.063   8.909  0.1533 -1.0886  1.3195
 9110SOL     OW38962   3.052   4.516   1.855 -0.1010 -0.1365  0.5474
 9110SOL    HW138963   2.963   4.548   1.868  0.7774  3.1043 -1.3183
 9110SOL    HW238964   3.035   4.433   1.810 -1.6810  0.4148  0.1390
 9111SOL     OW38965   4.053   1.675   0.628  0.1755  0.1237  0.1270
 9111SOL    HW138966   3.983   1.712   0.573 -2.2020 -2.1613  1.6218
 9111SOL    HW238967   4.080   1.589   0.597  1.6574  0.6156  0.0654
 9112SOL     OW38968   4.426   3.478   7.068  0.3182 -0.1737 -0.0303
 9112SOL    HW138969   4.343   3.450   7.106 -0.4681  1.3899 -0.6126
 9112SOL    HW238970   4.416   3.442   6.980  1.6220 -1.2284  0.2530
 9113SOL     OW38971   1.925   4.259  11.241  0.4969  0.3055  0.0040
 9113SOL    HW138972   1.982   4.317  11.293  2.4389  0.3506 -2.1672
 9113SOL    HW238973   1.918   4.320  11.167 -0.0132 -1.2080 -1.1921
 9114SOL     OW38974   4.190   3.344   7.579  0.4668  0.6119 -0.0243
 9114SOL    HW138975   4.248   3.401   7.529 -0.9279  0.1513 -2.1582
 9114SOL    HW238976   4.213   3.363   7.670 -1.4750 -0.8755  0.7964
 9115SOL     OW38977   2.279   4.507   8.638  0.0548  0.1361  0.4560
 9115SOL    HW138978   2.289   4.421   8.680  1.6360  0.3405  0.4780
 9115SOL    HW238979   2.185   4.494   8.622  0.4372 -1.4605 -0.5021
 9116SOL     OW38980   0.219   1.879   2.097 -0.3449  0.0585  0.5163
 9116SOL    HW138981   0.188   1.797   2.135 -1.2852  1.0120  1.8475
 9116SOL    HW238982   0.139   1.932   2.097 -0.5500 -0.2572 -0.9820
 9117SOL     OW38983   1.246   4.250   7.457  0.1300 -0.1918  0.0709
 9117SOL    HW138984   1.311   4.204   7.404  0.2728  0.4565 -0.3175
 9117SOL    HW238985   1.177   4.234   7.392  1.4276  0.9485 -1.5890
 9118SOL     OW38986   2.749   3.662   3.129 -0.5881 -0.0405 -0.0900
 9118SOL    HW138987   2.688   3.673   3.055  0.7588  1.4488 -0.9617
 9118SOL    HW238988   2.708   3.728   3.185 -0.2801 -0.8211  1.0426
 9119SOL     OW38989   4.048   1.558   2.329  0.4861 -0.0464 -0.3749
 9119SOL    HW138990   4.063   1.587   2.239 -0.0116  3.0040  0.5054
 9119SOL    HW238991   4.127   1.586   2.376  1.1927 -2.5785 -0.0973
 9120SOL     OW38992   2.452   4.658  11.397  0.2878  0.3639  0.4521
 9120SOL    HW138993   2.416   4.618  11.318  1.0128  0.4270  0.0848
 9120SOL    HW238994   2.404   0.002  11.408 -2.1130 -1.2599  1.8536
 9121SOL     OW38995   3.316   1.681  16.421  0.6535 -0.5474 -0.3137
 9121SOL    HW138996   3.393   1.627  16.440 -0.5859 -1.1331  3.1164
 9121SOL    HW238997   3.311   1.674  16.326 -1.0142  0.9319 -0.3509
 9122SOL     OW38998   2.139   3.324   4.863 -0.2250 -0.6450  0.0238
 9122SOL    HW138999   2.197   3.259   4.823 -0.9119 -0.2566 -1.5854
 9122SOL    HW239000   2.103   3.281   4.941  0.1989 -0.3767  0.3639
 9123SOL     OW39001   3.869   0.490  10.888  0.1486  0.5559  0.0862
 9123SOL    HW139002   3.885   0.401  10.918 -1.3573 -0.1024 -1.0801
 9123SOL    HW239003   3.808   0.521  10.955  2.6823 -0.7772  3.0062
 9124SOL     OW39004   1.272   2.137   1.356  0.3046  0.2251  0.1954
 9124SOL    HW139005   1.332   2.122   1.429  0.4964 -0.4244 -0.1005
 9124SOL    HW239006   1.223   2.058   1.376 -0.3583  0.7204  0.5527
 9125SOL     OW39007   2.621   3.528   3.582  0.2777  0.4070 -0.9153
 9125SOL    HW139008   2.644   3.621   3.576  0.8893  0.1506 -2.3481
 9125SOL    HW239009   2.584   3.509   3.496  2.5370  1.0448 -2.0335
 9126SOL     OW39010   4.133   4.199   8.387  0.6859  0.4724 -0.4356
 9126SOL    HW139011   4.127   4.293   8.366  2.6087  0.5124 -0.7617
 9126SOL    HW239012   4.119   4.205   8.482 -2.0347 -2.1156 -0.6884
 9127SOL     OW39013   1.409   3.464   6.312 -0.2148 -0.3118 -0.2325
 9127SOL    HW139014   1.448   3.406   6.377  1.1612  1.5017  0.5329
 9127SOL    HW239015   1.316   3.443   6.322 -0.3290  0.6753  0.7321
 9128SOL     OW39016   0.010   3.757   6.889  0.2959  0.0760  0.6410
 9128SOL    HW139017   4.701   3.702   6.826  0.2889  0.7631  0.0420
 9128SOL    HW239018   0.077   3.794   6.832  0.0656 -2.4217 -1.2344
 9129SOL     OW39019   4.499   2.401   0.578 -0.1252 -0.3311 -0.2734
 9129SOL    HW139020   4.577   2.376   0.629  0.5126  1.1136 -0.5348
 9129SOL    HW239021   4.532   2.422   0.490 -2.1037  0.9668 -0.6840
 9130SOL     OW39022   4.577   0.397   6.211 -0.1707 -0.2491 -0.3901
 9130SOL    HW139023   4.507   0.406   6.146 -0.0791 -1.1981 -0.6248
 9130SOL    HW239024   4.602   0.305   6.209 -3.0822 -1.0172 -1.9974
 9131SOL     OW39025   2.042   1.612   7.585 -0.3620  0.1118  0.2424
 9131SOL    HW139026   2.017   1.593   7.676  0.0237 -0.1967  0.2864
 9131SOL    HW239027   2.095   1.690   7.599  0.7786 -0.4322 -1.0821
 9132SOL     OW39028   0.390   4.664   2.766 -0.2977  0.3403  0.1737
 9132SOL    HW139029   0.350   4.649   2.680 -0.0872  0.7846  0.0004
 9132SOL    HW239030   0.485   4.663   2.755 -0.6855  1.0642 -3.1419
 9133SOL     OW39031   0.551   1.205   0.434 -0.7462  0.1406  0.3264
 9133SOL    HW139032   0.482   1.149   0.471  0.1108  0.8457  2.9547
 9133SOL    HW239033   0.506   1.249   0.362 -1.3673 -0.3043  0.4461
 9134SOL     OW39034   0.958   1.880   1.797  0.3017  0.2992 -0.6183
 9134SOL    HW139035   0.883   1.905   1.852  0.9914  0.2559  0.3402
 9134SOL    HW239036   1.031   1.929   1.835  0.8432 -0.0734 -1.1776
 9135SOL     OW39037   3.516   4.682   5.985 -0.6818  0.3174  0.1421
 9135SOL    HW139038   3.526   4.588   5.976  0.0458  0.3390  0.6525
 9135SOL    HW239039   3.480   4.686   6.073  1.8778  0.5299  1.2064
 9136SOL     OW39040   1.339   2.638   7.552 -0.1043  0.1964 -0.9160
 9136SOL    HW139041   1.358   2.717   7.602  2.3346 -1.4603  0.7717
 9136SOL    HW239042   1.291   2.670   7.476  0.9572  1.5760 -1.0093
 9137SOL     OW39043   4.457   2.527   2.429 -0.8910  0.2097 -0.6609
 9137SOL    HW139044   4.417   2.543   2.514 -3.0145 -1.1128 -1.4152
 9137SOL    HW239045   4.549   2.533   2.456 -1.3812 -0.2939  1.1166
 9138SOL     OW39046   2.819   1.033   4.111 -0.0939 -0.2037  0.1839
 9138SOL    HW139047   2.816   0.970   4.182  2.5694  0.2353  0.6960
 9138SOL    HW239048   2.744   1.089   4.129 -0.4791 -0.1822 -1.4587
 9139SOL     OW39049   2.557   4.536   1.726 -0.0809  0.3844  0.3283
 9139SOL    HW139050   2.580   4.473   1.794 -1.7102 -0.2982  0.2360
 9139SOL    HW239051   2.622   4.532   1.655 -0.1811  3.0246  0.0904
 9140SOL     OW39052   1.382   3.257   3.185 -0.0517  0.0180 -0.0460
 9140SOL    HW139053   1.404   3.330   3.129  1.5384 -1.7231 -1.6822
 9140SOL    HW239054   1.466   3.221   3.212  0.4493  0.2973 -1.2808
 9141SOL     OW39055   4.613   4.501   5.371 -0.6195 -0.1529 -0.0713
 9141SOL    HW139056   4.600   4.414   5.333 -2.1581  0.0117  0.0475
 9141SOL    HW239057   4.692   4.487   5.423 -0.2508  1.0664 -0.2878
 9142SOL     OW39058   3.922   1.452   2.805 -0.2720 -0.4469 -0.0875
 9142SOL    HW139059   4.009   1.432   2.770  0.5878  5.1605 -1.0697
 9142SOL    HW239060   3.952   1.501   2.881  1.1665  1.7191 -2.0326
 9143SOL     OW39061   1.926   4.053   7.312 -0.0035  0.4817  0.8446
 9143SOL    HW139062   1.953   4.112   7.382  0.2385  0.6415  0.6132
 9143SOL    HW239063   1.856   4.011   7.362  2.0355 -1.7792  1.7657
 9144SOL     OW39064   2.566   1.365   2.962  1.2082 -0.4145 -0.4321
 9144SOL    HW139065   2.561   1.461   2.955 -2.8894 -0.7789 -2.4671
 9144SOL    HW239066   2.661   1.352   2.963  1.2059 -0.4085 -0.0999
 9145SOL     OW39067   2.170   0.125   7.183  0.2407  0.4663 -0.0452
 9145SOL    HW139068   2.242   0.175   7.220  1.1688 -0.9641  0.0981
 9145SOL    HW239069   2.217   0.051   7.145  1.1270  1.5435 -1.0044
 9146SOL     OW39070   1.579   4.543  15.197 -0.3926  0.1574  0.1932
 9146SOL    HW139071   1.538   4.513  15.278 -0.0606 -1.6062 -0.2849
 9146SOL    HW239072   1.672   4.524  15.210 -0.3071 -1.1569 -2.2231
 9147SOL     OW39073   4.323   2.974   6.058  0.1446 -0.7212 -0.2283
 9147SOL    HW139074   4.232   2.984   6.087 -0.4104  0.6300 -2.3987
 9147SOL    HW239075   4.338   2.882   6.080 -0.2090 -0.8244 -0.4164
 9148SOL     OW39076   0.398   4.428   3.080 -0.6041  0.5118  0.3133
 9148SOL    HW139077   0.315   4.400   3.118 -1.5176  1.6909 -0.8351
 9148SOL    HW239078   0.451   4.388   3.150  0.6572  0.3232 -0.7483
 9149SOL     OW39079   3.836   2.285   5.064 -0.5696  0.1025  0.1539
 9149SOL    HW139080   3.846   2.362   5.007 -0.3723  0.1568  0.2617
 9149SOL    HW239081   3.925   2.287   5.099 -0.7596 -0.1450  0.6499
 9150SOL     OW39082   4.278   0.462   2.979 -0.1998 -0.4246  0.0336
 9150SOL    HW139083   4.188   0.494   2.986  0.4749  1.5401 -0.0638
 9150SOL    HW239084   4.289   0.418   3.063 -2.0433  0.2630  0.6214
 9151SOL     OW39085   1.099   4.229   7.226  0.2050  0.3721 -0.1600
 9151SOL    HW139086   1.009   4.233   7.258  0.8184  1.4293  1.4332
 9151SOL    HW239087   1.109   4.314   7.184  2.9617 -0.7094 -1.6599
 9152SOL     OW39088   0.223   2.482   6.697  0.4165 -0.0028 -0.0944
 9152SOL    HW139089   0.176   2.400   6.710  0.2926 -0.1063 -1.2136
 9152SOL    HW239090   0.149   2.531   6.663  0.2218 -0.5854 -0.5088
 9153SOL     OW39091   3.772   0.134   6.568  0.5689  0.1719  0.6572
 9153SOL    HW139092   3.717   0.139   6.491  0.6550 -3.5404  0.3667
 9153SOL    HW239093   3.823   0.215   6.557 -1.3857  1.0995 -1.3623
 9154SOL     OW39094   2.425   0.296  12.648 -0.0568 -0.2933 -0.1241
 9154SOL    HW139095   2.492   0.288  12.580  0.6628  1.3237  0.3787
 9154SOL    HW239096   2.351   0.295  12.587 -1.1942 -0.5449  1.2507
 9155SOL     OW39097   3.042   0.920   1.546 -0.1354 -0.1693 -0.2012
 9155SOL    HW139098   3.096   0.857   1.498  0.5938 -0.8935  1.5772
 9155SOL    HW239099   3.111   0.965   1.596  0.8357 -1.0281 -0.7656
 9156SOL     OW39100   4.456   0.585   7.214 -0.4823 -0.4772  0.0452
 9156SOL    HW139101   4.443   0.674   7.247  1.6154 -0.6578  1.3795
 9156SOL    HW239102   4.552   0.588   7.205 -0.4797 -0.6677  0.0167
 9157SOL     OW39103   3.484   3.724  12.293  0.3490  0.2432 -0.0680
 9157SOL    HW139104   3.400   3.678  12.306 -0.7573  1.8311 -1.6801
 9157SOL    HW239105   3.462   3.815  12.308  1.3458  0.5698 -0.5948
 9158SOL     OW39106   0.570   0.252   8.785 -0.3950  0.1156 -0.3696
 9158SOL    HW139107   0.578   0.314   8.858  1.8344 -0.6429  0.0202
 9158SOL    HW239108   0.546   0.308   8.712  1.3621  0.2339 -0.8509
 9159SOL     OW39109   0.466   2.792   9.039  0.3130 -0.2073  0.5288
 9159SOL    HW139110   0.506   2.841   8.968  0.8869 -1.1343  0.2135
 9159SOL    HW239111   0.451   2.707   8.999 -1.4552 -0.2795  1.3252
 9160SOL     OW39112   4.726   3.211   3.036 -0.3903 -0.0302 -0.6054
 9160SOL    HW139113   0.029   3.144   2.981  0.5593  1.8632 -2.2106
 9160SOL    HW239114   4.675   3.147   3.085 -0.2840 -1.6691 -2.6084
 9161SOL     OW39115   0.792   3.403  14.915 -0.6861 -0.4039  0.1417
 9161SOL    HW139116   0.697   3.395  14.923 -0.7523  1.5934  1.2774
 9161SOL    HW239117   0.810   3.411  15.008  0.3607  1.7595 -0.2413
 9162SOL     OW39118   1.759   3.040   8.789  0.8565 -0.0837  0.2434
 9162SOL    HW139119   1.665   3.048   8.805  0.7799  0.1662 -0.3451
 9162SOL    HW239120   1.785   3.006   8.874  1.3706 -0.4738 -0.0713
 9163SOL     OW39121   4.033   4.401   5.169 -0.4929  0.1942  0.2595
 9163SOL    HW139122   4.016   4.490   5.200 -0.5816 -0.4745  2.1566
 9163SOL    HW239123   3.984   4.357   5.239 -0.2043  0.0088  0.3468
 9164SOL     OW39124   0.094   1.813   8.355 -0.1059 -0.5730 -0.3822
 9164SOL    HW139125   0.171   1.793   8.408 -0.2267  1.3729  0.5111
 9164SOL    HW239126   0.110   1.901   8.323  2.6025 -1.0948 -0.4493
 9165SOL     OW39127   0.033   2.465   1.649  0.7541 -0.5145  0.0570
 9165SOL    HW139128   0.007   2.539   1.704 -0.0389 -0.3071 -0.5884
 9165SOL    HW239129   4.707   2.395   1.664  0.0638  0.1715  0.3148
 9166SOL     OW39130   0.161   4.195  11.040 -0.1735  0.0556 -0.3853
 9166SOL    HW139131   0.109   4.116  11.023 -1.2241  0.4793  0.8636
 9166SOL    HW239132   0.103   4.260  11.001  0.2172  1.1829  0.9164
 9167SOL     OW39133   0.468   3.482  15.522  0.0476 -0.5164 -0.0194
 9167SOL    HW139134   0.412   3.560  15.513 -0.3361 -0.9455 -1.2502
 9167SOL    HW239135   0.477   3.452  15.432 -0.9739 -0.5123 -0.1316
 9168SOL     OW39136   4.618   3.684   9.599 -0.4557 -0.3279  0.0193
 9168SOL    HW139137   4.603   3.679   9.504 -1.2399 -0.0026  0.1260
 9168SOL    HW239138   4.587   3.601   9.634 -0.4256  0.3336  1.6068
 9169SOL     OW39139   1.994   4.700  17.631 -0.2225 -0.1322  0.3749
 9169SOL    HW139140   1.914   4.701  17.579 -0.0250 -0.2968  0.0663
 9169SOL    HW239141   2.063   4.696  17.565  0.8703  2.9064  1.3261
 9170SOL     OW39142   1.811   0.420   5.897 -0.1932 -0.0468  0.7171
 9170SOL    HW139143   1.858   0.450   5.975 -0.4597 -3.8985  2.3977
 9170SOL    HW239144   1.769   0.500   5.868 -3.0775 -0.7255  3.0334
 9171SOL     OW39145   0.372   2.217   2.219 -0.0940  0.0704 -0.3920
 9171SOL    HW139146   0.390   2.209   2.125 -2.0191 -1.3491 -0.6315
 9171SOL    HW239147   0.296   2.275   2.222 -0.1139 -0.0666  1.8255
 9172SOL     OW39148   0.049   0.503   8.886  0.1147 -0.4886 -0.4084
 9172SOL    HW139149   0.134   0.461   8.873  1.0653  1.4856 -0.6456
 9172SOL    HW239150   0.075   0.584   8.931  0.5606 -1.6380  1.3688
 9173SOL     OW39151   1.814   0.308   2.276  0.0472 -0.5661  0.5803
 9173SOL    HW139152   1.748   0.368   2.309  0.0425 -0.2465 -0.0135
 9173SOL    HW239153   1.792   0.224   2.318  0.3382 -1.1980 -0.5219
 9174SOL     OW39154   1.593   2.050   8.708  0.0191 -0.2968  0.0424
 9174SOL    HW139155   1.528   2.025   8.642 -0.6214 -1.0837  0.9859
 9174SOL    HW239156   1.542   2.085   8.781 -0.4329 -1.1558  0.1423
 9175SOL     OW39157   3.048   0.953   5.826 -0.4854  0.2768 -0.1623
 9175SOL    HW139158   2.994   1.030   5.840  0.0980  0.4490  1.1656
 9175SOL    HW239159   3.127   0.975   5.876 -0.3759 -0.0086 -0.2067
 9176SOL     OW39160   2.471   0.902  12.184 -0.4341  0.1497  0.5093
 9176SOL    HW139161   2.486   0.848  12.107  0.0528 -0.1464  0.8202
 9176SOL    HW239162   2.547   0.880  12.238 -0.5258 -1.4412 -0.0354
 9177SOL     OW39163   3.064   4.121  12.185  0.7408 -0.2818  0.1943
 9177SOL    HW139164   3.110   4.204  12.182  2.2553 -1.1011  0.6604
 9177SOL    HW239165   3.013   4.124  12.266 -0.0404 -1.4816 -0.2539
 9178SOL     OW39166   2.165   0.985   6.566 -0.8087  0.4531  0.1945
 9178SOL    HW139167   2.078   1.023   6.581 -1.3972 -0.8532  0.0389
 9178SOL    HW239168   2.173   0.952   6.655 -1.7532  2.8000  1.1654
 9179SOL     OW39169   4.296   3.619  17.081  0.0329 -0.2056 -0.2173
 9179SOL    HW139170   4.264   3.594  17.167  0.7921  1.0873  0.4532
 9179SOL    HW239171   4.381   3.574  17.080 -0.8132 -1.8001  0.8585
 9180SOL     OW39172   3.762   3.664   0.341 -0.3741 -0.2591  0.2912
 9180SOL    HW139173   3.838   3.615   0.307  0.9070  1.8006  0.1897
 9180SOL    HW239174   3.752   3.632   0.430 -0.2259 -0.4357  0.2465
 9181SOL     OW39175   4.615   0.776   9.220 -0.2734  0.6862 -0.2395
 9181SOL    HW139176   4.623   0.871   9.216 -0.0003  0.7195  1.0546
 9181SOL    HW239177   4.705   0.752   9.198 -0.4945 -0.3622  0.0121
 9182SOL     OW39178   2.486   2.189   1.816 -0.1360 -1.0527  0.0637
 9182SOL    HW139179   2.416   2.201   1.880 -0.6815  0.5570 -0.8468
 9182SOL    HW239180   2.475   2.097   1.790  0.0997 -1.4054  1.2424
 9183SOL     OW39181   0.883   0.350   0.770  0.1502  0.2872  0.5577
 9183SOL    HW139182   0.855   0.299   0.694  0.7646 -0.1887  0.6582
 9183SOL    HW239183   0.886   0.435   0.726  1.8604 -0.2497 -0.3656
 9184SOL     OW39184   0.928   0.981  17.359 -0.2770 -0.0326 -0.5385
 9184SOL    HW139185   0.889   1.053  17.409  0.6793  0.5658 -0.6546
 9184SOL    HW239186   0.862   0.932  17.311 -0.3313 -1.0222  0.5415
 9185SOL     OW39187   0.831   0.844   7.454  0.0412  0.1639  0.5646
 9185SOL    HW139188   0.785   0.925   7.432 -1.1277 -0.5356  0.3743
 9185SOL    HW239189   0.827   0.831   7.549  0.2842  0.4733  0.6150
 9186SOL     OW39190   1.970   2.428  11.512 -0.4716  0.4091  0.2245
 9186SOL    HW139191   2.036   2.406  11.447  0.4728  0.9236  1.0111
 9186SOL    HW239192   2.005   2.429  11.601 -0.5443 -0.2563  0.2597
 9187SOL     OW39193   0.472   3.852  14.063 -0.0053 -0.2683 -0.8675
 9187SOL    HW139194   0.485   3.886  13.974 -2.4521  1.5718 -0.4922
 9187SOL    HW239195   0.545   3.896  14.107  0.5363 -3.3641  1.3059
 9188SOL     OW39196   3.794   4.387  11.017  0.4698  0.4925 -0.1509
 9188SOL    HW139197   3.710   4.345  11.037 -0.3858  1.4284 -1.7948
 9188SOL    HW239198   3.859   4.317  11.027 -1.6079 -1.3899  0.1467
 9189SOL     OW39199   1.943   4.426   3.657 -0.4604  0.0339 -0.0707
 9189SOL    HW139200   1.950   4.330   3.662 -2.2925 -0.1139 -0.3235
 9189SOL    HW239201   2.018   4.459   3.705 -0.4674 -1.5256  1.0095
 9190SOL     OW39202   0.808   3.365   8.060  0.6514 -0.2314  0.3015
 9190SOL    HW139203   0.894   3.400   8.040  0.9791 -1.6999 -0.8449
 9190SOL    HW239204   0.799   3.351   8.154  0.1346  4.2363  0.9218
 9191SOL     OW39205   0.473   0.361   6.635  0.0451 -0.0907 -0.0544
 9191SOL    HW139206   0.392   0.413   6.631  0.1636 -0.0880 -2.3502
 9191SOL    HW239207   0.522   0.405   6.704 -0.0862 -0.3684  0.2178
 9192SOL     OW39208   2.866   0.132   1.546 -0.0454  0.2695 -0.2366
 9192SOL    HW139209   2.890   0.221   1.574 -2.0064  1.1991 -1.4812
 9192SOL    HW239210   2.953   0.113   1.511  0.3887  0.5401  0.6912
 9193SOL     OW39211   0.520   1.077  17.598 -0.1078 -0.0607  0.2122
 9193SOL    HW139212   0.541   1.002  17.654 -0.6918  0.5185  1.2042
 9193SOL    HW239213   0.608   1.088  17.562 -0.7058  2.2731 -0.5189
 9194SOL     OW39214   0.104   2.607  12.919 -0.2664  0.1203 -0.5487
 9194SOL    HW139215   0.026   2.643  12.960  0.3562 -0.6728  1.3473
 9194SOL    HW239216   0.066   2.572  12.839  0.4388  0.6373 -1.1170
 9195SOL     OW39217   3.920   0.021   7.372 -0.1691  0.1328  0.7430
 9195SOL    HW139218   3.870   0.024   7.453 -0.1469  0.8742  0.7312
 9195SOL    HW239219   3.934   0.112   7.344  1.3463 -0.6696 -1.0790
 9196SOL     OW39220   1.206   3.373   6.012 -0.1233  0.1478 -0.5213
 9196SOL    HW139221   1.250   3.433   6.073 -1.7267  1.3595 -0.5412
 9196SOL    HW239222   1.138   3.331   6.064 -2.0978  1.8036 -1.7576
 9197SOL     OW39223   0.371   0.556   6.990 -0.3747 -0.1758 -0.2005
 9197SOL    HW139224   0.323   0.619   7.044  1.3737  0.4885  0.5833
 9197SOL    HW239225   0.420   0.616   6.933  0.6206  1.1158  1.9911
 9198SOL     OW39226   2.250   3.550   6.055 -0.0638  0.1733  0.3387
 9198SOL    HW139227   2.292   3.464   6.052  0.4222  0.3860  1.0841
 9198SOL    HW239228   2.305   3.585   6.125  1.6988  0.4052 -1.1782
 9199SOL     OW39229   3.042   3.500   4.617 -0.0911  0.0702  0.2028
 9199SOL    HW139230   2.997   3.474   4.697  1.5648 -1.0372  0.7825
 9199SOL    HW239231   3.026   3.594   4.610 -1.0868 -0.2327 -1.6523
 9200SOL     OW39232   4.083   1.302   5.786 -0.6344 -0.3771 -0.0585
 9200SOL    HW139233   4.001   1.277   5.743 -1.3631  0.1127  1.0225
 9200SOL    HW239234   4.082   1.395   5.764  1.1482 -0.3350  0.0390
 9201SOL     OW39235   0.134   1.831   7.823 -0.2445 -0.3644  0.0948
 9201SOL    HW139236   0.168   1.853   7.909  1.8769  1.4020 -1.1998
 9201SOL    HW239237   0.125   1.736   7.831  0.0683 -0.3051  1.0757
 9202SOL     OW39238   2.794   1.135   1.980  0.5571 -0.1434  0.2179
 9202SOL    HW139239   2.714   1.091   2.008 -0.7611  1.3463 -1.3076
 9202SOL    HW239240   2.846   1.056   1.964 -0.2044 -1.1263  2.5310
 9203SOL     OW39241   2.434   0.576  13.638  0.5148 -0.0684  0.2430
 9203SOL    HW139242   2.425   0.573  13.733  0.4509 -1.4845  0.1955
 9203SOL    HW239243   2.345   0.594  13.609 -0.8645 -2.4677  2.9632
 9204SOL     OW39244   0.939   1.231   5.887 -0.9164 -0.2901 -0.0237
 9204SOL    HW139245   0.874   1.173   5.927 -0.2047 -1.0398  0.0539
 9204SOL    HW239246   0.931   1.315   5.932  0.7284 -0.5628  0.8003
 9205SOL     OW39247   4.241   4.335   8.828 -1.1276 -0.3050  0.1994
 9205SOL    HW139248   4.215   4.325   8.920 -1.3229 -0.3426  0.1407
 9205SOL    HW239249   4.222   4.428   8.815 -0.6744  0.0362  1.9726
 9206SOL     OW39250   2.497   2.826   5.132 -0.0831 -0.0172  0.1778
 9206SOL    HW139251   2.558   2.898   5.151 -1.1760  1.1868 -0.9402
 9206SOL    HW239252   2.558   2.778   5.075  0.4863  3.0749 -1.8153
 9207SOL     OW39253   1.469   3.153  10.438 -0.4841 -0.0743 -0.0089
 9207SOL    HW139254   1.495   3.090  10.505 -0.3971  0.2583  0.2695
 9207SOL    HW239255   1.465   3.235  10.488  0.3113 -0.9272  1.4458
 9208SOL     OW39256   2.379   3.307   6.525 -0.1342  0.0492  0.4292
 9208SOL    HW139257   2.443   3.344   6.585  2.3663 -1.4761 -1.2802
 9208SOL    HW239258   2.301   3.354   6.554 -1.2762 -2.1757  1.0147
 9209SOL     OW39259   3.183   3.823   7.001  0.7659  0.4672 -0.4372
 9209SOL    HW139260   3.183   3.827   7.097 -1.8881 -0.9993 -0.3886
 9209SOL    HW239261   3.148   3.910   6.982 -0.6570 -0.0294 -0.0950
 9210SOL     OW39262   3.094   2.269   6.784  0.2026 -0.2444 -0.0726
 9210SOL    HW139263   3.017   2.323   6.800  0.6408 -0.3981  2.4876
 9210SOL    HW239264   3.060   2.190   6.742  0.2212  1.0721 -2.5863
 9211SOL     OW39265   1.640   4.427   9.080 -0.0540 -0.0026  0.0496
 9211SOL    HW139266   1.595   4.345   9.062 -1.4499  0.2079  2.5449
 9211SOL    HW239267   1.700   4.427   9.005 -2.9825 -1.5559 -2.2725
 9212SOL     OW39268   3.557   1.196   6.747  0.6369 -0.3508  0.2374
 9212SOL    HW139269   3.650   1.214   6.755  0.8034 -0.3033 -1.7184
 9212SOL    HW239270   3.553   1.158   6.659 -0.8127  0.8710 -0.2316
 9213SOL     OW39271   2.006   3.667   0.722 -0.2640 -0.0842  0.3446
 9213SOL    HW139272   2.005   3.574   0.699  1.6426  0.1557 -0.6920
 9213SOL    HW239273   2.069   3.701   0.658 -0.1621 -0.6773  0.1308
 9214SOL     OW39274   1.003   0.491   6.353  0.5651 -0.1692  0.0718
 9214SOL    HW139275   1.007   0.586   6.342  0.6797 -0.0833  0.8445
 9214SOL    HW239276   0.947   0.490   6.431 -0.9824 -1.7900 -1.0490
 9215SOL     OW39277   3.191   3.761   2.642 -0.1637 -0.0295  0.8449
 9215SOL    HW139278   3.279   3.735   2.669  0.1406 -1.8051 -1.7613
 9215SOL    HW239279   3.215   3.756   2.549  0.6802 -0.5767  1.0968
 9216SOL     OW39280   0.648   2.057   7.860 -0.1339 -0.3385 -0.0854
 9216SOL    HW139281   0.579   2.001   7.897  0.5204 -0.3444  1.1319
 9216SOL    HW239282   0.726   2.003   7.869  0.3755  0.4914  0.4617
 9217SOL     OW39283   1.353   2.367   8.868 -0.4609  0.1814 -0.0877
 9217SOL    HW139284   1.402   2.297   8.910 -1.6017 -0.6061 -0.0713
 9217SOL    HW239285   1.310   2.304   8.811  0.3110  0.1407 -0.6175
 9218SOL     OW39286   3.641   0.511  11.051 -0.4329  0.4102 -0.2650
 9218SOL    HW139287   3.643   0.538  11.143 -0.8941  0.8026 -0.3714
 9218SOL    HW239288   3.563   0.455  11.043  0.2671 -0.7149  0.8472
 9219SOL     OW39289   0.473   3.264   5.682 -0.0648  0.2999  0.6435
 9219SOL    HW139290   0.549   3.272   5.739  1.6537 -1.1753 -1.4766
 9219SOL    HW239291   0.429   3.350   5.685 -0.0358  0.3222  0.4054
 9220SOL     OW39292   3.211   1.723   8.971  0.0661  0.1894  0.6253
 9220SOL    HW139293   3.224   1.657   9.038 -0.0580  0.6764  1.1278
 9220SOL    HW239294   3.119   1.742   8.991 -0.2586  1.4641 -2.0713
 9221SOL     OW39295   1.337   3.722   2.367 -0.1460 -0.7085  0.5013
 9221SOL    HW139296   1.334   3.634   2.330 -1.3309  0.0738 -1.2529
 9221SOL    HW239297   1.314   3.699   2.457  0.1651 -0.7561  0.5695
 9222SOL     OW39298   3.444   3.767   3.824 -0.2608  0.2879  0.1874
 9222SOL    HW139299   3.422   3.680   3.856 -1.2087  0.3411 -0.3175
 9222SOL    HW239300   3.504   3.792   3.895  0.5214 -1.4966  0.1645
 9223SOL     OW39301   3.781   0.983   7.116 -0.3103 -0.2358 -0.5212
 9223SOL    HW139302   3.707   0.980   7.055 -0.2600 -2.4170 -0.4984
 9223SOL    HW239303   3.733   0.966   7.197  0.1468  0.5676 -0.0870
 9224SOL     OW39304   0.832   2.465   5.885  0.0563 -0.4916 -0.1117
 9224SOL    HW139305   0.845   2.373   5.861  1.6733  0.2734 -2.1406
 9224SOL    HW239306   0.857   2.470   5.978  1.6137 -0.0116 -0.5512
 9225SOL     OW39307   4.484   4.007   8.483  1.1673  0.0507  0.3512
 9225SOL    HW139308   4.426   3.935   8.454  2.0196 -0.5804  0.2214
 9225SOL    HW239309   4.561   3.974   8.436 -0.8846 -0.0080 -2.9861
 9226SOL     OW39310   1.699   0.466   7.597 -0.3087 -0.0985  0.0397
 9226SOL    HW139311   1.713   0.551   7.554 -0.7191 -0.3581 -0.6053
 9226SOL    HW239312   1.637   0.492   7.664  0.2840 -0.9959  0.9279
 9227SOL     OW39313   1.739   0.724   7.492  0.0669 -0.3611  0.0088
 9227SOL    HW139314   1.768   0.793   7.433 -3.4342  2.2146  1.3022
 9227SOL    HW239315   1.749   0.772   7.574 -0.8676  0.6004 -0.4437
 9228SOL     OW39316   0.080   0.866   4.883  0.0882  0.0735  0.5066
 9228SOL    HW139317   0.017   0.835   4.818  1.3864 -0.7664 -0.3481
 9228SOL    HW239318   0.076   0.961   4.872  0.1225  0.0186  0.0119
 9229SOL     OW39319   1.740   2.274   8.755  0.2074 -0.4174 -0.5365
 9229SOL    HW139320   1.688   2.195   8.740 -0.9599  0.9194 -3.6477
 9229SOL    HW239321   1.829   2.246   8.733  0.2334 -0.7180 -0.0388
 9230SOL     OW39322   4.268   1.984   3.674 -0.5201 -0.0145  0.1950
 9230SOL    HW139323   4.192   1.986   3.732 -0.5377 -0.9434  0.2093
 9230SOL    HW239324   4.228   1.959   3.591  1.9388  0.7531 -1.2066
 9231SOL     OW39325   0.897   3.431   9.040  0.1359 -0.0041 -0.4467
 9231SOL    HW139326   0.805   3.407   9.044  0.7067 -2.0808 -0.0183
 9231SOL    HW239327   0.936   3.368   8.980 -1.0621 -1.5305  0.4024
 9232SOL     OW39328   2.735   1.493  16.133 -0.1810 -0.5381  0.0520
 9232SOL    HW139329   2.673   1.552  16.176  0.0467  0.8526 -1.4994
 9232SOL    HW239330   2.775   1.550  16.067  0.0787 -0.6675  0.1003
 9233SOL     OW39331   2.145   0.005   7.619  0.0270 -0.0308 -0.0154
 9233SOL    HW139332   2.163   0.051   7.701  0.2970  1.6278 -0.9938
 9233SOL    HW239333   2.077   0.063   7.584  1.1177  1.0849 -0.2807
 9234SOL     OW39334   1.595   4.517   5.208 -0.5594  0.5443  0.6499
 9234SOL    HW139335   1.615   4.521   5.115  3.1132 -0.6196  1.3879
 9234SOL    HW239336   1.553   4.600   5.232 -2.3416 -0.4735  1.0178
 9235SOL     OW39337   3.521   3.484   4.757  0.2027 -0.3346  0.6440
 9235SOL    HW139338   3.603   3.491   4.806  0.9505 -0.7831 -0.5310
 9235SOL    HW239339   3.540   3.518   4.670  1.6135 -2.3389  0.1493
 9236SOL     OW39340   1.260   4.419   9.480  0.0674 -0.3002 -0.1030
 9236SOL    HW139341   1.320   4.478   9.525  0.1978 -1.1892  0.8938
 9236SOL    HW239342   1.176   4.465   9.489 -0.9804 -2.5705  2.0358
 9237SOL     OW39343   1.343   0.529   8.533  0.1306  0.5819  0.1700
 9237SOL    HW139344   1.365   0.482   8.453 -1.8074 -1.2428  0.7125
 9237SOL    HW239345   1.405   0.602   8.539 -0.1666  0.8468  0.0277
 9238SOL     OW39346   2.900   3.041   3.765  0.8226 -0.1661  0.2350
 9238SOL    HW139347   2.952   3.116   3.793 -0.4658  0.4943  0.8348
 9238SOL    HW239348   2.930   2.979   3.831  1.6881 -0.1927 -0.1865
 9239SOL     OW39349   0.920   4.543   2.767 -0.0392  0.0296  0.2149
 9239SOL    HW139350   0.964   4.628   2.770 -1.9234  0.9629  0.9775
 9239SOL    HW239351   0.965   4.499   2.696  0.3770 -0.4977  0.8013
 9240SOL     OW39352   0.441   4.562  12.496  0.0459  0.2448  0.3113
 9240SOL    HW139353   0.454   4.561  12.590  1.7036 -1.8739  0.0670
 9240SOL    HW239354   0.401   4.479  12.469  4.0954 -0.9761 -1.9543
 9241SOL     OW39355   2.471   2.975   4.321  0.1404  0.2003 -0.8004
 9241SOL    HW139356   2.435   3.049   4.370  1.9009 -0.5098  1.5906
 9241SOL    HW239357   2.455   3.002   4.231 -1.5380 -1.2709 -0.9487
 9242SOL     OW39358   0.795   4.619  16.804  0.5130 -0.2254  0.3242
 9242SOL    HW139359   0.861   4.636  16.736 -0.2778 -1.0574 -0.6356
 9242SOL    HW239360   0.751   4.705  16.805  0.1309 -0.3960 -1.0165
 9243SOL     OW39361   3.094   1.264   8.640  0.0623  0.2189 -0.7330
 9243SOL    HW139362   3.134   1.309   8.565  3.3442  1.8900  1.9981
 9243SOL    HW239363   3.127   1.328   8.703 -1.8790 -0.3126  0.7877
 9244SOL     OW39364   2.851   1.893   6.871 -0.3903  0.0389 -0.4176
 9244SOL    HW139365   2.882   1.888   6.961 -0.1040  1.5164 -0.4364
 9244SOL    HW239366   2.913   1.827   6.838  1.5945  1.8060 -0.2591
 9245SOL     OW39367   1.259   1.882   4.558 -0.5621  0.2123  0.5736
 9245SOL    HW139368   1.340   1.926   4.535 -0.8841  0.9299  0.8116
 9245SOL    HW239369   1.252   1.824   4.482  1.0149  2.3793 -1.2284
 9246SOL     OW39370   3.554   3.268   8.021  0.2716 -0.8663 -0.3343
 9246SOL    HW139371   3.644   3.302   8.022  1.3955 -3.9511  2.0682
 9246SOL    HW239372   3.511   3.351   8.043  0.9058 -0.6019 -0.0500
 9247SOL     OW39373   0.424   2.185  15.001 -0.1348 -0.0331 -0.3269
 9247SOL    HW139374   0.516   2.192  14.976  0.8355 -0.2802  3.1744
 9247SOL    HW239375   0.390   2.275  14.993 -0.3454 -0.2458 -1.8392
 9248SOL     OW39376   1.421   0.933  16.497  0.0789  0.2877 -0.0759
 9248SOL    HW139377   1.417   1.001  16.430  2.4321 -0.6936 -1.2361
 9248SOL    HW239378   1.512   0.947  16.525  0.2685 -3.5521  1.2961
 9249SOL     OW39379   0.925   4.530  14.427 -0.1101 -0.6167  0.5183
 9249SOL    HW139380   0.954   4.439  14.433 -0.4232 -0.6390  1.5911
 9249SOL    HW239381   0.880   4.548  14.509  1.8772  0.5821  1.3658
 9250SOL     OW39382   4.158   1.582   0.249 -0.0661 -0.4067 -0.1394
 9250SOL    HW139383   4.199   1.667   0.232 -1.5310  0.1079 -1.1439
 9250SOL    HW239384   4.156   1.551   0.158 -2.7102 -0.6966  0.0173
 9251SOL     OW39385   2.685   0.753  11.989 -0.1164 -0.0324  0.2294
 9251SOL    HW139386   2.768   0.735  12.034  0.5841 -1.9038 -1.8156
 9251SOL    HW239387   2.714   0.818  11.925 -0.6220 -1.3998 -1.3985
 9252SOL     OW39388   4.284   0.222  14.161  0.1702 -0.8880 -0.1705
 9252SOL    HW139389   4.377   0.233  14.141 -0.0172  2.2921  0.5955
 9252SOL    HW239390   4.276   0.247  14.253  1.8066  0.7490 -0.4520
 9253SOL     OW39391   1.107   0.665   8.580  0.3143  0.5127 -0.1805
 9253SOL    HW139392   1.179   0.602   8.580 -0.2908 -0.1748  0.0666
 9253SOL    HW239393   1.050   0.617   8.521  1.7827 -0.2615 -0.9730
 9254SOL     OW39394   2.647   4.238   9.537  0.3243  0.6309 -0.2602
 9254SOL    HW139395   2.632   4.164   9.478  0.8072  0.0820  0.2902
 9254SOL    HW239396   2.566   4.240   9.588 -0.2598 -0.8307 -1.1199
 9255SOL     OW39397   3.643   2.384   5.438 -0.4875  0.4180 -0.4566
 9255SOL    HW139398   3.641   2.327   5.514  1.7310  0.3672 -0.4494
 9255SOL    HW239399   3.733   2.416   5.444  0.7886 -2.9839 -1.0350
 9256SOL     OW39400   0.305   2.156   7.870 -0.2149 -0.0729 -0.2489
 9256SOL    HW139401   0.339   2.164   7.781 -2.9594 -1.3900 -1.4101
 9256SOL    HW239402   0.221   2.112   7.858  1.3121 -2.8083 -0.8900
 9257SOL     OW39403   0.748   1.190   4.305  0.4354  0.4055 -0.0150
 9257SOL    HW139404   0.812   1.260   4.320  1.4439 -0.6431  0.6075
 9257SOL    HW239405   0.712   1.214   4.220 -1.0854  1.9312  1.0494
 9258SOL     OW39406   1.799   3.636   5.553  0.2678 -0.4872  0.4854
 9258SOL    HW139407   1.838   3.549   5.561  0.4142 -0.7593 -3.2451
 9258SOL    HW239408   1.711   3.610   5.579 -0.1467  0.1954 -0.2486
 9259SOL     OW39409   2.146   1.352   5.510 -0.2113  0.3908 -0.2612
 9259SOL    HW139410   2.204   1.428   5.514  0.1293  0.1999 -1.5038
 9259SOL    HW239411   2.066   1.390   5.545 -0.8856  0.1790 -1.5365
 9260SOL     OW39412   1.811   1.285   6.529  0.0137 -0.3904  0.0523
 9260SOL    HW139413   1.860   1.203   6.534 -0.0178 -0.4610 -0.8746
 9260SOL    HW239414   1.759   1.271   6.450  0.6415 -2.3548 -0.0139
 9261SOL     OW39415   0.241   0.822   8.331  0.2790  0.1947  0.3148
 9261SOL    HW139416   0.230   0.894   8.268 -1.3001  0.5456  0.9857
 9261SOL    HW239417   0.282   0.880   8.395  0.2900  0.3867  0.1343
 9262SOL     OW39418   3.793   1.005   5.704 -1.2389 -0.0490 -0.3850
 9262SOL    HW139419   3.840   1.014   5.621 -0.1609  0.5819  0.3080
 9262SOL    HW239420   3.765   0.913   5.696 -0.2847 -0.3740  0.0960
 9263SOL     OW39421   4.700   1.533   6.948 -0.2093  0.1584 -0.2159
 9263SOL    HW139422   0.023   1.538   7.022 -0.5160 -0.7500  0.1063
 9263SOL    HW239423   4.705   1.625   6.922  0.6552  0.1479 -0.1082
 9264SOL     OW39424   1.252   4.216   3.446 -0.4996 -0.2750 -0.1370
 9264SOL    HW139425   1.316   4.278   3.409 -0.3434 -0.3724 -0.0321
 9264SOL    HW239426   1.217   4.255   3.526 -0.5651  0.1972 -0.3961
 9265SOL     OW39427   1.152   1.109   6.930  0.0375  0.5349 -0.1258
 9265SOL    HW139428   1.149   1.177   6.863  1.4482  1.8341  1.1459
 9265SOL    HW239429   1.245   1.107   6.954 -0.0829 -0.5914  0.2493
 9266SOL     OW39430   2.573   3.643   2.921 -0.4787  0.5566  0.2646
 9266SOL    HW139431   2.508   3.689   2.867 -0.0522 -0.0851 -0.7991
 9266SOL    HW239432   2.636   3.618   2.853 -0.5654  0.4633  0.2190
 9267SOL     OW39433   3.211   0.178   5.394  0.1459 -0.2336  0.0376
 9267SOL    HW139434   3.260   0.104   5.358  1.7046  0.4242  0.7793
 9267SOL    HW239435   3.127   0.143   5.364  0.1215  0.7903 -1.1110
 9268SOL     OW39436   3.169   1.413   8.839  0.2112 -0.4019  0.4157
 9268SOL    HW139437   3.211   1.345   8.892  1.7345 -0.4425 -0.8700
 9268SOL    HW239438   3.236   1.482   8.843 -0.1093 -0.1937  2.6058
 9269SOL     OW39439   0.956   3.804   8.853 -0.2210 -0.0043  0.6084
 9269SOL    HW139440   0.979   3.835   8.941 -0.8098  1.4240  0.2611
 9269SOL    HW239441   0.981   3.877   8.796  1.6136 -0.6732  0.5538
 9270SOL     OW39442   1.337   0.038   8.181 -0.1994 -0.2487 -0.0466
 9270SOL    HW139443   1.316   0.077   8.096  0.4108 -1.2250 -0.6446
 9270SOL    HW239444   1.250   0.020   8.217 -0.2570  1.0489  0.4682
 9271SOL     OW39445   4.499   0.642   3.780  0.1820 -0.4268  0.4716
 9271SOL    HW139446   4.409   0.672   3.792  0.5681  0.3817  1.3371
 9271SOL    HW239447   4.499   0.661   3.686  1.4903 -1.2496  0.3098
 9272SOL     OW39448   4.481   2.577   6.840  0.1133  0.6637  0.1357
 9272SOL    HW139449   4.537   2.606   6.912 -1.9345  1.6194  1.3544
 9272SOL    HW239450   4.467   2.483   6.844  0.2143  0.7745  2.8548
 9273SOL     OW39451   1.092   0.445   9.775 -0.0496 -0.0493  0.5419
 9273SOL    HW139452   1.168   0.424   9.829 -0.8718 -0.9267  1.3592
 9273SOL    HW239453   1.136   0.488   9.702 -0.3107  0.2688  0.5708
 9274SOL     OW39454   2.297   0.874   1.182  0.2168  0.0698 -0.1702
 9274SOL    HW139455   2.204   0.881   1.202  0.1455  0.6736 -0.7280
 9274SOL    HW239456   2.309   0.781   1.165 -1.4759 -0.3547  1.0329
 9275SOL     OW39457   3.381   4.141   3.517 -0.0134 -0.0236 -0.6329
 9275SOL    HW139458   3.309   4.183   3.565  0.7410  0.5431  0.0076
 9275SOL    HW239459   3.371   4.053   3.554 -0.7592  0.6042  0.6742
 9276SOL     OW39460   0.631   0.536   3.435 -0.6617  0.2999 -0.8824
 9276SOL    HW139461   0.572   0.462   3.422  0.3095 -0.2612 -2.0381
 9276SOL    HW239462   0.570   0.610   3.447  0.1518  0.7247  0.6494
 9277SOL     OW39463   4.716   4.276   9.144 -0.1520  0.0039  0.1545
 9277SOL    HW139464   4.640   4.264   9.086 -0.2599  1.7480 -0.0766
 9277SOL    HW239465   4.682   4.259   9.232 -0.3986 -0.4549 -0.0241
 9278SOL     OW39466   3.469   0.833   5.659  0.2071  0.0501 -0.0729
 9278SOL    HW139467   3.484   0.738   5.663  3.4321  0.5236 -0.2673
 9278SOL    HW239468   3.398   0.852   5.720 -0.9162  0.7613 -1.6405
 9279SOL     OW39469   0.769   0.849   4.643  0.0409 -0.1196  0.0792
 9279SOL    HW139470   0.792   0.941   4.628 -0.6247  0.5196  2.7987
 9279SOL    HW239471   0.845   0.800   4.612 -0.5129 -1.3879  0.7223
 9280SOL     OW39472   1.674   0.641   5.832 -0.2375  0.0585 -0.2253
 9280SOL    HW139473   1.715   0.723   5.805  0.5231 -0.0708  0.5297
 9280SOL    HW239474   1.613   0.628   5.759 -1.1271 -1.8840  0.8512
 9281SOL     OW39475   1.634   4.375  11.134  0.2472 -0.4095  0.3760
 9281SOL    HW139476   1.676   4.447  11.181  0.7906  0.2907 -1.1579
 9281SOL    HW239477   1.615   4.416  11.050 -0.3938 -1.4783 -0.0075
 9282SOL     OW39478   4.726   2.089   6.985 -0.2107 -0.2414  0.1963
 9282SOL    HW139479   4.687   2.123   6.905 -1.2252  0.4209  0.9561
 9282SOL    HW239480   0.068   2.139   6.994 -0.1891 -0.3234  0.4677
 9283SOL     OW39481   2.594   1.563   2.180 -0.3059 -0.9810 -0.2716
 9283SOL    HW139482   2.582   1.471   2.158 -0.8544 -0.3691 -2.5268
 9283SOL    HW239483   2.514   1.597   2.222 -0.2860 -1.6456  0.3111
 9284SOL     OW39484   3.409   0.196   6.677  0.1673 -0.5085 -0.0676
 9284SOL    HW139485   3.483   0.193   6.615 -0.5471  1.9758 -1.0504
 9284SOL    HW239486   3.444   0.151   6.754 -0.0468 -1.1062 -0.3233
 9285SOL     OW39487   2.162   1.372   9.875 -0.1958 -0.3512  0.0949
 9285SOL    HW139488   2.218   1.303   9.912  0.8950 -0.3157 -1.4645
 9285SOL    HW239489   2.199   1.365   9.787  0.1970 -1.5303  0.3473
 9286SOL     OW39490   2.408   3.825   3.309  0.2124  0.3292  0.2581
 9286SOL    HW139491   2.502   3.834   3.326  1.0551 -3.0746 -2.6323
 9286SOL    HW239492   2.378   3.794   3.394 -0.6663 -1.3694 -0.6578
 9287SOL     OW39493   4.279   4.359   3.370  0.9025 -0.0845 -0.0758
 9287SOL    HW139494   4.233   4.278   3.348  0.8186 -0.8280  2.9371
 9287SOL    HW239495   4.284   4.340   3.463  1.7413 -1.5326 -0.4058
 9288SOL     OW39496   3.858   1.427   4.279 -0.5083  0.5136 -0.3547
 9288SOL    HW139497   3.847   1.508   4.329  1.8023  2.0785 -2.4085
 9288SOL    HW239498   3.841   1.459   4.190 -0.7151  2.4625  0.3785
 9289SOL     OW39499   1.298   0.602   4.058 -0.2622 -0.1948 -0.7162
 9289SOL    HW139500   1.346   0.684   4.068  0.6024 -0.6913 -0.7902
 9289SOL    HW239501   1.349   0.547   3.998  1.5026 -0.5447  1.1111
 9290SOL     OW39502   4.397   2.846   6.392  0.3579 -0.5502  0.9492
 9290SOL    HW139503   4.483   2.810   6.414  2.8752  3.8352 -1.7105
 9290SOL    HW239504   4.393   2.798   6.310 -2.8313  0.3352  0.5730
 9291SOL     OW39505   0.705   4.587   7.966  0.1385 -0.1781  0.0612
 9291SOL    HW139506   0.728   4.674   7.999 -0.0494 -0.7082  1.5489
 9291SOL    HW239507   0.719   4.529   8.041  2.0400 -0.4532 -0.4926
 9292SOL     OW39508   3.574   1.356  11.556  0.1196  0.3051 -0.0296
 9292SOL    HW139509   3.603   1.413  11.627  1.3372  0.2942 -0.5164
 9292SOL    HW239510   3.649   1.296  11.555  1.0114  1.3908  2.2304
 9293SOL     OW39511   4.031   4.122   8.144 -0.4019 -0.0438  0.2315
 9293SOL    HW139512   4.047   4.138   8.237 -1.6123 -1.6338  0.7217
 9293SOL    HW239513   4.114   4.151   8.106 -1.1951  0.0814 -1.4216
 9294SOL     OW39514   1.898   0.640   7.911  0.1737 -0.2446  0.3860
 9294SOL    HW139515   1.919   0.648   7.818  2.3533 -0.7593  0.8244
 9294SOL    HW239516   1.857   0.724   7.930  0.4789 -0.4816  2.1393
 9295SOL     OW39517   0.813   3.410  15.181 -0.3370 -0.0820 -0.0351
 9295SOL    HW139518   0.822   3.496  15.223 -2.2269  0.2168 -0.2531
 9295SOL    HW239519   0.808   3.345  15.251  2.3363 -0.0993  0.1501
 9296SOL     OW39520   1.074   3.606   3.757 -0.3954 -0.4367 -0.3929
 9296SOL    HW139521   1.125   3.525   3.764 -1.6507 -1.1670  0.2772
 9296SOL    HW239522   0.991   3.591   3.712  0.6300  0.5486 -2.6127
 9297SOL     OW39523   2.234   0.841   6.783 -0.3560  0.2601  0.0900
 9297SOL    HW139524   2.173   0.797   6.842 -0.1793 -0.3665 -0.1962
 9297SOL    HW239525   2.290   0.766   6.766 -0.3723  0.2251  0.1884
 9298SOL     OW39526   2.239   4.407  10.809 -0.0515  0.2401  0.4092
 9298SOL    HW139527   2.166   4.441  10.757  0.9396  3.0179  0.8340
 9298SOL    HW239528   2.305   4.376  10.747 -1.0583  1.1223 -1.0903
 9299SOL     OW39529   3.601   1.566   0.572  0.0895 -0.4189 -0.1441
 9299SOL    HW139530   3.677   1.520   0.608 -0.4472 -0.3304  1.0997
 9299SOL    HW239531   3.558   1.504   0.513 -1.3531  0.7006 -0.2513
 9300SOL     OW39532   2.300   3.149   7.703 -0.1523  0.3061 -0.0156
 9300SOL    HW139533   2.351   3.152   7.622 -0.4568 -1.3817 -0.2724
 9300SOL    HW239534   2.368   3.177   7.764 -1.6443  1.1724  1.2318
 9301SOL     OW39535   0.863   4.688   8.365 -0.1084 -0.6103  0.3528
 9301SOL    HW139536   0.912   4.606   8.356 -0.5550 -0.6131 -1.9507
 9301SOL    HW239537   0.790   4.658   8.419  0.5153  0.3224  1.7140
 9302SOL     OW39538   4.590   1.677   2.720  0.2820 -0.3399 -0.0980
 9302SOL    HW139539   4.613   1.589   2.751  0.0465 -0.3471  0.0563
 9302SOL    HW239540   4.512   1.700   2.770 -0.0878 -0.3664 -0.6677
 9303SOL     OW39541   0.236   2.611   2.116  0.2719  0.1871  0.8477
 9303SOL    HW139542   0.148   2.646   2.108 -0.5621 -1.6728  1.8167
 9303SOL    HW239543   0.214   2.537   2.173 -0.0865 -0.6553 -0.3954
 9304SOL     OW39544   1.072   3.718  17.580 -0.0390 -0.5654 -0.5699
 9304SOL    HW139545   1.068   3.635  17.534 -0.3788  0.2154 -1.9456
 9304SOL    HW239546   1.029   3.692  17.662  0.0497  2.4795  0.4376
 9305SOL     OW39547   1.374   1.017   3.066  0.2837 -0.2851 -0.1894
 9305SOL    HW139548   1.292   1.066   3.075 -0.4306 -1.9406  2.2566
 9305SOL    HW239549   1.353   0.925   3.079  2.9033 -0.7378  0.9676
 9306SOL     OW39550   3.603   2.156   8.582 -0.1994  0.0103  0.3833
 9306SOL    HW139551   3.640   2.160   8.670  1.3076  0.4927 -0.2726
 9306SOL    HW239552   3.635   2.233   8.535  2.0516 -0.5572  0.9922
 9307SOL     OW39553   4.257   3.156   5.848 -0.1583  0.8069  0.4970
 9307SOL    HW139554   4.303   3.083   5.889 -0.5840  2.2548  3.5441
 9307SOL    HW239555   4.209   3.117   5.775 -0.0020 -1.7990  1.7871
 9308SOL     OW39556   4.558   1.020   5.499 -0.0734  0.2898 -0.1409
 9308SOL    HW139557   4.644   1.032   5.459 -0.6446  1.0977 -1.1331
 9308SOL    HW239558   4.581   1.039   5.590 -0.1489 -2.7379  0.4969
 9309SOL     OW39559   0.629   3.176  15.202 -0.5928 -0.5620 -0.0916
 9309SOL    HW139560   0.576   3.123  15.142 -1.9924 -0.8340  1.3724
 9309SOL    HW239561   0.628   3.262  15.161 -1.8376 -0.6349 -0.2052
 9310SOL     OW39562   3.815   3.128   8.892 -0.1131  0.5220 -0.1316
 9310SOL    HW139563   3.900   3.106   8.854 -0.2849 -0.7703  0.2398
 9310SOL    HW239564   3.832   3.124   8.986 -1.4600 -1.1642  0.0461
 9311SOL     OW39565   2.860   2.488   1.810 -0.1291 -0.0167  0.2982
 9311SOL    HW139566   2.834   2.412   1.757  1.2175 -0.4096  0.1741
 9311SOL    HW239567   2.781   2.504   1.861  0.3737 -3.6149  2.2019
 9312SOL     OW39568   4.335   3.305  10.024  0.1715 -0.0903 -0.0246
 9312SOL    HW139569   4.358   3.227   9.973 -0.5018 -0.5717  0.4075
 9312SOL    HW239570   4.327   3.263  10.109 -0.4668 -4.8024 -2.4147
 9313SOL     OW39571   0.701   1.676   6.731 -0.0116 -0.0668  0.4091
 9313SOL    HW139572   0.723   1.644   6.819 -2.2505 -0.5523  0.7931
 9313SOL    HW239573   0.607   1.667   6.721  0.0016  0.1696  0.1023
 9314SOL     OW39574   4.250   2.889  11.867 -0.1823 -0.0247 -0.6855
 9314SOL    HW139575   4.258   2.852  11.955  0.4747  0.3610 -0.5793
 9314SOL    HW239576   4.167   2.936  11.867  0.4028  1.0274  1.1316
 9315SOL     OW39577   3.477   1.163   5.326  0.0515 -0.7523 -0.9789
 9315SOL    HW139578   3.517   1.180   5.241 -1.5819 -0.5308 -1.7186
 9315SOL    HW239579   3.511   1.077   5.350  1.8549  0.4845  0.9336
 9316SOL     OW39580   3.569   3.907   5.596  0.5145 -0.5255  0.4920
 9316SOL    HW139581   3.544   3.901   5.688  0.0604  0.5623  0.4342
 9316SOL    HW239582   3.501   3.856   5.551  0.1760  0.0600  0.3452
 9317SOL     OW39583   3.508   3.773   9.673 -0.6753 -0.0328  0.1449
 9317SOL    HW139584   3.575   3.839   9.692  0.7117 -1.6178  0.7095
 9317SOL    HW239585   3.426   3.821   9.687 -1.7256 -2.5618  2.5849
 9318SOL     OW39586   2.148   0.526  13.824  0.0195  1.0953  0.4848
 9318SOL    HW139587   2.166   0.567  13.740  2.0524  0.4833  0.6266
 9318SOL    HW239588   2.074   0.568  13.869  1.7366  1.7919  2.6952
 9319SOL     OW39589   2.702   1.190   8.498 -0.0652  0.0498  0.3275
 9319SOL    HW139590   2.675   1.100   8.479  2.1683 -0.5399  0.0198
 9319SOL    HW239591   2.615   1.231   8.492  1.0492  2.7020  2.2443
 9320SOL     OW39592   2.564   0.908  17.133 -0.7951 -0.2702 -0.2344
 9320SOL    HW139593   2.630   0.928  17.199 -1.3957  1.2458 -0.0983
 9320SOL    HW239594   2.564   0.812  17.140  1.0551 -0.2315  0.2277
 9321SOL     OW39595   4.618   0.155  10.286  0.1543 -0.4912  0.2839
 9321SOL    HW139596   4.597   0.193  10.201  0.8272 -0.4491  0.1386
 9321SOL    HW239597   4.534   0.177  10.326  0.2032  2.4851 -1.3005
 9322SOL     OW39598   0.236   1.707   1.683 -0.0923  0.1492  0.9632
 9322SOL    HW139599   0.258   1.756   1.604 -0.1892  0.2108  0.9739
 9322SOL    HW239600   0.150   1.742   1.708 -0.6949 -1.7520  1.4901
 9323SOL     OW39601   4.701   1.331   2.185 -0.4627  0.6645  0.2773
 9323SOL    HW139602   0.008   1.388   2.123  1.5841 -1.2508  0.0140
 9323SOL    HW239603   0.019   1.348   2.261  0.3046 -2.8574  0.5369
 9324SOL     OW39604   2.758   4.467   5.233  0.4115  0.0413 -0.2746
 9324SOL    HW139605   2.691   4.402   5.214  0.2290  0.7225 -1.9614
 9324SOL    HW239606   2.710   4.546   5.209 -1.7791 -1.1116  0.3626
 9325SOL     OW39607   4.287   0.575   6.245 -0.6833  0.4495 -0.3210
 9325SOL    HW139608   4.285   0.500   6.304 -1.8692  1.0224  0.3659
 9325SOL    HW239609   4.336   0.547   6.168 -1.1658  0.1250 -0.5128
 9326SOL     OW39610   4.496   0.523   5.507  0.1196  0.2274  0.5568
 9326SOL    HW139611   4.502   0.437   5.466 -0.4477 -0.6311  2.2890
 9326SOL    HW239612   4.572   0.560   5.462 -0.3768  1.2764  0.5817
 9327SOL     OW39613   3.197   3.978   6.091 -0.1057  0.0512  0.3304
 9327SOL    HW139614   3.186   4.066   6.127 -1.0360  0.5986 -1.2876
 9327SOL    HW239615   3.267   3.947   6.148 -1.1245 -0.9204  1.0724
 9328SOL     OW39616   2.670   1.434   9.223  0.2062  0.1016  0.8390
 9328SOL    HW139617   2.626   1.375   9.162  2.2814 -0.0298 -0.5067
 9328SOL    HW239618   2.708   1.368   9.281  1.5936  0.0735 -0.1129
 9329SOL     OW39619   4.043   2.676   7.026 -0.1197  0.7101  0.0632
 9329SOL    HW139620   4.080   2.731   6.957 -0.5133 -0.2164 -0.8919
 9329SOL    HW239621   3.994   2.742   7.076 -3.1582  0.2072 -2.2366
 9330SOL     OW39622   4.112   0.111   2.922 -0.0776 -0.1344  0.6566
 9330SOL    HW139623   4.042   0.075   2.869  1.0167  1.4519 -1.8658
 9330SOL    HW239624   4.061   0.128   3.001  1.0537  1.5406  1.0329
 9331SOL     OW39625   2.441   3.792   9.505 -0.0068 -0.6352 -0.0164
 9331SOL    HW139626   2.435   3.728   9.576  1.5576  0.8944  1.4960
 9331SOL    HW239627   2.373   3.753   9.449 -0.3197  0.3631 -0.3382
 9332SOL     OW39628   3.085   2.778   9.176  0.2446 -0.4476 -0.0339
 9332SOL    HW139629   3.064   2.771   9.269  1.7024  0.0957  0.3483
 9332SOL    HW239630   3.041   2.862   9.165 -0.3732 -1.0087 -1.9041
 9333SOL     OW39631   1.570   0.666   8.527 -0.2779  0.2346  0.9066
 9333SOL    HW139632   1.645   0.634   8.577  0.9454  1.8789  0.1017
 9333SOL    HW239633   1.575   0.761   8.528 -1.1957  0.2644  3.0408
 9334SOL     OW39634   2.478   4.056   8.661 -0.4738  0.0296 -0.2823
 9334SOL    HW139635   2.399   4.062   8.714 -0.2456 -0.5882  0.1377
 9334SOL    HW239636   2.444   4.044   8.572  2.6428  1.6148 -1.6691
 9335SOL     OW39637   1.329   4.489   3.542  0.3386  0.0437 -0.0284
 9335SOL    HW139638   1.261   4.446   3.594 -1.4555  1.4689 -1.1949
 9335SOL    HW239639   1.289   4.542   3.473  3.3948  2.4079  0.0443
 9336SOL     OW39640   0.145   4.300  11.329 -0.0725  0.3351  0.2561
 9336SOL    HW139641   0.166   4.249  11.251  2.6839  0.6775  0.7732
 9336SOL    HW239642   0.066   4.258  11.362 -0.5657  1.4662  0.5063
 9337SOL     OW39643   1.997   1.832  11.706  0.0150  0.1964 -0.1260
 9337SOL    HW139644   1.923   1.869  11.658  1.7887  0.5598 -2.5912
 9337SOL    HW239645   1.968   1.819  11.796  0.1288 -0.1689 -0.1453
 9338SOL     OW39646   1.087   2.080   8.397  0.0878 -0.0327 -0.0807
 9338SOL    HW139647   1.128   2.150   8.346  2.3771 -0.9511  0.5110
 9338SOL    HW239648   1.158   2.017   8.392  1.5212  1.5459  0.2769
 9339SOL     OW39649   4.265   0.592   4.209  0.4559 -0.2838 -0.5518
 9339SOL    HW139650   4.326   0.518   4.212  0.2423 -0.4327  0.2410
 9339SOL    HW239651   4.206   0.564   4.280 -0.6836 -1.8379 -2.1058
 9340SOL     OW39652   3.732   2.258   2.874 -0.4525 -0.2810  0.1561
 9340SOL    HW139653   3.740   2.195   2.802  3.4235  1.3399 -0.8220
 9340SOL    HW239654   3.669   2.210   2.927 -0.7420  2.1266  1.9620
 9341SOL     OW39655   3.228   3.282  17.005 -0.2358 -0.0937 -0.4039
 9341SOL    HW139656   3.250   3.368  16.969 -1.7199  0.7315  0.6790
 9341SOL    HW239657   3.289   3.234  16.949 -0.6070 -2.3397  1.1272
 9342SOL     OW39658   3.071   4.263   6.137 -0.1932  0.3281  0.1505
 9342SOL    HW139659   2.987   4.216   6.141 -0.4088  0.8684  2.1066
 9342SOL    HW239660   3.057   4.343   6.086  0.3068  0.9645  1.0181
 9343SOL     OW39661   0.479   3.185   6.189  0.4663 -0.2254 -0.2093
 9343SOL    HW139662   0.495   3.091   6.185  0.2065 -0.3414  1.4320
 9343SOL    HW239663   0.390   3.183   6.153 -0.0839  0.0085  1.1481
 9344SOL     OW39664   4.718   0.205  17.455  0.6368  0.0849 -0.4229
 9344SOL    HW139665   0.061   0.159  17.430 -0.0486 -1.9362  1.0487
 9344SOL    HW239666   4.656   0.132  17.448  0.6954  0.2069 -2.2358
 9345SOL     OW39667   2.579   3.116   6.534  0.3026 -0.0687  0.1341
 9345SOL    HW139668   2.501   3.171   6.539 -0.5566 -1.2818  0.1891
 9345SOL    HW239669   2.656   3.173   6.536 -2.1858  3.2004  1.1480
 9346SOL     OW39670   0.317   0.835   6.664 -0.0009 -0.4606  0.3356
 9346SOL    HW139671   0.302   0.907   6.603  1.3651 -0.4455  0.0080
 9346SOL    HW239672   0.306   0.754   6.615  1.7697 -1.5339  1.6771
 9347SOL     OW39673   1.074   0.616  14.046 -0.3017  0.4585  0.7949
 9347SOL    HW139674   1.101   0.647  14.133  1.0354  1.5788 -0.0310
 9347SOL    HW239675   1.029   0.535  14.073 -0.3336  0.0609 -0.4457
 9348SOL     OW39676   2.297   0.974   2.137 -0.4519  0.5755  0.2663
 9348SOL    HW139677   2.278   0.976   2.231  0.1337 -1.4989  0.4217
 9348SOL    HW239678   2.209   0.962   2.102 -0.4934  2.4945 -0.2951
 9349SOL     OW39679   1.806   3.657   0.930 -0.1183 -0.7825  0.5613
 9349SOL    HW139680   1.773   3.742   0.902 -1.2520 -1.0273  1.1423
 9349SOL    HW239681   1.873   3.660   0.862 -2.2113  0.9341 -1.4584
 9350SOL     OW39682   4.567   3.690  15.615 -0.1104 -0.4873  0.0989
 9350SOL    HW139683   4.506   3.762  15.628 -0.0941 -0.6056  0.8402
 9350SOL    HW239684   4.527   3.621  15.667  0.2737  1.4031  2.9245
 9351SOL     OW39685   4.127   3.409   5.565 -0.7031 -0.0945  0.7617
 9351SOL    HW139686   4.062   3.367   5.621 -1.9139 -0.3169 -0.8220
 9351SOL    HW239687   4.121   3.358   5.484 -3.2386  1.4114 -0.0135
 9352SOL     OW39688   0.594   3.375   1.069 -0.4736 -0.2169 -0.3307
 9352SOL    HW139689   0.582   3.469   1.079  0.6884 -0.0525 -0.5044
 9352SOL    HW239690   0.510   3.353   1.028 -1.5609  1.7246  0.8475
 9353SOL     OW39691   0.235   3.169   5.775  0.2951  0.2943 -0.1980
 9353SOL    HW139692   0.252   3.193   5.866  0.6171  2.9806 -0.9596
 9353SOL    HW239693   0.319   3.172   5.729  1.3739 -0.2221  1.7822
 9354SOL     OW39694   3.982   3.696  12.762 -0.0814 -0.7423 -0.2039
 9354SOL    HW139695   4.024   3.614  12.735  0.8697 -0.2099 -0.2988
 9354SOL    HW239696   4.056   3.743  12.798 -0.6343 -0.2145  0.2377
 9355SOL     OW39697   0.207   3.882   7.878  0.5588 -0.3096 -0.4523
 9355SOL    HW139698   0.175   3.971   7.892  0.5356 -0.6462  1.6141
 9355SOL    HW239699   0.163   3.866   7.795 -0.4436  0.6501 -0.0954
 9356SOL     OW39700   0.255   1.896   2.708  0.0997 -0.0058  0.2938
 9356SOL    HW139701   0.345   1.903   2.739  0.9559 -1.6848 -1.7984
 9356SOL    HW239702   0.268   1.863   2.619 -0.7933 -1.7932  0.8285
 9357SOL     OW39703   4.463   3.648   5.403  0.8209 -0.1670  0.6185
 9357SOL    HW139704   4.425   3.600   5.476  0.5495  0.1695  0.6953
 9357SOL    HW239705   4.466   3.569   5.349 -1.5530  1.3622 -1.7683
 9358SOL     OW39706   1.515   3.570   4.433 -0.2917  0.3902  0.5396
 9358SOL    HW139707   1.492   3.476   4.433  0.1814  0.2793  1.4823
 9358SOL    HW239708   1.430   3.605   4.404 -0.1144  0.2602 -0.1403
 9359SOL     OW39709   0.132   4.426   3.834  0.3465 -0.2435 -0.2919
 9359SOL    HW139710   0.220   4.396   3.854  0.2428 -0.9776 -0.9485
 9359SOL    HW239711   0.130   4.427   3.738 -0.8565 -0.2191 -0.2659
 9360SOL     OW39712   1.552   4.402  10.858  0.9103  0.3317 -0.4516
 9360SOL    HW139713   1.488   4.473  10.849 -0.4625 -0.7470  0.7283
 9360SOL    HW239714   1.510   4.338  10.800 -0.3925  0.1573  0.6966
 9361SOL     OW39715   3.757   4.713   5.147  0.0124  0.7511 -0.0066
 9361SOL    HW139716   3.679   0.010   5.191 -0.3059 -1.5091  1.2140
 9361SOL    HW239717   3.821   4.696   5.216 -1.0529  0.9812  1.0429
 9362SOL     OW39718   2.132   0.506   4.899  0.0121 -0.0028  0.1884
 9362SOL    HW139719   2.148   0.582   4.955 -0.6513  1.2631 -1.3364
 9362SOL    HW239720   2.049   0.475   4.936 -0.3000  1.3544  0.6277
 9363SOL     OW39721   1.050   0.369   6.109  0.0691 -0.0241 -0.3647
 9363SOL    HW139722   1.028   0.426   6.183  0.6572 -0.3352  0.0524
 9363SOL    HW239723   1.060   0.430   6.036 -0.6202 -0.7028 -1.0269
 9364SOL     OW39724   2.688   1.348   5.832 -0.2143  0.3503  0.1689
 9364SOL    HW139725   2.606   1.389   5.862  1.1047  2.1852  1.2558
 9364SOL    HW239726   2.696   1.385   5.744  0.0607  2.3968  1.0448
 9365SOL     OW39727   4.465   1.486  17.656 -0.4130  0.3885  0.1341
 9365SOL    HW139728   4.516   1.477  17.576  0.6750 -0.6886  0.9403
 9365SOL    HW239729   4.534   1.521  17.712 -0.0809  2.4808 -1.5986
 9366SOL     OW39730   0.498   1.600  12.967  0.0507  0.2279  0.0307
 9366SOL    HW139731   0.535   1.514  12.947 -0.8583 -0.0411 -0.4852
 9366SOL    HW239732   0.550   1.653  12.906  4.0046 -2.7674  0.8302
 9367SOL     OW39733   0.518   2.608   9.515  0.3541  0.0202  0.3178
 9367SOL    HW139734   0.576   2.542   9.477 -2.0077 -0.4886 -2.4085
 9367SOL    HW239735   0.523   2.677   9.449 -2.0588 -2.2619 -2.2685
 9368SOL     OW39736   0.336   0.722   6.162 -0.0372  0.0487  0.0329
 9368SOL    HW139737   0.313   0.649   6.105 -1.1815  0.1303  0.3918
 9368SOL    HW239738   0.247   0.720   6.197  0.6589  1.7013  1.9157
 9369SOL     OW39739   2.305   1.379   1.622  0.3749  0.7149  0.2571
 9369SOL    HW139740   2.334   1.311   1.683 -1.3963 -0.6085 -0.3868
 9369SOL    HW239741   2.382   1.435   1.625  0.8750 -0.0882  2.5244
 9370SOL     OW39742   1.354   1.903   2.958 -0.1123 -0.2113 -0.0226
 9370SOL    HW139743   1.382   1.852   2.882  2.0711  1.8022 -0.5587
 9370SOL    HW239744   1.260   1.886   2.953  0.0368 -1.0850  0.0925
 9371SOL     OW39745   0.567   0.411   9.018  0.1537  0.0580  0.5348
 9371SOL    HW139746   0.540   0.336   9.072  1.1937 -0.6188  0.1217
 9371SOL    HW239747   0.620   0.455   9.084 -0.2316 -0.7397  1.3836
 9372SOL     OW39748   2.826   1.687  15.976 -0.1910 -0.2734  0.2225
 9372SOL    HW139749   2.772   1.686  15.896  0.2024 -0.7893 -0.0379
 9372SOL    HW239750   2.912   1.718  15.947  0.8930 -1.5775  2.0824
 9373SOL     OW39751   2.948   3.932  10.602 -0.0409 -0.1265  0.2010
 9373SOL    HW139752   3.009   3.915  10.530 -1.1664 -1.8035 -0.3548
 9373SOL    HW239753   2.953   4.028  10.610 -2.9445  0.3512 -4.2113
 9374SOL     OW39754   0.661   0.435   4.336 -0.4778 -0.1107  0.1896
 9374SOL    HW139755   0.718   0.432   4.259  0.0960  2.0384  0.5253
 9374SOL    HW239756   0.635   0.527   4.342  1.9205  0.4652  1.9562
 9375SOL     OW39757   4.270   0.727   1.804  0.3385 -0.2195 -0.0510
 9375SOL    HW139758   4.196   0.769   1.760  0.0439  0.1478  0.7819
 9375SOL    HW239759   4.271   0.636   1.776  1.9200  0.1746 -1.2387
 9376SOL     OW39760   0.117   4.734  10.201  0.6436  0.1851 -0.0632
 9376SOL    HW139761   0.050   0.054  10.238  1.6699  0.6070  1.1130
 9376SOL    HW239762   0.193   0.018  10.255  0.4065  1.9793 -0.4468
 9377SOL     OW39763   2.192   4.425   5.810 -0.3062 -0.5495  0.0032
 9377SOL    HW139764   2.198   4.443   5.716 -0.8607  0.4452  0.1632
 9377SOL    HW239765   2.097   4.419   5.813 -0.3177  0.7850  2.4222
 9378SOL     OW39766   2.734   1.941  12.606 -0.2231 -0.1944  0.5133
 9378SOL    HW139767   2.654   1.971  12.563  0.4734 -0.8045 -1.2212
 9378SOL    HW239768   2.743   1.847  12.587 -0.9424  0.6129 -3.8093
 9379SOL     OW39769   1.964   0.356  14.792 -0.4269 -0.2419  0.5579
 9379SOL    HW139770   1.873   0.327  14.790 -0.5181 -0.0559  2.7810
 9379SOL    HW239771   1.975   0.407  14.711 -0.0904  1.0630  1.4335
 9380SOL     OW39772   4.308   0.390  16.756  1.0564 -0.3534  0.1562
 9380SOL    HW139773   4.332   0.357  16.843 -0.9006  0.9043  1.1777
 9380SOL    HW239774   4.298   0.482  16.777  2.7370 -0.4886  1.5132
 9381SOL     OW39775   2.920   0.773   6.535 -0.2027 -0.6549  0.4568
 9381SOL    HW139776   2.942   0.686   6.567  0.1551  0.3229  2.9225
 9381SOL    HW239777   2.907   0.751   6.443  1.7662  1.5063 -0.3462
 9382SOL     OW39778   0.362   1.329   4.514 -0.1505  0.5525  0.2479
 9382SOL    HW139779   0.444   1.370   4.488  0.0095  1.1227  1.6707
 9382SOL    HW239780   0.336   1.286   4.432 -1.9627  1.6663  0.2308
 9383SOL     OW39781   4.322   2.148   9.711  0.0571  0.1398  0.2806
 9383SOL    HW139782   4.304   2.165   9.804  0.7837 -0.6060  0.5505
 9383SOL    HW239783   4.248   2.190   9.666  1.1946  1.4028 -0.3887
 9384SOL     OW39784   1.707   0.126   1.643 -0.8690 -0.3355  0.4484
 9384SOL    HW139785   1.792   0.083   1.657  0.1142  1.4466 -0.0708
 9384SOL    HW239786   1.741   0.215   1.651 -0.6168 -0.3419 -0.5605
 9385SOL     OW39787   0.281   4.368   8.056  0.1004  0.1946  0.9732
 9385SOL    HW139788   0.364   4.337   8.093  1.5819  2.4606 -0.4421
 9385SOL    HW239789   0.296   4.463   8.058 -2.5985  0.6359 -0.1937
 9386SOL     OW39790   2.581   4.015  13.729  0.0861 -0.2050  0.8146
 9386SOL    HW139791   2.616   4.013  13.819  1.8309 -1.7766  0.1032
 9386SOL    HW239792   2.506   3.957  13.737 -0.9165  0.9515 -0.1877
 9387SOL     OW39793   2.207   4.141   4.935  0.3824  0.1172  0.5783
 9387SOL    HW139794   2.195   4.086   5.013 -2.3557 -0.0982 -0.0078
 9387SOL    HW239795   2.270   4.210   4.957  0.3541 -0.6548  3.1923
 9388SOL     OW39796   2.083   3.093   5.648  0.3167  0.3076  0.3708
 9388SOL    HW139797   2.169   3.101   5.690  1.1540  1.0646 -1.5144
 9388SOL    HW239798   2.114   3.050   5.569  0.6455  0.2460  0.5354
 9389SOL     OW39799   0.184   1.204   9.203  0.9293  0.5145  0.1133
 9389SOL    HW139800   0.152   1.208   9.293 -2.8607  1.6148 -1.2980
 9389SOL    HW239801   0.114   1.245   9.153 -0.2727  1.4012  2.5192
 9390SOL     OW39802   2.337   1.621   6.161  0.0188 -0.4917 -0.2710
 9390SOL    HW139803   2.331   1.680   6.236 -1.7002  0.3780 -1.0938
 9390SOL    HW239804   2.312   1.676   6.088 -1.8996 -0.8363  0.1333
 9391SOL     OW39805   3.604   2.811  14.515  0.1106 -0.4329  0.2927
 9391SOL    HW139806   3.544   2.759  14.462  1.2669  0.4093 -1.8460
 9391SOL    HW239807   3.683   2.800  14.462  0.5085 -0.7326  0.9426
 9392SOL     OW39808   1.674   2.024  16.353  0.2958 -0.0478  0.2744
 9392SOL    HW139809   1.734   2.094  16.378  0.4294  0.0109 -0.2180
 9392SOL    HW239810   1.588   2.067  16.353  0.5842  0.5269  0.0035
 9393SOL     OW39811   2.620   3.495   9.968 -0.1204  0.4007  0.0856
 9393SOL    HW139812   2.526   3.506   9.984  0.0821 -0.5340  1.9703
 9393SOL    HW239813   2.657   3.526  10.051 -1.5066 -0.9776  1.2260
 9394SOL     OW39814   1.838   4.290   5.116 -0.3366 -0.0888 -0.9906
 9394SOL    HW139815   1.918   4.268   5.163 -0.4479 -0.4457 -0.9654
 9394SOL    HW239816   1.805   4.204   5.092 -0.3399 -0.7725  1.4700
 9395SOL     OW39817   1.428   0.465   3.879  0.1824 -0.2907 -0.1482
 9395SOL    HW139818   1.416   0.509   3.795  0.7988  0.8359  0.3604
 9395SOL    HW239819   1.471   0.380   3.862 -3.1011 -1.9352 -0.2388
 9396SOL     OW39820   3.941   2.110  13.889 -0.3641  0.6958 -0.5376
 9396SOL    HW139821   3.982   2.029  13.859  0.0987  0.3349  1.0591
 9396SOL    HW239822   4.000   2.180  13.862  1.4329 -0.2982  0.8377
 9397SOL     OW39823   1.681   3.436   1.023  0.4068 -0.0009 -0.8891
 9397SOL    HW139824   1.718   3.366   0.969 -0.9479 -1.1280 -0.3735
 9397SOL    HW239825   1.728   3.513   0.992  2.6984 -0.9615  0.2210
 9398SOL     OW39826   1.191   0.189  10.315  0.1115  0.0059  0.1042
 9398SOL    HW139827   1.227   0.277  10.324  2.1514 -1.2323  3.8329
 9398SOL    HW239828   1.196   0.192  10.219  1.4948 -3.5401  0.0663
 9399SOL     OW39829   2.834   2.088   5.927  0.2888 -0.0603  0.1030
 9399SOL    HW139830   2.763   2.046   5.879  0.1945 -1.5671  1.5463
 9399SOL    HW239831   2.811   2.174   5.894 -1.0634 -0.8871 -1.1008
 9400SOL     OW39832   2.343   3.182   5.368  0.9015 -0.3860 -0.1497
 9400SOL    HW139833   2.324   3.275   5.357  2.3268 -0.0344  0.3421
 9400SOL    HW239834   2.350   3.150   5.278 -1.5665  0.5225 -0.6363
 9401SOL     OW39835   1.213   0.360  15.425  0.0005  0.5881 -0.3010
 9401SOL    HW139836   1.282   0.298  15.448 -0.7588  0.3454  1.3333
 9401SOL    HW239837   1.130   0.319  15.449  0.8395 -1.8917 -1.6134
 9402SOL     OW39838   1.732   2.930   3.550 -0.1313  0.1193  0.1035
 9402SOL    HW139839   1.742   2.945   3.644  0.6052 -1.9382  0.3790
 9402SOL    HW239840   1.728   3.018   3.515  0.6871  1.4856  3.4274
 9403SOL     OW39841   2.451   2.262   9.880  0.2786  0.3058  0.5162
 9403SOL    HW139842   2.513   2.262   9.953  1.9119 -1.3839 -0.8902
 9403SOL    HW239843   2.403   2.181   9.898 -1.5907  1.0977 -0.8386
 9404SOL     OW39844   1.107   0.757   1.638 -0.1782  0.1340  0.2630
 9404SOL    HW139845   1.119   0.846   1.670  2.7842  0.4770 -1.8720
 9404SOL    HW239846   1.013   0.750   1.619 -0.6146 -0.9495  2.7678
 9405SOL     OW39847   0.816   1.344   3.339 -0.4379 -0.5932 -0.3907
 9405SOL    HW139848   0.750   1.276   3.328  0.4185 -1.5669  0.4258
 9405SOL    HW239849   0.838   1.329   3.431 -2.4448  1.2799  0.4046
 9406SOL     OW39850   2.191   3.138   3.766 -0.2555  0.1802 -0.2574
 9406SOL    HW139851   2.279   3.122   3.732  0.4310  0.1486  1.5289
 9406SOL    HW239852   2.178   3.059   3.818  3.0983 -0.6348 -0.6672
 9407SOL     OW39853   0.388   2.061   5.145  0.4447  0.6630  0.1027
 9407SOL    HW139854   0.297   2.034   5.135  0.7098 -0.6005  1.1776
 9407SOL    HW239855   0.410   2.114   5.069  1.3572 -0.6103 -0.5128
 9408SOL     OW39856   2.187   2.573   6.030  0.1434 -0.3502 -0.0155
 9408SOL    HW139857   2.104   2.620   6.037 -0.1533 -1.0478  1.1945
 9408SOL    HW239858   2.255   2.634   6.059 -1.9324  1.2074  1.5821
 9409SOL     OW39859   4.719   1.095   4.242  0.5000  0.3188  0.2417
 9409SOL    HW139860   4.727   1.013   4.290 -0.2482 -0.7371 -1.4441
 9409SOL    HW239861   4.625   1.108   4.228  0.3442  0.1814  1.1438
 9410SOL     OW39862   3.987   2.515   7.813 -0.4337  0.3696  0.5640
 9410SOL    HW139863   4.076   2.480   7.809 -1.0454 -1.3061  1.7035
 9410SOL    HW239864   3.934   2.436   7.823 -1.1756  0.9673  1.3651
 9411SOL     OW39865   3.986   2.892   3.649 -0.8963 -0.1498 -0.4794
 9411SOL    HW139866   3.960   2.831   3.581 -0.9683  0.7114 -1.2283
 9411SOL    HW239867   3.919   2.960   3.641 -1.5609 -0.7273  0.2069
 9412SOL     OW39868   4.559   3.695  12.365 -0.0378 -0.3553  0.4522
 9412SOL    HW139869   4.587   3.651  12.284 -1.2569 -0.9917  0.3724
 9412SOL    HW239870   4.486   3.640  12.391  0.0970 -2.4599 -3.6530
 9413SOL     OW39871   2.737   0.252   6.961 -0.8952  0.0127 -0.5898
 9413SOL    HW139872   2.755   0.169   6.919 -0.4416  0.3894 -1.1348
 9413SOL    HW239873   2.665   0.297   6.917 -1.2266  0.7257  0.6528
 9414SOL     OW39874   2.399   0.534   7.365  0.0833  0.1022 -0.3053
 9414SOL    HW139875   2.414   0.500   7.454  2.2349 -0.5325 -0.8912
 9414SOL    HW239876   2.471   0.597   7.365 -0.3662  0.6142 -0.7938
 9415SOL     OW39877   0.069   0.147   3.266 -0.5578  0.0813  0.5523
 9415SOL    HW139878   0.138   0.087   3.294  1.1659  1.9138  0.2809
 9415SOL    HW239879   0.114   0.183   3.189  1.1686 -1.0033  1.0577
 9416SOL     OW39880   1.035   4.439   9.799 -0.0217 -0.0614  0.0958
 9416SOL    HW139881   1.025   4.516   9.856 -0.3012 -0.0823  0.0757
 9416SOL    HW239882   1.120   4.405   9.827  0.4983  1.4183  0.3114
 9417SOL     OW39883   0.647   3.393   5.834 -0.2138 -0.3625  0.1825
 9417SOL    HW139884   0.632   3.427   5.923 -0.2653  0.8939 -0.3049
 9417SOL    HW239885   0.741   3.383   5.847  0.3172  2.8971 -1.2844
 9418SOL     OW39886   3.331   3.246   0.173 -0.5006 -0.6429  0.3005
 9418SOL    HW139887   3.401   3.201   0.125 -0.8676  1.0169 -1.7854
 9418SOL    HW239888   3.269   3.174   0.173  0.2657 -1.3052 -0.6537
 9419SOL     OW39889   3.292   0.266   4.370 -0.1264 -0.0836  0.0824
 9419SOL    HW139890   3.320   0.237   4.456  2.5775  0.5900 -0.5957
 9419SOL    HW239891   3.369   0.305   4.331 -0.2768  1.0052  0.8960
 9420SOL     OW39892   2.409   1.817   3.676  0.1275 -0.2577  0.3708
 9420SOL    HW139893   2.502   1.829   3.692 -0.1915 -0.6141  2.4792
 9420SOL    HW239894   2.377   1.896   3.720  0.0624 -1.2998  2.1441
 9421SOL     OW39895   1.176   2.761   7.970 -0.3764  0.2753  1.2414
 9421SOL    HW139896   1.241   2.719   8.026 -1.0321 -0.9042  1.1290
 9421SOL    HW239897   1.114   2.688   7.958  1.8142 -1.2386 -0.9356
 9422SOL     OW39898   4.481   3.763   6.235  0.0618  0.4568 -0.1981
 9422SOL    HW139899   4.397   3.767   6.190 -0.6504 -0.3422  1.0532
 9422SOL    HW239900   4.458   3.725   6.320 -0.3376  0.7373 -0.1854
 9423SOL     OW39901   3.418   2.393   3.092  0.3191  0.0399 -0.2138
 9423SOL    HW139902   3.342   2.416   3.145  1.9221 -0.3185  2.2522
 9423SOL    HW239903   3.408   2.298   3.078  2.5662 -0.1877 -0.2700
 9424SOL     OW39904   4.446   4.052   9.249  0.7423  0.8942  0.2796
 9424SOL    HW139905   4.513   3.984   9.247  0.0670  0.2623 -0.7354
 9424SOL    HW239906   4.406   4.034   9.164 -1.1836  1.1781  1.1208
 9425SOL     OW39907   1.146   0.693  10.802 -0.3404  0.0677  0.5356
 9425SOL    HW139908   1.157   0.603  10.833  0.1762  0.2814  0.9817
 9425SOL    HW239909   1.207   0.698  10.728  0.5730 -0.9574  1.2269
 9426SOL     OW39910   2.718   2.705   2.871  0.0980  0.0803  0.2785
 9426SOL    HW139911   2.772   2.703   2.950 -1.8329 -0.6859  1.5892
 9426SOL    HW239912   2.711   2.612   2.849 -0.1255  0.0320  0.5526
 9427SOL     OW39913   3.627   1.485   9.085  0.0835  0.6543  0.0750
 9427SOL    HW139914   3.632   1.569   9.040  0.6807  0.1381 -0.8254
 9427SOL    HW239915   3.674   1.424   9.029  0.7766 -0.2983  1.6917
 9428SOL     OW39916   3.194   1.522   6.831 -0.0101 -0.3442  0.3445
 9428SOL    HW139917   3.251   1.510   6.907 -3.1154 -3.0419  2.2205
 9428SOL    HW239918   3.259   1.512   6.761  0.5641  1.2322  0.6398
 9429SOL     OW39919   0.132   1.368   6.792 -0.1495 -0.1605  0.0993
 9429SOL    HW139920   0.078   1.370   6.871 -0.4680 -0.5258 -0.1107
 9429SOL    HW239921   0.214   1.395   6.834  0.5250 -0.7509 -0.8220
 9430SOL     OW39922   1.489   4.599   0.765 -0.7207  0.0499 -0.7410
 9430SOL    HW139923   1.440   4.666   0.717 -1.4511  0.3483  0.4230
 9430SOL    HW239924   1.577   4.629   0.741 -1.0189  1.9738  0.5521
 9431SOL     OW39925   2.499   4.142   2.356  0.1089  0.4482 -0.0797
 9431SOL    HW139926   2.466   4.152   2.267 -2.0621 -2.0215  0.4647
 9431SOL    HW239927   2.494   4.231   2.393 -0.6486  0.7077 -0.8225
 9432SOL     OW39928   0.243   4.640  13.265  0.5862  0.2395  0.1680
 9432SOL    HW139929   0.278   4.551  13.257  1.0944  0.4468  0.0579
 9432SOL    HW239930   0.182   4.628  13.192  1.8646 -1.4561 -0.6115
 9433SOL     OW39931   4.500   3.288  15.514 -0.5040  0.2901 -0.0402
 9433SOL    HW139932   4.422   3.287  15.459 -0.5738 -1.9699  0.1125
 9433SOL    HW239933   4.513   3.195  15.529  1.0351  0.5459  0.1644
 9434SOL     OW39934   3.671   3.780   2.032 -0.4434 -0.5374  0.3457
 9434SOL    HW139935   3.748   3.812   1.985  0.1992 -1.7474  0.5845
 9434SOL    HW239936   3.711   3.738   2.108 -0.9263 -0.8679  0.4197
 9435SOL     OW39937   4.010   4.134  17.587  0.5325  0.0726  0.0885
 9435SOL    HW139938   4.069   4.208  17.572  0.0766  0.3410 -0.3800
 9435SOL    HW239939   4.013   4.104  17.496  0.0923 -1.1597  0.4883
 9436SOL     OW39940   1.679   3.274   8.276 -0.2299 -0.3498  0.2118
 9436SOL    HW139941   1.635   3.199   8.236 -2.3027  1.5683 -1.1141
 9436SOL    HW239942   1.693   3.239   8.365  1.6217 -0.3793 -0.0830
 9437SOL     OW39943   2.654   0.682  11.415  0.3735  0.7979  0.0748
 9437SOL    HW139944   2.610   0.727  11.343 -0.8211 -0.0162  0.2915
 9437SOL    HW239945   2.654   0.739  11.492 -0.8084  0.2747  0.4652
 9438SOL     OW39946   4.291   4.146   8.036 -0.6940  0.5639  0.0631
 9438SOL    HW139947   4.369   4.176   8.082 -0.4537 -0.7871  0.5288
 9438SOL    HW239948   4.279   4.202   7.959  0.3805 -1.4925 -1.6235
 9439SOL     OW39949   3.447   4.023   0.393  0.5759  0.1937 -0.0650
 9439SOL    HW139950   3.524   3.979   0.356 -1.0549 -1.8071 -1.1340
 9439SOL    HW239951   3.387   4.048   0.323  0.5007  1.0019  0.2960
 9440SOL     OW39952   2.969   1.991   1.212  0.4744  0.1539 -0.0161
 9440SOL    HW139953   2.973   1.998   1.117  1.0286  0.5084  0.0304
 9440SOL    HW239954   2.928   1.905   1.203  2.7122 -0.8638 -0.5230
 9441SOL     OW39955   1.770   3.214  16.894  0.8594  0.7158  0.4075
 9441SOL    HW139956   1.784   3.290  16.838 -2.0879 -0.3529 -1.7796
 9441SOL    HW239957   1.709   3.175  16.831 -1.7361  0.2832  3.1968
 9442SOL     OW39958   4.023   4.185  11.008 -0.3133 -0.1925 -0.4674
 9442SOL    HW139959   4.023   4.140  11.093 -3.0795  0.6873  0.0008
 9442SOL    HW239960   4.112   4.170  10.977 -0.6687  0.5869 -1.8199
 9443SOL     OW39961   2.592   2.940   3.896  0.2776 -0.1669 -0.7578
 9443SOL    HW139962   2.601   2.977   3.984  0.9270  1.6866 -1.6011
 9443SOL    HW239963   2.611   3.016   3.841  2.4878  1.1010  1.7725
 9444SOL     OW39964   3.914   0.744   7.050  0.1586 -0.4271 -0.6419
 9444SOL    HW139965   3.876   0.823   7.090  3.1187  1.2510 -1.1297
 9444SOL    HW239966   3.990   0.778   7.002 -0.5148 -2.4648 -3.1811
 9445SOL     OW39967   1.579   1.121   8.258  0.0805 -0.2276 -0.0541
 9445SOL    HW139968   1.558   1.129   8.165 -0.1119  0.9479  0.0888
 9445SOL    HW239969   1.640   1.194   8.269  0.9215 -0.8132 -0.9799
 9446SOL     OW39970   1.240   3.843   0.892 -0.3453 -0.1449  0.0300
 9446SOL    HW139971   1.212   3.827   0.802  0.4812  0.5895 -0.3669
 9446SOL    HW239972   1.175   3.820   0.957  0.9237 -0.3384  1.2407
 9447SOL     OW39973   0.982   2.599   2.443 -0.3251 -0.1626  0.1125
 9447SOL    HW139974   0.893   2.608   2.407 -0.7240 -1.2631  0.8385
 9447SOL    HW239975   0.992   2.505   2.431 -1.2344 -0.4404  1.4891
 9448SOL     OW39976   3.544   4.097   8.269 -0.3283  0.1365  0.6209
 9448SOL    HW139977   3.574   4.051   8.348 -1.1207 -2.2290 -0.4694
 9448SOL    HW239978   3.603   4.065   8.200 -2.1370 -1.4703 -0.1840
 9449SOL     OW39979   2.646   3.591  14.898 -0.4265 -0.2672 -0.1921
 9449SOL    HW139980   2.599   3.542  14.830 -0.6172 -1.1634  0.5810
 9449SOL    HW239981   2.578   3.630  14.953  1.3797 -2.1505  3.4212
 9450SOL     OW39982   2.801   1.239  16.641 -0.0549  0.3632 -0.1927
 9450SOL    HW139983   2.750   1.300  16.695  0.7096 -1.7107  2.8852
 9450SOL    HW239984   2.774   1.270  16.555 -0.0879  1.8416  0.3343
 9451SOL     OW39985   2.643   2.257   9.496  0.0193 -0.3824 -0.0888
 9451SOL    HW139986   2.702   2.283   9.567 -0.4959  1.2112 -0.2614
 9451SOL    HW239987   2.688   2.282   9.416  2.0439 -1.4232  0.7056
 9452SOL     OW39988   2.284   2.597   8.995  0.2147 -0.1782 -0.1091
 9452SOL    HW139989   2.267   2.649   8.916 -0.8082  2.8172  2.0908
 9452SOL    HW239990   2.241   2.648   9.063 -1.3455  0.7248 -1.8016
 9453SOL     OW39991   2.921   3.537  12.820  0.0941 -0.0020 -0.0218
 9453SOL    HW139992   2.998   3.501  12.866  0.2800 -0.3010 -0.5684
 9453SOL    HW239993   2.967   3.563  12.740 -2.0167 -0.8956 -1.5254
 9454SOL     OW39994   0.623   1.875  11.272 -0.1373 -0.0231  0.7453
 9454SOL    HW139995   0.595   1.785  11.288 -1.1323 -0.1081 -1.4474
 9454SOL    HW239996   0.545   1.921  11.239  0.3460 -0.9377 -1.6934
 9455SOL     OW39997   3.746   3.620   0.856  0.5240 -0.5186  0.2795
 9455SOL    HW139998   3.799   3.658   0.926 -0.3474  2.0200 -0.4636
 9455SOL    HW239999   3.776   3.529   0.855 -2.0650 -1.3594 -2.1620
 9456SOL     OW40000   4.099   0.941   6.455  0.1471 -0.0203  0.4399
 9456SOL    HW140001   4.194   0.934   6.443 -0.1870 -4.5768  0.4181
 9456SOL    HW240002   4.063   0.960   6.369 -0.6210 -3.6464 -0.0700
 9457SOL     OW40003   2.073   1.191   6.211 -0.4312 -0.2352 -0.1339
 9457SOL    HW140004   2.125   1.266   6.183  0.1491  0.3721  2.5739
 9457SOL    HW240005   1.985   1.214   6.181 -0.0761 -0.2895 -1.2470
 9458SOL     OW40006   0.547   4.173   5.064  0.6132  0.1443 -0.3111
 9458SOL    HW140007   0.595   4.251   5.089 -0.9714  0.3413  2.0692
 9458SOL    HW240008   0.467   4.213   5.033  0.7434  0.0922 -0.7261
 9459SOL     OW40009   2.503   3.357  12.565 -0.2519 -0.0844  0.0418
 9459SOL    HW140010   2.566   3.369  12.636 -0.3353 -0.5267  0.1925
 9459SOL    HW240011   2.509   3.263  12.551  0.9939  0.1074 -0.7258
 9460SOL     OW40012   1.491   1.256  13.038  0.0392  0.0165  0.4276
 9460SOL    HW140013   1.579   1.276  13.069 -0.0640  0.6466  0.3068
 9460SOL    HW240014   1.471   1.196  13.111  0.6691  0.2784  0.8120
 9461SOL     OW40015   0.784   2.275   8.806 -0.3830 -0.3702 -0.4235
 9461SOL    HW140016   0.758   2.363   8.779 -0.3689  0.2565  1.5819
 9461SOL    HW240017   0.827   2.295   8.889  1.4312  0.6096 -1.5723
 9462SOL     OW40018   3.779   4.450  10.713 -0.1175 -0.1769  0.6416
 9462SOL    HW140019   3.796   4.482  10.801 -3.1144  0.6567  0.9107
 9462SOL    HW240020   3.683   4.443  10.716 -0.0516 -1.1944  0.2266
 9463SOL     OW40021   2.021   2.252   7.544  0.8076 -0.0162 -0.4164
 9463SOL    HW140022   1.991   2.162   7.531  1.3114 -0.3487  0.6934
 9463SOL    HW240023   1.943   2.305   7.528  1.7435  1.2560 -0.7918
 9464SOL     OW40024   3.092   0.695   0.197  0.1515 -0.4820  0.0596
 9464SOL    HW140025   3.159   0.686   0.129 -0.0466 -2.5627  0.1319
 9464SOL    HW240026   3.054   0.608   0.208 -1.6048  0.6383  2.8803
 9465SOL     OW40027   4.446   2.783  16.030 -0.4221  0.2372 -0.0355
 9465SOL    HW140028   4.423   2.719  15.962  0.8480 -0.1753 -0.0738
 9465SOL    HW240029   4.390   2.756  16.103  1.0669 -0.0034  1.0007
 9466SOL     OW40030   1.890   3.806   4.333  0.3798 -0.3359  0.5814
 9466SOL    HW140031   1.874   3.768   4.419  1.1428 -0.2713  0.7516
 9466SOL    HW240032   1.867   3.725   4.288  0.8310  0.4878 -1.1592
 9467SOL     OW40033   0.219   2.775   8.839  0.1040 -0.2778 -0.3421
 9467SOL    HW140034   0.171   2.834   8.782  0.3764  1.1667  0.9165
 9467SOL    HW240035   0.273   2.836   8.889  0.7937 -1.7281  0.6977
 9468SOL     OW40036   1.033   1.198  14.434 -0.0343  0.3850 -0.6278
 9468SOL    HW140037   0.984   1.174  14.355  0.8097  0.6466 -1.2230
 9468SOL    HW240038   1.070   1.112  14.451 -0.0876  0.8371  1.7158
 9469SOL     OW40039   2.746   4.021   5.824  0.3369  0.0013 -0.0214
 9469SOL    HW140040   2.717   4.088   5.762  1.0889  0.9329  0.6250
 9469SOL    HW240041   2.831   3.989   5.791 -0.9158 -1.9779 -1.2985
 9470SOL     OW40042   2.743   4.619   0.773  0.1965 -0.2608 -0.9105
 9470SOL    HW140043   2.684   4.605   0.699 -1.2275  0.2973  0.1128
 9470SOL    HW240044   2.739   4.536   0.821  1.7244 -0.3077 -0.8832
 9471SOL     OW40045   4.158   2.843   6.819  0.0106  0.0785 -0.0122
 9471SOL    HW140046   4.149   2.932   6.786 -0.8204  0.1508  0.4032
 9471SOL    HW240047   4.245   2.843   6.860 -0.3130 -1.4052  0.6936
 9472SOL     OW40048   0.747   2.251   1.789 -0.6476  0.0325 -0.1092
 9472SOL    HW140049   0.764   2.234   1.697  0.7110 -0.8145  0.2981
 9472SOL    HW240050   0.706   2.337   1.780 -2.4399 -0.5895  2.2168
 9473SOL     OW40051   0.910   2.838   9.685 -0.2632  0.4891  1.2075
 9473SOL    HW140052   0.839   2.818   9.747 -1.3364 -1.0490 -0.5239
 9473SOL    HW240053   0.899   2.933   9.684 -2.1309  0.2186 -1.4851
 9474SOL     OW40054   2.299   1.204   2.409 -1.0030  0.1534  0.3468
 9474SOL    HW140055   2.280   1.123   2.362  0.3151  0.3577 -0.5750
 9474SOL    HW240056   2.331   1.175   2.494  2.3989 -0.0523 -0.9693
 9475SOL     OW40057   0.378   1.525   6.185 -0.7661  0.9761  0.4053
 9475SOL    HW140058   0.410   1.464   6.119 -0.7380  0.0175  1.2954
 9475SOL    HW240059   0.343   1.598   6.136 -0.5206  2.4339  2.3988
 9476SOL     OW40060   3.232   1.042   2.214 -0.3108  0.1453 -0.4785
 9476SOL    HW140061   3.204   1.074   2.128  1.1583  1.3054 -0.5309
 9476SOL    HW240062   3.195   1.110   2.270  1.0013 -1.2705  2.1315
 9477SOL     OW40063   1.925   0.315  17.487  0.4102  0.7324 -0.4126
 9477SOL    HW140064   1.956   0.299  17.576  0.7899  0.3274 -0.6152
 9477SOL    HW240065   1.907   0.409  17.485  1.1130  0.9421  3.3470
 9478SOL     OW40066   3.129   0.991   9.853  0.2459  0.6444 -0.3957
 9478SOL    HW140067   3.152   1.062   9.794  0.3915  1.7531  0.9833
 9478SOL    HW240068   3.123   0.918   9.791  1.1649  1.0442 -0.9577
 9479SOL     OW40069   4.236   0.557  12.992 -0.1781 -0.4431 -0.1470
 9479SOL    HW140070   4.216   0.465  13.008 -2.9565  0.4499  1.5510
 9479SOL    HW240071   4.248   0.587  13.082 -0.2574  1.0908 -0.6423
 9480SOL     OW40072   1.298   2.908   2.728 -0.1990  0.0096 -0.0774
 9480SOL    HW140073   1.268   2.843   2.665  3.1477 -1.1259 -0.5152
 9480SOL    HW240074   1.287   2.992   2.682  1.6849  0.5947  0.5496
 9481SOL     OW40075   4.544   3.559   9.082 -0.2730 -0.2919 -0.6935
 9481SOL    HW140076   4.482   3.622   9.044 -0.4162  1.5865  2.6489
 9481SOL    HW240077   4.621   3.591   9.035 -0.1413 -1.0292 -0.9734
 9482SOL     OW40078   2.990   4.432   8.583  0.5768  0.2564 -0.2265
 9482SOL    HW140079   3.085   4.421   8.573  0.8191  1.0443  1.1205
 9482SOL    HW240080   2.960   4.363   8.524 -4.6647  1.9799  0.4795
 9483SOL     OW40081   2.631   2.438   3.974 -0.0971 -0.1975  0.0621
 9483SOL    HW140082   2.612   2.516   4.026  1.7242  1.0022 -1.0680
 9483SOL    HW240083   2.592   2.467   3.892 -0.2131  0.9999  0.5534
 9484SOL     OW40084   1.013   1.007   0.415 -0.1103  0.5534 -0.8656
 9484SOL    HW140085   1.105   1.030   0.427  0.1157 -0.1083 -1.3073
 9484SOL    HW240086   0.989   1.100   0.411 -0.9100  0.4132  0.5960
 9485SOL     OW40087   0.575   2.816  15.244  0.6395 -0.3123  0.3861
 9485SOL    HW140088   0.569   2.837  15.151 -0.1421 -0.8900  0.3127
 9485SOL    HW240089   0.636   2.880  15.281 -0.6827 -0.2825  2.5192
 9486SOL     OW40090   4.622   0.065  13.855 -0.0508  0.0619  0.4217
 9486SOL    HW140091   4.617   0.099  13.765 -0.0708  1.4563  0.9633
 9486SOL    HW240092   4.713   0.033  13.855 -0.3280 -0.7407 -0.5127
 9487SOL     OW40093   0.506   1.200   9.047  0.3055 -0.1533 -0.7291
 9487SOL    HW140094   0.457   1.200   9.129  0.0243 -0.5427 -0.8952
 9487SOL    HW240095   0.496   1.105   9.035  2.0604 -0.3672 -0.5589
 9488SOL     OW40096   0.825   1.334   4.982 -0.0953  0.3688 -0.1598
 9488SOL    HW140097   0.919   1.349   4.973 -0.0814  0.4586  0.1287
 9488SOL    HW240098   0.817   1.296   5.070  0.6170 -0.1313 -0.3071
 9489SOL     OW40099   0.224   3.327   3.145  1.1076 -0.4186  0.1994
 9489SOL    HW140100   0.226   3.286   3.231  0.1319 -1.0581 -0.0789
 9489SOL    HW240101   0.160   3.274   3.097  2.5659 -2.6626  0.7569
 9490SOL     OW40102   3.629   2.045  12.587 -0.2057  0.0708  0.3746
 9490SOL    HW140103   3.696   1.979  12.569 -2.2476 -1.9039  0.0308
 9490SOL    HW240104   3.588   2.050  12.501 -2.7913  1.9722  1.7193
 9491SOL     OW40105   3.694   2.762   0.787 -0.3689 -0.4542 -0.2812
 9491SOL    HW140106   3.772   2.817   0.794  0.0756 -1.3284  1.8519
 9491SOL    HW240107   3.741   2.678   0.782 -0.4362 -0.4347 -1.2224
 9492SOL     OW40108   1.878   1.842   7.355  0.5400 -0.3978 -0.0109
 9492SOL    HW140109   1.922   1.757   7.349 -0.7068 -1.2632  2.7128
 9492SOL    HW240110   1.786   1.816   7.344 -0.2559  2.2123  0.5148
 9493SOL     OW40111   3.273   4.707  12.334  0.5013  0.0761 -0.0252
 9493SOL    HW140112   3.310   4.672  12.414  1.9333 -0.5970 -0.9817
 9493SOL    HW240113   3.324   4.661  12.267 -1.1360 -0.4283 -0.9184
 9494SOL     OW40114   0.945   0.146   6.588  0.0095  0.2944  0.0803
 9494SOL    HW140115   0.963   0.227   6.635  0.3896  0.4667 -0.3617
 9494SOL    HW240116   0.974   0.171   6.501  0.7559  0.6217  0.4257
 9495SOL     OW40117   3.745   2.485   0.781  0.0522  0.2955  0.1896
 9495SOL    HW140118   3.809   2.418   0.808  1.0474  1.4280  0.6502
 9495SOL    HW240119   3.671   2.467   0.838 -0.1523 -0.6772 -0.3768
 9496SOL     OW40120   3.662   0.570   3.928 -0.0135 -0.0055  0.4370
 9496SOL    HW140121   3.730   0.556   3.994 -0.6487 -0.0319  1.0926
 9496SOL    HW240122   3.622   0.654   3.951 -1.0534 -0.2340 -0.5409
 9497SOL     OW40123   1.890   4.532  16.832  0.4009  0.7788  0.2854
 9497SOL    HW140124   1.887   4.596  16.761 -1.5359  0.4656  0.1028
 9497SOL    HW240125   1.962   4.474  16.806  1.5638  1.2438  2.4802
 9498SOL     OW40126   1.875   0.105   7.523  0.2513  0.2517  0.7453
 9498SOL    HW140127   1.814   0.087   7.594  0.7212  2.6293  1.7668
 9498SOL    HW240128   1.836   0.056   7.451 -0.5086 -0.0514  1.3657
 9499SOL     OW40129   3.371   0.266   7.643 -0.2409  0.3596  0.4119
 9499SOL    HW140130   3.437   0.207   7.680 -0.0880  0.0947 -0.2853
 9499SOL    HW240131   3.317   0.206   7.592 -1.4918  1.8471  0.0026
 9500SOL     OW40132   3.772   4.578  15.432 -0.4493  0.6474  0.2566
 9500SOL    HW140133   3.844   4.638  15.453 -0.2482  0.7103 -0.5799
 9500SOL    HW240134   3.769   4.597  15.338 -2.0483 -0.0805  0.1598
 9501SOL     OW40135   4.620   1.877   7.342  0.3928 -0.0437 -0.3079
 9501SOL    HW140136   4.713   1.862   7.324  0.8163  0.0953  1.8218
 9501SOL    HW240137   4.626   1.967   7.372 -1.8283 -0.6996  2.0909
 9502SOL     OW40138   1.010   1.668   7.593  0.4986 -0.1557 -0.8235
 9502SOL    HW140139   0.924   1.660   7.635 -0.6091  1.6595 -2.7521
 9502SOL    HW240140   1.066   1.637   7.664 -0.4805  0.9049  0.4273
 9503SOL     OW40141   3.723   2.804   8.961 -0.2128  0.1131 -0.5629
 9503SOL    HW140142   3.682   2.890   8.973  0.7646  0.7261 -1.6151
 9503SOL    HW240143   3.725   2.784   8.868  1.1423 -2.6833  0.0586
 9504SOL     OW40144   0.966   0.560  15.463 -0.7778 -0.1565  0.1891
 9504SOL    HW140145   0.915   0.548  15.543 -1.6021 -0.9444 -0.4527
 9504SOL    HW240146   0.995   0.649  15.480 -1.4818 -0.0251  0.7007
 9505SOL     OW40147   4.611   4.302   2.240  0.2559 -0.2419 -0.0978
 9505SOL    HW140148   4.622   4.367   2.309 -1.5443 -0.2620  0.2115
 9505SOL    HW240149   4.520   4.306   2.213  0.0694 -3.2660 -0.0042
 9506SOL     OW40150   4.143   3.691  11.387  0.1587 -0.1481  0.2154
 9506SOL    HW140151   4.215   3.630  11.400  0.1278 -0.4850 -1.1940
 9506SOL    HW240152   4.069   3.637  11.360 -0.4850  0.8760 -0.0979
 9507SOL     OW40153   0.093   3.011   2.843 -0.6492  0.2238 -0.9835
 9507SOL    HW140154   0.187   3.022   2.853 -0.9257  1.8762 -0.1094
 9507SOL    HW240155   0.084   3.016   2.748 -1.2210  1.6428 -0.8598
 9508SOL     OW40156   3.994   2.447   4.138 -0.0293  0.0546 -0.2615
 9508SOL    HW140157   3.980   2.468   4.046  1.1454 -2.2242 -0.9813
 9508SOL    HW240158   4.019   2.529   4.179  0.7082 -1.2110  1.8414
 9509SOL     OW40159   4.194   3.710   9.224  0.5475  0.3191 -0.4031
 9509SOL    HW140160   4.137   3.683   9.151 -2.7684 -1.3180  2.8064
 9509SOL    HW240161   4.256   3.637   9.222 -0.4309 -0.5428  0.5599
 9510SOL     OW40162   0.840   1.137   7.761  0.0207  0.0858 -0.2287
 9510SOL    HW140163   0.861   1.050   7.726  1.7868  1.4090 -2.4466
 9510SOL    HW240164   0.922   1.157   7.807  0.3507  2.5574 -1.8776
 9511SOL     OW40165   3.450   0.634   8.036  0.3092 -0.7049 -0.1553
 9511SOL    HW140166   3.414   0.599   7.955  1.2075 -0.2864 -0.7282
 9511SOL    HW240167   3.369   0.661   8.081 -0.2102 -0.9616 -0.9281
 9512SOL     OW40168   2.028   0.873   5.584  0.0909  0.0944  0.0449
 9512SOL    HW140169   2.064   0.931   5.652  1.2084 -1.3942  0.7371
 9512SOL    HW240170   2.096   0.894   5.520 -1.2539 -1.5086 -1.8816
 9513SOL     OW40171   1.513   4.735  11.117 -0.4861  0.2470 -0.2546
 9513SOL    HW140172   1.531   0.068  11.179 -0.6054 -0.5117  0.6514
 9513SOL    HW240173   1.599   4.693  11.118 -0.1785  0.8484 -1.6684
 9514SOL     OW40174   4.078   0.404  11.147  0.5886 -0.2907 -0.7367
 9514SOL    HW140175   4.116   0.342  11.210  0.0778 -0.3197 -0.4577
 9514SOL    HW240176   3.987   0.417  11.173  1.0854  0.5764  0.5257
 9515SOL     OW40177   3.813   2.507  16.007 -0.0633  0.0840  0.7210
 9515SOL    HW140178   3.749   2.506  15.935  1.8201 -1.5913 -0.9203
 9515SOL    HW240179   3.857   2.425  15.984  0.5561  0.8025 -0.6313
 9516SOL     OW40180   2.460   3.507   3.327 -0.4995 -0.8149 -0.2848
 9516SOL    HW140181   2.492   3.459   3.251  0.1564  0.1104 -0.6000
 9516SOL    HW240182   2.401   3.568   3.284 -1.8044 -0.5516  1.8718
 9517SOL     OW40183   2.360   1.380   4.837 -0.6357  0.1119 -0.3541
 9517SOL    HW140184   2.399   1.421   4.760 -2.8197  2.9671  0.0532
 9517SOL    HW240185   2.295   1.323   4.797 -1.2669 -0.6428  1.7558
 9518SOL     OW40186   2.683   3.193  17.493  0.2533 -0.0069 -0.2778
 9518SOL    HW140187   2.672   3.288  17.504  0.1290 -0.0812  0.2507
 9518SOL    HW240188   2.760   3.188  17.436 -1.4341  0.9013 -2.6074
 9519SOL     OW40189   2.695   4.109   5.365  0.4767 -0.1191 -0.4618
 9519SOL    HW140190   2.607   4.129   5.395  0.7228  0.5893 -0.1950
 9519SOL    HW240191   2.692   4.156   5.282  0.7429  0.2936 -0.2404
 9520SOL     OW40192   3.947   1.595   9.786 -0.1955 -0.2381  0.2435
 9520SOL    HW140193   4.018   1.600   9.721  0.1811  1.6265  0.8140
 9520SOL    HW240194   3.960   1.507   9.823  1.1168 -0.5854 -1.0433
 9521SOL     OW40195   3.118   0.981   9.186  0.2819  0.1632 -0.0577
 9521SOL    HW140196   3.125   1.035   9.264 -0.7702 -1.0855  0.9022
 9521SOL    HW240197   3.036   0.936   9.203 -0.0925  0.6727 -0.5154
 9522SOL     OW40198   2.569   2.443   7.020  0.0453 -0.1806  0.0208
 9522SOL    HW140199   2.477   2.440   7.048  0.1228  1.8630  0.4551
 9522SOL    HW240200   2.551   2.517   6.963  2.5807  1.2347  1.0705
 9523SOL     OW40201   2.349   2.028   6.081 -0.6002  0.5374 -0.3947
 9523SOL    HW140202   2.328   2.077   6.160 -0.1963  1.7168 -1.0161
 9523SOL    HW240203   2.429   1.987   6.114 -0.9345  1.5599  1.6647
 9524SOL     OW40204   0.583   0.182   2.033  1.2443  0.0779  0.0673
 9524SOL    HW140205   0.599   0.214   2.122 -1.8906  1.6122  0.0833
 9524SOL    HW240206   0.502   0.137   2.053  1.2580 -1.5375 -3.4470
 9525SOL     OW40207   2.248   4.170  11.999 -0.0170  0.7854 -0.3305
 9525SOL    HW140208   2.198   4.238  12.044 -0.3587  0.1590  0.2367
 9525SOL    HW240209   2.310   4.148  12.068 -1.6040  0.4182  0.9826
 9526SOL     OW40210   4.222   1.254   2.947 -0.2962  0.1020 -0.3545
 9526SOL    HW140211   4.205   1.311   2.871  2.1130 -1.3359 -1.9462
 9526SOL    HW240212   4.312   1.237   2.921 -0.2261 -2.6600  1.7487
 9527SOL     OW40213   1.078   1.708   5.512  0.1791  0.1466 -0.3717
 9527SOL    HW140214   1.095   1.642   5.579 -2.6811  0.9409  1.1736
 9527SOL    HW240215   1.157   1.759   5.529  1.0838 -0.6907 -2.0843
 9528SOL     OW40216   2.773   1.031  10.274  0.2914  0.1672 -0.4777
 9528SOL    HW140217   2.796   1.083  10.197 -2.6137  1.0720 -0.7443
 9528SOL    HW240218   2.859   0.996  10.298  0.9271  1.8296 -0.3339
 9529SOL     OW40219   0.644   0.893  11.669 -0.1521  0.1446  0.6514
 9529SOL    HW140220   0.567   0.916  11.720 -2.4695  1.9633 -3.6402
 9529SOL    HW240221   0.650   0.976  11.621 -2.4643 -0.8340 -1.3114
 9530SOL     OW40222   1.989   0.476   8.525 -0.9525 -0.2677  0.3755
 9530SOL    HW140223   2.017   0.542   8.461 -1.3154  0.0880  0.5832
 9530SOL    HW240224   2.066   0.467   8.581  1.6131  0.8186 -3.0098
 9531SOL     OW40225   4.012   2.050   6.067  0.8866  0.0572 -0.2655
 9531SOL    HW140226   4.040   1.981   6.007 -0.6263  1.7774 -2.9687
 9531SOL    HW240227   3.958   2.104   6.009 -0.0083 -0.5910 -0.0301
 9532SOL     OW40228   1.387   3.594  13.815 -0.1650 -0.2561  0.1920
 9532SOL    HW140229   1.437   3.667  13.851  0.9161  0.3601 -2.5101
 9532SOL    HW240230   1.441   3.568  13.740 -2.1565  1.7550 -1.9440
 9533SOL     OW40231   3.931   0.220  10.949  0.0965  0.2190  0.2492
 9533SOL    HW140232   3.933   0.131  10.985  0.2616  0.4874  0.9057
 9533SOL    HW240233   4.013   0.263  10.973  0.4106  0.3133 -1.0052
 9534SOL     OW40234   4.218   0.665   5.919 -0.1917  0.4216 -0.0565
 9534SOL    HW140235   4.170   0.654   5.837 -0.7800  0.2627  0.3072
 9534SOL    HW240236   4.153   0.713   5.971 -0.6451  0.2903 -0.4976
 9535SOL     OW40237   4.227   3.221   2.078  0.0170 -0.5920 -0.0821
 9535SOL    HW140238   4.182   3.141   2.106 -1.4723  1.0595  2.2401
 9535SOL    HW240239   4.268   3.239   2.162  1.0046 -1.7570 -0.3176
 9536SOL     OW40240   3.075   0.478   7.808  0.5250  0.4828  0.5479
 9536SOL    HW140241   3.120   0.436   7.882  0.4817  0.2096  0.4202
 9536SOL    HW240242   3.094   0.413   7.740  0.1432  2.1338 -1.1265
 9537SOL     OW40243   1.486   1.459   7.938 -0.4292  0.3713  0.3404
 9537SOL    HW140244   1.561   1.408   7.906 -1.1688 -1.2168  1.1818
 9537SOL    HW240245   1.532   1.530   7.982 -1.1713  0.8107  0.4127
 9538SOL     OW40246   4.313   4.086   8.758 -0.0683  0.0316  0.0979
 9538SOL    HW140247   4.310   4.181   8.754  2.8718  0.1412  0.2154
 9538SOL    HW240248   4.310   4.061   8.665  1.0323  0.8173 -0.1529
 9539SOL     OW40249   2.683   2.972   9.019  0.2410  0.7209  0.3560
 9539SOL    HW140250   2.741   3.030   9.069  1.5394 -0.2589  0.0118
 9539SOL    HW240251   2.639   3.030   8.958 -0.3525 -1.0448 -0.9045
 9540SOL     OW40252   4.572   0.120   5.752 -0.6080  0.0809 -0.0347
 9540SOL    HW140253   4.536   0.076   5.829  1.5182 -0.3256  0.7402
 9540SOL    HW240254   4.578   0.063   5.675  0.9798  1.2633 -0.7954
 9541SOL     OW40255   2.393   3.687  11.478 -0.2971  1.0971  0.1457
 9541SOL    HW140256   2.487   3.702  11.489 -0.2389  0.1131  0.9892
 9541SOL    HW240257   2.377   3.756  11.414  0.6174  0.4645 -0.7687
 9542SOL     OW40258   2.831   0.265   8.093  0.4585 -0.0878 -0.7700
 9542SOL    HW140259   2.906   0.208   8.111  2.7372  3.6369  1.3920
 9542SOL    HW240260   2.768   0.202   8.056 -0.3573  0.8615 -0.9948
 9543SOL     OW40261   2.029   2.178  12.907 -0.1106  0.2214 -0.1594
 9543SOL    HW140262   2.004   2.270  12.896  0.9461  0.6094  0.6028
 9543SOL    HW240263   1.946   2.131  12.905 -0.6445  1.1269  0.9596
 9544SOL     OW40264   2.014   4.089   2.621 -0.4849  0.1864  0.3572
 9544SOL    HW140265   1.964   4.103   2.701  1.2109 -1.5022  1.7315
 9544SOL    HW240266   2.101   4.076   2.660 -0.0621 -0.5871 -0.8091
 9545SOL     OW40267   3.143   2.765  13.795  0.4158  0.0093 -0.4818
 9545SOL    HW140268   3.230   2.804  13.786  2.1241 -4.0775 -1.6857
 9545SOL    HW240269   3.132   2.774  13.890 -0.8036 -1.2210 -0.5082
 9546SOL     OW40270   2.168   2.781   9.140 -0.2862 -0.1179  0.0183
 9546SOL    HW140271   2.223   2.838   9.086  1.4254 -3.1594 -1.3956
 9546SOL    HW240272   2.188   2.822   9.225  0.2653  2.8695 -1.5484
 9547SOL     OW40273   0.951   3.086  17.499 -0.1363  0.5976 -0.1109
 9547SOL    HW140274   0.921   3.066  17.587 -1.2305 -3.2764 -1.3541
 9547SOL    HW240275   0.947   2.994  17.473 -3.3556  0.8403 -0.4561
 9548SOL     OW40276   3.375   0.644  11.303  0.6623 -0.9150 -0.0272
 9548SOL    HW140277   3.425   0.687  11.372  1.4021 -3.5560  1.0489
 9548SOL    HW240278   3.403   0.553  11.304  2.3786 -0.3662  1.0423
 9549SOL     OW40279   3.418   2.610   1.049  0.3515  0.2247  0.1851
 9549SOL    HW140280   3.328   2.605   1.016 -0.4692  0.2295  2.4442
 9549SOL    HW240281   3.460   2.530   1.018  0.9634 -0.0357  1.6936
 9550SOL     OW40282   3.246   2.506   6.761  0.0969 -0.0933  0.3449
 9550SOL    HW140283   3.188   2.547   6.824  0.3434 -0.0577  0.5490
 9550SOL    HW240284   3.227   2.414   6.778 -0.1962 -0.0929  0.0095
 9551SOL     OW40285   0.412   3.478  11.597  0.5467 -0.0900 -0.1299
 9551SOL    HW140286   0.360   3.527  11.533 -0.9725 -0.7576  0.5929
 9551SOL    HW240287   0.451   3.414  11.537  0.1759 -0.0861 -0.3773
 9552SOL     OW40288   0.714   1.261   6.498  0.4403 -0.7852  0.2278
 9552SOL    HW140289   0.647   1.197   6.521  0.4106 -1.2599 -1.2186
 9552SOL    HW240290   0.715   1.254   6.403 -2.3834  2.8729 -0.0714
 9553SOL     OW40291   1.746   2.918   0.221  0.2048 -0.4292  0.2115
 9553SOL    HW140292   1.763   2.920   0.127  1.2872 -0.0621  0.4241
 9553SOL    HW240293   1.656   2.886   0.212  0.1386  0.2791 -1.4861
 9554SOL     OW40294   3.060   2.698   2.593  0.6234 -0.2631  0.6168
 9554SOL    HW140295   3.101   2.778   2.559  0.4336 -0.4920 -0.1484
 9554SOL    HW240296   3.005   2.685   2.516  0.7464 -2.7844  0.9495
 9555SOL     OW40297   0.344   3.170   8.734  0.4837  0.4868 -0.0394
 9555SOL    HW140298   0.256   3.137   8.717  1.4232 -1.9113 -0.2717
 9555SOL    HW240299   0.335   3.191   8.827 -0.7310 -1.3433  0.2466
 9556SOL     OW40300   4.428   0.359   2.511 -0.0421 -0.6002  0.0313
 9556SOL    HW140301   4.409   0.337   2.420  0.4213 -2.8116  0.4714
 9556SOL    HW240302   4.392   0.447   2.522  1.2670 -0.1739  0.8379
 9557SOL     OW40303   0.841   1.744   6.143  0.1482  0.3303 -0.0505
 9557SOL    HW140304   0.898   1.715   6.214 -0.3619 -1.1860 -0.2636
 9557SOL    HW240305   0.869   1.835   6.133 -0.5121  0.6719  1.2612
 9558SOL     OW40306   0.896   1.441   8.505 -0.1911 -0.1011  0.0360
 9558SOL    HW140307   0.889   1.362   8.451 -3.1237  1.0965 -1.3495
 9558SOL    HW240308   0.953   1.414   8.577  1.2903  0.5147 -0.8827
 9559SOL     OW40309   3.483   4.505   2.884 -0.2437 -0.3719  0.8911
 9559SOL    HW140310   3.449   4.594   2.890 -0.7253 -0.5152  0.1695
 9559SOL    HW240311   3.400   4.459   2.893 -0.2458  0.0025  3.0198
 9560SOL     OW40312   0.675   0.486   6.812 -0.1682 -0.8354  0.4970
 9560SOL    HW140313   0.739   0.528   6.869  0.3175  1.0425 -1.4029
 9560SOL    HW240314   0.620   0.563   6.796 -1.1648 -1.4563  1.0296
 9561SOL     OW40315   2.687   2.429   2.819 -0.0413 -0.1373  0.0764
 9561SOL    HW140316   2.703   2.388   2.734 -0.7061  0.3622 -0.2963
 9561SOL    HW240317   2.728   2.373   2.885 -0.3833 -1.8303 -1.1642
 9562SOL     OW40318   1.369   3.839   3.252  0.0871  0.3691  0.7765
 9562SOL    HW140319   1.445   3.856   3.308  0.3494  2.2309 -0.1058
 9562SOL    HW240320   1.341   3.929   3.232  0.5575  0.3053 -0.1894
 9563SOL     OW40321   0.584   0.558  13.562  0.3870  0.3178  0.3064
 9563SOL    HW140322   0.492   0.583  13.566  0.6666  1.3813  0.0082
 9563SOL    HW240323   0.575   0.468  13.593 -0.3738  0.3553  0.2016
 9564SOL     OW40324   3.642   3.108   0.277  0.6343 -0.1845  0.0970
 9564SOL    HW140325   3.577   3.130   0.210  1.7836  0.0484 -0.9466
 9564SOL    HW240326   3.610   3.160   0.350  0.0860  0.9962 -0.9775
 9565SOL     OW40327   1.770   2.004   7.839 -0.1148  0.0958 -0.0375
 9565SOL    HW140328   1.836   2.009   7.769  1.7195 -0.4095  1.6554
 9565SOL    HW240329   1.803   1.930   7.889  0.3093  1.0990  1.1758
 9566SOL     OW40330   2.437   1.676   9.056 -0.8785 -0.3538 -0.6711
 9566SOL    HW140331   2.494   1.656   8.982  0.4203 -0.8799  0.4929
 9566SOL    HW240332   2.469   1.765   9.069  1.5225 -1.0083 -2.2103
 9567SOL     OW40333   1.753   3.049   2.046 -0.0773  0.5448 -0.2892
 9567SOL    HW140334   1.708   2.969   2.073  0.3960  0.2937 -0.2480
 9567SOL    HW240335   1.767   3.026   1.955  0.6458 -0.2511  0.0291
 9568SOL     OW40336   3.506   3.927   4.240 -0.5352  0.2880 -0.7739
 9568SOL    HW140337   3.579   3.973   4.281  0.1845 -0.9984 -0.6268
 9568SOL    HW240338   3.438   3.994   4.238  0.0794  0.8921 -1.3184
 9569SOL     OW40339   2.371   3.542   7.190 -0.0248 -0.4607  0.5166
 9569SOL    HW140340   2.419   3.459   7.193  0.9094  0.1113  1.4048
 9569SOL    HW240341   2.323   3.530   7.272 -0.2026  3.3808  0.9882
 9570SOL     OW40342   3.835   3.164   9.186 -0.1279  0.1763 -0.5865
 9570SOL    HW140343   3.909   3.121   9.228  0.8526  1.1900 -1.2725
 9570SOL    HW240344   3.762   3.110   9.217  0.5372 -1.4002 -1.7987
 9571SOL     OW40345   4.535   0.595   3.133 -0.0461 -0.4184 -0.5813
 9571SOL    HW140346   4.546   0.556   3.047 -0.1884  0.9014 -1.1991
 9571SOL    HW240347   4.578   0.529   3.188  2.1496  0.9516 -0.6725
   4.73793   4.73793  17.74983
