Membrane in water
40347
    1TMC1    C1    1   3.100   3.282  11.543  0.2557 -1.2563  0.5747
    1TMC1    C2    2   3.213   3.284  11.461 -0.5821  0.1101 -0.1253
    1TMC1    C3    3   3.240   3.399  11.392  0.2771 -0.0323 -0.7302
    1TMC1    C4    4   3.017   3.388  11.551 -0.5192 -1.0828  0.3903
    1TMC1    C5    5   3.038   3.494  11.466  0.1887  0.4197 -0.4743
    1TMC1    C6    6   3.154   3.503  11.394 -0.2375  0.0020  0.3889
    1TMC1     C    7   3.050   3.158  11.601  0.5226 -0.4771  0.0037
    1TMC1     O    8   2.930   3.150  11.616 -0.1554 -0.2123 -0.4961
    1TMC1     H    9   3.277   3.198  11.445 -0.3513  0.3193 -0.3342
    1TMC1    H1   10   2.936   3.381  11.623  1.0994 -0.0333  2.3182
    1TMC1    H2   11   3.182   3.581  11.323 -1.2426  0.2887  0.3116
    1TMC1    C7   12   2.938   3.598  11.470 -0.4093 -0.1496  0.4038
    1TMC1    C8   13   3.323   3.366  11.278  0.0925 -0.1467  0.1426
    1TMC1    O1   14   2.883   3.617  11.579  0.4839 -0.0347  0.4881
    1TMC1    O2   15   3.412   3.279  11.280 -0.7408  0.1690 -0.7732
    1TMC1    O3   16   2.919   3.667  11.351  0.0135 -0.4680  0.4093
    1TMC1    H3   17   2.979   3.645  11.276 -2.9421  1.2887 -2.4361
    1TMC1    O5   18   3.258   3.402  11.162  0.3880 -0.2673  0.1164
    1TMC1    H5   19   3.177   3.456  11.173  0.3949  0.0360 -1.2922
    2MPD2     C   20   3.112   2.666  11.747 -0.3386  0.2036 -0.7404
    2MPD2    C1   21   3.003   2.745  11.755 -0.2566 -0.0450  0.0859
    2MPD2    C2   22   3.008   2.875  11.712 -0.5001  0.0971 -0.0691
    2MPD2    C3   23   3.125   2.922  11.654 -0.6723 -0.0717 -0.2600
    2MPD2    C4   24   3.234   2.846  11.652 -0.5741  0.3444 -0.0226
    2MPD2    C5   25   3.230   2.716  11.697 -0.7112 -0.5262  1.0098
    2MPD2     H   26   2.928   2.947  11.725 -0.3894 -0.0731  1.6204
    2MPD2    H1   27   3.323   2.886  11.605 -0.4813 -2.0776 -1.9090
    2MPD2    H2   28   3.108   2.561  11.773 -2.2388 -0.0577 -2.0701
    2MPD2    H3   29   3.320   2.656  11.688 -0.0465  0.1332  3.1225
    2MPD2     N   30   3.144   3.054  11.612 -0.1136  0.1847  0.5286
    2MPD2    H5   31   3.240   3.071  11.586  0.3681 -0.6299  1.7569
    2MPD2    N1   32   2.887   2.709  11.822  0.1218 -0.0742  0.1150
    2MPD2    H7   33   2.821   2.786  11.816  0.0260 -0.4116 -2.9181
    3TMC1    C1   34   2.139   3.519  10.282  0.3261  0.4933  0.1806
    3TMC1    C2   35   2.227   3.416  10.311  0.2394  0.3918 -0.1179
    3TMC1    C3   36   2.357   3.427  10.264  0.2511 -0.5200  0.4475
    3TMC1    C4   37   2.178   3.631  10.212 -0.4596 -0.0079  0.2003
    3TMC1    C5   38   2.304   3.630  10.164 -0.0351 -0.2354 -0.1260
    3TMC1    C6   39   2.401   3.534  10.185 -0.5793 -0.0112  0.3528
    3TMC1     C   40   2.011   3.523  10.348 -0.8900 -0.5606  0.1383
    3TMC1     O   41   1.945   3.422  10.378 -0.1451  0.2489 -0.0009
    3TMC1     H   42   2.185   3.330  10.362  0.0136  0.7911  0.3747
    3TMC1    H1   43   2.101   3.696  10.172 -0.5406 -0.6440 -0.6597
    3TMC1    H2   44   2.502   3.548  10.148 -0.6937 -3.8879 -1.4985
    3TMC1    C7   45   2.342   3.732  10.068  0.6272 -0.4068  0.1926
    3TMC1    C8   46   2.454   3.329  10.320 -0.0596 -0.0519 -0.0840
    3TMC1    O1   47   2.432   3.712   9.986 -0.3320 -0.1022 -0.3865
    3TMC1    O2   48   2.416   3.209  10.319  0.2365 -0.5881  0.2579
    3TMC1    O3   49   2.304   3.847  10.124  0.7890  0.8316  0.1459
    3TMC1    H3   50   2.231   3.834  10.188 -0.3892  1.0086 -1.1585
    3TMC1    O5   51   2.576   3.375  10.283 -0.5871  0.6003  0.1839
    3TMC1    H5   52   2.594   3.465  10.319 -0.2213  0.9954 -0.9949
    4MPD2     C   53   1.645   3.772  10.607  0.1391  0.2992  0.2076
    4MPD2    C1   54   1.738   3.860  10.559  0.0118  1.1027  0.1205
    4MPD2    C2   55   1.848   3.816  10.492  0.7709 -0.6804 -0.0294
    4MPD2    C3   56   1.860   3.683  10.453 -0.0928 -0.8315  0.3759
    4MPD2    C4   57   1.768   3.597  10.502  0.2712  0.2449  0.4700
    4MPD2    C5   58   1.664   3.639  10.575  1.1128 -0.3295 -0.1210
    4MPD2     H   59   1.924   3.891  10.472 -0.7851  0.9964  0.2937
    4MPD2    H1   60   1.772   3.490  10.489 -0.3889  0.2244  0.4127
    4MPD2    H2   61   1.550   3.806  10.645  1.1435  2.1991  1.0282
    4MPD2    H3   62   1.585   3.574  10.611  0.9044  0.4949  0.9119
    4MPD2     N   63   1.976   3.649  10.381 -0.1159 -0.7095  0.4936
    4MPD2    H5   64   2.033   3.732  10.371 -0.8903 -0.3997 -1.2957
    4MPD2    N1   65   1.732   4.006  10.581  0.0906 -0.4584 -0.4226
    4MPD2    H7   66   1.812   4.056  10.545 -0.2500 -0.7043 -1.5279
    5TCq1    O1   67   2.211   0.824  11.323 -0.2209 -0.1947 -0.0096
    5TCq1    C1   68   2.129   0.728  11.371 -0.0060  0.2536 -0.1967
    5TCq1    O2   69   2.085   0.718  11.486  0.3303 -0.0258  0.7996
    5TCq1    C2   70   2.094   0.638  11.265  0.7188  0.3381 -0.2014
    5TCq1    C3   71   1.980   0.568  11.285  0.0572 -0.4619 -0.2755
    5TCq1    C4   72   1.944   0.476  11.187  0.2798 -0.2682 -0.3161
    5TCq1    C5   73   2.034   0.444  11.092 -0.3514 -0.0086  0.4815
    5TCq1    C6   74   2.152   0.510  11.081 -0.3927  0.1986 -0.3574
    5TCq1    C7   75   2.180   0.619  11.161  0.3652 -0.2753  0.3857
    5TCq1    C8   76   2.215   0.504  10.959  0.6735  0.2939  0.0956
    5TCq1    O4   77   2.326   0.545  10.937 -0.0483  0.4573 -0.1235
    5TCq1    C9   78   1.821   0.406  11.193 -0.4523  0.3633 -0.0739
    5TCq1    O5   79   1.740   0.441  11.282 -0.1813 -0.0108  0.0045
    5TCq1    O6   80   1.804   0.327  11.095 -0.1311 -0.3998 -0.4335
    5TCq1    H1   81   2.223   0.814  11.226  1.7602  0.2916  0.2021
    5TCq1    H2   82   1.923   0.595  11.374 -0.2223  2.2059 -1.2741
    5TCq1    H3   83   2.016   0.352  11.037  0.1198 -0.7756  1.6222
    5TCq1    H4   84   2.282   0.654  11.159 -0.8199  3.1338 -0.1433
    6MPD2     C   85   2.035   0.489  10.641  0.1375 -0.1479 -0.7740
    6MPD2    C1   86   2.148   0.489  10.727  0.0749 -0.0294  0.1899
    6MPD2    C2   87   2.273   0.442  10.673  0.8612  0.2036  0.1714
    6MPD2    C3   88   2.290   0.420  10.534 -0.5528  0.6444 -0.0573
    6MPD2    C4   89   2.183   0.436  10.448  0.7612 -0.6213  1.0411
    6MPD2    C5   90   2.062   0.464  10.507 -0.3691  0.2275 -0.2388
    6MPD2     H   91   2.358   0.407  10.731  1.0452 -1.1225 -0.8886
    6MPD2    H1   92   2.181   0.426  10.340  2.6432 -0.7262  1.0020
    6MPD2    H2   93   1.934   0.510  10.674  0.6184 -1.0163  1.2212
    6MPD2    H3   94   1.983   0.465  10.433 -1.7012  1.5499  1.1941
    6MPD2     N   95   2.415   0.377  10.489 -0.0797  0.1841  0.2734
    6MPD2    H5   96   2.492   0.385  10.554  1.2011 -0.0251 -1.2292
    6MPD2    N1   97   2.119   0.490  10.869 -0.6953 -0.1188 -0.1225
    6MPD2    H7   98   2.022   0.494  10.898 -0.3232 -1.3153  1.2923
    7TCq1    O1   99   4.412   0.344  13.127 -0.0585  0.7586 -0.2090
    7TCq1    C1  100   4.515   0.349  13.042 -0.4417  0.3541 -0.1988
    7TCq1    O2  101   4.628   0.388  13.068 -0.4961 -0.2194 -0.5424
    7TCq1    C2  102   4.489   0.252  12.937 -0.0397 -0.1203  0.1158
    7TCq1    C3  103   4.359   0.235  12.893 -0.3073 -0.1189  0.0418
    7TCq1    C4  104   4.335   0.122  12.818  0.4177 -0.5830  0.0130
    7TCq1    C5  105   4.430   0.029  12.792  0.1664 -0.4592  0.9214
    7TCq1    C6  106   4.551   0.046  12.842  0.2875  0.5067 -0.3038
    7TCq1    C7  107   4.590   0.157  12.914  0.5770  0.7688  0.3437
    7TCq1    C8  108   4.615   4.656  12.876  0.0139  0.0487  0.1495
    7TCq1    O4  109   4.572   4.555  12.817  0.3535  0.1229 -0.3339
    7TCq1    C9  110   4.208   0.099  12.775 -0.1769  0.2613 -0.3655
    7TCq1    O5  111   4.160   4.721  12.769  0.2944  0.0241 -0.0423
    7TCq1    O6  112   4.143   0.202  12.761 -0.8736  0.7116 -0.4073
    7TCq1    H1  113   4.357   0.263  13.121 -1.0473  1.3531  0.9436
    7TCq1    H2  114   4.285   0.308  12.921 -2.5337 -1.5848 -1.9260
    7TCq1    H3  115   4.403   4.674  12.740  1.8636 -0.1789 -0.4441
    7TCq1    H4  116   4.683   0.166  12.969  1.9838  0.1786 -1.9240
    8MPD2     C  117   0.091   4.353  13.240 -0.1519 -0.0723  0.0755
    8MPD2    C1  118   0.006   4.319  13.135 -0.7566 -0.3318  0.1691
    8MPD2    C2  119   4.704   4.419  13.048  0.1858 -0.5926  0.0478
    8MPD2    C3  120   0.016   4.550  13.060  0.0269 -0.0073 -0.1069
    8MPD2    C4  121   0.105   4.583  13.162  0.1199 -0.3646  0.0083
    8MPD2    C5  122   0.137   4.483  13.256 -0.3788  0.4173  0.5603
    8MPD2     H  123   4.652   4.386  12.958 -0.7934  0.1172  0.3472
    8MPD2    H1  124   0.154   4.678  13.179  0.4060 -0.3273 -1.0467
    8MPD2    H2  125   0.119   4.290  13.324 -2.8408 -0.4956  0.6849
    8MPD2    H3  126   0.211   4.496  13.334  1.5319 -0.6431 -1.0759
    8MPD2     N  127   4.701   4.661  12.983 -0.0914  0.3266 -0.2134
    8MPD2    H5  128   4.727   0.020  13.006 -2.6636  0.7381  1.0677
    8MPD2    N1  129   4.698   4.190  13.130 -0.0772  0.4552  0.3052
    8MPD2    H7  130   4.729   4.131  13.207 -0.7690 -0.7778 -0.3474
    9TMC1    C1  131   2.485   4.140  11.142  0.2078  0.0168 -0.1817
    9TMC1    C2  132   2.378   4.059  11.147  0.0937  0.1364 -0.4327
    9TMC1    C3  133   2.344   3.992  11.027  0.2161  0.2365 -0.5254
    9TMC1    C4  134   2.538   4.177  11.019 -0.2542  0.1556 -0.3905
    9TMC1    C5  135   2.506   4.100  10.909 -0.1622  0.3095 -0.8072
    9TMC1    C6  136   2.408   4.003  10.906 -0.6509 -0.3085 -0.0529
    9TMC1     C  137   2.543   4.192  11.266 -0.8391  0.2751 -0.4453
    9TMC1     O  138   2.628   4.277  11.257  0.4813 -0.5185  0.4468
    9TMC1     H  139   2.315   4.047  11.234  1.9488  0.0030  0.8836
    9TMC1    H1  140   2.615   4.253  11.022 -0.6904  0.5049  2.2000
    9TMC1    H2  141   2.385   3.959  10.809 -2.4117 -0.1170  0.2910
    9TMC1    C7  142   2.569   4.121  10.785  0.4475  0.0346  0.3796
    9TMC1    C8  143   2.253   3.883  11.044 -0.3579  0.1023 -0.2950
    9TMC1    O1  144   2.508   4.156  10.684  0.2001  0.2549 -0.2308
    9TMC1    O2  145   2.169   3.877  11.132  0.2024 -0.4788 -0.2457
    9TMC1    O3  146   2.687   4.172  10.827 -0.5904  0.3761 -0.2619
    9TMC1    H3  147   2.713   4.149  10.918 -0.5864 -2.3812 -0.9785
    9TMC1    O5  148   2.294   3.786  10.959 -0.3694  0.0811 -0.3321
    9TMC1    H5  149   2.372   3.793  10.900  0.9579 -1.9300  1.2106
   10MPD2     C  150   2.641   4.226  11.535  0.7299  0.5261  0.1923
   10MPD2    C1  151   2.567   4.110  11.498  0.0660  0.4394  0.7836
   10MPD2    C2  152   2.536   4.021  11.600 -0.4271  1.2541  0.2102
   10MPD2    C3  153   2.590   4.032  11.727  0.1263 -0.0206 -0.2131
   10MPD2    C4  154   2.672   4.145  11.757 -0.0145  0.1753  0.1863
   10MPD2    C5  155   2.682   4.242  11.665  0.1589 -0.0315 -0.1747
   10MPD2     H  156   2.491   3.923  11.587  0.5393  0.5086  2.6172
   10MPD2    H1  157   2.705   4.156  11.860  2.7168 -1.7027 -0.4784
   10MPD2    H2  158   2.659   4.312  11.472  0.7086 -0.5536 -1.2927
   10MPD2    H3  159   2.722   4.335  11.704 -3.9271  1.9562 -0.7830
   10MPD2     N  160   2.566   3.936  11.833 -0.0306  0.1112 -0.0267
   10MPD2    H5  161   2.629   3.945  11.912 -2.9722  0.7847  2.2641
   10MPD2    N1  162   2.512   4.105  11.366  0.5177  0.2884 -0.1729
   10MPD2    H7  163   2.452   4.025  11.348 -2.3756  2.4553 -0.1712
   11TCq1    O1  164   3.069   3.567  14.163 -0.6300  0.1646  0.1277
   11TCq1    C1  165   3.022   3.453  14.211  0.0721 -0.1688 -0.8318
   11TCq1    O2  166   2.909   3.444  14.254 -0.4259 -0.8687 -0.9652
   11TCq1    C2  167   3.083   3.346  14.130 -0.0924 -0.2051  0.1899
   11TCq1    C3  168   3.193   3.372  14.056 -0.3836  0.2264 -0.6753
   11TCq1    C4  169   3.234   3.275  13.965  0.4817 -0.3266 -0.3904
   11TCq1    C5  170   3.159   3.163  13.948 -0.1684  0.1563  0.1256
   11TCq1    C6  171   3.045   3.145  14.026  0.2342 -0.7557  0.3106
   11TCq1    C7  172   3.002   3.236  14.121 -0.2918 -0.3018 -0.6186
   11TCq1    C8  173   2.976   3.015  14.015 -0.0378 -0.1046 -0.3544
   11TCq1    O4  174   2.943   2.966  14.121  0.8404 -0.4974  0.4615
   11TCq1    C9  175   3.357   3.301  13.885  0.0976 -0.1112  0.1588
   11TCq1    O5  176   3.424   3.401  13.910 -1.3720  0.4154  0.4538
   11TCq1    O6  177   3.404   3.212  13.812 -0.4153 -0.4010 -0.3660
   11TCq1    H1  178   3.166   3.559  14.176 -0.9186 -2.4781  0.5662
   11TCq1    H2  179   3.243   3.468  14.047  1.8826 -0.9816 -0.9424
   11TCq1    H3  180   3.200   3.083  13.887 -1.0184  0.5645 -0.9762
   11TCq1    H4  181   2.919   3.209  14.184  0.1282  0.2074  0.1573
   12MPD2     C  182   2.974   2.730  13.942 -0.3883 -0.1811  0.5883
   12MPD2    C1  183   2.968   2.829  13.848 -0.5170  0.1686 -0.0392
   12MPD2    C2  184   2.963   2.796  13.716  0.0184 -0.5506 -0.3238
   12MPD2    C3  185   2.978   2.664  13.669 -0.2213 -0.4842 -0.6583
   12MPD2    C4  186   2.991   2.569  13.766  0.4823 -0.2754 -0.5318
   12MPD2    C5  187   2.991   2.604  13.899  0.2187 -0.2015 -0.0561
   12MPD2     H  188   2.965   2.877  13.643  0.4379  0.1334  0.4521
   12MPD2    H1  189   3.001   2.464  13.740 -1.6142 -0.4103 -0.7426
   12MPD2    H2  190   2.981   2.748  14.049  1.7793  0.5740  0.3380
   12MPD2    H3  191   2.998   2.518  13.964 -1.8485 -0.1180  0.2485
   12MPD2     N  192   2.978   2.619  13.537  0.1982 -0.1051 -0.1619
   12MPD2    H5  193   3.016   2.525  13.526  0.5114  0.0998 -0.7801
   12MPD2    N1  194   2.968   2.965  13.884  0.3765  0.0755  0.3591
   12MPD2    H7  195   2.969   3.028  13.804  1.0505 -0.4981 -0.0851
   13TCq1    O1  196   2.957   3.095  11.300  0.3674  0.2744  0.2237
   13TCq1    C1  197   2.830   3.120  11.292 -0.1799  0.2540 -0.4567
   13TCq1    O2  198   2.746   3.035  11.310 -0.4393 -0.4796  0.6059
   13TCq1    C2  199   2.809   3.220  11.183  0.2746 -0.2735 -0.8433
   13TCq1    C3  200   2.888   3.326  11.180 -0.1914 -0.3376  0.1031
   13TCq1    C4  201   2.854   3.431  11.092  0.4925 -0.0387  0.1671
   13TCq1    C5  202   2.737   3.421  11.016  0.4718  0.0841 -0.1592
   13TCq1    C6  203   2.659   3.308  11.033 -1.2190  1.0004 -0.9079
   13TCq1    C7  204   2.693   3.202  11.115  0.9797  0.3502  0.7311
   13TCq1    C8  205   2.523   3.309  10.977 -0.0292 -0.1627  0.3614
   13TCq1    O4  206   2.473   3.417  10.946  0.5232 -0.1132 -0.3747
   13TCq1    C9  207   2.932   3.549  11.075 -0.4919 -0.8422  0.3214
   13TCq1    O5  208   3.036   3.561  11.143  0.1857  0.3195  0.3518
   13TCq1    O6  209   2.894   3.633  10.991 -0.0018  0.0347  0.0558
   13TCq1    H1  210   2.977   3.003  11.329 -2.4927  0.0740  1.5305
   13TCq1    H2  211   2.981   3.331  11.237  1.0087 -0.6514 -1.8283
   13TCq1    H3  212   2.703   3.491  10.940  0.6150  0.4373  0.1021
   13TCq1    H4  213   2.630   3.117  11.137  0.4559  0.5020 -0.1630
   14MPD2     C  214   2.332   3.007  10.899 -0.2869 -0.9534 -0.0644
   14MPD2    C1  215   2.355   3.140  10.932 -0.4932 -0.0981  0.1042
   14MPD2    C2  216   2.251   3.231  10.955 -0.5219  0.4117 -0.8081
   14MPD2    C3  217   2.117   3.189  10.945 -0.0471  0.2288 -0.6530
   14MPD2    C4  218   2.095   3.060  10.906 -0.7509 -0.0121 -0.3537
   14MPD2    C5  219   2.199   2.976  10.874  0.3339  0.0397 -0.2787
   14MPD2     H  220   2.257   3.337  10.981  0.4675  0.6937 -2.1824
   14MPD2    H1  221   1.996   3.021  10.883 -1.6129  0.6799  2.1736
   14MPD2    H2  222   2.402   2.924  10.894  0.6665 -0.1962  0.7480
   14MPD2    H3  223   2.165   2.876  10.848 -1.0924  0.1519  1.1894
   14MPD2     N  224   2.015   3.280  10.973 -0.0654  0.0282  0.2466
   14MPD2    H5  225   2.037   3.374  11.003 -0.5292  0.5123 -0.9236
   14MPD2    N1  226   2.486   3.178  10.963 -0.0128 -1.1534 -0.0034
   14MPD2    H7  227   2.562   3.112  10.968 -0.1412 -1.1930  1.3882
   15TCq1    O1  228   3.788   2.191   1.515 -0.3102 -0.6271  0.4915
   15TCq1    C1  229   3.823   2.075   1.451 -0.1685  0.1692 -0.4008
   15TCq1    O2  230   3.750   2.006   1.381  0.1735 -0.3873  0.2689
   15TCq1    C2  231   3.933   2.019   1.515  0.4737  0.3206 -0.0325
   15TCq1    C3  232   4.037   2.100   1.562 -0.5189  0.2860 -0.1316
   15TCq1    C4  233   4.158   2.041   1.587  0.3933 -0.1741  0.1162
   15TCq1    C5  234   4.180   1.915   1.568  0.2225  0.5045 -0.0652
   15TCq1    C6  235   4.081   1.834   1.517 -0.3245  0.3367 -0.6405
   15TCq1    C7  236   3.960   1.888   1.486  0.4633 -0.7375  0.0747
   15TCq1    C8  237   4.119   1.696   1.468  0.0433  0.3440  0.0851
   15TCq1    O4  238   4.225   1.651   1.500  0.1871 -0.2005 -0.0126
   15TCq1    C9  239   4.262   2.126   1.630 -0.3685  0.4692 -0.7266
   15TCq1    O5  240   4.379   2.078   1.647 -0.2986 -0.9994 -0.0851
   15TCq1    O6  241   4.238   2.247   1.609  0.0086  0.2640 -0.0112
   15TCq1    H1  242   3.844   2.220   1.590  0.1777 -1.5538  0.4903
   15TCq1    H2  243   4.019   2.207   1.566 -0.6201  0.3163 -1.2389
   15TCq1    H3  244   4.280   1.877   1.585 -1.0709 -1.6221  2.6978
   15TCq1    H4  245   3.880   1.832   1.437 -0.9697  1.3805  0.0107
   16MPD2     C  246   3.951   1.511   1.190 -0.0609 -0.1421  0.5959
   16MPD2    C1  247   4.051   1.540   1.282 -0.5121  0.0674  0.3083
   16MPD2    C2  248   4.170   1.472   1.270  0.1101  0.2382 -0.4883
   16MPD2    C3  249   4.182   1.372   1.172  0.1244 -0.6269 -0.2561
   16MPD2    C4  250   4.072   1.329   1.097  0.1122 -0.3116  0.7987
   16MPD2    C5  251   3.959   1.408   1.106  0.1092  0.4864 -0.3172
   16MPD2     H  252   4.259   1.525   1.301  1.0249 -1.8534  0.5018
   16MPD2    H1  253   4.067   1.238   1.039  4.0233 -0.6817  1.0374
   16MPD2    H2  254   3.857   1.566   1.198  0.1095  0.7255 -3.2611
   16MPD2    H3  255   3.870   1.374   1.056 -1.5573  1.8268  1.7643
   16MPD2     N  256   4.303   1.301   1.175  0.2620 -0.1249 -0.3567
   16MPD2    H5  257   4.377   1.331   1.239 -1.8308  1.1424  1.4515
   16MPD2    N1  258   4.035   1.656   1.364 -0.6735 -0.2418 -0.0832
   16MPD2    H7  259   3.966   1.719   1.326 -1.2939 -0.5287  0.5664
   17TMC1    C1  260   2.147   2.296  11.917 -0.3815 -0.3659 -0.0157
   17TMC1    C2  261   2.219   2.182  11.891  0.3367  0.9821  0.7530
   17TMC1    C3  262   2.173   2.070  11.939 -0.0222  0.7306 -0.6679
   17TMC1    C4  263   2.035   2.293  11.999  0.4981  0.0812  0.2979
   17TMC1    C5  264   2.006   2.175  12.051 -0.2816  0.2148  0.1305
   17TMC1    C6  265   2.067   2.058  12.017  0.1365  0.8353 -0.7807
   17TMC1     C  266   2.180   2.430  11.855  0.4177 -0.7276 -0.4489
   17TMC1     O  267   2.124   2.525  11.891 -0.0921 -0.3177 -0.3069
   17TMC1     H  268   2.316   2.189  11.842  0.4002  0.4887  0.8085
   17TMC1    H1  269   1.973   2.382  11.999 -1.0774 -1.0226 -1.6495
   17TMC1    H2  270   2.048   1.962  12.062  2.5365  1.0261  0.6088
   17TMC1    C7  271   1.892   2.166  12.138  0.4359 -0.3553 -0.1350
   17TMC1    C8  272   2.256   1.952  11.910  0.2969 -0.1258  1.1605
   17TMC1    O1  273   1.843   2.057  12.162 -0.5002  0.3346 -0.2062
   17TMC1    O2  274   2.259   1.852  11.977 -0.3069 -1.0708 -0.4917
   17TMC1    O3  275   1.887   2.273  12.223 -0.2824 -0.1690 -0.2906
   17TMC1    H3  276   1.946   2.349  12.202  0.6678 -0.3965  1.5240
   17TMC1    O5  277   2.295   1.958  11.776 -0.2129 -0.6218  0.1490
   17TMC1    H5  278   2.257   2.033  11.726 -1.1020 -0.2905  1.3428
   18MPD2     C  279   2.283   2.658  11.692 -0.2592  0.5412 -0.0736
   18MPD2    C1  280   2.346   2.537  11.704 -1.0052 -0.0794 -0.1301
   18MPD2    C2  281   2.462   2.505  11.635  0.3625 -0.9212 -0.4679
   18MPD2    C3  282   2.523   2.606  11.565 -0.1393  0.3967 -0.3598
   18MPD2    C4  283   2.469   2.731  11.572  0.2018 -0.2054  0.2745
   18MPD2    C5  284   2.346   2.753  11.623  0.1728  0.4368 -0.1799
   18MPD2     H  285   2.514   2.415  11.666 -2.6221 -2.1176  1.0640
   18MPD2    H1  286   2.510   2.809  11.508  0.2842  0.7476  1.4877
   18MPD2    H2  287   2.188   2.688  11.735 -0.0522  1.5698 -0.3376
   18MPD2    H3  288   2.300   2.851  11.613  0.4023  0.5749  0.1105
   18MPD2     N  289   2.652   2.602  11.515 -0.2631  0.3615  0.8983
   18MPD2    H5  290   2.694   2.687  11.478 -2.0535 -0.1003 -2.1964
   18MPD2    N1  291   2.291   2.424  11.769 -0.2684  0.0412 -0.4032
   18MPD2    H7  292   2.325   2.331  11.745  0.4227  0.1787  0.0300
   19TMC2    C1  293   3.955   3.272  13.935  0.4212 -0.2047  0.8026
   19TMC2    C2  294   3.886   3.331  14.038 -0.1382  0.1193 -0.2540
   19TMC2    C3  295   3.747   3.303  14.048  0.4188  0.7357  0.0675
   19TMC2    C4  296   3.897   3.183  13.852 -1.0963  0.6460 -0.2542
   19TMC2    C5  297   3.765   3.150  13.874  0.4596 -0.0648 -0.1498
   19TMC2    C6  298   3.685   3.212  13.966  0.2870  0.4502  0.0682
   19TMC2     C  299   4.101   3.281  13.924  0.4081 -0.0884  0.1673
   19TMC2     O  300   4.141   3.324  13.814 -0.5615 -0.1752 -0.0455
   19TMC2     H  301   3.929   3.400  14.109  0.5482  1.4918 -2.0313
   19TMC2    H1  302   3.967   3.140  13.782  1.1283  1.9970  1.1181
   19TMC2    H2  303   3.579   3.190  13.973  0.5083  0.3569  3.0285
   19TMC2    C7  304   3.726   3.022  13.820 -0.1509 -0.7782  0.1761
   19TMC2    C8  305   3.682   3.346  14.166  0.3230  0.7365 -0.0234
   19TMC2    O1  306   3.821   2.948  13.791 -0.1681  0.4603 -0.5573
   19TMC2    O2  307   3.724   3.371  14.277  0.0289 -0.1511 -0.1616
   19TMC2    O5  308   3.549   3.345  14.133 -0.4501  0.3606  0.2811
   19TMC2    H5  309   3.527   3.341  14.038 -1.4457  1.0137  0.4820
   20MPD2     C  310   4.382   3.236  13.919  0.0348 -0.2320 -0.3358
   20MPD2    C1  311   4.304   3.196  14.020 -0.3240  1.0121  1.0266
   20MPD2    C2  312   4.360   3.113  14.118  0.6653 -0.1511 -0.3575
   20MPD2    C3  313   4.486   3.059  14.105 -0.0594 -0.3053 -0.9156
   20MPD2    C4  314   4.569   3.109  14.013 -0.9894 -0.2566  0.4426
   20MPD2    C5  315   4.513   3.193  13.921  0.6124 -0.2902 -0.1988
   20MPD2     H  316   4.295   3.081  14.198 -1.4111  0.3496 -1.8440
   20MPD2    H1  317   4.673   3.082  13.999 -0.3985  2.0369  0.5676
   20MPD2    H2  318   4.352   3.284  13.826 -0.8352 -1.1921 -0.5464
   20MPD2    H3  319   4.578   3.240  13.848 -2.4407  0.1362 -2.5923
   20MPD2     N  320   4.540   2.959  14.181 -0.1531 -0.1520 -0.6072
   20MPD2    H5  321   4.637   2.939  14.158  0.2727  0.4561  0.6153
   20MPD2    N1  322   4.172   3.234  14.029  0.3417 -0.1939 -0.0084
   20MPD2    H7  323   4.121   3.214  14.115 -0.7037 -1.4448 -0.9260
   21TMC2    C1  324   1.230   2.905  14.527 -0.0928  0.0490 -0.4197
   21TMC2    C2  325   1.264   2.793  14.602  0.3249  0.4518  0.3711
   21TMC2    C3  326   1.274   2.802  14.739  0.1081 -0.4157  0.4738
   21TMC2    C4  327   1.236   3.031  14.591 -0.2763 -0.1490 -0.3182
   21TMC2    C5  328   1.241   3.031  14.732  0.3900 -0.1057 -0.3941
   21TMC2    C6  329   1.256   2.920  14.808  0.1585 -0.2247  0.3784
   21TMC2     C  330   1.256   2.903  14.384  0.1620 -0.7598 -0.2598
   21TMC2     O  331   1.299   2.803  14.334 -1.0312  0.2086  0.6919
   21TMC2     H  332   1.269   2.697  14.552  0.6913  0.9207 -0.4907
   21TMC2    H1  333   1.244   3.119  14.529  1.7020  0.3310  0.6259
   21TMC2    H2  334   1.262   2.916  14.916 -2.7204  0.8573  0.5874
   21TMC2    C7  335   1.241   3.155  14.808 -0.0291 -0.8918 -0.6691
   21TMC2    C8  336   1.244   2.684  14.811 -0.4158 -0.3052  0.5710
   21TMC2    O1  337   1.279   3.139  14.927  0.3475 -0.9843 -0.6991
   21TMC2    O2  338   1.204   2.691  14.928 -0.2504  0.3911 -0.2653
   21TMC2    O5  339   1.320   2.589  14.760  1.0593 -0.0512 -0.2055
   21TMC2    H5  340   1.392   2.630  14.708 -0.7032  3.7449  0.3709
   22MPD2     C  341   1.366   3.208  13.978 -0.5268  0.3514  0.0958
   22MPD2    C1  342   1.420   3.092  14.028  0.6700 -0.4146  0.0841
   22MPD2    C2  343   1.347   3.012  14.121  0.0835  0.0268 -0.3045
   22MPD2    C3  344   1.242   3.065  14.192 -0.2152 -0.1014  0.4659
   22MPD2    C4  345   1.185   3.182  14.137  0.0089  0.2417 -0.3657
   22MPD2    C5  346   1.259   3.261  14.046 -0.3578  0.0961 -0.2376
   22MPD2     H  347   1.407   2.934  14.165  0.8966  0.3542 -0.8174
   22MPD2    H1  348   1.112   3.235  14.198 -0.4500  0.3711 -1.0270
   22MPD2    H2  349   1.417   3.273  13.907 -0.5829  0.3137  0.0205
   22MPD2    H3  350   1.226   3.354  14.001 -0.8814 -0.6855 -1.4688
   22MPD2     N  351   1.212   3.014  14.319  0.3363  0.5616  0.4785
   22MPD2    H5  352   1.150   3.077  14.370  2.6676  2.1365  1.3638
   22MPD2    N1  353   1.559   3.065  14.011 -0.3954  0.0242  0.3136
   22MPD2    H7  354   1.590   2.983  14.063  0.2634 -1.6072 -2.6253
   23TMC2    C1  355   3.044   4.282  14.231  0.0620  0.6461 -0.7663
   23TMC2    C2  356   3.085   4.322  14.104 -0.0929 -0.7084  0.8123
   23TMC2    C3  357   3.010   4.299  13.993  0.6074  0.0292 -0.2425
   23TMC2    C4  358   2.930   4.208  14.244 -0.0606  0.8365 -0.1441
   23TMC2    C5  359   2.847   4.196  14.133  0.1919  0.1635 -0.1287
   23TMC2    C6  360   2.889   4.248  14.012 -0.1504  0.1088 -0.1194
   23TMC2     C  361   3.144   4.267  14.334 -0.2671  0.5252  0.0643
   23TMC2     O  362   3.147   4.171  14.409 -0.0352  0.5337  0.3930
   23TMC2     H  363   3.190   4.351  14.103 -0.4868  0.6841 -0.2265
   23TMC2    H1  364   2.887   4.188  14.342 -0.8027 -1.0498 -0.8591
   23TMC2    H2  365   2.834   4.240  13.919 -0.1484 -1.5763  0.0198
   23TMC2    C7  366   2.726   4.108  14.152  0.4469  0.2950 -0.4616
   23TMC2    C8  367   3.074   4.297  13.863 -0.1501 -0.0652  0.4313
   23TMC2    O1  368   2.735   4.025  14.242 -0.6137 -0.7566 -0.2882
   23TMC2    O2  369   3.132   4.403  13.837  0.5271 -0.0493  0.7440
   23TMC2    O5  370   3.018   4.209  13.782 -0.3641  0.1857  0.1450
   23TMC2    H5  371   2.980   4.134  13.832 -0.9938  0.5447  0.2113
   24MPD2     C  372   3.513   4.469  14.623  0.3726  0.7582  0.1572
   24MPD2    C1  373   3.421   4.371  14.647 -0.4670 -0.2986 -0.1517
   24MPD2    C2  374   3.327   4.339  14.549 -0.2921  0.1705 -0.1790
   24MPD2    C3  375   3.330   4.402  14.429 -0.1120 -0.3752 -0.6891
   24MPD2    C4  376   3.427   4.501  14.406 -0.3211 -0.0884 -0.3566
   24MPD2    C5  377   3.520   4.535  14.501 -0.6038  0.1280 -0.2651
   24MPD2     H  378   3.240   4.278  14.572 -1.1647  0.4994 -2.5648
   24MPD2    H1  379   3.424   4.572  14.324 -0.1737  0.2580 -0.0567
   24MPD2    H2  380   3.585   4.504  14.696 -0.8096  2.7007  0.3939
   24MPD2    H3  381   3.586   4.618  14.476 -1.8132  1.7582  1.9069
   24MPD2     N  382   3.232   4.372  14.329 -0.3027 -0.8713 -0.4655
   24MPD2    H5  383   3.228   4.443  14.257  0.6566 -2.0240 -1.6531
   24MPD2    N1  384   3.413   4.309  14.779 -0.4405 -0.5015 -0.3429
   24MPD2    H7  385   3.352   4.228  14.787  0.8783 -1.6293 -1.6097
   25TMC2    C1  386   1.808   2.398  11.446 -0.3289  0.2394 -0.2049
   25TMC2    C2  387   1.887   2.291  11.427  0.5790  0.3179  0.0294
   25TMC2    C3  388   1.922   2.218  11.538 -0.8462  0.2926 -0.0315
   25TMC2    C4  389   1.759   2.429  11.578 -0.2600  0.1896  0.4240
   25TMC2    C5  390   1.815   2.361  11.680  0.9500 -0.7449  0.2767
   25TMC2    C6  391   1.885   2.240  11.663  0.0887 -0.2865  0.6699
   25TMC2     C  392   1.747   2.467  11.337 -0.6692 -0.4310 -0.4631
   25TMC2     O  393   1.680   2.567  11.351  0.6638  0.0313  0.6843
   25TMC2     H  394   1.940   2.273  11.334 -0.5479 -0.0036 -0.5459
   25TMC2    H1  395   1.681   2.503  11.593  0.3413  0.5396  1.9166
   25TMC2    H2  396   1.923   2.182  11.746 -1.3797 -3.7705 -1.1146
   25TMC2    C7  397   1.762   2.373  11.813 -0.1367  0.1506  0.3363
   25TMC2    C8  398   2.020   2.110  11.523  0.1055  0.2058 -0.3087
   25TMC2    O1  399   1.762   2.274  11.883 -0.0376  0.0995 -0.2238
   25TMC2    O2  400   2.090   2.061  11.614 -0.2285  0.7422 -0.2166
   25TMC2    O5  401   2.002   2.060  11.397  0.3918  0.2432 -0.1104
   25TMC2    H5  402   1.925   2.103  11.354 -0.8522  0.3927  2.2617
   26MPD2     C  403   1.597   2.431  10.848  0.3813 -0.2050 -0.1586
   26MPD2    C1  404   1.675   2.320  10.872  0.3865 -0.1661 -0.3648
   26MPD2    C2  405   1.723   2.301  11.004  0.2600 -0.4196 -0.3984
   26MPD2    C3  406   1.697   2.397  11.102 -0.2941 -0.3069 -0.4842
   26MPD2    C4  407   1.612   2.499  11.073 -0.2564 -0.1984 -0.1383
   26MPD2    C5  408   1.559   2.505  10.948  0.2046 -0.1875  0.4453
   26MPD2     H  409   1.793   2.221  11.022  0.5814  0.4921  2.4690
   26MPD2    H1  410   1.592   2.574  11.149  2.3891 -0.2462  0.6051
   26MPD2    H2  411   1.560   2.460  10.750  1.0981  0.4044 -0.2498
   26MPD2    H3  412   1.485   2.583  10.940 -1.4512 -1.6160  1.7088
   26MPD2     N  413   1.764   2.380  11.230  0.0146  0.4568 -0.2533
   26MPD2    H5  414   1.806   2.289  11.247 -4.4356 -1.5435  0.2120
   26MPD2    N1  415   1.695   2.222  10.772  0.1015  0.5850 -0.9416
   26MPD2    H7  416   1.645   2.241  10.686  1.7696 -0.0852 -2.0449
   27TMC2    C1  417   0.719   4.011  11.865 -0.1263  0.5809  0.4804
   27TMC2    C2  418   0.766   3.892  11.813 -0.5497  0.2728  0.2393
   27TMC2    C3  419   0.830   3.810  11.899 -0.3751  0.1886 -0.6183
   27TMC2    C4  420   0.707   4.039  12.000  0.2741 -0.2684  0.4363
   27TMC2    C5  421   0.758   3.942  12.088 -0.1394  0.9544  0.5121
   27TMC2    C6  422   0.816   3.825  12.038 -0.1494 -0.9806 -0.7327
   27TMC2     C  423   0.646   4.101  11.772  0.5992 -0.0876 -0.3678
   27TMC2     O  424   0.659   4.073  11.654 -0.0080 -0.5256 -0.2779
   27TMC2     H  425   0.777   3.876  11.706  0.8387 -0.4607  0.4972
   27TMC2    H1  426   0.691   4.142  12.028 -2.3346 -0.6310  0.2879
   27TMC2    H2  427   0.855   3.742  12.096  1.6316  0.2263 -0.2348
   27TMC2    C7  428   0.746   3.958  12.241  0.1900 -0.3192  0.3604
   27TMC2    C8  429   0.855   3.674  11.851  0.6858  0.4853 -0.2665
   27TMC2    O1  430   0.799   3.867  12.305 -0.1869  0.1978  0.4811
   27TMC2    O2  431   0.838   3.570  11.920  0.1804  0.0176  0.5625
   27TMC2    O5  432   0.944   3.685  11.757  0.4727 -0.4166  0.0973
   27TMC2    H5  433   0.958   3.778  11.726  1.2335 -0.3012  0.7896
   28MPD2     C  434   0.346   4.486  11.612 -0.0480 -0.5357  0.0290
   28MPD2    C1  435   0.319   4.465  11.748 -0.5025  0.8207  0.2729
   28MPD2    C2  436   0.405   4.375  11.820 -0.0145  0.5758  0.3960
   28MPD2    C3  437   0.507   4.301  11.760  1.2034 -0.5422 -0.1302
   28MPD2    C4  438   0.530   4.325  11.628  0.3847 -0.2535 -0.2719
   28MPD2    C5  439   0.453   4.416  11.557 -0.8800  0.4275  0.4196
   28MPD2     H  440   0.394   4.362  11.926  1.5956 -2.3271  0.2229
   28MPD2    H1  441   0.616   4.286  11.575 -0.2075 -1.2697 -0.4926
   28MPD2    H2  442   0.297   4.557  11.546  0.4413  0.4277  0.7075
   28MPD2    H3  443   0.470   4.420  11.450  1.4118  0.8027  0.7851
   28MPD2     N  444   0.568   4.195  11.831 -0.2562  0.2046 -0.0195
   28MPD2    H5  445   0.550   4.198  11.931  0.9133  1.7540  0.1452
   28MPD2    N1  446   0.213   4.535  11.807  0.5160  0.1491  0.0093
   28MPD2    H7  447   0.208   4.528  11.908 -1.6230 -0.7460 -0.1643
   29TMC2    C1  448   0.720   1.571  13.526 -0.2783 -0.2118 -0.0193
   29TMC2    C2  449   0.794   1.650  13.441 -0.4913  0.0898 -0.1380
   29TMC2    C3  450   0.835   1.775  13.489 -0.3364 -0.6238  0.2050
   29TMC2    C4  451   0.676   1.613  13.646  0.6328  0.0461  0.3326
   29TMC2    C5  452   0.702   1.746  13.682  0.2932  0.3917  0.2018
   29TMC2    C6  453   0.778   1.824  13.609  0.2829  0.2674  0.4330
   29TMC2     C  454   0.710   1.436  13.501  0.3618 -0.5368 -0.1742
   29TMC2     O  455   0.665   1.361  13.591  0.2842  0.3550 -0.2903
   29TMC2     H  456   0.818   1.616  13.341 -0.4091 -0.0910 -0.0567
   29TMC2    H1  457   0.631   1.541  13.714  0.0497 -1.1181 -1.2894
   29TMC2    H2  458   0.776   1.932  13.620  0.1062  0.2482  0.5863
   29TMC2    C7  459   0.622   1.800  13.788  0.0901  0.3805 -0.6518
   29TMC2    C8  460   0.902   1.868  13.403 -0.2115  0.0348  0.3652
   29TMC2    O1  461   0.534   1.731  13.838 -0.2521  0.0189  0.5235
   29TMC2    O2  462   0.914   1.983  13.434  0.2050  0.0844 -0.0647
   29TMC2    O5  463   1.003   1.788  13.364  0.2068 -0.0475 -0.6988
   29TMC2    H5  464   0.968   1.696  13.359 -0.0879  0.1950 -2.8635
   30MPD2     C  465   0.714   1.025  13.176  0.6082  0.3008 -0.9209
   30MPD2    C1  466   0.694   1.038  13.310 -0.0041  0.3073 -0.0523
   30MPD2    C2  467   0.706   1.160  13.380 -0.5666 -0.0928  0.0461
   30MPD2    C3  468   0.738   1.277  13.313  0.7137 -0.0759 -0.0228
   30MPD2    C4  469   0.768   1.264  13.178 -0.9422 -0.0584 -0.4635
   30MPD2    C5  470   0.750   1.143  13.112  0.4766  0.0884  0.1322
   30MPD2     H  471   0.692   1.159  13.488 -2.1227  0.6845 -0.1608
   30MPD2    H1  472   0.793   1.346  13.111 -1.7433  0.0099 -0.6851
   30MPD2    H2  473   0.697   0.932  13.122 -1.8362  1.4023 -2.0421
   30MPD2    H3  474   0.746   1.134  13.004  0.1322  0.3646  0.1221
   30MPD2     N  475   0.748   1.407  13.373  0.2264  0.6383 -0.0779
   30MPD2    H5  476   0.770   1.484  13.311  0.2072 -0.6781 -1.7161
   30MPD2    N1  477   0.660   0.929  13.393 -0.6000 -0.1822 -0.0359
   30MPD2    H7  478   0.687   0.935  13.490  0.9732  1.1145 -0.5416
   31TMC2    C1  479   2.734   0.079  14.479 -0.0024  0.3745 -0.3021
   31TMC2    C2  480   2.616   0.048  14.412  0.0862 -0.5170  0.1453
   31TMC2    C3  481   2.522   4.717  14.489  0.8406 -0.5289  0.0109
   31TMC2    C4  482   2.765   0.033  14.607 -0.5695  0.7028  0.3836
   31TMC2    C5  483   2.662   4.711  14.675 -0.3690 -0.2256  0.0351
   31TMC2    C6  484   2.542   4.689  14.619  0.6151  0.4618 -0.4516
   31TMC2     C  485   2.838   0.150  14.400  0.1174  0.3297 -0.6054
   31TMC2     O  486   2.803   0.214  14.300 -0.1726  0.0590  0.6489
   31TMC2     H  487   2.594   0.098  14.319 -1.1025  3.4339  2.5351
   31TMC2    H1  488   2.853   0.062  14.665  0.7359 -0.9773 -0.7649
   31TMC2    H2  489   2.467   4.641  14.681 -1.8015  0.9040 -3.0691
   31TMC2    C7  490   2.663   4.712  14.822  0.1654 -0.1894 -0.5163
   31TMC2    C8  491   2.395   4.675  14.428  0.1020  0.0879 -1.0240
   31TMC2    O1  492   2.777   4.693  14.870  0.8656 -0.0978 -0.4185
   31TMC2    O2  493   2.337   4.584  14.487 -0.0102  0.0206  0.0080
   31TMC2    O5  494   2.413   4.676  14.295 -0.0859  0.1721 -0.0103
   31TMC2    H5  495   2.483   0.006  14.274 -0.4173  0.1888 -1.0066
   32MPD2     C  496   3.317   0.245  14.256  0.3395  0.4060 -0.2577
   32MPD2    C1  497   3.198   0.294  14.211 -0.4638 -0.0609 -0.1263
   32MPD2    C2  498   3.086   0.251  14.269  0.5209 -0.8113 -0.2667
   32MPD2    C3  499   3.079   0.170  14.380 -1.0916  0.1636  0.0998
   32MPD2    C4  500   3.206   0.120  14.425 -0.6536  0.0628  0.2492
   32MPD2    C5  501   3.324   0.153  14.358 -0.2066  0.0901 -0.4272
   32MPD2     H  502   2.992   0.299  14.243  2.8384  3.8565  0.1005
   32MPD2    H1  503   3.216   0.052  14.509 -4.0133 -0.0456  0.5409
   32MPD2    H2  504   3.407   0.278  14.207  1.1796  1.2592  1.8808
   32MPD2    H3  505   3.416   0.107  14.391  0.4046  2.1302  0.6961
   32MPD2     N  506   2.962   0.122  14.446  0.3619  0.2147  0.0305
   32MPD2    H5  507   2.981   0.071  14.532  1.4060 -0.5176 -0.6311
   32MPD2    N1  508   3.195   0.375  14.096  0.8560 -0.5594  0.0942
   32MPD2    H7  509   3.281   0.424  14.076  0.7151  0.2300  1.4362
   33TMC2    C1  510   3.075   3.199  10.888  0.3874 -0.1249 -0.6420
   33TMC2    C2  511   2.961   3.194  10.816 -0.0780  0.1523 -0.0037
   33TMC2    C3  512   2.931   3.290  10.722 -0.0182  0.6245  0.3192
   33TMC2    C4  513   3.165   3.294  10.856  0.0644 -0.1597  0.2472
   33TMC2    C5  514   3.137   3.389  10.757 -0.4528 -0.1552 -0.0716
   33TMC2    C6  515   3.020   3.388  10.684 -0.3051  0.0889 -0.6948
   33TMC2     C  516   3.119   3.077  10.950  0.1679 -0.2455 -0.2239
   33TMC2     O  517   3.027   2.997  10.976  0.0371 -0.7829  0.1921
   33TMC2     H  518   2.885   3.126  10.855 -0.5522  0.2541 -0.7539
   33TMC2    H1  519   3.250   3.300  10.923  1.1492  0.5877 -1.2017
   33TMC2    H2  520   3.002   3.461  10.606  0.5380 -1.2203 -2.0937
   33TMC2    C7  521   3.236   3.493  10.723  0.0709  0.1148  0.1431
   33TMC2    C8  522   2.815   3.268  10.637  0.1817 -0.0032 -0.5682
   33TMC2    O1  523   3.228   3.537  10.610  0.3928  1.0324  0.4821
   33TMC2    O2  524   2.761   3.161  10.612 -0.4507 -0.5841 -0.3887
   33TMC2    O5  525   2.746   3.382  10.620 -0.1223 -0.5408 -0.1153
   33TMC2    H5  526   2.792   3.461  10.658 -1.2164  0.9152 -1.8304
   34MPD2     C  527   3.445   2.795  11.212  0.5937  0.1521  0.2070
   34MPD2    C1  528   3.311   2.809  11.225  0.4327 -0.4755  0.3301
   34MPD2    C2  529   3.245   2.895  11.144  0.1132 -0.5708  0.7317
   34MPD2    C3  530   3.317   2.976  11.064  1.0708  0.0427  0.5374
   34MPD2    C4  531   3.454   2.964  11.050 -0.6426  0.7992  0.3463
   34MPD2    C5  532   3.511   2.870  11.125 -0.1852 -0.9615 -0.0223
   34MPD2     H  533   3.139   2.915  11.153  0.3741  1.0268  0.2411
   34MPD2    H1  534   3.511   3.026  10.982 -1.6996  0.6239 -0.6977
   34MPD2    H2  535   3.508   2.724  11.266  0.5738 -0.2142 -0.2530
   34MPD2    H3  536   3.615   2.842  11.112 -0.7371 -2.1771 -1.7219
   34MPD2     N  537   3.258   3.075  10.982  0.0260  0.3644 -0.4755
   34MPD2    H5  538   3.321   3.133  10.927  0.7615 -0.6228 -0.6833
   34MPD2    N1  539   3.242   2.720  11.306 -0.4941 -0.0219  0.7071
   34MPD2    H7  540   3.301   2.653  11.355  1.3314 -0.4477 -2.0626
   35TMC2    C1  541   4.302   4.005  11.100 -0.2205  0.0101  0.4345
   35TMC2    C2  542   4.233   4.017  10.981  0.1758  0.2971 -0.6357
   35TMC2    C3  543   4.131   3.938  10.949 -0.6443  0.8305 -0.8664
   35TMC2    C4  544   4.263   3.910  11.189  0.1664  0.0117 -0.1306
   35TMC2    C5  545   4.156   3.831  11.153  0.4920  0.4054  0.2154
   35TMC2    C6  546   4.094   3.839  11.031 -0.5585  0.2568 -0.7314
   35TMC2     C  547   4.406   4.111  11.127 -0.0496 -0.3666 -0.5591
   35TMC2     O  548   4.378   4.214  11.066 -0.1930  0.1469 -0.2612
   35TMC2     H  549   4.265   4.098  10.918 -0.4905  0.3119 -0.9499
   35TMC2    H1  550   4.306   3.912  11.288  0.2889  0.4449 -0.1935
   35TMC2    H2  551   4.015   3.773  10.995 -1.0814  0.6874 -0.3664
   35TMC2    C7  552   4.098   3.755  11.257 -1.6181  0.2226 -0.6065
   35TMC2    C8  553   4.087   3.945  10.811 -0.6361  0.0434  0.7056
   35TMC2    O1  554   4.163   3.682  11.328  0.3319 -0.4337 -0.1382
   35TMC2    O2  555   4.150   4.001  10.720  0.9194 -0.0453  0.0875
   35TMC2    O5  556   3.949   3.940  10.814 -0.0625 -0.3284  0.1359
   35TMC2    H5  557   3.915   3.940  10.906 -0.1132  0.5453  0.1216
   36MPD2     C  558   0.025   4.361  11.380 -0.2507 -0.1766 -0.9901
   36MPD2    C1  559   4.731   4.252  11.457  0.5444  0.8978  0.1878
   36MPD2    C2  560   4.653   4.149  11.404  0.3747 -0.0851  0.3378
   36MPD2    C3  561   4.592   4.164  11.275  0.4889  0.6631  0.2804
   36MPD2    C4  562   4.627   4.278  11.197  0.0439  0.6949  0.0844
   36MPD2    C5  563   4.715   4.366  11.250  0.2481 -0.2367 -0.0624
   36MPD2     H  564   4.634   4.054  11.452  2.9878 -0.6576  0.2383
   36MPD2    H1  565   4.598   4.290  11.093 -2.7185 -2.0394  0.5338
   36MPD2    H2  566   0.086   4.441  11.419 -3.6088  2.4659 -1.1300
   36MPD2    H3  567   0.013   4.447  11.186 -1.5187  1.5998  1.3515
   36MPD2     N  568   4.499   4.072  11.220  0.1487  0.5490  0.2334
   36MPD2    H5  569   4.489   3.982  11.266  1.1817 -0.4451 -1.4923
   36MPD2    N1  570   0.046   4.251  11.586 -0.3730 -0.7161  0.1002
   36MPD2    H7  571   0.120   4.320  11.596  1.0547 -2.3082  0.5346
   37TMC2    C1  572   1.769   4.232  11.359 -0.0134 -0.2787  0.2173
   37TMC2    C2  573   1.678   4.249  11.254 -0.0106 -0.3020  0.1353
   37TMC2    C3  574   1.728   4.312  11.138 -0.2942  0.2583 -0.4144
   37TMC2    C4  575   1.903   4.244  11.334 -0.0048  0.2675 -0.1408
   37TMC2    C5  576   1.952   4.291  11.210 -0.1377  0.4019  0.3195
   37TMC2    C6  577   1.858   4.336  11.116 -1.1342 -0.2790 -0.5703
   37TMC2     C  578   1.727   4.185  11.492 -0.6040  0.2108  0.5643
   37TMC2     O  579   1.616   4.127  11.499 -0.0971 -0.4747 -0.3377
   37TMC2     H  580   1.574   4.231  11.279  0.9631 -2.7215  2.4227
   37TMC2    H1  581   1.977   4.202  11.401  1.1956 -0.1306 -1.6874
   37TMC2    H2  582   1.881   4.387  11.024 -2.8590  1.0632 -0.2539
   37TMC2    C7  583   2.096   4.296  11.182  0.2280  0.1228  0.1350
   37TMC2    C8  584   1.632   4.332  11.030  0.1341 -0.4561  0.0127
   37TMC2    O1  585   2.178   4.256  11.265 -0.0603 -0.3137  0.4918
   37TMC2    O2  586   1.646   4.408  10.932  0.6145  0.1160  0.2143
   37TMC2    O5  587   1.573   4.216  11.006 -0.0038 -0.2204 -0.6904
   37TMC2    H5  588   1.593   4.145  11.071  0.9705  0.6123 -0.0955
   38MPD2     C  589   1.780   4.218  12.003 -0.2833  0.0335  0.0497
   38MPD2    C1  590   1.904   4.227  11.943  0.3913 -1.1318 -0.6755
   38MPD2    C2  591   1.913   4.238  11.806  0.0836 -0.5457  0.8542
   38MPD2    C3  592   1.801   4.220  11.729  0.1031  0.3905 -0.7086
   38MPD2    C4  593   1.680   4.200  11.788 -0.3515  0.1585 -0.1011
   38MPD2    C5  594   1.670   4.207  11.926 -0.3306  0.3692  0.4724
   38MPD2     H  595   2.004   4.262  11.753  0.0813  1.5043  1.7832
   38MPD2    H1  596   1.587   4.189  11.734 -0.4600 -0.6977  0.2719
   38MPD2    H2  597   1.767   4.199  12.109  1.3498 -1.2387  0.0133
   38MPD2    H3  598   1.574   4.195  11.974  0.0369 -0.0176  1.0989
   38MPD2     N  599   1.824   4.226  11.587 -0.5025 -0.1739  0.2567
   38MPD2    H5  600   1.905   4.278  11.558 -1.6168  1.2640 -0.2762
   38MPD2    N1  601   2.024   4.254  12.019  0.2036  0.2203 -0.0333
   38MPD2    H7  602   2.111   4.253  11.968 -0.9679  1.7561 -2.0678
   39TMC2    C1  603   4.668   1.085   1.817 -0.8062 -0.4130  0.0941
   39TMC2    C2  604   0.041   1.020   1.874 -0.0882  0.2277  0.5981
   39TMC2    C3  605   0.123   1.093   1.950 -0.5872  0.3038  0.2679
   39TMC2    C4  606   4.653   1.220   1.842 -0.4166  0.2364 -0.3232
   39TMC2    C5  607   0.004   1.293   1.913  0.3665  0.3469  0.2549
   39TMC2    C6  608   0.119   1.230   1.956 -0.6129 -0.1721  0.3001
   39TMC2     C  609   4.602   1.019   1.708 -0.7224  0.2343  0.4690
   39TMC2     O  610   4.486   1.051   1.678 -0.2001  0.0363 -0.2274
   39TMC2     H  611   0.070   0.921   1.843 -0.4312  0.4713 -0.4697
   39TMC2    H1  612   4.569   1.276   1.802 -0.6844  0.0680  0.0012
   39TMC2    H2  613   0.191   1.279   2.020 -0.1091  1.2043 -1.2930
   39TMC2    C7  614   4.724   1.441   1.915 -0.4036  0.2341  0.3344
   39TMC2    C8  615   0.230   1.035   2.023 -0.3626 -0.7974  0.4431
   39TMC2    O1  616   4.662   1.500   1.829 -0.1922  0.7794 -0.2744
   39TMC2    O2  617   0.304   1.087   2.105 -0.4539 -0.2092  0.0942
   39TMC2    O5  618   0.241   0.903   1.988 -0.1312 -0.4271 -0.1000
   39TMC2    H5  619   0.162   0.875   1.937  1.3773 -1.4104 -1.9201
   40MPD2     C  620   4.723   0.732   1.500 -1.1141 -0.1270  0.1722
   40MPD2    C1  621   4.642   0.840   1.535 -0.6392  0.0726 -0.3106
   40MPD2    C2  622   4.517   0.852   1.479 -0.3745  0.0206 -0.0871
   40MPD2    C3  623   4.484   0.765   1.376  0.0606 -1.4026 -0.0604
   40MPD2    C4  624   4.569   0.667   1.341  0.3322  0.0228  0.1247
   40MPD2    C5  625   4.692   0.659   1.393  0.0193 -0.1382 -0.9834
   40MPD2     H  626   4.446   0.931   1.498  0.8937  0.8263  1.3335
   40MPD2    H1  627   4.556   0.602   1.256 -3.1763 -0.0478  0.6941
   40MPD2    H2  628   0.078   0.705   1.553 -1.1306 -1.0928 -0.3011
   40MPD2    H3  629   0.017   0.574   1.365  0.1487 -0.9935  1.9751
   40MPD2     N  630   4.365   0.775   1.299  0.0329 -0.1872  0.1216
   40MPD2    H5  631   4.348   0.705   1.228  0.0084 -0.7186  0.6510
   40MPD2    N1  632   4.681   0.921   1.648  0.4598  0.1144 -0.0658
   40MPD2    H7  633   0.041   0.914   1.680  0.5909 -2.2282 -1.0126
   41TMC2    C1  634   4.102   4.064  13.616  0.1157  0.3718  0.4679
   41TMC2    C2  635   4.058   4.189  13.635 -0.3942  0.0613 -0.0301
   41TMC2    C3  636   3.992   4.247  13.525 -0.2253  0.5961  0.0578
   41TMC2    C4  637   4.081   3.989  13.501  0.0309  0.8138 -0.1915
   41TMC2    C5  638   4.020   4.055  13.399  0.1462 -0.4684 -0.3619
   41TMC2    C6  639   3.974   4.183  13.409  0.1430  0.2885  0.6297
   41TMC2     C  640   4.162   3.992  13.728 -0.0227  0.2336 -0.7389
   41TMC2     O  641   4.199   3.879  13.707  0.1351  0.8935 -0.5187
   41TMC2     H  642   4.071   4.251  13.723  0.9115 -1.1097  0.6047
   41TMC2    H1  643   4.115   3.887  13.484 -2.1026  0.3805 -1.8790
   41TMC2    H2  644   3.925   4.237  13.329 -0.9109 -1.6362 -0.0264
   41TMC2    C7  645   3.955   3.966  13.302 -0.2544 -0.3293 -0.0910
   41TMC2    C8  646   3.938   4.382  13.540  0.1017  0.0611  0.5551
   41TMC2    O1  647   3.948   3.848  13.336 -0.1461  0.1619  0.7165
   41TMC2    O2  648   4.011   4.472  13.584  0.1217 -0.3047 -0.1805
   41TMC2    O5  649   3.826   4.394  13.466  0.4028  0.2838  0.2834
   41TMC2    H5  650   3.779   4.310  13.446  0.4071  0.3219  0.1216
   42MPD2     C  651   4.256   3.899  13.990  0.3843 -0.2506  0.2475
   42MPD2    C1  652   4.151   3.990  13.962 -0.6193  0.0119  0.5846
   42MPD2    C2  653   4.079   4.019  14.076 -0.1313 -0.4407 -0.0643
   42MPD2    C3  654   4.107   3.963  14.199  0.0680  0.0019 -0.0784
   42MPD2    C4  655   4.201   3.869  14.215  0.5348 -0.0508  0.0759
   42MPD2    C5  656   4.273   3.831  14.105 -0.2913 -0.4244 -0.7590
   42MPD2     H  657   4.019   4.108  14.087  1.1749  0.2869  1.2587
   42MPD2    H1  658   4.230   3.834  14.313 -2.1415  0.9503  1.2326
   42MPD2    H2  659   4.333   3.874  13.918 -2.1060  1.8239 -3.1547
   42MPD2    H3  660   4.350   3.755  14.108  0.1071  0.0702  1.6762
   42MPD2     N  661   4.044   4.013  14.316 -0.5482 -0.1746 -0.4175
   42MPD2    H5  662   4.074   3.976  14.405 -0.7292  0.1629 -0.2147
   42MPD2    N1  663   4.128   4.052  13.840 -0.2581 -0.3481  0.0768
   42MPD2    H7  664   4.064   4.130  13.851  0.6420  0.5470 -0.9189
   43TMC2    C1  665   0.226   1.965   0.619 -0.4881 -0.6070  0.1011
   43TMC2    C2  666   0.109   2.033   0.594  0.4068 -0.7308 -0.1099
   43TMC2    C3  667   0.082   2.148   0.660 -0.1924 -0.0492 -0.1808
   43TMC2    C4  668   0.318   2.017   0.711 -0.1115  0.0494  0.4064
   43TMC2    C5  669   0.293   2.138   0.772 -0.6300 -0.5584  0.2802
   43TMC2    C6  670   0.177   2.208   0.744  0.6645 -0.3080  0.3741
   43TMC2     C  671   0.284   1.880   0.508  0.3998  0.2158  0.1577
   43TMC2     O  672   0.402   1.855   0.518  0.3969 -0.0650  0.1049
   43TMC2     H  673   0.031   1.976   0.545 -1.1055  1.4090 -0.2191
   43TMC2    H1  674   0.408   1.967   0.744  0.0012  0.4436  0.6939
   43TMC2    H2  675   0.156   2.301   0.795  2.2120  1.4633 -2.2151
   43TMC2    C7  676   0.411   2.209   0.812  0.1183  0.1351 -0.2527
   43TMC2    C8  677   4.706   2.227   0.614  0.0238  0.1161 -0.5403
   43TMC2    O1  678   0.517   2.147   0.805  0.1650 -0.4442  0.0468
   43TMC2    O2  679   4.670   2.324   0.673  0.7069 -0.2401 -0.2733
   43TMC2    O5  680   4.633   2.176   0.509 -0.1640  0.7945 -0.4769
   43TMC2    H5  681   4.664   2.098   0.458 -0.3559  0.5096 -0.1595
   44MPD2     C  682   0.332   1.614   0.082  0.3636 -0.4550  0.6783
   44MPD2    C1  683   0.428   1.671   0.165  0.2727 -0.0664 -0.1515
   44MPD2    C2  684   0.385   1.761   0.254 -0.8034  0.8174 -0.1967
   44MPD2    C3  685   0.249   1.785   0.283  0.4116 -0.6832 -0.0420
   44MPD2    C4  686   0.159   1.712   0.207  0.3144 -0.0424 -0.3295
   44MPD2    C5  687   0.200   1.640   0.096 -0.3194  0.2000 -0.9121
   44MPD2     H  688   0.461   1.818   0.307 -0.5870 -0.1647  0.5680
   44MPD2    H1  689   0.053   1.722   0.232 -0.0058  1.9851 -2.5094
   44MPD2    H2  690   0.364   1.536   0.014  0.6390  0.6567 -0.4591
   44MPD2    H3  691   0.124   1.594   0.034 -0.8747  0.9849 -0.7955
   44MPD2     N  692   0.200   1.847   0.403 -0.3137  0.3443  0.5869
   44MPD2    H5  693   0.099   1.857   0.406 -0.3509  0.8877 -2.5467
   44MPD2    N1  694   0.569   1.655   0.166 -0.2692  1.0147  0.6693
   44MPD2    H7  695   0.615   1.719   0.229  0.2795  0.1796  1.1230
   45TMC2    C1  696   0.606   0.459   9.411  1.0838  0.6290 -0.3478
   45TMC2    C2  697   0.475   0.457   9.370 -0.0739  0.0422  0.4070
   45TMC2    C3  698   0.429   0.579   9.317  0.4689  0.1230  0.8612
   45TMC2    C4  699   0.680   0.572   9.410  0.5348 -0.4050  0.4802
   45TMC2    C5  700   0.623   0.686   9.367 -0.4352 -0.6294 -0.1616
   45TMC2    C6  701   0.497   0.694   9.315 -0.4067  0.6158  0.1442
   45TMC2     C  702   0.665   0.347   9.475 -0.0267 -0.4117 -0.0297
   45TMC2     O  703   0.779   0.372   9.519 -0.2398  0.5855  0.1395
   45TMC2     H  704   0.397   0.382   9.377 -0.7373  0.7687  0.7664
   45TMC2    H1  705   0.778   0.579   9.455  0.7740 -0.3324 -0.0486
   45TMC2    H2  706   0.440   0.782   9.289 -0.8380  0.7869  1.6489
   45TMC2    C7  707   0.702   0.810   9.384  0.3458  0.1333 -0.0740
   45TMC2    C8  708   0.297   0.580   9.269  0.0652 -0.1989 -0.7642
   45TMC2    O1  709   0.798   0.803   9.457 -0.0078 -0.4233 -0.0179
   45TMC2    O2  710   0.208   0.499   9.302 -0.3375 -0.2748 -0.1268
   45TMC2    O5  711   0.302   0.653   9.152 -0.3292  0.2477  0.1985
   45TMC2    H5  712   0.387   0.698   9.136 -0.4959 -0.2667 -2.1039
   46MPD2     C  713   0.744   0.079   9.579 -0.3888  0.1442  0.4855
   46MPD2    C1  714   0.626   0.107   9.517 -0.2548 -0.3022 -0.2566
   46MPD2    C2  715   0.531   0.011   9.502 -0.0988  0.0073 -0.5004
   46MPD2    C3  716   0.562   4.618   9.523 -0.4448 -0.1233 -1.4389
   46MPD2    C4  717   0.686   4.579   9.584  0.9506  0.1268  0.2954
   46MPD2    C5  718   0.775   4.683   9.600  0.3567 -0.7859 -0.1024
   46MPD2     H  719   0.440   0.033   9.447 -1.0070 -1.4346  0.4321
   46MPD2    H1  720   0.705   4.476   9.613 -2.9158 -0.9218 -0.7736
   46MPD2    H2  721   0.820   0.153   9.598  0.4423 -0.0451 -2.1681
   46MPD2    H3  722   0.871   4.654   9.641  0.8893 -2.9029 -2.9332
   46MPD2     N  723   0.461   4.520   9.497 -0.2127 -0.8002  0.6428
   46MPD2    H5  724   0.366   4.546   9.472 -0.2006 -1.7520 -0.3826
   46MPD2    N1  725   0.585   0.234   9.464 -0.6530  0.5783  0.5350
   46MPD2    H7  726   0.509   0.240   9.397  0.5307 -0.4769 -0.9020
   47TMC2    C1  727   2.749   3.836   8.857  0.6315  0.2035 -0.6077
   47TMC2    C2  728   2.757   3.737   8.952 -0.5580 -0.0965  0.0763
   47TMC2    C3  729   2.648   3.661   8.976 -0.5734 -0.4598  0.0874
   47TMC2    C4  730   2.633   3.864   8.789 -0.4143  0.0586 -0.2498
   47TMC2    C5  731   2.527   3.778   8.816 -0.0404  0.0644 -0.1342
   47TMC2    C6  732   2.537   3.671   8.899  0.4795  0.0960 -0.4909
   47TMC2     C  733   2.855   3.924   8.839  0.6154  0.8213  0.2629
   47TMC2     O  734   2.852   3.977   8.732 -0.2119  0.3441  0.8566
   47TMC2     H  735   2.855   3.709   8.990 -0.1083  2.2295  0.6516
   47TMC2    H1  736   2.627   3.945   8.717  2.5567  0.2984 -0.2049
   47TMC2    H2  737   2.454   3.603   8.911 -0.0700  0.5319 -1.8634
   47TMC2    C7  738   2.395   3.843   8.809 -0.0282  0.1139 -0.0712
   47TMC2    C8  739   2.668   3.566   9.080  0.6051  0.5656 -0.2169
   47TMC2    O1  740   2.294   3.775   8.812  0.1528  0.0451  0.4007
   47TMC2    O2  741   2.784   3.541   9.128 -0.0783 -0.1008 -0.0503
   47TMC2    O5  742   2.547   3.541   9.128  0.6271 -0.3268  0.3041
   47TMC2    H5  743   2.472   3.568   9.072  1.0444 -2.0063 -1.0433
   48MPD2     C  744   3.081   4.122   8.852  0.7073 -0.4559  0.2589
   48MPD2    C1  745   3.045   4.037   8.955  0.5025 -0.2040 -0.3824
   48MPD2    C2  746   3.114   4.047   9.075  0.4710  0.2361 -0.4842
   48MPD2    C3  747   3.211   4.141   9.099 -0.2007 -0.6871 -0.3851
   48MPD2    C4  748   3.232   4.236   9.004  0.1911 -0.8854  0.4789
   48MPD2    C5  749   3.166   4.222   8.879 -0.5356  0.4777  0.1570
   48MPD2     H  750   3.092   3.972   9.150  2.0660 -0.7553 -0.9944
   48MPD2    H1  751   3.303   4.318   9.000  0.3098 -1.1587 -3.6382
   48MPD2    H2  752   3.031   4.122   8.756  0.3021  2.6012  0.4909
   48MPD2    H3  753   3.199   4.295   8.806 -0.4026  1.8451  1.5885
   48MPD2     N  754   3.267   4.158   9.228  0.9064  1.1298 -0.1003
   48MPD2    H5  755   3.248   4.088   9.299 -2.8309  1.9781 -0.2645
   48MPD2    N1  756   2.938   3.940   8.947  0.5363 -0.4241  0.8589
   48MPD2    H7  757   2.914   3.889   9.032 -2.8017  0.6987  0.6162
   49TMC2    C1  758   2.140   3.499  11.372  0.5540 -0.0793  0.1550
   49TMC2    C2  759   2.221   3.600  11.339  0.2269  0.4941 -0.4527
   49TMC2    C3  760   2.348   3.575  11.305  0.7701 -0.2950  0.5187
   49TMC2    C4  761   2.180   3.370  11.349 -0.2987  0.5854 -0.0707
   49TMC2    C5  762   2.311   3.349  11.300  0.1204  0.3805  0.3885
   49TMC2    C6  763   2.402   3.450  11.279 -0.3883 -0.3476 -0.1746
   49TMC2     C  764   2.007   3.525  11.441 -0.1681  0.1633  0.3010
   49TMC2     O  765   1.994   3.629  11.502  0.2265  0.1799  0.2352
   49TMC2     H  766   2.179   3.700  11.346 -1.2364 -0.1357 -0.1465
   49TMC2    H1  767   2.125   3.284  11.386  0.9153 -0.5369 -0.8447
   49TMC2    H2  768   2.503   3.438  11.243 -0.8201  1.4738 -2.0028
   49TMC2    C7  769   2.352   3.214  11.300  0.7734  0.0170 -0.2503
   49TMC2    C8  770   2.445   3.681  11.300 -0.3920  1.2314  0.3139
   49TMC2    O1  771   2.470   3.187  11.310  0.1121  0.4057 -0.1547
   49TMC2    O2  772   2.543   3.668  11.227  0.2681 -0.4460 -0.1529
   49TMC2    O5  773   2.414   3.785  11.390  0.0037 -0.1756 -0.2034
   49TMC2    H5  774   2.338   3.762  11.448  0.9165 -2.7475 -0.0077
   50MPD2     C  775   1.826   3.469  11.674 -0.4587  0.2203  0.3894
   50MPD2    C1  776   1.832   3.392  11.556  0.6847 -0.0260  0.4106
   50MPD2    C2  777   1.740   3.300  11.526 -0.4595  0.7945  0.1430
   50MPD2    C3  778   1.635   3.278  11.615 -0.2227  0.2676 -0.5702
   50MPD2    C4  779   1.620   3.359  11.727 -0.7408 -0.1155  0.4060
   50MPD2    C5  780   1.716   3.451  11.758  0.5549 -0.1899  0.2591
   50MPD2     H  781   1.763   3.245  11.435  0.6039  2.7902 -0.8059
   50MPD2    H1  782   1.532   3.346  11.787 -0.3124 -1.2604  0.7880
   50MPD2    H2  783   1.913   3.523  11.710 -1.8021  1.6773  1.4834
   50MPD2    H3  784   1.705   3.509  11.849 -1.5704 -1.5121  0.8531
   50MPD2     N  785   1.523   3.191  11.590 -0.1294  0.3243  0.2982
   50MPD2    H5  786   1.448   3.190  11.659 -0.8167 -1.9669 -0.4621
   50MPD2    N1  787   1.937   3.409  11.460  0.0776  0.5123  0.6026
   50MPD2    H7  788   1.950   3.339  11.387  1.2147  0.9593  0.3648
   51TMC2    C1  789   1.426   1.563   1.161 -0.1306  0.0990 -0.0539
   51TMC2    C2  790   1.338   1.670   1.149 -0.6849  0.1215 -0.4554
   51TMC2    C3  791   1.353   1.755   1.042  0.0155  0.0016  0.2909
   51TMC2    C4  792   1.524   1.558   1.073 -0.1638 -0.0366 -0.2068
   51TMC2    C5  793   1.534   1.649   0.971 -0.7182 -0.2856 -0.4279
   51TMC2    C6  794   1.452   1.749   0.950 -0.6250 -0.0181 -0.5562
   51TMC2     C  795   1.380   1.444   1.225  0.2279  0.2807 -0.0819
   51TMC2     O  796   1.434   1.341   1.189  0.7275 -0.1288  0.1295
   51TMC2     H  797   1.258   1.688   1.220 -0.2786 -0.0115  0.0298
   51TMC2    H1  798   1.588   1.471   1.077 -0.1990 -0.0047  1.1843
   51TMC2    H2  799   1.471   1.831   0.882  0.8348  0.4267  0.3972
   51TMC2    C7  800   1.650   1.622   0.891  0.1169  0.1592 -0.3136
   51TMC2    C8  801   1.279   1.877   1.040 -0.1422  0.3020 -0.4581
   51TMC2    O1  802   1.753   1.574   0.941 -0.4242 -0.2738  0.3424
   51TMC2    O2  803   1.216   1.904   1.138 -0.6511  0.0965  0.3247
   51TMC2    O5  804   1.245   1.901   0.915  0.5454 -0.7902  0.3347
   51TMC2    H5  805   1.287   1.839   0.851 -1.6910 -1.1706 -0.7552
   52MPD2     C  806   1.105   1.142   1.534  0.6368 -0.3872 -1.0221
   52MPD2    C1  807   1.186   1.116   1.420  1.1879  0.1252 -0.7244
   52MPD2    C2  808   1.236   1.221   1.350  0.7316 -0.0941  0.5233
   52MPD2    C3  809   1.219   1.353   1.391  0.2947  0.6229 -0.4148
   52MPD2    C4  810   1.146   1.378   1.503 -0.7575  0.1276  0.2584
   52MPD2    C5  811   1.091   1.270   1.574 -0.3094 -0.2498 -0.0607
   52MPD2     H  812   1.288   1.198   1.258  0.2410 -0.3846  0.3238
   52MPD2    H1  813   1.126   1.476   1.546 -2.1622 -0.1489  0.2238
   52MPD2    H2  814   1.062   1.063   1.595  1.1377  1.5540  1.7973
   52MPD2    H3  815   1.029   1.289   1.661 -0.2913  1.5553 -0.4267
   52MPD2     N  816   1.288   1.458   1.326 -0.2098  0.0027  0.0118
   52MPD2    H5  817   1.282   1.552   1.364 -1.0938  1.1539 -2.9781
   52MPD2    N1  818   1.220   0.986   1.374  0.2717  0.2361 -0.1491
   52MPD2    H7  819   1.282   0.989   1.294  0.1349 -1.1468 -0.3056
   53TMC2    C1  820   2.700   4.644  11.331  1.4603 -0.3262 -0.1996
   53TMC2    C2  821   2.823   4.601  11.373  1.2431 -0.4949  0.0789
   53TMC2    C3  822   2.847   4.599  11.507  0.3219  0.3853  0.2583
   53TMC2    C4  823   2.603   4.677  11.423  0.7235 -0.5905 -0.2118
   53TMC2    C5  824   2.624   4.669  11.561 -1.0008 -0.3489 -0.3029
   53TMC2    C6  825   2.743   4.614  11.600 -0.4731  0.5365  0.2522
   53TMC2     C  826   2.669   4.605  11.194  0.3415  0.0643  0.0924
   53TMC2     O  827   2.757   4.610  11.109  0.2818 -0.1146 -0.6934
   53TMC2     H  828   2.893   4.572  11.296  1.1727 -3.1442  0.9991
   53TMC2    H1  829   2.508   4.717  11.389  1.1840  1.3426  0.8211
   53TMC2    H2  830   2.758   4.604  11.707 -0.3296  1.5962  0.3256
   53TMC2    C7  831   2.507   4.649  11.648  0.8704 -0.3815 -0.6784
   53TMC2    C8  832   2.972   4.528  11.552  0.3809  0.8515 -0.3408
   53TMC2    O1  833   2.399   4.668  11.596 -0.2217 -0.4907  0.0450
   53TMC2    O2  834   2.974   4.461  11.650  0.2227  0.3425  1.2497
   53TMC2    O5  835   3.070   4.538  11.460  0.2537 -0.3112 -0.5814
   53TMC2    H5  836   3.040   4.589  11.382 -0.1055 -0.2052 -0.3793
   54MPD2     C  837   2.487   4.549  10.956  0.5800  0.3453  0.1135
   54MPD2    C1  838   2.458   4.520  11.088 -0.6973  0.4337 -0.0462
   54MPD2    C2  839   2.345   4.446  11.126  0.5160 -0.1351 -0.0105
   54MPD2    C3  840   2.254   4.410  11.029  0.2395  0.9326 -0.4422
   54MPD2    C4  841   2.278   4.451  10.897 -0.0362 -0.2307 -0.4345
   54MPD2    C5  842   2.398   4.509  10.864  0.5305 -0.7324  0.1558
   54MPD2     H  843   2.319   4.426  11.229 -2.2880  0.2585 -0.6391
   54MPD2    H1  844   2.203   4.422  10.825 -1.2972  0.9795  0.3959
   54MPD2    H2  845   2.579   4.598  10.928  2.9508 -3.5879  1.1423
   54MPD2    H3  846   2.423   4.540  10.763 -0.2012 -0.4252  0.0617
   54MPD2     N  847   2.125   4.363  11.064  0.0670  0.7990 -0.3808
   54MPD2    H5  848   2.051   4.379  10.997  0.7010  1.3245 -0.9540
   54MPD2    N1  849   2.538   4.554  11.199  0.5716 -0.0631  0.4752
   54MPD2    H7  850   2.495   4.550  11.291  3.0465 -0.8514  1.5941
   55TMC2    C1  851   3.378   2.308  17.466 -0.1452 -0.5426  0.8694
   55TMC2    C2  852   3.373   2.268  17.337  0.3328 -0.3662 -0.7908
   55TMC2    C3  853   3.407   2.138  17.311  0.0522  0.0670  0.9017
   55TMC2    C4  854   3.425   2.224  17.562  0.2914 -0.3242  0.0280
   55TMC2    C5  855   3.461   2.098  17.529  0.7172 -0.2524  0.1359
   55TMC2    C6  856   3.448   2.049  17.405  0.1673  0.2562  0.8944
   55TMC2     C  857   3.322   2.428  17.512 -0.1458  0.3128  0.3388
   55TMC2     O  858   3.298   2.436  17.633  0.4691 -0.2426  0.3641
   55TMC2     H  859   3.334   2.320  17.250 -1.2648  1.7365  1.1924
   55TMC2    H1  860   3.447   2.249  17.665 -1.9738  0.5273  0.3082
   55TMC2    H2  861   3.488   1.953  17.376  1.7053  1.4115 -0.8002
   55TMC2    C7  862   3.508   2.006  17.630  0.0486  0.5390  1.2184
   55TMC2    C8  863   3.358   2.096  17.181 -0.2977  0.2010  0.2410
   55TMC2    O1  864   3.538   1.887  17.596 -0.8810 -0.5538 -0.7958
   55TMC2    O2  865   3.348   2.167  17.086 -0.2898 -0.3288 -0.1413
   55TMC2    O5  866   3.345   1.961  17.178  0.4514  0.0604  0.2367
   55TMC2    H5  867   3.341   1.925  17.269 -1.1673 -0.8393 -0.1862
   56MPD2     C  868   3.266   2.737  17.335  0.0108 -0.0052 -0.1178
   56MPD2    C1  869   3.245   2.641  17.430 -0.1160  0.4326  0.2843
   56MPD2    C2  870   3.164   2.675  17.541 -1.0140 -0.3507 -0.3008
   56MPD2    C3  871   3.096   2.796  17.543 -0.1241 -0.2322 -0.3090
   56MPD2    C4  872   3.126   2.892  17.450  0.3405  0.0600 -0.2728
   56MPD2    C5  873   3.216   2.870  17.346  0.9157 -0.0733  0.3751
   56MPD2     H  874   3.146   2.609  17.625 -1.8569  1.1231  0.6763
   56MPD2    H1  875   3.079   2.989  17.452 -1.6210 -0.9632  2.4364
   56MPD2    H2  876   3.328   2.711  17.251  0.3828 -1.5771  0.6342
   56MPD2    H3  877   3.237   2.941  17.267  0.3954 -0.2297  0.0924
   56MPD2     N  878   3.006   2.821  17.654  0.0658 -0.2838  0.9493
   56MPD2    H5  879   2.994   2.757  17.732  2.3822 -0.6990  0.9485
   56MPD2    N1  880   3.301   2.519  17.406  0.1329  0.6369  0.6262
   56MPD2    H7  881   3.331   2.509  17.310 -0.4288  0.6267  0.4551
   57TMC2    C1  882   2.540   3.395  13.572 -0.7552  0.6603  0.0108
   57TMC2    C2  883   2.603   3.296  13.646  0.2075 -0.1849 -0.0193
   57TMC2    C3  884   2.734   3.261  13.614  0.1528  0.8916 -0.8327
   57TMC2    C4  885   2.589   3.446  13.456 -0.6576  1.0493 -0.3164
   57TMC2    C5  886   2.712   3.407  13.417  0.6043 -0.0352 -0.3171
   57TMC2    C6  887   2.784   3.317  13.500 -0.9842  0.0262 -1.0402
   57TMC2     C  888   2.424   3.470  13.638  0.8085  0.5725 -0.0063
   57TMC2     O  889   2.395   3.581  13.596  0.1502 -0.4826  0.3941
   57TMC2     H  890   2.552   3.252  13.731 -0.6099 -0.5878 -0.7142
   57TMC2    H1  891   2.522   3.512  13.403 -1.7875  0.5640  0.4973
   57TMC2    H2  892   2.888   3.297  13.475 -0.9507 -0.6020 -0.4062
   57TMC2    C7  893   2.756   3.436  13.282  0.2302 -0.0650 -0.2869
   57TMC2    C8  894   2.813   3.176  13.699  0.1169  0.3274 -0.2353
   57TMC2    O1  895   2.735   3.538  13.223 -0.4539 -0.6370 -0.0915
   57TMC2    O2  896   2.922   3.122  13.665  0.2152  0.6909  0.0112
   57TMC2    O5  897   2.796   3.212  13.830 -0.1846 -0.0269 -0.1331
   57TMC2    H5  898   2.706   3.245  13.854 -0.8658 -0.4446 -2.0443
   58MPD2     C  899   2.095   3.553  14.023 -0.4658 -0.0778 -0.1384
   58MPD2    C1  900   2.082   3.584  13.892  0.2692  0.2590  0.0132
   58MPD2    C2  901   2.186   3.548  13.811 -0.0587 -0.1920  0.3904
   58MPD2    C3  902   2.284   3.463  13.849 -0.0398  0.7502 -0.5637
   58MPD2    C4  903   2.287   3.423  13.981 -0.0407  0.4970 -0.0596
   58MPD2    C5  904   2.194   3.478  14.069  0.9713  0.2149 -0.3123
   58MPD2     H  905   2.180   3.574  13.706  2.9915  0.5930  0.4005
   58MPD2    H1  906   2.365   3.357  14.018 -1.0669 -0.8043 -0.2567
   58MPD2    H2  907   2.027   3.595  14.097 -0.0759 -1.4468  0.9987
   58MPD2    H3  908   2.197   3.459  14.176 -0.8374 -2.1292 -0.6621
   58MPD2     N  909   2.381   3.410  13.757 -0.7921 -0.2875 -0.8234
   58MPD2    H5  910   2.429   3.328  13.795  0.5807 -0.2475 -2.5133
   58MPD2    N1  911   1.978   3.662  13.841 -0.1161  0.5088  0.3478
   58MPD2    H7  912   1.959   3.664  13.741 -0.2017  2.5071  0.4169
   59TMC2    C1  913   0.093   3.602  12.729  0.0703 -0.1705 -0.2089
   59TMC2    C2  914   0.115   3.520  12.831  0.5537  0.3192  0.7964
   59TMC2    C3  915   0.065   3.391  12.806 -0.1386  0.6722  0.1227
   59TMC2    C4  916   0.040   3.565  12.610 -1.0813  0.3228  0.3477
   59TMC2    C5  917   0.004   3.436  12.593 -0.1624  0.6012 -0.5368
   59TMC2    C6  918   0.003   3.347  12.696  0.1202 -0.6582  0.4809
   59TMC2     C  919   0.103   3.746  12.761 -0.5659 -0.3175  0.4463
   59TMC2     O  920   0.074   3.818  12.665  0.3728  0.0026  0.7587
   59TMC2     H  921   0.173   3.529  12.923 -0.5800  1.1753  1.4217
   59TMC2    H1  922   0.040   3.640  12.532 -0.8362  0.2732  0.3011
   59TMC2    H2  923   4.724   3.240  12.684 -0.8755 -0.5230  0.4750
   59TMC2    C7  924   4.704   3.388  12.465 -0.1193  0.7984  0.5897
   59TMC2    C8  925   0.090   3.294  12.913  0.1550 -0.4116 -0.6249
   59TMC2    O1  926   4.673   3.268  12.468  0.8289  0.4522 -0.0499
   59TMC2    O2  927   0.094   3.317  13.031 -0.0127  0.1788 -0.6502
   59TMC2    O5  928   0.161   3.197  12.865 -0.3157 -0.1406  0.1311
   59TMC2    H5  929   0.178   3.213  12.770 -2.2290  2.0068  0.1483
   60MPD2     C  930   0.187   4.027  12.848 -0.3367 -0.0297 -0.1265
   60MPD2    C1  931   0.165   3.919  12.934  0.1921 -0.3174  0.3941
   60MPD2    C2  932   0.216   3.926  13.061 -0.2316 -0.4667  0.0672
   60MPD2    C3  933   0.278   4.047  13.103  0.4450 -0.8378  0.4366
   60MPD2    C4  934   0.281   4.160  13.022  0.0732  1.2663 -0.2222
   60MPD2    C5  935   0.235   4.145  12.893  0.5722 -0.1182  1.1649
   60MPD2     H  936   0.218   3.837  13.122  0.9938 -0.3378  0.2110
   60MPD2    H1  937   0.341   4.247  13.045  1.3207  0.6029 -1.0121
   60MPD2    H2  938   0.153   4.017  12.746 -0.0412 -0.3905 -0.1889
   60MPD2    H3  939   0.245   4.227  12.823 -0.3720 -0.6310  0.4239
   60MPD2     N  940   0.352   4.054  13.228 -0.8316  0.1212  0.1559
   60MPD2    H5  941   0.390   4.146  13.247  1.6711 -0.3820 -2.5714
   60MPD2    N1  942   0.132   3.783  12.891  0.4755 -0.4028  0.1691
   60MPD2    H7  943   0.153   3.707  12.955  0.9929  0.2560  0.7858
   61TMC2    C1  944   4.076   4.486  14.925 -0.4707 -0.1836 -0.3783
   61TMC2    C2  945   3.994   4.400  15.009 -0.2566 -0.7086  0.2368
   61TMC2    C3  946   3.909   4.463  15.097  0.2573 -0.3103 -0.5391
   61TMC2    C4  947   4.072   4.623  14.933 -0.1731 -0.0561  0.2069
   61TMC2    C5  948   4.005   4.677  15.042  0.1214  0.2687  0.3867
   61TMC2    C6  949   3.925   4.596  15.124  0.3012 -0.2772 -0.0204
   61TMC2     C  950   4.164   4.416  14.828 -0.0276  0.2572  0.8142
   61TMC2     O  951   4.183   4.295  14.834  0.3918 -0.1325 -0.0994
   61TMC2     H  952   3.993   4.295  14.983 -2.5867 -0.7969  0.6658
   61TMC2    H1  953   4.128   4.686  14.864 -0.4687  0.0031  0.0213
   61TMC2    H2  954   3.882   4.636  15.215  0.5712  0.4386 -0.2082
   61TMC2    C7  955   4.002   0.087  15.055 -0.7483 -0.2440 -0.7407
   61TMC2    C8  956   3.836   4.378  15.190  0.7459 -0.1732  0.2402
   61TMC2    O1  957   4.023   0.152  14.950  0.7441 -0.0334  0.6580
   61TMC2    O2  958   3.852   4.258  15.194 -0.2802  0.3987 -0.1962
   61TMC2    O5  959   3.716   4.443  15.207 -0.2391  0.4752  0.1966
   61TMC2    H5  960   3.704   4.534  15.171  2.1289  0.4550 -0.6351
   62MPD2     C  961   4.339   4.341  14.596 -0.0200  0.7666 -0.3036
   62MPD2    C1  962   4.306   4.469  14.630  0.2396 -0.3816  0.3826
   62MPD2    C2  963   4.344   4.575  14.551 -0.8157 -0.2403  0.5794
   62MPD2    C3  964   4.418   4.555  14.436 -0.0579 -0.5167  0.2974
   62MPD2    C4  965   4.456   4.426  14.410  0.7954  0.5700 -0.6154
   62MPD2    C5  966   4.423   4.316  14.489  0.0968 -0.1838  0.2567
   62MPD2     H  967   4.305   4.676  14.561 -2.2912 -0.7333 -0.2777
   62MPD2    H1  968   4.515   4.412  14.320  1.5700  1.6934 -0.2833
   62MPD2    H2  969   4.313   4.255  14.657  0.3246  0.4246 -0.6433
   62MPD2    H3  970   4.460   4.215  14.476 -1.3770 -0.9769  2.3139
   62MPD2     N  971   4.443   4.653  14.339  0.5553  0.0566 -0.3808
   62MPD2    H5  972   4.394   0.006  14.337  0.2532 -0.1051 -0.1202
   62MPD2    N1  973   4.208   4.503  14.733  0.0191  0.0169 -0.4351
   62MPD2    H7  974   4.168   4.595  14.716 -0.8798 -0.2828  0.0662
   63TMC2    C1  975   2.987   4.621   9.737 -0.0134  0.0143  0.4233
   63TMC2    C2  976   2.904   4.557   9.650 -0.6643 -0.8759 -0.0660
   63TMC2    C3  977   2.804   4.624   9.589  0.7362 -0.3661  0.2420
   63TMC2    C4  978   2.971   0.019   9.773 -0.8642 -0.3673 -0.5542
   63TMC2    C5  979   2.857   0.082   9.714  0.1299 -0.7085  0.4626
   63TMC2    C6  980   2.767   0.015   9.635  0.0466 -0.2388 -0.2437
   63TMC2     C  981   3.104   4.552   9.779 -0.0435  0.4283  0.2632
   63TMC2     O  982   3.104   4.435   9.798 -0.6579  0.1917  0.5370
   63TMC2     H  983   2.933   4.455   9.625  3.3857  0.6426 -1.5801
   63TMC2    H1  984   3.029   0.064   9.853 -0.0656  1.0890 -1.9462
   63TMC2    H2  985   2.682   0.063   9.587 -0.3921 -1.9064 -1.1472
   63TMC2    C7  986   2.818   0.221   9.750  0.2258  0.1084 -0.0410
   63TMC2    C8  987   2.721   4.564   9.481  0.5686  0.3148  0.7733
   63TMC2    O1  988   2.707   0.253   9.706  0.8628 -0.1280 -0.4784
   63TMC2    O2  989   2.601   4.594   9.491  0.2079 -0.2354 -0.6716
   63TMC2    O5  990   2.779   4.456   9.421 -0.2046  0.5006 -0.0660
   63TMC2    H5  991   2.877   4.459   9.418 -0.3063  2.6650 -1.2577
   64MPD2     C  992   3.608   4.540   9.876  0.0232  0.3098 -0.2368
   64MPD2    C1  993   3.509   4.450   9.910 -0.7061  0.3902  0.1342
   64MPD2    C2  994   3.382   4.479   9.875 -0.4922 -0.4629  0.3509
   64MPD2    C3  995   3.352   4.598   9.809  0.8742 -0.3456 -0.5391
   64MPD2    C4  996   3.455   4.684   9.761  0.6417  0.0437  0.2235
   64MPD2    C5  997   3.577   4.646   9.799  0.6841  0.0637 -0.4502
   64MPD2     H  998   3.300   4.419   9.912  0.7230 -2.2483  0.1372
   64MPD2    H1  999   3.440   0.039   9.702 -0.0213  0.1781  0.5884
   64MPD2    H2 1000   3.709   4.516   9.907 -0.2377  0.0165  0.3893
   64MPD2    H3 1001   3.663   4.701   9.763  2.2955 -1.9006  0.4094
   64MPD2     N 1002   3.219   4.633   9.778  0.2263 -0.3524 -0.5738
   64MPD2    H5 1003   3.200   4.728   9.749  0.6321  0.1302  0.7299
   64MPD2    N1 1004   3.553   4.343   9.986 -0.0834 -0.4240  0.1831
   64MPD2    H7 1005   3.653   4.334  10.001 -0.3344 -0.9182  1.5923
   65TMC2    C1 1006   4.515   4.320  15.121 -1.0825  0.5477  0.4883
   65TMC2    C2 1007   4.579   4.299  14.998  0.8937  0.0659 -0.3286
   65TMC2    C3 1008   4.587   4.402  14.915  0.0716  0.0415 -0.2593
   65TMC2    C4 1009   4.459   4.437  15.151  0.2073 -0.0446  0.6459
   65TMC2    C5 1010   4.479   4.544  15.070 -0.2057  0.4828 -0.1140
   65TMC2    C6 1011   4.548   4.528  14.957 -0.9000 -0.2775  0.0996
   65TMC2     C 1012   4.509   4.200  15.206 -0.5995  0.1190 -0.5099
   65TMC2     O 1013   4.532   4.091  15.153  0.2637 -0.0819  0.2180
   65TMC2     H 1014   4.625   4.204  14.975  1.5471  0.7637 -1.9209
   65TMC2    H1 1015   4.401   4.456  15.241 -1.8131  2.4907 -1.1886
   65TMC2    H2 1016   4.569   4.615  14.896 -0.2856  1.1176  2.3190
   65TMC2    C7 1017   4.431   4.679  15.098  0.6178  0.6171  0.4106
   65TMC2    C8 1018   4.640   4.393  14.787 -0.4803 -0.0449  0.2785
   65TMC2    O1 1019   4.425   0.019  15.003 -0.6141  0.3823  0.2077
   65TMC2    O2 1020   4.720   4.477  14.747  0.4264  0.2102 -1.0441
   65TMC2    O5 1021   4.646   4.258  14.751 -0.2136 -0.0250 -0.2463
   65TMC2    H5 1022   4.596   4.200  14.812  0.4862  1.6135  1.8894
   66MPD2     C 1023   4.397   4.204  15.554 -0.2233  0.0549 -0.5448
   66MPD2    C1 1024   4.439   4.146  15.433  0.0834 -0.1957 -0.1723
   66MPD2    C2 1025   4.451   4.006  15.426  0.0890  0.2452 -0.0433
   66MPD2    C3 1026   4.441   3.926  15.542  0.9039  0.4369 -0.5978
   66MPD2    C4 1027   4.409   3.994  15.662  0.3249 -0.1603 -0.9444
   66MPD2    C5 1028   4.386   4.134  15.666 -0.2517 -0.1782 -0.8160
   66MPD2     H 1029   4.480   3.953  15.335  2.1593 -2.3271  2.1075
   66MPD2    H1 1030   4.416   3.948  15.760 -0.2218  2.0301  0.1253
   66MPD2    H2 1031   4.387   4.312  15.564 -0.6915  0.0527 -0.9992
   66MPD2    H3 1032   4.356   4.187  15.756 -0.5952  0.2068 -1.1587
   66MPD2     N 1033   4.479   3.788  15.554  0.0709 -0.0807 -0.3530
   66MPD2    H5 1034   4.445   3.742  15.638 -1.4768  0.3727 -0.7372
   66MPD2    N1 1035   4.464   4.234  15.326  0.0113  0.3401  0.1883
   66MPD2    H7 1036   4.451   4.333  15.342 -1.8189  0.4513 -2.0257
   67TMC2    C1 1037   0.331   3.714  14.236  0.3236  0.4286  0.6141
   67TMC2    C2 1038   0.260   3.826  14.224  0.2613 -0.8440 -0.0319
   67TMC2    C3 1039   0.285   3.930  14.315  0.2526  0.7988 -0.4453
   67TMC2    C4 1040   0.413   3.698  14.344 -0.3981  0.8752  0.0470
   67TMC2    C5 1041   0.414   3.794  14.446 -0.3407  0.4406 -0.9052
   67TMC2    C6 1042   0.359   3.913  14.428 -0.2583 -0.4645 -0.2125
   67TMC2     C 1043   0.311   3.590  14.166 -0.2609 -0.1854  0.4569
   67TMC2     O 1044   0.381   3.489  14.182  0.4712  0.8561 -0.2056
   67TMC2     H 1045   0.214   3.843  14.127  0.3046 -0.0126  0.0951
   67TMC2    H1 1046   0.468   3.605  14.348 -0.3649  0.9443  1.1454
   67TMC2    H2 1047   0.348   3.993  14.500  1.6606 -0.5241  0.1679
   67TMC2    C7 1048   0.510   3.772  14.556 -0.8472 -0.0088 -0.3389
   67TMC2    C8 1049   0.257   4.068  14.289  1.1373  0.7119  0.5998
   67TMC2    O1 1050   0.600   3.696  14.524 -0.2095  0.0479  0.0260
   67TMC2    O2 1051   0.244   4.158  14.371 -0.9337 -0.2126  0.2067
   67TMC2    O5 1052   0.283   4.082  14.160 -0.3312  0.6500 -0.2574
   67TMC2    H5 1053   0.333   4.004  14.129  0.8555  1.5410 -0.5926
   68MPD2     C 1054   0.212   3.388  13.962 -0.6421  0.4302  0.2462
   68MPD2    C1 1055   0.154   3.505  13.996 -0.4999 -0.5819 -0.7828
   68MPD2    C2 1056   0.042   3.537  13.920  0.6561 -0.1564 -0.2799
   68MPD2    C3 1057   4.714   3.458  13.829  0.3351  0.0093 -0.1833
   68MPD2    C4 1058   0.045   3.346  13.791 -0.8666  0.4434  0.9402
   68MPD2    C5 1059   0.163   3.315  13.854  0.1415  0.3352 -0.3878
   68MPD2     H 1060   4.731   3.633  13.941 -1.8518 -1.2726 -0.7513
   68MPD2    H1 1061   0.019   3.281  13.708 -0.5731 -0.1116  1.2838
   68MPD2    H2 1062   0.296   3.341  14.012 -0.8488  1.2767  1.3777
   68MPD2    H3 1063   0.202   3.217  13.827  0.8673  0.8160 -1.0708
   68MPD2     N 1064   4.591   3.492  13.770 -0.0285  0.4964 -0.0725
   68MPD2    H5 1065   4.557   3.431  13.697  1.2642 -1.8825  1.3352
   68MPD2    N1 1066   0.201   3.597  14.088  0.2040  0.3805 -0.2635
   68MPD2    H7 1067   0.157   3.689  14.091  0.9882  0.7911 -1.6113
   69TMC2    C1 1068   1.783   0.221  11.702 -0.0433 -0.4566 -0.4359
   69TMC2    C2 1069   1.665   0.201  11.643  0.2340  0.0606 -0.5673
   69TMC2    C3 1070   1.665   0.199  11.509 -0.4808  0.1463 -0.4065
   69TMC2    C4 1071   1.898   0.214  11.637 -0.2496 -0.8846  0.6645
   69TMC2    C5 1072   1.892   0.201  11.505  0.3064  0.2900  0.5632
   69TMC2    C6 1073   1.777   0.196  11.434  0.1098 -0.0709  0.4144
   69TMC2     C 1074   1.793   0.234  11.844  0.1445 -0.2026 -0.5815
   69TMC2     O 1075   1.719   0.173  11.920  0.1553  0.2198  0.6292
   69TMC2     H 1076   1.568   0.190  11.690 -0.6098  0.4325 -2.1832
   69TMC2    H1 1077   1.997   0.225  11.681 -0.1786 -0.4308  0.3920
   69TMC2    H2 1078   1.766   0.182  11.327  0.0957 -0.2809  0.4431
   69TMC2    C7 1079   2.020   0.206  11.434 -0.1991  0.4714 -0.1865
   69TMC2    C8 1080   1.534   0.196  11.439 -0.1392 -0.3084  0.0208
   69TMC2    O1 1081   2.117   0.256  11.490 -0.7137 -0.2130 -0.3531
   69TMC2    O2 1082   1.437   0.142  11.492  0.3280  0.0258  0.2067
   69TMC2    O5 1083   1.524   0.297  11.347  0.7056 -0.4876  0.5894
   69TMC2    H5 1084   1.602   0.350  11.318  0.4604 -0.9651 -0.9365
   70MPD2     C 1085   2.045   0.434  12.010 -0.1376  0.2542  0.6381
   70MPD2    C1 1086   1.965   0.323  11.995 -0.1669  0.4118 -0.1202
   70MPD2    C2 1087   1.959   0.233  12.095  0.0519  0.4024  0.3741
   70MPD2    C3 1088   2.022   0.245  12.210  0.4795 -0.6750 -0.0304
   70MPD2    C4 1089   2.087   0.363  12.234  0.0556 -0.3586  0.0790
   70MPD2    C5 1090   2.115   0.449  12.130 -0.3699  0.1728 -0.1134
   70MPD2     H 1091   1.903   0.141  12.085  1.0167 -0.0466 -0.9398
   70MPD2    H1 1092   2.153   0.387  12.317  0.9589 -1.5295 -0.3015
   70MPD2    H2 1093   2.055   0.511  11.935 -1.1893 -1.0476 -0.8341
   70MPD2    H3 1094   2.180   0.534  12.146  1.1897 -1.3261  1.5467
   70MPD2     N 1095   2.022   0.133  12.300 -0.8455  0.0302  0.6965
   70MPD2    H5 1096   1.987   0.044  12.265  2.1812 -1.4368  1.3720
   70MPD2    N1 1097   1.901   0.310  11.870  0.2522 -0.6110 -0.0278
   70MPD2    H7 1098   1.943   0.368  11.798  0.6053 -1.1919 -0.2950
   71TMC2    C1 1099   4.528   4.488   0.911  0.7106  0.5969  0.5342
   71TMC2    C2 1100   4.442   4.379   0.898 -0.2343  0.4779  0.3133
   71TMC2    C3 1101   4.381   4.338   1.012 -0.0609 -0.0225  0.3085
   71TMC2    C4 1102   4.551   4.551   1.036 -0.2166  0.3053  0.3767
   71TMC2    C5 1103   4.500   4.493   1.146  0.0776  1.1042 -0.0112
   71TMC2    C6 1104   4.415   4.391   1.137  0.0529 -0.0204  0.0200
   71TMC2     C 1105   4.559   4.583   0.806 -0.6666 -0.3568 -0.3606
   71TMC2     O 1106   4.589   4.696   0.838  0.4058  0.5803 -0.0952
   71TMC2     H 1107   4.420   4.340   0.800 -2.2539 -1.2109  1.4367
   71TMC2    H1 1108   4.627   4.627   1.044 -1.7420  1.7557  1.1960
   71TMC2    H2 1109   4.375   4.344   1.226 -1.0078  0.3195 -0.2709
   71TMC2    C7 1110   4.460   4.593   1.247 -0.8054  0.4965 -0.2494
   71TMC2    C8 1111   4.304   4.214   1.004 -0.3160 -0.7390  0.0267
   71TMC2    O1 1112   4.542   4.679   1.273 -0.3689  0.0541 -0.2083
   71TMC2    O2 1113   4.291   4.169   0.891 -0.0785  0.0497  0.2803
   71TMC2    O5 1114   4.243   4.181   1.119  0.2380  0.1807  0.1301
   71TMC2    H5 1115   4.227   4.259   1.177  1.9551  2.4722 -2.5049
   72MPD2     C 1116   4.670   4.692   0.320 -1.3411  0.7086 -0.1392
   72MPD2    C1 1117   4.696   0.025   0.437  0.3515 -0.1384 -0.2186
   72MPD2    C2 1118   4.653   4.705   0.554 -0.5519 -0.6902  0.6157
   72MPD2    C3 1119   4.594   4.577   0.557 -0.3451 -0.3782  0.4258
   72MPD2    C4 1120   4.579   4.515   0.437 -0.2707 -0.1312  0.3906
   72MPD2    C5 1121   4.607   4.577   0.318 -0.5237 -0.3453 -0.1175
   72MPD2     H 1122   4.650   0.035   0.640 -2.7114  1.1884 -0.8936
   72MPD2    H1 1123   4.540   4.413   0.432 -1.6163  0.4625 -1.3020
   72MPD2    H2 1124   4.687   4.732   0.221  0.1993  1.8066  0.5541
   72MPD2    H3 1125   4.588   4.537   0.219 -0.1206  1.4515 -0.9263
   72MPD2     N 1126   4.548   4.523   0.680  0.2194  0.4139  1.0036
   72MPD2    H5 1127   4.517   4.427   0.687 -0.4642  0.6920  1.8780
   72MPD2    N1 1128   0.030   0.151   0.435  0.1736  0.0539  0.2088
   72MPD2    H7 1129   0.048   0.185   0.530 -0.5968 -0.0453  0.3879
   73TMC2    C1 1130   4.002   2.101  13.384 -0.4094 -0.4461  0.6201
   73TMC2    C2 1131   3.939   1.980  13.385  0.1012 -0.2332 -0.1857
   73TMC2    C3 1132   3.996   1.876  13.447 -0.2654 -0.1167 -0.3880
   73TMC2    C4 1133   4.128   2.110  13.447  0.0010  0.7293 -0.3642
   73TMC2    C5 1134   4.170   2.013  13.528 -0.6229  0.0341 -0.9916
   73TMC2    C6 1135   4.110   1.889  13.527 -0.3398  0.3991 -0.4788
   73TMC2     C 1136   3.908   2.214  13.380 -0.0263  0.7452  0.4737
   73TMC2     O 1137   3.796   2.199  13.331 -0.0096 -0.2118  0.2060
   73TMC2     H 1138   3.835   1.972  13.356  0.2165 -2.3829  0.0312
   73TMC2    H1 1139   4.188   2.197  13.424 -0.0343  0.4069 -1.6773
   73TMC2    H2 1140   4.147   1.810  13.591 -0.8437  0.0459 -0.6231
   73TMC2    C7 1141   4.288   2.041  13.608  0.1444  0.8620 -0.9360
   73TMC2    C8 1142   3.920   1.747  13.474  0.2530  0.5081 -0.3255
   73TMC2    O1 1143   4.361   1.949  13.640 -0.1245  0.1249  0.3603
   73TMC2    O2 1144   3.950   1.672  13.563 -0.4258 -0.0087 -0.1221
   73TMC2    O5 1145   3.799   1.754  13.418 -0.3001 -0.1451 -0.1169
   73TMC2    H5 1146   3.795   1.800  13.331 -0.6897  1.6390  0.8393
   74MPD2     C 1147   3.796   2.700  13.539  0.1362  0.9824  0.4036
   74MPD2    C1 1148   3.907   2.662  13.601 -0.4232 -0.8213 -0.3829
   74MPD2    C2 1149   3.957   2.537  13.571  0.5634  0.5826 -0.3994
   74MPD2    C3 1150   3.890   2.442  13.489  0.0733  0.1025  0.1243
   74MPD2    C4 1151   3.773   2.482  13.430 -0.0633  0.3726 -0.2549
   74MPD2    C5 1152   3.722   2.613  13.462 -0.1310 -0.7876  0.0558
   74MPD2     H 1153   4.051   2.506  13.614 -0.2871  0.3081  1.2561
   74MPD2    H1 1154   3.721   2.424  13.355 -0.8475  1.3699 -0.4846
   74MPD2    H2 1155   3.749   2.796  13.558 -0.5984  1.1158 -2.0871
   74MPD2    H3 1156   3.628   2.642  13.416  0.6151 -0.4132 -1.2145
   74MPD2     N 1157   3.957   2.320  13.454 -0.0581  0.1216 -0.4222
   74MPD2    H5 1158   4.055   2.320  13.483 -0.1868 -1.3852  0.0142
   74MPD2    N1 1159   3.975   2.752  13.684  0.2079  0.3078 -0.4625
   74MPD2    H7 1160   3.930   2.841  13.699  0.5998 -0.0729  3.1005
   75TMC2    C1 1161   4.376   3.585  13.734 -0.6302  0.3518  0.2459
   75TMC2    C2 1162   4.261   3.593  13.806 -0.4343 -0.1823  0.0712
   75TMC2    C3 1163   4.152   3.595  13.727  0.0902  0.8409 -0.2691
   75TMC2    C4 1164   4.382   3.591  13.598  0.1960 -0.5660 -0.2994
   75TMC2    C5 1165   4.273   3.577  13.527 -0.2706  0.4869 -0.6258
   75TMC2    C6 1166   4.152   3.583  13.587  0.0279  0.2231  0.0902
   75TMC2     C 1167   4.501   3.587  13.813 -0.2906  0.2526  0.0264
   75TMC2     O 1168   4.505   3.665  13.904  0.2723 -0.2232 -0.1874
   75TMC2     H 1169   4.266   3.598  13.914 -0.8678 -2.0437  0.1885
   75TMC2    H1 1170   4.482   3.586  13.557  1.2772 -1.8284  2.4700
   75TMC2    H2 1171   4.054   3.592  13.541 -0.7478  1.2641  1.9317
   75TMC2    C7 1172   4.264   3.637  13.390 -0.6952  0.2090  0.1559
   75TMC2    C8 1173   4.024   3.617  13.791  0.3591  0.6402 -0.2294
   75TMC2    O1 1174   4.205   3.568  13.308  0.3929  0.3562 -0.0670
   75TMC2    O2 1175   3.914   3.571  13.761  0.1250 -0.4967  0.8599
   75TMC2    O5 1176   4.044   3.722  13.864  0.2757  0.2499  0.0414
   75TMC2    H5 1177   4.126   3.772  13.842  1.7553 -2.3986 -0.3800
   76TMC2    C1 1178   2.785   0.055  12.193 -0.0275 -0.4342  0.0115
   76TMC2    C2 1179   2.690   0.124  12.263 -0.8577 -0.1566 -0.1916
   76TMC2    C3 1180   2.625   0.067  12.375  0.0407 -0.0884 -0.1590
   76TMC2    C4 1181   2.811   4.654  12.221 -0.1879  0.0685 -0.0430
   76TMC2    C5 1182   2.747   4.603  12.329 -0.1071  0.3547 -0.7807
   76TMC2    C6 1183   2.652   4.672  12.401  0.1563 -0.1112 -0.4947
   76TMC2     C 1184   2.839   0.121  12.073  0.2334 -0.1423 -0.1615
   76TMC2     O 1185   2.775   0.223  12.042 -0.1645  0.7153  0.1276
   76TMC2     H 1186   2.664   0.227  12.246  0.7185  0.7779  3.0296
   76TMC2    H1 1187   2.881   4.592  12.167 -2.0822 -1.5278 -0.6675
   76TMC2    H2 1188   2.612   4.618  12.486 -0.9814 -0.2321 -1.1100
   76TMC2    C7 1189   2.783   4.469  12.371 -0.7146 -0.2305 -0.6782
   76TMC2    C8 1190   2.571   0.165  12.474 -0.3311  0.2695 -0.1448
   76TMC2    O1 1191   2.699   4.418  12.448 -0.1319 -0.0986  0.0816
   76TMC2    O2 1192   2.516   0.272  12.444 -0.2191  0.0456  0.6528
   76TMC2    O5 1193   2.615   0.125  12.595  0.8167  0.2750 -0.2044
   76TMC2    H5 1194   2.650   0.034  12.602 -0.9762 -0.3580  0.3159
   77MPD2     C 1195   3.124   0.117  11.633 -0.4558  1.1047 -0.0478
   77MPD2    C1 1196   3.011   0.185  11.671  0.1277  0.3669 -0.7868
   77MPD2    C2 1197   2.962   0.176  11.805  0.5303  0.5646  0.2950
   77MPD2    C3 1198   3.018   0.098  11.901 -0.0174  0.0578 -0.2862
   77MPD2    C4 1199   3.134   0.031  11.862 -0.2405  0.5554 -0.8388
   77MPD2    C5 1200   3.186   0.039  11.729 -0.0943  0.0779 -0.3946
   77MPD2     H 1201   2.875   0.231  11.839 -0.9664 -2.5631  1.4617
   77MPD2    H1 1202   3.192   4.707  11.932  0.5259  1.1936 -0.9279
   77MPD2    H2 1203   3.151   0.110  11.528 -0.4098 -2.1566  0.1634
   77MPD2    H3 1204   3.269   4.712  11.699  0.3098  0.8772 -0.9362
   77MPD2     N 1205   2.961   0.068  12.025  0.4913 -0.5836  0.6190
   77MPD2    H5 1206   3.009   4.733  12.080  1.6591 -0.4128 -0.1840
   77MPD2    N1 1207   2.933   0.251  11.571 -0.9938  0.2596 -0.4661
   77MPD2    H7 1208   2.836   0.270  11.594 -1.5545  0.1332 -2.7013
   78TMC2    C1 1209   0.179   3.314   1.039 -0.5300 -0.0416  0.4241
   78TMC2    C2 1210   0.230   3.267   0.926 -0.4736  0.2555  0.7036
   78TMC2    C3 1211   0.341   3.324   0.881  0.3285  0.2035  0.0578
   78TMC2    C4 1212   0.216   3.430   1.096  0.0609 -0.0569 -0.0260
   78TMC2    C5 1213   0.331   3.487   1.055  0.3334 -0.9834 -0.2684
   78TMC2    C6 1214   0.398   3.430   0.947 -0.2118  0.2446  0.7323
   78TMC2     C 1215   0.065   3.239   1.098  0.4043 -0.0888  0.2449
   78TMC2     O 1216   4.729   3.172   1.024  0.0349 -0.4233  0.2366
   78TMC2     H 1217   0.188   3.189   0.864  2.0249 -2.3122  2.2372
   78TMC2    H1 1218   0.157   3.473   1.177 -1.4325 -0.1585 -1.0594
   78TMC2    H2 1219   0.493   3.474   0.918 -1.5278  1.6880 -1.3481
   78TMC2    C7 1220   0.360   3.629   1.088 -0.2485 -0.4740 -0.0920
   78TMC2    C8 1221   0.399   3.258   0.761 -0.3960  0.3016  0.1609
   78TMC2    O1 1222   0.428   3.691   1.010  0.2597 -0.1268  0.2428
   78TMC2    O2 1223   0.344   3.184   0.683  0.5453  0.0288 -0.2307
   78TMC2    O5 1224   0.532   3.260   0.783 -0.3123 -0.1218  0.2957
   78TMC2    H5 1225   0.569   3.304   0.863  2.2878 -1.2573 -0.2784
   79MPD1     C 1226   4.438   3.188   1.462 -0.0835 -0.0327 -0.0408
   79MPD1    C1 1227   4.431   3.153   1.331 -0.2645  0.1502 -0.0075
   79MPD1    C2 1228   4.542   3.175   1.250  0.5957 -0.4873 -0.4601
   79MPD1    C3 1229   4.662   3.225   1.305  0.1846  0.0739  0.3675
   79MPD1    C4 1230   4.672   3.239   1.439  0.6054 -0.4943 -1.0064
   79MPD1    C5 1231   4.556   3.217   1.520 -0.1488  0.2401  0.3632
   79MPD1     H 1232   4.533   3.159   1.143  0.8022 -2.8929 -0.1175
   79MPD1    H1 1233   0.028   3.270   1.489 -0.3771  1.6768 -0.5395
   79MPD1    H2 1234   4.358   3.187   1.535  0.3793 -0.5287  0.4531
   79MPD1    H3 1235   4.557   3.242   1.625  1.3613 -2.2737  0.9215
   79MPD1     N 1236   0.041   3.268   1.236  0.2104  0.3064 -0.2683
   79MPD1    H5 1237   0.115   3.304   1.296  0.2667  0.5425 -0.4845
   79MPD1    N1 1238   4.304   3.133   1.281 -0.1378 -0.3315 -0.0461
   79MPD1    H6 1239   4.244   3.086   1.349 -2.9648 -1.0607 -3.0247
   79MPD1    H7 1240   4.306   3.072   1.200 -2.2863  0.2676 -0.5378
   80TMC2    C1 1241   1.991   3.863  12.076  0.5180  0.3387  0.1937
   80TMC2    C2 1242   1.928   3.864  11.954 -0.0563  0.1425 -0.0225
   80TMC2    C3 1243   1.787   3.851  11.960 -0.0976  0.5565  0.2528
   80TMC2    C4 1244   1.927   3.842  12.191 -0.7897  0.5969  0.0783
   80TMC2    C5 1245   1.788   3.820  12.195 -0.2797  0.4340 -0.1000
   80TMC2    C6 1246   1.717   3.816  12.077  0.4688 -0.2786  0.1563
   80TMC2     C 1247   2.134   3.909  12.080 -0.2511  0.6184  0.0925
   80TMC2     O 1248   2.166   3.995  11.999 -0.0187 -0.8449 -0.5457
   80TMC2     H 1249   1.977   3.914  11.871  0.1186  0.2335  0.1353
   80TMC2    H1 1250   1.976   3.878  12.282 -0.4808 -2.7727  1.2405
   80TMC2    H2 1251   1.616   3.779  12.070  0.1468  0.6868 -0.3458
   80TMC2    C7 1252   1.727   3.812  12.327  0.9667 -0.4711 -0.0266
   80TMC2    C8 1253   1.730   3.830  11.832 -0.1166  0.3134  0.0871
   80TMC2    O1 1254   1.603   3.808  12.326  0.2058 -0.1615 -0.3376
   80TMC2    O2 1255   1.610   3.841  11.798  0.7214  0.1597  0.0345
   80TMC2    O5 1256   1.818   3.786  11.747 -0.8887 -0.0225 -0.2586
   80TMC2    H5 1257   1.901   3.763  11.794 -0.6683  0.3641 -0.4630
   81MPD2     C 1258   2.372   3.871  12.364 -0.1434  0.0995  0.3432
   81MPD2    C1 1259   2.323   3.922  12.247  0.2411  0.5582  0.4134
   81MPD2    C2 1260   2.393   4.021  12.180 -0.5477  0.3672  0.3477
   81MPD2    C3 1261   2.509   4.066  12.228  0.6936  0.1042  0.5926
   81MPD2    C4 1262   2.567   4.004  12.336 -0.0826  0.3155 -0.2329
   81MPD2    C5 1263   2.494   3.912  12.410 -0.0343  0.0631  0.3308
   81MPD2     H 1264   2.352   4.049  12.084  1.0997 -0.6027 -0.6337
   81MPD2    H1 1265   2.669   4.025  12.367  0.0615 -0.0287 -0.4835
   81MPD2    H2 1266   2.324   3.801  12.431 -2.0986  1.4343  0.3453
   81MPD2    H3 1267   2.529   3.871  12.504 -2.6706 -2.3101  0.2748
   81MPD2     N 1268   2.573   4.174  12.164 -0.4017 -0.5536 -0.4025
   81MPD2    H5 1269   2.675   4.180  12.164 -0.4953  1.0942 -0.5488
   81MPD2    N1 1270   2.202   3.866  12.194  0.7832  0.5584 -0.5968
   81MPD2    H7 1271   2.157   3.797  12.254  1.6494  0.1314 -0.4400
   82TMC2    C1 1272   0.552   3.275  11.410 -0.0197 -0.5327 -0.2130
   82TMC2    C2 1273   0.576   3.300  11.543 -0.0019  0.3161 -0.0690
   82TMC2    C3 1274   0.656   3.205  11.609  0.1181  0.1262 -0.0594
   82TMC2    C4 1275   0.621   3.182  11.348  0.2890 -0.0630  0.5481
   82TMC2    C5 1276   0.710   3.096  11.408 -0.4495  0.9009  0.0996
   82TMC2    C6 1277   0.726   3.107  11.546  0.8153 -0.1466 -0.1293
   82TMC2     C 1278   0.424   3.304  11.354 -0.3388 -0.2769  0.1899
   82TMC2     O 1279   0.420   3.308  11.233  0.1828  0.0662  0.5458
   82TMC2     H 1280   0.498   3.356  11.593 -0.5740 -0.2566 -0.3106
   82TMC2    H1 1281   0.588   3.158  11.248  0.4733  0.4582  0.3626
   82TMC2    H2 1282   0.774   3.031  11.606  0.7523  0.1791  0.3295
   82TMC2    C7 1283   0.717   2.954  11.369  0.1716 -0.4127 -0.0633
   82TMC2    C8 1284   0.665   3.212  11.753  0.3501  0.4290 -0.1049
   82TMC2    O1 1285   0.762   2.868  11.447  0.2986 -0.6398 -0.0049
   82TMC2    O2 1286   0.660   3.125  11.836 -0.3631 -0.0625  0.8080
   82TMC2    O5 1287   0.692   3.342  11.781 -0.0639  0.0831  0.1711
   82TMC2    H5 1288   0.708   3.388  11.695 -0.2365 -1.6469 -0.7855
   83MPD2     C 1289   4.653   3.201  11.378 -0.0752 -0.1555 -0.3629
   83MPD2    C1 1290   4.727   3.243  11.270  0.6550 -0.0786  0.1929
   83MPD2    C2 1291   0.122   3.271  11.293  0.0590 -0.5175  0.1056
   83MPD2    C3 1292   0.184   3.263  11.416  0.3570  0.1686 -1.0688
   83MPD2    C4 1293   0.101   3.226  11.522  0.5168  0.4945 -0.0539
   83MPD2    C5 1294   4.705   3.193  11.499 -0.1867 -0.7861 -0.3311
   83MPD2     H 1295   0.195   3.298  11.218 -0.7692 -0.7401 -0.7829
   83MPD2    H1 1296   0.138   3.193  11.619  0.6421  1.7863  0.3355
   83MPD2    H2 1297   4.550   3.168  11.370  0.4576 -1.9788  0.4206
   83MPD2    H3 1298   4.639   3.151  11.574 -1.2215  2.3292  0.4996
   83MPD2     N 1299   0.320   3.301  11.439 -0.4115  0.2219 -0.3410
   83MPD2    H5 1300   0.344   3.301  11.538 -0.9727  0.8586 -0.2057
   83MPD2    N1 1301   4.665   3.273  11.146  0.1663 -0.0869 -0.1873
   83MPD2    H7 1302   4.563   3.276  11.141  0.2007  1.0781 -0.1230
   84TMC2    C1 1303   1.166   3.024  11.375  0.8863  0.0430  0.0386
   84TMC2    C2 1304   1.129   2.953  11.494  0.9564 -0.2950  0.6257
   84TMC2    C3 1305   1.207   2.949  11.596  0.6898 -0.4750 -0.0449
   84TMC2    C4 1306   1.295   3.059  11.366 -0.0773 -0.1562  0.0496
   84TMC2    C5 1307   1.390   3.037  11.468 -0.2331  0.1100 -0.1298
   84TMC2    C6 1308   1.340   2.986  11.588 -0.3882 -0.0585 -0.3796
   84TMC2     C 1309   1.077   3.124  11.333  0.0408  0.1326  0.2559
   84TMC2     O 1310   0.986   3.144  11.409  0.0790 -0.2961  0.1283
   84TMC2     H 1311   1.024   2.927  11.506  0.0183  3.3495  0.0955
   84TMC2    H1 1312   1.327   3.112  11.277  0.9816  1.6036  1.4824
   84TMC2    H2 1313   1.405   2.964  11.672 -1.7904  3.3538  1.6076
   84TMC2    C7 1314   1.516   3.105  11.476  0.0264  0.3512 -0.3802
   84TMC2    C8 1315   1.155   2.880  11.713 -0.3515 -0.6994 -0.7034
   84TMC2    O1 1316   1.583   3.085  11.376  0.4156  0.0735 -0.6121
   84TMC2    O2 1317   1.061   2.796  11.720 -0.3286 -0.0671 -0.2955
   84TMC2    O5 1318   1.225   2.929  11.820  0.1016  0.3542 -0.0045
   84TMC2    H5 1319   1.259   3.020  11.807 -0.8246  0.4221 -1.8528
   85TMC2    C1 1320   2.406   0.780  16.035 -0.1919 -0.3745  0.7546
   85TMC2    C2 1321   2.358   0.788  15.908  0.1382 -0.2706 -0.4772
   85TMC2    C3 1322   2.346   0.907  15.849 -0.3277 -0.7206 -1.1070
   85TMC2    C4 1323   2.466   0.890  16.089 -0.3540  0.0827  0.2038
   85TMC2    C5 1324   2.467   1.008  16.019  0.5446 -0.1533  0.3191
   85TMC2    C6 1325   2.400   1.019  15.901 -0.3471 -0.8304  0.4850
   85TMC2     C 1326   2.399   0.656  16.113 -0.0947 -0.2314 -0.2864
   85TMC2     O 1327   2.466   0.654  16.216 -0.3753  0.1370 -0.3180
   85TMC2     H 1328   2.306   0.703  15.865 -0.2862 -1.6279  2.6988
   85TMC2    H1 1329   2.490   0.885  16.195 -1.0144 -0.0636  0.3437
   85TMC2    H2 1330   2.398   1.112  15.845  0.7751 -1.7571 -1.0860
   85TMC2    C7 1331   2.527   1.123  16.074 -0.6396 -0.1135  0.0798
   85TMC2    C8 1332   2.312   0.908  15.707  0.4739 -0.7007 -0.8906
   85TMC2    O1 1333   2.507   1.226  16.012 -0.4968  0.5918 -0.6108
   85TMC2    O2 1334   2.315   0.806  15.636 -0.2451  0.6495  0.2930
   85TMC2    O5 1335   2.231   1.014  15.677  0.9176  0.2887  0.1712
   85TMC2    H5 1336   2.203   1.073  15.750 -1.3608 -2.7511  1.7784
   86MPD2     C 1337   2.228   0.184  16.214  0.4912  0.2404 -0.3975
   86MPD2    C1 1338   2.150   0.237  16.115 -0.2027  0.1252 -0.0958
   86MPD2    C2 1339   2.183   0.358  16.058 -0.8335  0.3148  0.9044
   86MPD2    C3 1340   2.287   0.431  16.107 -0.3948  0.3403 -0.3247
   86MPD2    C4 1341   2.371   0.373  16.197  0.3716 -0.0099 -0.1309
   86MPD2    C5 1342   2.333   0.250  16.265 -0.2559 -0.0916  0.4510
   86MPD2     H 1343   2.116   0.397  15.982 -0.0950  2.6569  1.4921
   86MPD2    H1 1344   2.461   0.423  16.230  0.4006  0.0883 -0.3602
   86MPD2    H2 1345   2.216   0.089  16.264  0.3317 -0.6171 -2.0745
   86MPD2    H3 1346   2.399   0.205  16.339 -0.2386 -0.0452  0.4637
   86MPD2     N 1347   2.311   0.563  16.068 -0.0668 -0.3663 -0.4458
   86MPD2    H5 1348   2.246   0.610  16.005  1.3125 -2.0188 -3.1326
   86MPD2    N1 1349   2.035   0.165  16.068  0.0048  0.1019  0.1084
   86MPD2    H7 1350   1.999   0.198  15.979 -0.5928  0.3270  0.4366
   87TMC2    C1 1351   4.696   2.898   0.666  0.6239 -0.0062 -0.3070
   87TMC2    C2 1352   4.675   2.853   0.794  0.1333 -0.0816 -0.0636
   87TMC2    C3 1353   4.603   2.931   0.879 -0.2144  0.1679  0.2442
   87TMC2    C4 1354   4.633   3.019   0.630 -0.2249 -0.1762 -0.1503
   87TMC2    C5 1355   4.559   3.089   0.722  0.6840 -0.8203  0.1700
   87TMC2    C6 1356   4.542   3.051   0.853 -0.0336 -0.2883  0.3468
   87TMC2     C 1357   0.037   2.828   0.568 -0.2519  0.1997 -0.5263
   87TMC2     O 1358   0.022   2.849   0.448  0.2587  0.0840 -0.5599
   87TMC2     H 1359   4.704   2.755   0.831  1.4504 -0.0180 -0.9291
   87TMC2    H1 1360   4.654   3.048   0.528  1.4230 -1.9895 -0.3348
   87TMC2    H2 1361   4.489   3.116   0.922  2.6762  1.1901  1.0300
   87TMC2    C7 1362   4.584   3.238   0.728  0.1729 -0.3629 -0.1514
   87TMC2    C8 1363   4.551   2.875   1.002  0.1974 -0.1134 -0.3330
   87TMC2    O1 1364   4.511   3.303   0.801  0.0197 -0.2449  0.5884
   87TMC2    O2 1365   4.520   2.761   1.012 -0.3581  0.3278 -0.6716
   87TMC2    O5 1366   4.643   2.934   1.084 -0.7616  0.6420  0.5569
   87TMC2    H5 1367   4.678   3.020   1.052 -1.6052  0.3527 -1.1777
   88MPD2     C 1368   0.144   3.411   0.596  0.3817 -0.0837 -0.1887
   88MPD2    C1 1369   0.038   3.391   0.678  0.0545  0.2825  0.7503
   88MPD2    C2 1370   0.009   3.485   0.779  0.0401  0.1940 -0.3516
   88MPD2    C3 1371   0.090   3.598   0.793  0.1632 -0.3717  0.0088
   88MPD2    C4 1372   0.189   3.616   0.701  0.4748 -0.2984 -0.4250
   88MPD2    C5 1373   0.219   3.525   0.610  0.9824  0.2440  0.3652
   88MPD2     H 1374   4.654   3.467   0.836  1.2942 -1.2336  1.1621
   88MPD2    H1 1375   0.256   3.700   0.714 -0.4813  0.4819 -0.5237
   88MPD2    H2 1376   0.157   3.342   0.513 -2.9187 -0.0753 -0.7252
   88MPD2    H3 1377   0.294   3.565   0.543  2.1008 -0.4958  1.1827
   88MPD2     N 1378   0.063   3.693   0.890 -0.4155 -0.5453 -0.7897
   88MPD2    H5 1379   0.094   3.788   0.872  0.0610 -0.6987 -0.7884
   88MPD2    N1 1380   4.700   3.271   0.659  0.4068  0.4669 -0.5029
   88MPD2    H7 1381   0.001   3.210   0.586  0.8050 -0.1282  0.1916
   89TMC2    C1 1382   0.201   2.114   1.668  0.3762  0.6393 -0.0036
   89TMC2    C2 1383   0.167   2.035   1.559 -0.7333  0.0129  0.2978
   89TMC2    C3 1384   0.219   2.074   1.436  0.1283 -0.3506 -0.1351
   89TMC2    C4 1385   0.277   2.230   1.650 -0.0062 -0.1984 -0.3802
   89TMC2    C5 1386   0.330   2.262   1.524 -0.3109  0.1793 -0.5502
   89TMC2    C6 1387   0.296   2.183   1.421  0.7042 -0.9826 -0.5253
   89TMC2     C 1388   0.174   2.056   1.798 -0.1300 -0.3998 -0.1044
   89TMC2     O 1389   0.184   2.138   1.894 -0.0799  0.2132  0.2009
   89TMC2     H 1390   0.092   1.956   1.562 -0.3671 -0.3563 -0.4964
   89TMC2    H1 1391   0.318   2.280   1.737 -0.4787 -0.3206 -0.0849
   89TMC2    H2 1392   0.325   2.219   1.324  0.7736 -1.4656 -0.6843
   89TMC2    C7 1393   0.444   2.349   1.529 -0.0625 -0.0467 -0.1969
   89TMC2    C8 1394   0.177   2.018   1.310 -0.3252  0.2957  0.1906
   89TMC2    O1 1395   0.444   2.427   1.628  0.2346 -0.2717  0.0385
   89TMC2    O2 1396   0.190   2.071   1.200  0.2874 -0.4163 -0.0956
   89TMC2    O5 1397   0.169   1.881   1.328 -0.4403 -0.0925 -1.0247
   89TMC2    H5 1398   0.160   1.862   1.424 -1.8515  0.9005 -0.9502
   90MPD2     C 1399   0.168   1.666   2.129 -0.1508 -0.1732  0.6882
   90MPD2    C1 1400   0.109   1.623   2.011  0.2396  0.1479 -0.0406
   90MPD2    C2 1401   0.116   1.703   1.891 -0.5992  0.0826 -0.6076
   90MPD2    C3 1402   0.167   1.830   1.909 -0.3136  0.2657  0.5931
   90MPD2    C4 1403   0.211   1.876   2.034  0.1742 -1.1520 -0.7523
   90MPD2    C5 1404   0.213   1.795   2.136  0.0882  0.3280 -0.1847
   90MPD2     H 1405   0.086   1.670   1.792  0.6341  0.8645 -1.2364
   90MPD2    H1 1406   0.245   1.978   2.044 -0.8333 -0.6780 -2.2314
   90MPD2    H2 1407   0.183   1.604   2.217 -0.5762 -0.6215  0.4469
   90MPD2    H3 1408   0.244   1.846   2.226  0.8582  1.2836 -0.9942
   90MPD2     N 1409   0.157   1.919   1.803 -0.1828 -0.6430 -0.2269
   90MPD2    H5 1410   0.153   1.859   1.720  0.3502 -0.1683 -0.5942
   90MPD2    N1 1411   0.062   1.493   2.014 -1.0796  0.2900  0.2285
   90MPD2    H7 1412   0.079   1.427   2.089 -3.1540 -0.2474  0.2217
   91TMC2    C1 1413   2.195   1.661  15.786 -0.6863 -0.1273 -0.3577
   91TMC2    C2 1414   2.293   1.672  15.883  0.3135 -0.1526 -0.1281
   91TMC2    C3 1415   2.309   1.553  15.952  0.7645 -0.0728 -0.1907
   91TMC2    C4 1416   2.109   1.556  15.756 -0.7105  0.2394 -0.2012
   91TMC2    C5 1417   2.136   1.445  15.827  0.1762  0.4006 -0.0161
   91TMC2    C6 1418   2.235   1.441  15.921 -0.0478  0.0031 -0.5961
   91TMC2     C 1419   2.182   1.778  15.699 -0.2840 -0.7065 -0.5378
   91TMC2     O 1420   2.091   1.777  15.617  0.2875 -0.3532 -0.5438
   91TMC2     H 1421   2.349   1.754  15.925  0.5137  1.1035 -2.8157
   91TMC2    H1 1422   2.035   1.567  15.677 -0.3665  0.9556 -0.4236
   91TMC2    H2 1423   2.264   1.345  15.962 -1.2026  0.5722  1.5173
   91TMC2    C7 1424   2.070   1.328  15.783  0.2524 -0.1131 -0.1659
   91TMC2    C8 1425   2.392   1.551  16.072 -0.5559 -0.0475  0.2883
   91TMC2    O1 1426   2.125   1.218  15.803 -0.8708 -0.0007 -0.7289
   91TMC2    O2 1427   2.486   1.623  16.097 -0.1930  0.7813 -0.1507
   91TMC2    O5 1428   2.303   1.518  16.167  0.6559 -0.1258  0.4008
   91TMC2    H5 1429   2.216   1.490  16.131 -0.2602  0.7173  1.9248
   92MPD2     C 1430   2.246   2.011  15.533 -0.1811 -0.2056  0.5551
   92MPD2    C1 1431   2.331   1.964  15.627  0.1855  0.5189  0.3811
   92MPD2    C2 1432   2.448   2.034  15.660 -0.8200 -0.6512  0.2310
   92MPD2    C3 1433   2.490   2.134  15.581 -0.1347 -0.4134 -0.2743
   92MPD2    C4 1434   2.404   2.181  15.480  0.3881 -0.4378 -0.6830
   92MPD2    C5 1435   2.281   2.122  15.461  0.0934  0.2678 -0.2233
   92MPD2     H 1436   2.512   2.000  15.740 -1.3728 -3.3015 -0.4239
   92MPD2    H1 1437   2.426   2.268  15.420 -1.3434 -1.7256 -3.1916
   92MPD2    H2 1438   2.148   1.964  15.525  0.8899 -2.4556  0.6576
   92MPD2    H3 1439   2.205   2.143  15.387  0.8551  3.6363 -0.0627
   92MPD2     N 1440   2.618   2.198  15.617  0.4913 -0.8337 -0.1924
   92MPD2    H5 1441   2.670   2.160  15.695 -0.2579 -2.3523 -0.4251
   92MPD2    N1 1442   2.303   1.848  15.701 -0.0052  0.1375 -0.5697
   92MPD2    H7 1443   2.379   1.810  15.757  0.3921 -0.6226 -1.6246
   93TMC2    C1 1444   4.205   1.549  13.728  0.0056  0.1388  0.4241
   93TMC2    C2 1445   4.107   1.622  13.790  1.0362 -0.1749 -0.2534
   93TMC2    C3 1446   4.153   1.693  13.895 -0.0539  0.1802 -0.1899
   93TMC2    C4 1447   4.343   1.562  13.759  0.5632 -0.2168 -0.1764
   93TMC2    C5 1448   4.382   1.642  13.856  0.0570  0.9919 -0.2628
   93TMC2    C6 1449   4.285   1.705  13.931  0.1237 -0.1392 -0.1817
   93TMC2     C 1450   4.171   1.423  13.678  0.1792  0.5999 -0.3308
   93TMC2     O 1451   4.243   1.329  13.709  0.0813 -0.3840  0.1583
   93TMC2     H 1452   4.000   1.610  13.776  0.6420  1.2214  1.5166
   93TMC2    H1 1453   4.415   1.513  13.695 -0.1090 -1.0901 -0.2755
   93TMC2    H2 1454   4.319   1.780  14.002 -1.4549 -0.3911  0.8378
   93TMC2    C7 1455   4.521   1.697  13.841  0.7627  0.2362 -0.0968
   93TMC2    C8 1456   4.053   1.740  13.985  0.1732 -0.1233  0.4349
   93TMC2    O1 1457   4.589   1.656  13.750  0.3454  0.1267 -0.1005
   93TMC2    O2 1458   3.944   1.689  14.000 -0.6022 -0.0434 -0.4297
   93TMC2    O5 1459   4.083   1.869  14.020 -0.4459  0.2407  0.1723
   93TMC2    H5 1460   4.168   1.908  13.990 -0.6974  0.3018 -0.4694
   94MPD2     C 1461   4.011   1.185  13.576  0.1624  0.6014  0.3916
   94MPD2    C1 1462   3.974   1.315  13.556  0.2219  0.0345  0.3677
   94MPD2    C2 1463   3.848   1.350  13.519  0.2495 -0.1567 -0.4261
   94MPD2    C3 1464   3.754   1.252  13.487  0.1461 -0.2393  0.5715
   94MPD2    C4 1465   3.786   1.121  13.508 -0.0658  0.0956 -0.3280
   94MPD2    C5 1466   3.919   1.091  13.542 -0.1320  0.2847 -0.1055
   94MPD2     H 1467   3.818   1.454  13.514 -0.9513 -0.4620  0.4784
   94MPD2    H1 1468   3.717   1.038  13.513 -0.6448  0.5754 -0.4137
   94MPD2    H2 1469   4.098   1.149  13.629  0.1776  1.2884  0.8347
   94MPD2    H3 1470   3.944   0.986  13.555 -1.2412  0.2231  1.6191
   94MPD2     N 1471   3.621   1.280  13.458 -0.3129 -0.4969 -0.2312
   94MPD2    H5 1472   3.554   1.205  13.460 -0.5829 -0.3443 -3.5095
   94MPD2    N1 1473   4.052   1.425  13.605 -0.6278 -0.8957  0.8918
   94MPD2    H7 1474   4.000   1.512  13.609  0.1569 -0.4045  0.2293
   95TMC2    C1 1475   3.982   3.260  16.192 -0.0506 -0.6150  0.3428
   95TMC2    C2 1476   3.942   3.160  16.272 -0.9431  0.5331 -0.5282
   95TMC2    C3 1477   3.900   3.189  16.401  0.5914 -0.7473  0.1189
   95TMC2    C4 1478   3.966   3.392  16.223  0.0954  0.1185  0.4148
   95TMC2    C5 1479   3.913   3.420  16.347  0.1424 -0.4709 -0.5138
   95TMC2    C6 1480   3.882   3.319  16.435  0.7116  0.6273  0.1204
   95TMC2     C 1481   4.037   3.243  16.066 -0.2464 -0.5851 -0.5120
   95TMC2     O 1482   4.088   3.344  16.014 -0.7036  0.1752 -0.0957
   95TMC2     H 1483   3.965   3.060  16.235  0.6839  0.2135  1.3242
   95TMC2    H1 1484   3.995   3.477  16.161  1.7757 -0.9245 -0.2249
   95TMC2    H2 1485   3.845   3.346  16.533 -0.4830 -0.0141 -0.1428
   95TMC2    C7 1486   3.869   3.554  16.385 -1.0703 -0.6756  0.1559
   95TMC2    C8 1487   3.816   3.094  16.473 -0.0112  0.3892  0.6795
   95TMC2    O1 1488   3.857   3.575  16.507  0.1634  0.2425  0.1469
   95TMC2    O2 1489   3.760   3.113  16.580  0.2166 -0.3662  0.4185
   95TMC2    O5 1490   3.782   2.990  16.394  0.2456  0.2675  0.6938
   95TMC2    H5 1491   3.834   2.989  16.311 -0.8523  0.2211  0.0141
   96MPD2     C 1492   4.193   2.983  15.659  0.2525 -0.1763 -0.1559
   96MPD2    C1 1493   4.240   3.100  15.700 -0.8377 -0.5751 -0.0629
   96MPD2    C2 1494   4.173   3.147  15.818  0.5198 -0.8428 -0.5868
   96MPD2    C3 1495   4.074   3.081  15.882 -0.4493  0.8345 -0.0767
   96MPD2    C4 1496   4.028   2.964  15.824 -0.5757  0.2317 -0.3009
   96MPD2    C5 1497   4.096   2.911  15.716  0.1819 -0.4590 -0.2351
   96MPD2     H 1498   4.210   3.237  15.866  0.8781 -1.7937  0.9170
   96MPD2    H1 1499   3.944   2.913  15.871 -0.9192  0.8291 -0.2604
   96MPD2    H2 1500   4.222   2.959  15.558 -2.4883 -1.6748 -0.5817
   96MPD2    H3 1501   4.064   2.825  15.657 -0.1414 -0.6201  0.1689
   96MPD2     N 1502   4.020   3.115  16.005  0.1222 -0.4621  0.1308
   96MPD2    H5 1503   3.953   3.052  16.048  2.2864 -0.3685  3.7007
   96MPD2    N1 1504   4.328   3.183  15.623 -0.1063 -0.0929 -0.5844
   96MPD2    H7 1505   4.368   3.136  15.542 -1.8531  0.0545 -1.5360
   97TMC2    C1 1506   1.822   0.980  17.735 -0.3356  0.3627  0.0297
   97TMC2    C2 1507   1.764   0.903  17.639  0.7731 -0.1229  0.4029
   97TMC2    C3 1508   1.765   0.952  17.511  0.2000 -0.0711 -0.1339
   97TMC2    C4 1509   1.885   1.096  17.713 -0.2298 -0.7546 -0.6098
   97TMC2    C5 1510   1.881   1.148  17.590  0.5459 -0.2653 -0.6445
   97TMC2    C6 1511   1.818   1.082  17.485 -0.6990 -0.1876  0.2366
   97TMC2     C 1512   1.769   0.955   0.124 -0.0811  0.9750  0.0158
   97TMC2     O 1513   1.661   0.900   0.122 -0.2654 -0.3898 -0.2042
   97TMC2     H 1514   1.717   0.809  17.665 -0.9979  1.0097  1.2696
   97TMC2    H1 1515   1.943   1.150   0.046 -0.5751  0.6888 -1.3788
   97TMC2    H2 1516   1.793   1.125  17.389 -2.4501 -1.1335  0.2697
   97TMC2    C7 1517   1.939   1.281  17.563  0.2707 -0.1519 -0.4736
   97TMC2    C8 1518   1.662   0.911  17.419  0.3243  0.2098  0.3126
   97TMC2    O1 1519   1.969   1.343  17.665  0.4969 -0.2240  0.0508
   97TMC2    O2 1520   1.605   0.994  17.348 -0.1629 -0.2600 -0.3796
   97TMC2    O5 1521   1.634   0.781  17.435 -0.0308 -0.2898  0.0921
   97TMC2    H5 1522   1.705   0.730  17.480  0.9305  1.4802  0.6070
   98MPD2     C 1523   1.749   0.956   0.643 -0.2054  0.3909  0.4270
   98MPD2    C1 1524   1.691   0.878   0.548 -0.3112  0.4470 -0.8548
   98MPD2    C2 1525   1.718   0.888   0.415  0.6603  0.7090 -0.3179
   98MPD2    C3 1526   1.804   0.986   0.366  0.1345 -0.2510 -0.4265
   98MPD2    C4 1527   1.864   1.065   0.458 -1.0813  0.0994 -0.2387
   98MPD2    C5 1528   1.833   1.052   0.592 -0.0308 -0.2008  0.0180
   98MPD2     H 1529   1.676   0.817   0.345  0.3479 -0.5978  1.1798
   98MPD2    H1 1530   1.931   1.145   0.429  0.2676 -0.5727  1.0559
   98MPD2    H2 1531   1.736   0.951   0.751  0.3126 -1.5525  0.3858
   98MPD2    H3 1532   1.870   1.135   0.651  0.4006 -0.9798  0.8448
   98MPD2     N 1533   1.831   1.010   0.231  0.5185 -0.4862 -0.3499
   98MPD2    H5 1534   1.914   1.064   0.209  0.6974 -1.2192 -1.5381
   98MPD2    N1 1535   1.590   0.786   0.599  0.4129  0.3759 -0.8432
   98MPD2    H7 1536   1.546   0.805   0.688  0.7079 -1.0713 -0.3759
   99TMC2    C1 1537   0.481   2.784   1.423 -0.7911  0.7604  0.6134
   99TMC2    C2 1538   0.555   2.871   1.496 -0.0997 -0.5290  0.1334
   99TMC2    C3 1539   0.497   2.908   1.613 -0.5152  0.0279  0.4415
   99TMC2    C4 1540   0.368   2.723   1.464 -0.3517  0.3138  0.3447
   99TMC2    C5 1541   0.310   2.767   1.583 -0.5589  0.0554  0.5793
   99TMC2    C6 1542   0.374   2.866   1.660 -0.0063  0.3895 -0.7321
   99TMC2     C 1543   0.552   2.732   1.304  0.5379 -0.7977  0.3958
   99TMC2     O 1544   0.646   2.800   1.259  0.5006  0.2172  0.0920
   99TMC2     H 1545   0.649   2.913   1.462 -0.6464  1.3825  0.9586
   99TMC2    H1 1546   0.312   2.656   1.400  2.8748 -1.0941 -1.0602
   99TMC2    H2 1547   0.341   2.878   1.763 -0.8262 -1.8071 -0.7590
   99TMC2    C7 1548   0.196   2.697   1.639 -0.2630 -0.0198 -0.1404
   99TMC2    C8 1549   0.574   2.989   1.708  0.3191  0.2401  1.0113
   99TMC2    O1 1550   0.153   2.744   1.743  0.3274  0.1744 -0.0740
   99TMC2    O2 1551   0.693   3.009   1.698  0.6855  0.2384  0.0298
   99TMC2    O5 1552   0.477   3.064   1.775 -0.6188 -0.2092  0.1786
   99TMC2    H5 1553   0.384   3.042   1.750  0.3636 -2.6595 -1.3285
  100MPD2     C 1554   0.657   2.584   1.053 -0.3600 -0.5185 -0.3682
  100MPD2    C1 1555   0.529   2.567   1.114 -0.0093  0.7231  0.6875
  100MPD2    C2 1556   0.445   2.472   1.062 -0.0896 -0.4373  0.0968
  100MPD2    C3 1557   0.485   2.398   0.952  0.7490 -0.1068 -0.2219
  100MPD2    C4 1558   0.613   2.396   0.914  0.5959 -0.2836  0.5687
  100MPD2    C5 1559   0.703   2.488   0.968 -0.2022  0.1170 -0.4788
  100MPD2     H 1560   0.348   2.450   1.105 -1.0294  0.8405 -1.3736
  100MPD2    H1 1561   0.655   2.336   0.834  0.1904 -0.0606  0.1891
  100MPD2    H2 1562   0.725   2.662   1.085  0.9138 -0.0902 -4.0392
  100MPD2    H3 1563   0.801   2.491   0.923 -0.2437 -1.8320 -0.7156
  100MPD2     N 1564   0.386   2.320   0.886 -0.3791  0.6193  0.2675
  100MPD2    H5 1565   0.291   2.348   0.910 -0.4486  0.4346  0.2156
  100MPD2    N1 1566   0.482   2.640   1.228  0.8041  0.8275  0.0305
  100MPD2    H7 1567   0.389   2.613   1.261  0.9137  1.6648  1.0329
  101TMC2    C1 1568   0.862   4.376  12.696 -1.0520 -0.2162 -0.7052
  101TMC2    C2 1569   0.759   4.452  12.639  0.3138 -0.3116  0.6253
  101TMC2    C3 1570   0.764   4.477  12.505  0.2266  0.3741 -0.0563
  101TMC2    C4 1571   0.972   4.334  12.613  0.0388  0.0490 -0.3353
  101TMC2    C5 1572   0.956   4.353  12.477  0.2422  0.1200  0.2409
  101TMC2    C6 1573   0.853   4.422  12.413 -0.2917 -0.8006  0.4783
  101TMC2     C 1574   0.841   4.344  12.835 -0.4533  0.0534 -0.9604
  101TMC2     O 1575   0.728   4.368  12.878  0.1955  0.4309  0.3984
  101TMC2     H 1576   0.682   4.496  12.701 -1.8814 -0.6164 -1.8710
  101TMC2    H1 1577   1.048   4.265  12.647 -0.4879 -0.3096  0.1181
  101TMC2    H2 1578   0.827   4.420  12.308  2.0274 -3.0625 -0.0656
  101TMC2    C7 1579   1.081   4.355  12.402  0.1907 -0.0928  0.3511
  101TMC2    C8 1580   0.659   4.564  12.466 -0.2328 -0.1381  0.2349
  101TMC2    O1 1581   1.081   4.439  12.310  0.0252 -0.6212 -0.2481
  101TMC2    O2 1582   0.541   4.550  12.504  0.6515 -0.2142  0.0905
  101TMC2    O5 1583   0.695   4.634  12.358  0.2995  0.7300 -0.4645
  101TMC2    H5 1584   0.791   4.648  12.345  0.5628 -1.3835 -0.8292
  102MPD2     C 1585   1.091   4.261  13.090  0.2007  0.0338 -0.4468
  102MPD2    C1 1586   0.966   4.291  13.040 -0.5872 -0.5544 -0.2684
  102MPD2    C2 1587   0.863   4.295  13.131  0.3017  0.3619 -0.2412
  102MPD2    C3 1588   0.872   4.268  13.262  0.3396 -0.7837 -0.3754
  102MPD2    C4 1589   0.996   4.231  13.307  0.8143 -0.0799  0.4924
  102MPD2    C5 1590   1.106   4.234  13.220 -0.4554 -0.0070 -0.1263
  102MPD2     H 1591   0.767   4.327  13.092 -0.7225  0.0404  2.0204
  102MPD2    H1 1592   1.008   4.208  13.412  0.1028 -1.6421  0.2417
  102MPD2    H2 1593   1.183   4.267  13.033  0.8359 -0.5395  0.5083
  102MPD2    H3 1594   1.206   4.207  13.251  0.0446  1.5551 -0.3655
  102MPD2     N 1595   0.754   4.268  13.340 -0.2341  0.9519 -0.2932
  102MPD2    H5 1596   0.668   4.300  13.296 -0.5984  1.7063  0.9627
  102MPD2    N1 1597   0.955   4.305  12.898 -0.7896  0.1640  0.5924
  102MPD2    H7 1598   1.034   4.297  12.835  0.8074  1.8026  2.3690
  103TMC2    C1 1599   3.558   4.267  12.440 -0.0744  0.2236  0.8808
  103TMC2    C2 1600   3.645   4.304  12.338 -0.0238 -0.0431  0.2769
  103TMC2    C3 1601   3.780   4.276  12.349  0.1223 -0.3033  0.3111
  103TMC2    C4 1602   3.595   4.186  12.545  0.8288 -0.1993  0.9600
  103TMC2    C5 1603   3.732   4.151  12.551  0.3303 -0.0070 -0.2529
  103TMC2    C6 1604   3.822   4.193  12.457 -0.1901 -0.3731  0.0050
  103TMC2     C 1605   3.416   4.302  12.410 -0.0724  0.4328 -0.0614
  103TMC2     O 1606   3.394   4.400  12.345  0.7994  0.8514  0.2874
  103TMC2     H 1607   3.616   4.390  12.279  1.0837  0.7171  0.8652
  103TMC2    H1 1608   3.534   4.173  12.633 -1.0665  1.2589 -0.1284
  103TMC2    H2 1609   3.929   4.175  12.458  0.0974  1.2244 -1.7791
  103TMC2    C7 1610   3.788   4.110  12.680  0.6955 -0.0328  0.2215
  103TMC2    C8 1611   3.883   4.353  12.288  0.0260 -0.4475  0.7894
  103TMC2    O1 1612   3.902   4.144  12.694  0.0559  0.0171  0.9362
  103TMC2    O2 1613   3.990   4.378  12.345 -0.1075 -0.8674  0.4001
  103TMC2    O5 1614   3.832   4.423  12.185 -0.4314  0.4563 -0.0131
  103TMC2    H5 1615   3.753   4.376  12.150 -0.6742  0.5819  0.3651
  104MPD2     C 1616   3.122   4.104  12.514 -0.1291  0.2710 -0.0376
  104MPD2    C1 1617   3.189   4.206  12.456 -0.7831 -0.4693  0.3097
  104MPD2    C2 1618   3.107   4.310  12.398  0.7302  0.6647 -0.0257
  104MPD2    C3 1619   2.973   4.305  12.392 -0.1093  0.0704  0.1960
  104MPD2    C4 1620   2.912   4.204  12.458 -0.0271  0.8090 -0.6291
  104MPD2    C5 1621   2.987   4.096  12.505  0.3180  0.4911  0.6309
  104MPD2     H 1622   3.152   4.394  12.346  2.5259  0.5865  1.4039
  104MPD2    H1 1623   2.805   4.201  12.473  0.1466 -1.5138  0.1132
  104MPD2    H2 1624   3.183   4.022  12.553 -0.9289 -0.5093 -0.4230
  104MPD2    H3 1625   2.940   4.011  12.553  0.3831 -0.1882 -0.5004
  104MPD2     N 1626   2.913   4.427  12.342 -0.8030  0.0925 -1.2805
  104MPD2    H5 1627   2.971   4.488  12.285 -1.3640 -0.3363 -2.3052
  104MPD2    N1 1628   3.331   4.213  12.476 -0.3737  0.1715  0.2126
  104MPD2    H7 1629   3.368   4.132  12.525  1.1150 -0.0861 -1.3523
  105TMC2    C1 1630   0.124   2.221  17.692 -0.1215  0.4337  0.1378
  105TMC2    C2 1631   0.074   2.102  17.741  0.5071 -0.1610 -0.2976
  105TMC2    C3 1632   0.011   2.120   0.114  1.0141 -0.3914  0.5736
  105TMC2    C4 1633   0.087   2.349   0.003 -0.2122 -0.3177  0.0177
  105TMC2    C5 1634   0.013   2.347   0.123  0.0478  0.1192 -0.5913
  105TMC2    C6 1635   4.713   2.230   0.180 -0.5618 -0.0702 -0.0570
  105TMC2     C 1636   0.197   2.214  17.569 -0.3848 -0.3684 -0.3002
  105TMC2     O 1637   0.228   2.102  17.527  0.6355 -0.3097  0.7062
  105TMC2     H 1638   0.112   2.004  17.717  0.3276 -0.3432  0.1629
  105TMC2    H1 1639   0.138   2.439  17.711 -0.2825 -0.9135 -1.6893
  105TMC2    H2 1640   4.664   2.236   0.277 -1.1048  0.1681 -0.3512
  105TMC2    C7 1641   0.050   2.447   0.215 -0.4112  0.4692  0.2609
  105TMC2    C8 1642   4.713   2.004   0.197 -0.0440 -0.2064  0.3856
  105TMC2    O1 1643   0.043   2.564   0.171  0.4595 -0.2779  0.4941
  105TMC2    O2 1644   4.710   2.010   0.320  0.3977  0.2429 -0.5160
  105TMC2    O5 1645   4.665   1.909   0.121  0.3398  0.0643  0.3253
  105TMC2    H5 1646   4.685   1.926   0.027 -1.1619  1.4460  0.2688
  106MPD2     C 1647   0.417   2.365  17.138  0.3125  0.1236 -0.7548
  106MPD2    C1 1648   0.332   2.471  17.178  0.0610 -0.3018 -0.0217
  106MPD2    C2 1649   0.256   2.460  17.296  0.1874  0.4726 -0.4023
  106MPD2    C3 1650   0.272   2.343  17.376 -0.4187 -0.4928 -0.2385
  106MPD2    C4 1651   0.355   2.243  17.334  0.2423  0.0547 -0.5628
  106MPD2    C5 1652   0.435   2.261  17.224  0.4207 -0.1598 -0.3229
  106MPD2     H 1653   0.184   2.533  17.332  0.1555 -0.0272  0.5400
  106MPD2    H1 1654   0.380   2.153  17.388  0.2893  0.1098 -0.4932
  106MPD2    H2 1655   0.484   2.374  17.053  2.8722 -1.3696  1.1179
  106MPD2    H3 1656   0.501   2.178  17.204 -0.1534 -0.4674 -0.9401
  106MPD2     N 1657   0.199   2.329  17.498  0.3704 -0.1230  0.4756
  106MPD2    H5 1658   0.154   2.414  17.529 -0.1527  0.2325 -1.2731
  106MPD2    N1 1659   0.330   2.584  17.099 -0.7238  0.6057  0.1434
  106MPD2    H7 1660   0.412   2.599  17.041 -0.3878 -0.6460  0.2863
  107TMC2    C1 1661   0.467   3.649  11.459 -0.2792  0.4934 -0.7553
  107TMC2    C2 1662   0.336   3.676  11.415  0.2974  0.3934  0.0930
  107TMC2    C3 1663   0.304   3.639  11.289 -0.2955 -0.5157 -0.1858
  107TMC2    C4 1664   0.571   3.625  11.376  0.1813  0.5211  0.1589
  107TMC2    C5 1665   0.542   3.616  11.241 -1.0870 -0.2225  0.7951
  107TMC2    C6 1666   0.409   3.618  11.199  0.5219  0.2662  0.1687
  107TMC2     C 1667   0.491   3.665  11.604 -0.5205 -0.3902  0.2738
  107TMC2     O 1668   0.569   3.583  11.659 -0.4047 -0.4578  0.0264
  107TMC2     H 1669   0.257   3.691  11.487 -0.0099  2.5688 -0.6831
  107TMC2    H1 1670   0.669   3.608  11.418  0.6081  1.9692 -0.2491
  107TMC2    H2 1671   0.372   3.605  11.098  2.4724 -1.4639 -0.3148
  107TMC2    C7 1672   0.637   3.567  11.148  0.1862 -0.4378 -0.3139
  107TMC2    C8 1673   0.164   3.642  11.239  0.3923  0.8720 -0.0284
  107TMC2    O1 1674   0.611   3.602  11.033 -0.7225  0.0226 -0.1036
  107TMC2    O2 1675   0.140   3.664  11.120 -0.6574  0.0472 -0.2233
  107TMC2    O5 1676   0.075   3.597  11.336 -0.0506  0.1461  0.1426
  107TMC2    H5 1677   0.124   3.562  11.414  2.7693  0.5535 -1.4817
  108MPD2     C 1678   0.359   3.928  11.815 -0.5167  0.7471  0.5545
  108MPD2    C1 1679   0.388   3.801  11.783 -0.0083 -0.3093 -0.6794
  108MPD2    C2 1680   0.382   3.701  11.882 -0.5039 -0.1367  0.0968
  108MPD2    C3 1681   0.356   3.724  12.017  0.4629 -0.2840  0.0456
  108MPD2    C4 1682   0.311   3.854  12.045  0.1337  0.2826 -0.1434
  108MPD2    C5 1683   0.312   3.954  11.947 -0.6107 -0.5931  0.4003
  108MPD2     H 1684   0.415   3.602  11.853 -0.2906 -0.0009 -0.1229
  108MPD2    H1 1685   0.279   3.874  12.146 -1.4589 -0.1774 -0.5494
  108MPD2    H2 1686   0.366   4.007  11.740  0.5484  0.7265  0.6342
  108MPD2    H3 1687   0.269   4.051  11.966 -0.4966  0.0399 -2.5461
  108MPD2     N 1688   0.341   3.619  12.114 -0.1326 -0.2264 -0.2549
  108MPD2    H5 1689   0.332   3.647  12.212 -1.9042 -0.3977 -0.3847
  108MPD2    N1 1690   0.432   3.776  11.653 -0.5541  0.3672 -0.0368
  108MPD2    H7 1691   0.401   3.845  11.586 -0.0614  0.8441  0.2267
  109TMC2    C1 1692   0.690   4.652  17.673 -0.7618  0.3678  0.0561
  109TMC2    C2 1693   0.662   4.703  17.546  0.0363 -0.4301  0.7160
  109TMC2    C3 1694   0.682   0.102  17.526  0.2454 -0.5998 -0.2505
  109TMC2    C4 1695   0.725   0.002   0.038 -0.0533 -0.3829 -0.0817
  109TMC2    C5 1696   0.733   0.136   0.010 -0.0399  0.3276 -0.1619
  109TMC2    C6 1697   0.709   0.192  17.626 -0.2321 -0.4202 -0.3535
  109TMC2     C 1698   0.629   4.527  17.699  0.3089 -0.2331 -0.1112
  109TMC2     O 1699   0.587   4.470  17.600  0.5384 -0.2419  0.1287
  109TMC2     H 1700   0.610   4.650  17.467  0.0397  1.3149 -0.4382
  109TMC2    H1 1701   0.759   4.697   0.133  1.8499 -2.7609 -1.7806
  109TMC2    H2 1702   0.720   0.296  17.597 -1.6707 -0.5406 -1.3385
  109TMC2    C7 1703   0.804   0.217   0.106 -0.6785  0.0443 -0.3689
  109TMC2    C8 1704   0.636   0.145  17.390  0.5776 -0.2353  0.6341
  109TMC2    O1 1705   0.893   0.172   0.169  0.2250 -0.7802  0.3004
  109TMC2    O2 1706   0.544   0.098  17.329 -0.4574  0.1956  0.2796
  109TMC2    O5 1707   0.701   0.255  17.362  0.0302 -0.1061  0.6356
  109TMC2    H5 1708   0.750   0.273  17.445 -0.2400 -0.3067  0.8368
  110MPD2     C 1709   0.452   4.174   0.293  0.5332  0.4519 -0.2196
  110MPD2    C1 1710   0.496   4.286   0.366  0.6246  0.2556  0.2361
  110MPD2    C2 1711   0.552   4.389   0.291  0.3408 -0.9738  0.2830
  110MPD2    C3 1712   0.567   4.386   0.152  0.5153  0.6602 -0.1445
  110MPD2    C4 1713   0.516   4.279   0.081 -0.7990  0.2338 -0.2974
  110MPD2    C5 1714   0.460   4.179   0.156 -0.0382 -0.3647 -0.1941
  110MPD2     H 1715   0.564   4.485   0.338  2.0425 -1.1657  0.2647
  110MPD2    H1 1716   0.511   4.269  17.714  0.5580 -0.9206 -0.2538
  110MPD2    H2 1717   0.400   4.092   0.342  1.3175 -0.1972 -0.4682
  110MPD2    H3 1718   0.403   4.105   0.101 -0.7641  0.7706 -0.9842
  110MPD2     N 1719   0.610   4.505   0.093 -0.0852 -1.2054  0.1493
  110MPD2    H5 1720   0.654   4.569   0.158  0.1838 -1.8420  0.5897
  110MPD2    N1 1721   0.478   4.293   0.505  0.4138  0.0382 -0.0158
  110MPD2    H7 1722   0.411   4.232   0.551  0.3318 -0.6063 -1.0023
  111TMC2    C1 1723   1.426   0.158  10.912  0.3168 -0.3015 -0.0155
  111TMC2    C2 1724   1.535   0.196  10.839  0.0340 -0.0313 -0.0702
  111TMC2    C3 1725   1.657   0.156  10.884  0.1105 -0.0786  0.5366
  111TMC2    C4 1726   1.436   0.077  11.019 -0.5644  0.9870  0.2492
  111TMC2    C5 1727   1.562   0.033  11.060 -0.0182  1.0399  0.6893
  111TMC2    C6 1728   1.674   0.078  10.997  0.4048 -0.2526  0.0163
  111TMC2     C 1729   1.319   0.251  10.906  0.1083 -0.3449 -0.1210
  111TMC2     O 1730   1.344   0.357  10.854  1.1299  0.1512  0.2848
  111TMC2     H 1731   1.531   0.254  10.748 -3.3342  1.5226  1.0432
  111TMC2    H1 1732   1.352   0.053  11.084 -1.1373 -1.0772 -1.2434
  111TMC2    H2 1733   1.774   0.049  11.026  1.2908  2.9040  0.0864
  111TMC2    C7 1734   1.581   4.667  11.168 -0.4443  0.1417  0.0051
  111TMC2    C8 1735   1.773   0.167  10.798 -0.2194 -0.7298 -0.6203
  111TMC2    O1 1736   1.686   4.673  11.237 -0.4703  0.0658 -0.5375
  111TMC2    O2 1737   1.773   0.154  10.677 -0.2035 -0.0898 -0.8255
  111TMC2    O5 1738   1.868   0.223  10.873  0.0210 -0.3084  0.6155
  111TMC2    H5 1739   1.847   0.264  10.959 -1.5575 -1.3803  0.7468
  112MPD2     C 1740   0.819   0.356  10.925  0.5369 -0.3720  0.6687
  112MPD2    C1 1741   0.927   0.432  10.884  0.1648 -0.5226  0.3040
  112MPD2    C2 1742   1.059   0.382  10.881 -0.6625 -1.0396 -0.0610
  112MPD2    C3 1743   1.076   0.254  10.932 -0.2619  0.1470  0.5097
  112MPD2    C4 1744   0.972   0.189  10.997 -0.3587  0.0669  0.1362
  112MPD2    C5 1745   0.847   0.239  10.992  0.0196  0.5209  0.4315
  112MPD2     H 1746   1.134   0.449  10.840 -1.0039 -0.3863  0.3737
  112MPD2    H1 1747   0.981   0.089  11.040  2.5076  0.7598  1.2054
  112MPD2    H2 1748   0.719   0.393  10.906  0.4242 -1.8938 -1.6939
  112MPD2    H3 1749   0.771   0.178  11.039 -0.2579  2.0081  1.9077
  112MPD2     N 1750   1.198   0.192  10.933  0.0965 -0.7121 -0.1474
  112MPD2    H5 1751   1.200   0.093  10.956 -0.2879 -0.1852  2.1123
  112MPD2    N1 1752   0.899   0.567  10.841 -0.8612 -0.9844  0.1290
  112MPD2    H7 1753   0.980   0.609  10.797  0.7643 -0.9375  3.1499
  113TMC2    C1 1754   3.898   2.362   0.739 -0.0656  0.3425  0.7215
  113TMC2    C2 1755   3.781   2.433   0.717  0.3989 -0.4194 -0.1000
  113TMC2    C3 1756   3.674   2.370   0.662 -0.0863 -0.1862  0.2373
  113TMC2    C4 1757   3.896   2.233   0.706  0.2141  0.1077 -0.5203
  113TMC2    C5 1758   3.784   2.180   0.649 -0.3465 -0.4580  0.0892
  113TMC2    C6 1759   3.666   2.237   0.630  0.6365  0.0759 -0.4280
  113TMC2     C 1760   3.988   2.408   0.842 -0.4638 -0.2902  0.4278
  113TMC2     O 1761   3.965   2.507   0.912 -0.6855 -0.2190  0.0240
  113TMC2     H 1762   3.794   2.539   0.734 -0.2925 -0.4757  0.7618
  113TMC2    H1 1763   3.982   2.169   0.726  0.3131  0.5792  0.6156
  113TMC2    H2 1764   3.586   2.179   0.584 -0.1531  0.3296  0.6368
  113TMC2    C7 1765   3.789   2.037   0.625  0.1397 -0.5284  0.2358
  113TMC2    C8 1766   3.550   2.440   0.667  0.2702 -0.7921  0.0772
  113TMC2    O1 1767   3.898   1.979   0.617  0.0834  0.4855 -0.5524
  113TMC2    O2 1768   3.533   2.526   0.753  0.8218  0.0396  0.3579
  113TMC2    O5 1769   3.508   2.455   0.538  0.1202  0.1275  0.7681
  113TMC2    H5 1770   3.547   2.390   0.476 -0.2945  0.0861  0.5465
  114MPD2     C 1771   4.487   2.361   1.017  0.2348  0.0352  0.2136
  114MPD2    C1 1772   4.376   2.426   1.074 -0.0206 -0.3160  0.5521
  114MPD2    C2 1773   4.247   2.426   1.015  0.2117  0.9186 -0.3861
  114MPD2    C3 1774   4.233   2.350   0.901 -0.4405  0.4665 -0.3634
  114MPD2    C4 1775   4.340   2.279   0.850 -0.0691 -0.8523 -0.5964
  114MPD2    C5 1776   4.463   2.287   0.909 -0.0087 -0.3134  0.3626
  114MPD2     H 1777   4.166   2.474   1.068  0.6399  0.5417  0.6346
  114MPD2    H1 1778   4.332   2.222   0.758  1.8621  0.4919 -1.5925
  114MPD2    H2 1779   4.588   2.349   1.054 -0.9272  0.4247  3.5976
  114MPD2    H3 1780   4.538   2.229   0.854 -0.2341 -0.0318 -0.2431
  114MPD2     N 1781   4.112   2.342   0.829 -0.7821 -0.8056 -0.0097
  114MPD2    H5 1782   4.113   2.279   0.749  1.6292 -2.4832  1.3437
  114MPD2    N1 1783   4.391   2.523   1.175 -0.2677 -0.0603  0.3754
  114MPD2    H7 1784   4.311   2.582   1.198 -0.4398 -0.8004  1.7041
  115TMC2    C1 1785   4.425   0.701   0.074 -0.7013  0.3464  0.0064
  115TMC2    C2 1786   4.504   0.770   0.160 -0.2216 -0.0619  0.2232
  115TMC2    C3 1787   4.524   0.906   0.137 -0.5704 -0.6535  0.8739
  115TMC2    C4 1788   4.362   0.775  17.714 -0.3158 -0.0610 -0.4185
  115TMC2    C5 1789   4.393   0.904  17.695 -0.1921  1.2116 -0.4831
  115TMC2    C6 1790   4.489   0.966   0.021  0.1051  0.3807 -0.2063
  115TMC2     C 1791   4.448   0.564   0.042  0.0357  0.1061 -0.6049
  115TMC2     O 1792   4.421   0.540  17.667  0.0027  0.7387 -0.9844
  115TMC2     H 1793   4.536   0.741   0.259 -1.3523 -1.4110  0.2046
  115TMC2    H1 1794   4.295   0.735  17.639  1.9924 -2.3939 -1.1801
  115TMC2    H2 1795   4.523   1.067  17.741  0.1358  0.2481 -0.7847
  115TMC2    C7 1796   4.322   0.980  17.601 -0.0297 -0.3905  0.2222
  115TMC2    C8 1797   4.616   0.976   0.226 -0.2424  0.2278  1.0292
  115TMC2    O1 1798   4.201   0.963  17.582 -0.1587 -0.2288 -0.5445
  115TMC2    O2 1799   4.694   0.922   0.302 -0.1377  0.1921 -0.3808
  115TMC2    O5 1800   4.552   1.082   0.268 -0.0014 -0.5666 -0.1098
  115TMC2    H5 1801   4.472   1.111   0.219  0.0342  2.6294  1.6708
  116MPD2     C 1802   4.417   0.078   0.143 -0.2386 -0.1986  0.2221
  116MPD2    C1 1803   4.447   0.139   0.022  0.2764 -0.1669 -0.1973
  116MPD2    C2 1804   4.471   0.275   0.023 -0.3421 -0.2628  0.3369
  116MPD2    C3 1805   4.476   0.345   0.142 -0.4484  0.3475 -0.5109
  116MPD2    C4 1806   4.461   0.279   0.261 -0.1662  0.3899 -0.6313
  116MPD2    C5 1807   4.427   0.144   0.263 -0.5847  0.5737  0.1495
  116MPD2     H 1808   4.491   0.337  17.678 -0.2356 -1.1990 -0.3106
  116MPD2    H1 1809   4.464   0.327   0.358 -0.7018  2.8443 -1.8381
  116MPD2    H2 1810   4.398   4.708   0.149  1.2687 -0.5262 -0.8438
  116MPD2    H3 1811   4.411   0.089   0.354 -0.2769 -2.3596 -1.5654
  116MPD2     N 1812   4.489   0.488   0.145 -0.6458 -0.2002 -0.3711
  116MPD2    H5 1813   4.485   0.521   0.241 -2.9082  0.8717 -0.8160
  116MPD2    N1 1814   4.446   0.064  17.643 -0.6973  0.0121  0.2037
  116MPD2    H7 1815   4.413   4.706  17.663  0.3493 -0.4966 -0.4828
  117TMC2    C1 1816   3.591   2.099  13.533 -0.5716  0.7395  0.3850
  117TMC2    C2 1817   3.688   2.047  13.618 -0.2331 -0.1665  0.7405
  117TMC2    C3 1818   3.742   2.135  13.702  0.3811  0.9894  0.1881
  117TMC2    C4 1819   3.538   2.231  13.557 -0.3571 -0.6374  0.5713
  117TMC2    C5 1820   3.600   2.313  13.650  0.8106 -0.5557 -0.4607
  117TMC2    C6 1821   3.708   2.267  13.722 -0.6809 -0.3871  0.2953
  117TMC2     C 1822   3.509   2.006  13.456  0.1027 -0.8560 -0.7149
  117TMC2     O 1823   3.530   1.887  13.475 -0.2984  0.7651 -0.3280
  117TMC2     H 1824   3.716   1.942  13.611 -1.2372 -0.4218  0.5728
  117TMC2    H1 1825   3.441   2.260  13.518  0.3073 -2.4941 -2.5131
  117TMC2    H2 1826   3.756   2.325  13.800  0.6735  0.0229 -0.8327
  117TMC2    C7 1827   3.513   2.414  13.698  0.5195  0.0231 -0.5764
  117TMC2    C8 1828   3.880   2.114  13.759  0.7006  0.2815  0.2152
  117TMC2    O1 1829   3.393   2.408  13.669  0.4414  0.1496  0.0359
  117TMC2    O2 1830   3.970   2.201  13.753  0.4015  0.4166 -0.0534
  117TMC2    O5 1831   3.905   1.980  13.738  0.5794  0.8102  0.0000
  117TMC2    H5 1832   3.822   1.936  13.767 -0.8962  3.0252 -0.9008
  118MPD2     C 1833   3.381   2.662  13.790  0.5038 -0.5136 -1.0891
  118MPD2    C1 1834   3.514   2.648  13.778  1.1981  0.8897 -0.0508
  118MPD2    C2 1835   3.596   2.757  13.793  0.4115 -0.3580  0.0819
  118MPD2    C3 1836   3.534   2.882  13.793  0.0089 -0.7168 -0.0516
  118MPD2    C4 1837   3.397   2.893  13.786  0.5755 -0.7693 -0.2075
  118MPD2    C5 1838   3.327   2.784  13.791 -0.2282 -0.8966  0.1922
  118MPD2     H 1839   3.704   2.749  13.787  0.3431 -2.4627  1.8188
  118MPD2    H1 1840   3.348   2.989  13.780 -0.2293 -1.1845 -0.3163
  118MPD2    H2 1841   3.312   2.578  13.786 -1.8185  1.3591 -0.4870
  118MPD2    H3 1842   3.220   2.792  13.810 -0.1766  1.2670 -0.4293
  118MPD2     N 1843   3.596   3.002  13.822 -0.2308  0.1307  0.3721
  118MPD2    H5 1844   3.536   3.084  13.814  0.7684  0.8635  0.3922
  118MPD2    N1 1845   3.577   2.519  13.758  0.1772  0.3722 -0.0532
  118MPD2    H7 1846   3.678   2.522  13.761  0.2304  0.2669 -1.9439
  119TMC2    C1 1847   1.645   3.176  13.363  0.1667 -0.7339 -0.5859
  119TMC2    C2 1848   1.635   3.204  13.226 -0.6843 -0.4850  0.2866
  119TMC2    C3 1849   1.510   3.231  13.170  0.5954  0.2436  0.5454
  119TMC2    C4 1850   1.534   3.190  13.432  0.6249 -0.1147  0.2451
  119TMC2    C5 1851   1.413   3.227  13.375 -0.2608  0.3290  0.2855
  119TMC2    C6 1852   1.398   3.246  13.238 -0.4544  0.0225  0.0585
  119TMC2     C 1853   1.752   3.250  13.425 -0.4688 -0.5164  0.1119
  119TMC2     O 1854   1.719   3.318  13.519  0.0064 -0.6749  0.0573
  119TMC2     H 1855   1.722   3.206  13.160  0.2017  2.4644  1.5262
  119TMC2    H1 1856   1.534   3.177  13.539  0.1071  1.0225  0.3781
  119TMC2    H2 1857   1.305   3.277  13.192 -0.6208 -0.0274  0.3616
  119TMC2    C7 1858   1.293   3.227  13.454 -0.1448  0.0670  0.4416
  119TMC2    C8 1859   1.508   3.250  13.026 -0.7221  0.4722  0.6104
  119TMC2    O1 1860   1.206   3.276  13.387 -0.0336 -0.2780  0.1549
  119TMC2    O2 1861   1.615   3.256  12.961  0.5971  0.0889  0.3962
  119TMC2    O5 1862   1.399   3.189  12.976 -0.2288  0.2588 -0.0504
  119TMC2    H5 1863   1.355   3.140  13.049 -1.2624 -0.9106 -1.4801
  120MPD2     C 1864   2.119   3.577  13.419 -0.5646  0.4591 -0.1403
  120MPD2    C1 1865   1.984   3.593  13.432  0.1913 -0.3386 -0.3156
  120MPD2    C2 1866   1.912   3.482  13.403 -0.6181  0.0802 -0.5040
  120MPD2    C3 1867   1.961   3.356  13.374 -0.1470  0.3700 -0.1670
  120MPD2    C4 1868   2.099   3.345  13.358 -0.3461 -0.0508 -0.2793
  120MPD2    C5 1869   2.173   3.459  13.380  0.7611  0.9910  0.8330
  120MPD2     H 1870   1.808   3.503  13.425  0.3440  3.4946  0.7056
  120MPD2    H1 1871   2.148   3.249  13.352  1.2831  0.6179  2.1504
  120MPD2    H2 1872   2.181   3.658  13.453 -0.5439 -0.7090  2.5783
  120MPD2    H3 1873   2.281   3.446  13.381  0.7023  0.4402 -1.4774
  120MPD2     N 1874   1.873   3.248  13.363  0.5228 -0.2799  0.0198
  120MPD2    H5 1875   1.902   3.179  13.295  2.0900  0.2228  0.1745
  120MPD2    N1 1876   1.928   3.704  13.501 -0.5149  0.3210  0.5753
  120MPD2    H7 1877   1.989   3.758  13.562  1.2086  1.4905 -2.2008
  121TMC2    C1 1878   2.640   0.111  13.617  0.0747  0.1464 -0.2351
  121TMC2    C2 1879   2.703   4.727  13.658  0.1474 -0.2129 -0.4717
  121TMC2    C3 1880   2.624   4.631  13.714  0.3154  0.6067 -0.0182
  121TMC2    C4 1881   2.511   0.137  13.632 -0.2998  0.4720  0.4683
  121TMC2    C5 1882   2.439   0.045  13.693  0.0199  0.0414 -0.6004
  121TMC2    C6 1883   2.486   4.652  13.717 -0.6238 -0.1761 -0.4953
  121TMC2     C 1884   2.726   0.206  13.542 -0.9668 -0.5361 -0.1542
  121TMC2     O 1885   2.842   0.174  13.520 -0.3653  0.0695  0.1644
  121TMC2     H 1886   2.810   4.712  13.652  0.2792  0.8218 -0.6326
  121TMC2    H1 1887   2.454   0.221  13.595 -0.4920 -0.1555 -0.6477
  121TMC2    H2 1888   2.431   4.567  13.754 -1.9823  0.1783 -1.6703
  121TMC2    C7 1889   2.313   0.086  13.756  0.4386 -0.3789  0.0863
  121TMC2    C8 1890   2.685   4.538  13.814 -0.7280 -0.5037 -0.3292
  121TMC2    O1 1891   2.238   4.734  13.786 -0.2492 -0.2076 -0.1570
  121TMC2    O2 1892   2.653   4.420  13.834 -0.2416 -0.2257 -0.4123
  121TMC2    O5 1893   2.778   4.608  13.872  1.1115  0.1993 -0.5738
  121TMC2    H5 1894   2.781   4.700  13.838  0.9765  0.0422 -1.0131
  122MPD2     C 1895   2.680   0.563  13.514  0.0712 -0.3781 -0.7067
  122MPD2    C1 1896   2.738   0.442  13.491  0.4990  0.3615 -0.7022
  122MPD2    C2 1897   2.851   0.439  13.420 -0.6722  0.3673  0.3775
  122MPD2    C3 1898   2.915   0.559  13.384 -1.3644 -0.5088 -0.9284
  122MPD2    C4 1899   2.853   0.681  13.406 -0.7891 -0.8009 -0.0536
  122MPD2    C5 1900   2.735   0.684  13.472  0.9214  0.7266 -0.4720
  122MPD2     H 1901   2.890   0.340  13.396 -1.4458  0.1387  0.0338
  122MPD2    H1 1902   2.880   0.764  13.341 -0.1563 -0.6888  0.3566
  122MPD2    H2 1903   2.587   0.563  13.569  0.9082  0.4023  0.7118
  122MPD2    H3 1904   2.687   0.779  13.492 -0.1593  0.1800 -0.4757
  122MPD2     N 1905   3.045   0.556  13.326  0.6349 -0.7819  0.6658
  122MPD2    H5 1906   3.089   0.465  13.320  0.4028 -0.7483 -1.4649
  122MPD2    N1 1907   2.665   0.327  13.532  0.0290  0.1429  0.4874
  122MPD2    H7 1908   2.587   0.347  13.594 -0.7295  0.9901 -0.7611
  123TMC2    C1 1909   2.277   4.287   9.600  0.0054  0.2394  0.3515
  123TMC2    C2 1910   2.228   4.411   9.575  0.6999 -0.3574 -0.8048
  123TMC2    C3 1911   2.097   4.439   9.581  0.1025 -0.3473  0.4735
  123TMC2    C4 1912   2.181   4.180   9.613 -0.1681 -0.6644 -0.4056
  123TMC2    C5 1913   2.047   4.207   9.603  0.3324  0.0738 -0.8507
  123TMC2    C6 1914   2.003   4.337   9.598 -0.4769  0.1845 -0.3621
  123TMC2     C 1915   2.421   4.273   9.619  0.1310 -0.2608  0.3587
  123TMC2     O 1916   2.485   4.371   9.650 -0.2098 -0.4114  0.2832
  123TMC2     H 1917   2.295   4.494   9.555 -0.8484  1.6393  2.3069
  123TMC2    H1 1918   2.219   4.082   9.638 -1.5503 -1.3073 -0.8315
  123TMC2    H2 1919   1.899   4.368   9.598 -1.0729 -1.7526 -0.3454
  123TMC2    C7 1920   1.947   4.106   9.569  0.1290  0.0115 -0.4140
  123TMC2    C8 1921   2.044   4.539   9.488 -0.3183  0.2134  0.5036
  123TMC2    O1 1922   1.829   4.142   9.581 -0.2819 -0.3253 -0.0231
  123TMC2    O2 1923   1.940   4.514   9.426  0.3937 -0.1543 -0.6360
  123TMC2    O5 1924   2.078   4.661   9.539 -0.2613  0.6369  0.5555
  123TMC2    H5 1925   2.150   4.648   9.605 -0.3666 -0.7158  0.4037
  124MPD2     C 1926   2.831   3.970   9.722 -0.1899 -0.1115 -0.9239
  124MPD2    C1 1927   2.723   3.887   9.704 -0.0798 -0.0827 -0.8604
  124MPD2    C2 1928   2.604   3.947   9.658  0.0901 -0.0988 -0.6394
  124MPD2    C3 1929   2.602   4.088   9.648  1.0763 -0.3967 -0.2300
  124MPD2    C4 1930   2.714   4.169   9.662 -0.0195  0.4646 -0.2454
  124MPD2    C5 1931   2.829   4.106   9.700  0.5931  0.1835 -0.6446
  124MPD2     H 1932   2.512   3.889   9.654  0.3489 -0.6196  1.0142
  124MPD2    H1 1933   2.717   4.278   9.664 -2.6787  0.4974  1.4186
  124MPD2    H2 1934   2.921   3.918   9.752 -0.0710  0.8810  0.4148
  124MPD2    H3 1935   2.915   4.169   9.717 -0.0689  0.3238  2.1821
  124MPD2     N 1936   2.471   4.142   9.622  0.6446  0.1527  0.2246
  124MPD2    H5 1937   2.409   4.067   9.595 -0.7337  2.0836 -2.0724
  124MPD2    N1 1938   2.736   3.755   9.732  0.2038  0.0120  0.1751
  124MPD2    H7 1939   2.824   3.743   9.781  0.8711  3.0497 -0.2663
  125TMC2    C1 1940   1.474   4.188   8.768 -0.3563  0.1486  0.0472
  125TMC2    C2 1941   1.452   4.074   8.694 -0.2445  0.6067 -0.4048
  125TMC2    C3 1942   1.566   4.003   8.665  0.3259 -0.1410 -0.2631
  125TMC2    C4 1943   1.595   4.233   8.809 -0.7253  0.0421 -0.6986
  125TMC2    C5 1944   1.706   4.160   8.779  0.3081 -0.4086  0.0751
  125TMC2    C6 1945   1.693   4.043   8.707 -0.8554  0.1927  0.7000
  125TMC2     C 1946   1.356   4.265   8.807  0.1849  0.2491 -0.2566
  125TMC2     O 1947   1.252   4.246   8.744 -0.3631  0.4643  0.1095
  125TMC2     H 1948   1.352   4.044   8.665  0.8474 -3.1395 -0.2672
  125TMC2    H1 1949   1.605   4.337   8.839 -1.7267 -0.3279  0.9594
  125TMC2    H2 1950   1.783   3.988   8.681 -2.2574 -1.6026 -0.2757
  125TMC2    C7 1951   1.834   4.199   8.841 -0.2392 -0.5549  0.3733
  125TMC2    C8 1952   1.547   3.876   8.583 -0.1122  1.0753  0.5324
  125TMC2    O1 1953   1.822   4.312   8.888 -0.3662  0.2920  0.5120
  125TMC2    O2 1954   1.636   3.793   8.581 -0.2966 -0.0251  0.1110
  125TMC2    O5 1955   1.437   3.874   8.509  0.1262  0.4628 -0.0953
  125TMC2    H5 1956   1.381   3.955   8.519 -1.2527 -0.2696 -1.6656
  126MPD1     C 1957   1.101   4.610   9.084  0.3369  0.0437 -0.6892
  126MPD1    C1 1958   1.225   4.606   9.131  0.0312  0.4291 -0.0447
  126MPD1    C2 1959   1.305   4.517   9.073 -0.1788  0.2105 -0.2062
  126MPD1    C3 1960   1.271   4.429   8.975  0.1703  0.4356 -0.0737
  126MPD1    C4 1961   1.145   4.444   8.923 -0.2566 -0.3607  0.2768
  126MPD1    C5 1962   1.057   4.537   8.979 -1.4597  0.1266  0.7951
  126MPD1     H 1963   1.410   4.509   9.098 -1.0451 -1.8507  2.7237
  126MPD1    H1 1964   1.107   4.387   8.839  1.8093  0.6737 -1.3561
  126MPD1    H2 1965   1.031   4.682   9.126  0.5849 -0.5618  0.7797
  126MPD1    H3 1966   0.955   4.545   8.942 -0.9812 -0.6564 -0.7336
  126MPD1     N 1967   1.366   4.342   8.925  0.5613 -0.3159  0.2441
  126MPD1    H5 1968   1.452   4.343   8.978  0.1042  0.0120  0.9732
  126MPD1    N1 1969   1.268   4.707   9.216  0.3329 -0.0313 -0.1987
  126MPD1    H6 1970   1.360   4.689   9.255  0.7287  2.3501 -0.0342
  126MPD1    H7 1971   1.211   4.727   9.299 -0.2702 -2.9316  0.0666
  127TMC2    C1 1972   3.820   3.665  10.157 -0.6510  0.1726  0.1506
  127TMC2    C2 1973   3.944   3.705  10.131  0.0158 -0.0777 -0.1822
  127TMC2    C3 1974   4.030   3.747  10.236 -0.6235  0.1467  0.5452
  127TMC2    C4 1975   3.771   3.651  10.289  0.0065 -0.1840 -0.3970
  127TMC2    C5 1976   3.857   3.688  10.384 -0.3957 -0.5552 -0.8910
  127TMC2    C6 1977   3.982   3.736  10.362 -0.6561  0.1437  0.0465
  127TMC2     C 1978   3.728   3.733  10.070  0.3530 -0.4011 -0.0065
  127TMC2     O 1979   3.763   3.845  10.031 -0.2191  0.0890 -0.6087
  127TMC2     H 1980   3.966   3.727  10.028 -0.4838  2.9073  0.3616
  127TMC2    H1 1981   3.682   3.591  10.306 -0.1184  0.5209  1.4301
  127TMC2    H2 1982   4.045   3.781  10.438 -0.7081 -1.6892  1.1544
  127TMC2    C7 1983   3.831   3.671  10.518 -0.3975  0.9432  0.5548
  127TMC2    C8 1984   4.125   3.850  10.206 -0.2736 -0.8189 -0.6713
  127TMC2    O1 1985   3.935   3.651  10.580 -0.0317  0.2905 -0.0855
  127TMC2    O2 1986   4.125   3.895  10.092  0.2833 -0.7054 -0.2045
  127TMC2    O5 1987   4.234   3.799  10.263 -0.1575  0.5161  0.5885
  127TMC2    H5 1988   4.236   3.773  10.357  1.3741 -0.6739  0.2098
  128MPD2     C 1989   3.380   3.644  10.000  0.2517  0.5930  0.1589
  128MPD2    C1 1990   3.497   3.710   9.978  0.5467  0.1075  0.0537
  128MPD2    C2 1991   3.504   3.824   9.901  0.6110 -0.1981 -0.0735
  128MPD2    C3 1992   3.386   3.879   9.843  0.4542  0.0653 -0.0163
  128MPD2    C4 1993   3.272   3.801   9.868 -0.0938 -0.2515  0.0637
  128MPD2    C5 1994   3.267   3.690   9.945  0.2601 -0.1294  0.1947
  128MPD2     H 1995   3.601   3.860   9.869  0.6491 -1.0690 -0.9410
  128MPD2    H1 1996   3.176   3.827   9.825 -0.6505  0.0730  1.5005
  128MPD2    H2 1997   3.377   3.556  10.065  0.0748  1.1317  0.8782
  128MPD2    H3 1998   3.175   3.634   9.942 -1.0695  2.1146 -0.8525
  128MPD2     N 1999   3.399   3.979   9.752  0.3304 -0.2695 -0.7448
  128MPD2    H5 2000   3.495   4.003   9.730  1.0683  0.0936  2.9238
  128MPD2    N1 2001   3.600   3.675  10.064  0.2226  0.3864 -0.5101
  128MPD2    H7 2002   3.588   3.583  10.106  2.5839 -0.6006 -1.9662
  129TMC2    C1 2003   1.576   4.401   1.192  0.1659  0.0942  0.3474
  129TMC2    C2 2004   1.657   4.488   1.126  0.0865  0.2289 -0.0137
  129TMC2    C3 2005   1.734   4.438   1.027 -0.1998 -0.2581  0.2512
  129TMC2    C4 2006   1.567   4.266   1.163  0.3136  0.1227 -0.3301
  129TMC2    C5 2007   1.656   4.220   1.066 -0.6791 -0.1471  0.3844
  129TMC2    C6 2008   1.749   4.304   0.999  0.9150  0.1700 -0.2662
  129TMC2     C 2009   1.477   4.448   1.288  0.3803 -0.3334 -0.1596
  129TMC2     O 2010   1.396   4.375   1.343 -0.0743  0.8914 -0.1419
  129TMC2     H 2011   1.660   4.596   1.137 -0.8397  0.4176 -1.5591
  129TMC2    H1 2012   1.502   4.194   1.211 -1.4380  1.4212 -0.7919
  129TMC2    H2 2013   1.808   4.270   0.915  2.4510  0.6041  0.6246
  129TMC2    C7 2014   1.662   4.080   1.041 -0.5203  0.0091  0.0775
  129TMC2    C8 2015   1.838   4.530   0.971 -0.4155 -1.2460  0.1396
  129TMC2    O1 2016   1.570   4.010   1.095 -0.0265  0.2051  0.1323
  129TMC2    O2 2017   1.826   4.650   0.994  0.0312  0.6859 -0.4405
  129TMC2    O5 2018   1.961   4.475   0.987  0.6094 -0.1600  0.4342
  129TMC2    H5 2019   1.960   4.377   0.994 -1.1903 -0.0851  1.4425
  130MPD2     C 2020   1.274   4.615   1.425 -0.1875 -0.6730 -0.0822
  130MPD2    C1 2021   1.382   4.664   1.364 -0.3274 -0.1922  0.7180
  130MPD2    C2 2022   1.379   0.061   1.333  0.0141  0.0494  0.1816
  130MPD2    C3 2023   1.280   0.150   1.378  0.5677 -0.4193  0.9865
  130MPD2    C4 2024   1.168   0.093   1.441  0.2448  0.8727  0.0122
  130MPD2    C5 2025   1.166   4.692   1.461  0.6296 -0.5005  0.5239
  130MPD2     H 2026   1.462   0.102   1.277 -2.5033  0.2599 -3.4036
  130MPD2    H1 2027   1.082   0.156   1.461  1.2074  2.0768  0.3592
  130MPD2    H2 2028   1.258   4.511   1.451  0.7039 -0.4569  1.3330
  130MPD2    H3 2029   1.078   4.651   1.510  1.0831  1.2505  2.7789
  130MPD2     N 2030   1.293   0.294   1.354 -0.5681  0.5209  0.6469
  130MPD2    H5 2031   1.375   0.332   1.308 -1.7460 -1.5362 -3.2029
  130MPD2    N1 2032   1.479   4.589   1.295  1.0147 -0.2072 -0.4029
  130MPD2    H7 2033   1.542   4.638   1.232 -2.1719  1.3212 -2.3475
  131TMC2    C1 2034   1.863   3.836   9.928 -0.8108  0.1836 -0.1834
  131TMC2    C2 2035   1.898   3.969   9.957 -0.3287 -0.6751  0.0274
  131TMC2    C3 2036   1.812   4.070   9.933 -0.4533 -0.6323  0.1262
  131TMC2    C4 2037   1.728   3.804   9.905  0.1265 -0.2514  0.3544
  131TMC2    C5 2038   1.639   3.911   9.917  0.0623 -0.2938  0.6237
  131TMC2    C6 2039   1.686   4.042   9.923 -0.1520  0.9924  0.9182
  131TMC2     C 2040   1.969   3.741   9.923  0.1580 -0.5207 -0.2940
  131TMC2     O 2041   2.082   3.779   9.906 -0.5140 -0.3381 -0.4910
  131TMC2     H 2042   1.999   3.987   9.991 -0.4239  1.4302 -0.8133
  131TMC2    H1 2043   1.697   3.701   9.894 -0.0795  0.0875 -2.2010
  131TMC2    H2 2044   1.607   4.114   9.941 -0.9505  0.1429  0.8649
  131TMC2    C7 2045   1.504   3.883   9.888  0.1473  0.3392 -0.4315
  131TMC2    C8 2046   1.864   4.200   9.968 -0.4993 -0.1536 -0.9392
  131TMC2    O1 2047   1.463   3.764   9.891  0.2669 -0.0519 -0.1012
  131TMC2    O2 2048   1.953   4.210  10.048 -0.2743  0.1696 -0.6650
  131TMC2    O5 2049   1.798   4.299   9.904  0.2298  0.1032 -0.2089
  131TMC2    H5 2050   1.745   4.269   9.827  0.9863 -1.8158  0.0044
  132MPD2     C 2051   1.947   3.387  10.028  0.3583  0.9446 -0.3477
  132MPD2    C1 2052   2.006   3.499   9.966  0.7986  0.0453  0.2745
  132MPD2    C2 2053   2.128   3.492   9.897  0.1972 -0.0169  0.1060
  132MPD2    C3 2054   2.205   3.383   9.925 -0.7511 -0.3570  0.7178
  132MPD2    C4 2055   2.153   3.275   9.986 -0.1944  0.0360  0.0693
  132MPD2    C5 2056   2.030   3.276  10.040 -0.4252  0.4435  0.5851
  132MPD2     H 2057   2.179   3.572   9.844 -0.1164  0.2067  0.1414
  132MPD2    H1 2058   2.215   3.187  10.000 -0.1965 -0.0182 -0.2422
  132MPD2    H2 2059   1.845   3.378  10.064  1.8429  0.0940  3.5656
  132MPD2    H3 2060   1.981   3.187  10.079 -0.4676 -0.1985 -0.9160
  132MPD2     N 2061   2.337   3.392   9.883 -0.7836  0.0827  0.1559
  132MPD2    H5 2062   2.373   3.476   9.838 -0.0682  1.1960  2.8088
  132MPD2    N1 2063   1.926   3.615   9.969 -0.5243  0.3071 -0.0022
  132MPD2    H7 2064   1.832   3.615  10.009  0.2876  2.5932  1.9021
  133TMC2    C1 2065   0.327   3.454  10.106  0.6049  0.2000  0.5927
  133TMC2    C2 2066   0.436   3.489  10.180 -0.1488 -0.1196  0.2230
  133TMC2    C3 2067   0.494   3.394  10.267  0.4315  0.3432  0.3764
  133TMC2    C4 2068   0.271   3.332  10.115  0.1232 -0.5847  0.3520
  133TMC2    C5 2069   0.326   3.250  10.204 -0.1877  0.0293 -0.2448
  133TMC2    C6 2070   0.439   3.271  10.278 -0.5171  0.0686 -0.1952
  133TMC2     C 2071   0.299   3.544   9.998 -0.5088 -0.5000 -0.8905
  133TMC2     O 2072   0.304   3.663  10.024  0.2206  0.2723 -0.0967
  133TMC2     H 2073   0.484   3.581  10.152  1.5321 -0.2856  2.5343
  133TMC2    H1 2074   0.175   3.305  10.072  0.3093 -0.9266  0.1470
  133TMC2    H2 2075   0.474   3.197  10.349 -2.5398 -0.8775 -0.1791
  133TMC2    C7 2076   0.271   3.117  10.233  0.1379 -0.3885  0.2341
  133TMC2    C8 2077   0.634   3.408  10.302  0.1786  0.0623  0.0161
  133TMC2    O1 2078   0.282   3.067  10.343  0.0841 -0.6490 -0.0978
  133TMC2    O2 2079   0.685   3.515  10.330  0.1398  0.1480 -0.1016
  133TMC2    O5 2080   0.701   3.316  10.226  0.2674 -0.1411  0.6293
  133TMC2    H5 2081   0.642   3.242  10.201  3.0875 -2.1318 -0.2093
  134MPD2     C 2082   0.263   3.457   9.635  0.4063  0.5862  0.1174
  134MPD2    C1 2083   0.279   3.538   9.749  0.2072 -0.1469 -0.1728
  134MPD2    C2 2084   0.274   3.670   9.726 -0.1637  0.5689 -0.5038
  134MPD2    C3 2085   0.273   3.727   9.602 -0.6152 -0.0129  0.2583
  134MPD2    C4 2086   0.265   3.648   9.491  0.1637 -0.2193  0.4426
  134MPD2    C5 2087   0.264   3.511   9.509  0.3433  0.8652 -0.2452
  134MPD2     H 2088   0.272   3.735   9.813 -1.6938  0.5972 -0.5689
  134MPD2    H1 2089   0.255   3.691   9.392  1.3234 -1.3164 -0.1419
  134MPD2    H2 2090   0.261   3.351   9.656  1.4623  1.1776  3.1585
  134MPD2    H3 2091   0.252   3.450   9.420 -1.7444  2.4105 -1.0266
  134MPD2     N 2092   0.267   3.870   9.597  0.0632  0.0484 -0.1598
  134MPD2    H5 2093   0.241   3.912   9.685  1.1634 -0.1408  0.2534
  134MPD2    N1 2094   0.280   3.474   9.879  0.9721 -0.2494 -0.2223
  134MPD2    H7 2095   0.264   3.374   9.881  0.0284 -0.1286 -1.4180
  135TMC2    C1 2096   1.887   4.632   8.718  0.0842  0.5945  0.3324
  135TMC2    C2 2097   1.956   4.518   8.676 -0.0129  0.6677 -0.2494
  135TMC2    C3 2098   1.898   4.461   8.566  0.6359  0.7020  0.3695
  135TMC2    C4 2099   1.762   4.667   8.677 -0.3430 -0.0535 -0.0646
  135TMC2    C5 2100   1.702   4.578   8.596 -0.5542  0.8773 -0.2792
  135TMC2    C6 2101   1.773   4.485   8.522  0.3050  1.1292 -0.6701
  135TMC2     C 2102   1.950   0.011   8.783 -0.1659  0.3996  0.3475
  135TMC2     O 2103   1.883   0.091   8.844 -0.3260  0.4723 -0.3572
  135TMC2     H 2104   2.043   4.484   8.731 -0.7500 -0.7635  0.0286
  135TMC2    H1 2105   1.718   0.020   8.722 -1.2520  0.1005 -1.2650
  135TMC2    H2 2106   1.727   4.425   8.444 -1.2154  2.4024 -0.7370
  135TMC2    C7 2107   1.572   4.624   8.535 -0.1664  0.0176 -0.5770
  135TMC2    C8 2108   1.959   4.331   8.538  0.2792  0.0850  0.4162
  135TMC2    O1 2109   1.535   4.579   8.429 -0.3027 -0.0080  0.3536
  135TMC2    O2 2110   1.901   4.221   8.536  0.8772 -0.2055 -0.0182
  135TMC2    O5 2111   2.090   4.348   8.535  0.1833  0.3992  0.1800
  135TMC2    H5 2112   2.111   4.442   8.551  0.8423  0.2073  0.4848
  136MPD2     C 2113   2.122   0.257   8.792  0.4365 -0.0123  0.5249
  136MPD2    C1 2114   2.169   0.131   8.763  0.0442  0.3066 -0.1121
  136MPD2    C2 2115   2.303   0.107   8.760  0.0774  0.3986  0.7395
  136MPD2    C3 2116   2.398   0.202   8.789  0.3646 -0.1266 -0.0699
  136MPD2    C4 2117   2.352   0.331   8.815  0.7725 -0.4842  0.6594
  136MPD2    C5 2118   2.213   0.353   8.816 -0.4779 -0.6829 -0.3291
  136MPD2     H 2119   2.329   0.004   8.740  1.6959  0.6008  1.7976
  136MPD2    H1 2120   2.424   0.408   8.840 -1.1897  1.0691  1.4776
  136MPD2    H2 2121   2.017   0.284   8.797  0.6189  0.2350  2.7099
  136MPD2    H3 2122   2.181   0.454   8.836  0.7182 -0.3632 -0.0171
  136MPD2     N 2123   2.537   0.182   8.784 -0.2728 -0.2513  0.3476
  136MPD2    H5 2124   2.601   0.257   8.808 -0.8238 -0.5984  2.8368
  136MPD2    N1 2125   2.083   0.015   8.754  0.3850 -0.1424  0.4940
  136MPD2    H7 2126   2.129   4.665   8.722  1.9266  0.8126  0.1252
  137TMC2    C1 2127   2.051   3.923   9.135  0.1191 -0.8245  0.3949
  137TMC2    C2 2128   2.134   3.811   9.127  0.9158  0.4397  0.0063
  137TMC2    C3 2129   2.091   3.701   9.061 -0.3177  0.0121  0.3486
  137TMC2    C4 2130   1.922   3.919   9.092 -0.1783 -0.0753 -0.3499
  137TMC2    C5 2131   1.878   3.793   9.052  0.2587 -0.5167 -0.6548
  137TMC2    C6 2132   1.957   3.682   9.038  0.3651  0.4419  0.1528
  137TMC2     C 2133   2.087   4.053   9.197 -0.6629 -0.0763  0.3537
  137TMC2     O 2134   1.995   4.123   9.236 -0.0299  0.1700  0.2487
  137TMC2     H 2135   2.236   3.826   9.159  1.2184 -1.4308 -0.0972
  137TMC2    H1 2136   1.860   4.007   9.085 -0.4215 -0.0172  2.4162
  137TMC2    H2 2137   1.917   3.593   8.990  1.0620  0.6436 -0.8148
  137TMC2    C7 2138   1.739   3.776   9.011 -0.0212  0.4704 -0.6646
  137TMC2    C8 2139   2.190   3.594   9.033  0.4446 -0.0501 -0.2528
  137TMC2    O1 2140   1.720   3.666   8.958 -0.2660 -0.3143  0.4109
  137TMC2    O2 2141   2.292   3.578   9.098  0.9492  0.4290 -0.6313
  137TMC2    O5 2142   2.138   3.512   8.934 -0.5076 -0.2046  0.2961
  137TMC2    H5 2143   2.064   3.554   8.885  1.3079  1.4100 -1.0902
  138MPD2     C 2144   2.392   4.244   9.234 -0.6634 -0.3005 -0.1147
  138MPD2    C1 2145   2.260   4.220   9.219  0.4193 -1.1928  0.1582
  138MPD2    C2 2146   2.177   4.333   9.215 -0.3810 -0.3604  0.2452
  138MPD2    C3 2147   2.233   4.467   9.221  0.4131 -0.0945  0.7762
  138MPD2    C4 2148   2.371   4.477   9.247  0.2705 -0.0897 -0.7552
  138MPD2    C5 2149   2.453   4.366   9.246  0.6541 -0.2170 -0.0819
  138MPD2     H 2150   2.074   4.322   9.183 -0.4905 -0.1393  0.5228
  138MPD2    H1 2151   2.424   4.568   9.270  1.2843 -0.8461 -0.0907
  138MPD2    H2 2152   2.454   4.156   9.253 -1.8461 -1.0699  0.1850
  138MPD2    H3 2153   2.560   4.368   9.265  0.4525  1.6601  0.8592
  138MPD2     N 2154   2.148   4.572   9.185  0.3382  0.1628  0.3094
  138MPD2    H5 2155   2.051   4.552   9.164 -0.0394  0.4513  1.8245
  138MPD2    N1 2156   2.217   4.086   9.203  0.5349  0.3448  0.0055
  138MPD2    H7 2157   2.289   4.020   9.175 -0.1715 -0.4836  0.1191
  139TMC2    C1 2158   3.410   3.207  13.146  0.5531  0.2375  0.2921
  139TMC2    C2 2159   3.473   3.267  13.035  0.8443 -0.1786 -0.2592
  139TMC2    C3 2160   3.478   3.407  13.032 -0.2044 -0.2551  0.0626
  139TMC2    C4 2161   3.366   3.284  13.246  0.7025 -0.1834 -1.0275
  139TMC2    C5 2162   3.370   3.421  13.233  0.3967  0.2349 -0.1622
  139TMC2    C6 2163   3.432   3.490  13.127 -0.2376 -0.6232 -0.0755
  139TMC2     C 2164   3.429   3.059  13.156  0.0033 -0.1482  0.4238
  139TMC2     O 2165   3.488   3.007  13.059 -0.8623  0.2814 -0.3862
  139TMC2     H 2166   3.506   3.214  12.946  0.9351  0.8368 -0.8273
  139TMC2    H1 2167   3.317   3.244  13.334  0.1225  1.3569 -0.6454
  139TMC2    H2 2168   3.433   3.598  13.132 -3.8323 -0.5954  0.0593
  139TMC2    C7 2169   3.283   3.504  13.324 -0.0768 -0.1636 -0.2313
  139TMC2    C8 2170   3.522   3.472  12.909 -0.2599  0.6515  0.5550
  139TMC2    O1 2171   3.261   3.617  13.278  0.0562  0.2072  0.0659
  139TMC2    O2 2172   3.438   3.525  12.838 -0.3262  0.1032  0.4607
  139TMC2    O5 2173   3.614   3.395  12.853 -0.3158  0.5220 -0.3856
  139TMC2    H5 2174   3.681   3.349  12.907 -1.4277  2.3531  2.5563
  140MPD2     C 2175   3.295   2.826  13.413  0.0438 -0.5302 -0.0342
  140MPD2    C1 2176   3.359   2.864  13.293 -0.0313  0.1736  0.8047
  140MPD2    C2 2177   3.440   2.770  13.220  0.6914 -0.1756  0.6903
  140MPD2    C3 2178   3.440   2.636  13.258  0.0889 -1.0570 -0.4366
  140MPD2    C4 2179   3.371   2.600  13.373 -0.1967 -0.3366  0.6777
  140MPD2    C5 2180   3.297   2.692  13.447 -0.2398 -0.0982  0.1309
  140MPD2     H 2181   3.500   2.794  13.133 -0.8402 -0.0172 -0.3206
  140MPD2    H1 2182   3.375   2.499  13.412  1.2753 -0.3299  0.5593
  140MPD2    H2 2183   3.242   2.895  13.478  0.8177  2.6058 -2.7116
  140MPD2    H3 2184   3.253   2.659  13.541  0.6374 -0.6573  0.3474
  140MPD2     N 2185   3.524   2.539  13.194  0.1481 -0.4089  0.0189
  140MPD2    H5 2186   3.573   2.564  13.108  3.6881 -0.0053  2.1479
  140MPD2    N1 2187   3.349   2.999  13.255 -0.1750  0.2411 -0.2313
  140MPD2    H7 2188   3.303   3.063  13.319 -0.5849  0.5955 -0.8846
  141TMC2    C1 2189   3.927   4.172  14.456  0.1391 -0.6176  0.3369
  141TMC2    C2 2190   3.894   4.084  14.556 -0.1521  0.0791  0.2570
  141TMC2    C3 2191   3.849   4.149  14.669  0.7244 -0.2574 -1.0332
  141TMC2    C4 2192   3.887   4.304  14.451 -0.6582 -0.0557  0.3053
  141TMC2    C5 2193   3.844   4.352  14.569  0.1685  0.1840 -0.1635
  141TMC2    C6 2194   3.820   4.277  14.679  0.2492 -0.1647  0.1363
  141TMC2     C 2195   3.956   4.118  14.325 -0.3277  0.1540 -0.0306
  141TMC2     O 2196   3.912   4.185  14.233 -0.1953 -0.3177  0.1593
  141TMC2     H 2197   3.921   3.979  14.553  0.2609  0.1773  0.4802
  141TMC2    H1 2198   3.913   4.363  14.364 -1.3399 -1.4753 -0.8575
  141TMC2    H2 2199   3.784   4.322  14.771  1.2966  2.2210 -0.6256
  141TMC2    C7 2200   3.864   4.498  14.593 -0.2870  0.0902  0.3393
  141TMC2    C8 2201   3.803   4.077  14.786  0.7451  0.5497  0.4729
  141TMC2    O1 2202   3.816   4.540  14.695  0.0740 -0.1689 -0.1906
  141TMC2    O2 2203   3.868   4.068  14.890  0.0828 -1.0355 -0.1049
  141TMC2    O5 2204   3.675   4.091  14.781 -0.2658 -0.4533  0.4492
  141TMC2    H5 2205   3.635   4.099  14.692  1.3573  0.5752 -0.1699
  142TMC2    C1 2206   1.223   3.652   9.643  0.2264  0.5908  0.3601
  142TMC2    C2 2207   1.118   3.707   9.580  0.0865 -0.4913  0.1095
  142TMC2    C3 2208   1.143   3.817   9.494  0.0029 -0.2898 -0.0557
  142TMC2    C4 2209   1.349   3.684   9.612  0.4861  0.2001  0.0640
  142TMC2    C5 2210   1.371   3.777   9.515 -0.3244 -0.2700 -0.3376
  142TMC2    C6 2211   1.269   3.845   9.458 -0.0646 -0.0096 -0.3310
  142TMC2     C 2212   1.202   3.548   9.741 -0.8270  0.3613 -1.2957
  142TMC2     O 2213   1.098   3.483   9.740 -0.3952  0.1180  0.7808
  142TMC2     H 2214   1.017   3.671   9.595  0.5988 -1.7798  0.4961
  142TMC2    H1 2215   1.437   3.634   9.651 -1.1658 -0.5204  2.8506
  142TMC2    H2 2216   1.285   3.918   9.380  0.4065 -0.5489 -0.7435
  142TMC2    C7 2217   1.504   3.809   9.467 -0.2803  1.1170  0.1105
  142TMC2    C8 2218   1.034   3.865   9.414  0.3614 -0.1622  0.1098
  142TMC2    O1 2219   1.527   3.927   9.438 -0.3894  0.0352  0.0053
  142TMC2    O2 2220   0.922   3.884   9.457 -0.9202  0.0309  0.2344
  142TMC2    O5 2221   1.062   3.844   9.278  0.1494  0.0409  0.1102
  142TMC2    H5 2222   1.144   3.795   9.252  0.4046 -0.1200  1.1917
  143MPD2     C 2223   1.387   3.263  10.126  0.6925 -0.1541  0.4114
  143MPD2    C1 2224   1.278   3.247  10.043 -0.3329 -0.3607 -0.0837
  143MPD2    C2 2225   1.255   3.325   9.933 -0.1152 -0.0321  0.0559
  143MPD2    C3 2226   1.332   3.440   9.924 -0.0583  0.2813 -0.1417
  143MPD2    C4 2227   1.436   3.461  10.007  0.2682  0.0324 -0.3711
  143MPD2    C5 2228   1.468   3.369  10.105 -0.4221 -0.5021 -0.0043
  143MPD2     H 2229   1.161   3.316   9.879  0.6433 -0.7187 -1.1393
  143MPD2    H1 2230   1.498   3.550  10.007  1.3580 -0.7359 -0.0457
  143MPD2    H2 2231   1.406   3.193  10.207  0.7017 -2.8523 -1.9259
  143MPD2    H3 2232   1.555   3.379  10.168 -1.2795  1.7801  0.8321
  143MPD2     N 2233   1.309   3.541   9.824  0.3813 -0.1064 -0.1877
  143MPD2    H5 2234   1.367   3.622   9.842  1.5940 -1.4320  1.8272
  143MPD2    N1 2235   1.197   3.139  10.080 -0.0286  0.5916 -0.1585
  143MPD2    H7 2236   1.214   3.108  10.175 -0.8937  2.1131  0.5038
  144TMC2    C1 2237   4.331   1.202   0.586  0.0934  0.7079 -0.6339
  144TMC2    C2 2238   4.352   1.068   0.566 -0.2425  0.1272 -0.3849
  144TMC2    C3 2239   4.455   1.008   0.639 -0.4746 -0.3269 -0.5311
  144TMC2    C4 2240   4.406   1.269   0.682 -0.0554 -0.2703 -0.1190
  144TMC2    C5 2241   4.510   1.207   0.738  0.6384  0.6457 -0.4787
  144TMC2    C6 2242   4.548   1.076   0.711  0.3925 -0.4661  0.6155
  144TMC2     C 2243   4.249   1.275   0.494 -0.5415 -1.0313 -0.0358
  144TMC2     O 2244   4.224   1.217   0.391  0.7971  0.8633 -0.0941
  144TMC2     H 2245   4.288   1.020   0.493 -0.4043 -0.6996  0.2917
  144TMC2    H1 2246   4.391   1.376   0.684 -0.5827 -0.3175 -1.4399
  144TMC2    H2 2247   4.635   1.029   0.754 -0.9465 -1.0586  2.7216
  144TMC2    C7 2248   4.603   1.279   0.824  0.3043 -0.0692 -0.3287
  144TMC2    C8 2249   4.500   0.883   0.588  0.1143  0.2261  0.2281
  144TMC2    O1 2250   4.714   1.233   0.841 -0.0218  0.3708 -0.4165
  144TMC2    O2 2251   4.446   0.825   0.493 -0.1254  0.1602  0.4658
  144TMC2    O5 2252   4.550   0.815   0.685 -0.4035 -0.6136 -0.4381
  144TMC2    H5 2253   4.598   0.863   0.756  1.4254  0.0807 -2.1598
  145MPD2     C 2254   3.988   1.696   0.360  1.2559 -0.6839 -1.2438
  145MPD2    C1 2255   3.995   1.571   0.298  0.7727  1.0675 -0.2718
  145MPD2    C2 2256   4.068   1.470   0.362  0.5552 -0.4303  0.4519
  145MPD2    C3 2257   4.134   1.499   0.476 -0.0743  0.2252 -0.6353
  145MPD2    C4 2258   4.119   1.621   0.538  0.0916 -0.3983  0.2924
  145MPD2    C5 2259   4.043   1.719   0.476  0.2135 -0.5696 -0.3450
  145MPD2     H 2260   4.081   1.373   0.316  0.6831 -0.9742  1.6522
  145MPD2    H1 2261   4.167   1.648   0.632 -1.6681  0.6782  0.8689
  145MPD2    H2 2262   3.942   1.781   0.313 -0.0048 -1.8912 -2.1922
  145MPD2    H3 2263   4.042   1.818   0.520  0.6713 -1.6272  2.0472
  145MPD2     N 2264   4.209   1.399   0.544  0.8428  0.6695  0.3856
  145MPD2    H5 2265   4.247   1.421   0.636  1.1572  0.3289  0.3404
  145MPD2    N1 2266   3.940   1.546   0.171  0.4290 -0.2984  0.3617
  145MPD2    H7 2267   3.953   1.451   0.137  0.1111 -0.5224  0.8694
  146TMC2    C1 2268   1.066   0.727  12.272  0.0685  0.1856 -0.4769
  146TMC2    C2 2269   1.009   0.767  12.152  0.6786  0.2662 -0.6253
  146TMC2    C3 2270   1.063   0.722  12.038 -0.2266  0.0440 -0.0049
  146TMC2    C4 2271   1.174   0.644  12.275  0.1599 -0.2283  0.0136
  146TMC2    C5 2272   1.222   0.597  12.155 -0.2755  0.0392  0.2101
  146TMC2    C6 2273   1.170   0.628  12.035 -0.2727 -0.1598  0.3262
  146TMC2     C 2274   1.015   0.795  12.386 -0.5239  0.0101 -0.5321
  146TMC2     O 2275   0.996   0.914  12.390  0.0820 -0.4511  0.5106
  146TMC2     H 2276   0.917   0.823  12.147 -0.1659 -1.1533 -1.0376
  146TMC2    H1 2277   1.220   0.620  12.371 -2.5869 -0.4745  1.2768
  146TMC2    H2 2278   1.206   0.586  11.942  0.2920  2.2491 -0.5399
  146TMC2    C7 2279   1.362   0.547  12.157  0.3016  0.1941  0.3078
  146TMC2    C8 2280   0.990   0.733  11.913  0.1380 -0.1696  0.0243
  146TMC2    O1 2281   1.441   0.578  12.066 -0.6178  0.3893  0.0832
  146TMC2    O2 2282   0.866   0.744  11.912 -0.4555  0.4170  0.4413
  146TMC2    O5 2283   1.070   0.757  11.806 -0.4333 -0.4767  0.1442
  146TMC2    H5 2284   1.166   0.761  11.825 -0.1234 -0.7808 -1.3551
  147MPD2     C 2285   1.754   0.379  12.424  0.0856 -0.6688  0.1649
  147MPD2    C1 2286   1.643   0.320  12.483 -0.3072  0.5775 -0.0421
  147MPD2    C2 2287   1.522   0.350  12.423  0.4576  0.3309  0.2502
  147MPD2    C3 2288   1.513   0.434  12.317  0.1041 -0.1012 -0.5699
  147MPD2    C4 2289   1.626   0.483  12.263 -0.0335  0.2656 -0.0847
  147MPD2    C5 2290   1.748   0.458  12.313 -0.0375  0.0660 -0.5658
  147MPD2     H 2291   1.429   0.321  12.469  0.4102  1.5630  0.9311
  147MPD2    H1 2292   1.634   0.555  12.182 -0.6203  0.1770 -0.2192
  147MPD2    H2 2293   1.853   0.361  12.466  0.5118 -0.5958 -0.8011
  147MPD2    H3 2294   1.836   0.498  12.263  0.1918  1.4776  0.9625
  147MPD2     N 2295   1.380   0.462  12.269 -0.0954  0.4258 -0.1315
  147MPD2    H5 2296   1.311   0.429  12.335  2.8952 -1.4241  2.0659
  147MPD2    N1 2297   1.662   0.245  12.603 -0.9553 -0.2078 -0.0643
  147MPD2    H7 2298   1.750   0.247  12.653 -2.4777  0.6076  2.5937
  148TMC2    C1 2299   1.122   4.682  10.246 -0.1436 -0.0388 -0.7954
  148TMC2    C2 2300   1.187   0.016  10.152  0.0852 -0.1893 -0.1463
  148TMC2    C3 2301   1.308   4.706  10.111  0.3450  0.4604 -0.4564
  148TMC2    C4 2302   1.173   4.567  10.299 -0.1746  0.1247  0.4965
  148TMC2    C5 2303   1.297   4.527  10.263 -0.1296 -0.1865 -0.1482
  148TMC2    C6 2304   1.364   4.592  10.160 -0.4311 -0.1925 -0.4437
  148TMC2     C 2305   0.984   4.697  10.276 -1.1849 -0.5758  1.0295
  148TMC2     O 2306   0.942   0.081  10.266 -1.0476  0.1356  0.2030
  148TMC2     H 2307   1.130   0.087  10.093 -0.6765 -2.3976 -2.0695
  148TMC2    H1 2308   1.125   4.511  10.379 -0.5434  0.0938  0.2516
  148TMC2    H2 2309   1.456   4.548  10.122 -0.5628 -0.4977 -0.4028
  148TMC2    C7 2310   1.321   4.387  10.277  0.6840  0.0269 -0.5560
  148TMC2    C8 2311   1.363   0.030   9.993 -0.0166 -0.3558  0.4334
  148TMC2    O1 2312   1.224   4.327  10.316 -0.2700  0.4755 -1.0184
  148TMC2    O2 2313   1.376   0.146   9.954  0.2389 -0.1288 -0.7121
  148TMC2    O5 2314   1.403   4.661   9.921  0.1097  0.0110 -0.2077
  148TMC2    H5 2315   1.376   4.568   9.934 -3.3824  1.0418 -0.0005
  149MPD2     C 2316   0.695   4.667  10.312 -0.2028 -0.2754  0.5841
  149MPD2    C1 2317   0.782   4.563  10.275  0.0236 -0.9573 -0.4256
  149MPD2    C2 2318   0.727   4.439  10.243 -0.3309  0.0212  0.6509
  149MPD2    C3 2319   0.589   4.420  10.234 -0.1692  0.7272  0.8696
  149MPD2    C4 2320   0.499   4.522  10.258 -0.3458  0.6603  0.0376
  149MPD2    C5 2321   0.560   4.639  10.311  0.1675 -0.7380 -0.6001
  149MPD2     H 2322   0.799   4.360  10.231  1.5618  1.9289 -0.6197
  149MPD2    H1 2323   0.393   4.503  10.245 -0.3087  0.3139  0.2361
  149MPD2    H2 2324   0.712   0.033  10.345  2.1731 -0.5773  0.3089
  149MPD2    H3 2325   0.491   4.715  10.345  0.2139 -0.3586 -1.3608
  149MPD2     N 2326   0.530   4.292  10.194 -0.3752 -0.0878  0.4543
  149MPD2    H5 2327   0.429   4.291  10.184 -0.4004 -2.4355  1.0383
  149MPD2    N1 2328   0.923   4.573  10.273 -0.1011 -0.2604  0.1628
  149MPD2    H7 2329   0.979   4.490  10.253  1.4113  1.1079 -1.3341
  150TMC2    C1 2330   3.510   3.496  12.187  0.5665  0.1221  0.0188
  150TMC2    C2 2331   3.497   3.587  12.087 -0.0089  0.2354 -0.0212
  150TMC2    C3 2332   3.608   3.646  12.036  0.1848 -1.0454 -0.2833
  150TMC2    C4 2333   3.630   3.468  12.244 -0.3641 -0.0741  0.4242
  150TMC2    C5 2334   3.744   3.528  12.192  0.2585 -1.1526 -0.1325
  150TMC2    C6 2335   3.735   3.621  12.090 -0.7178 -0.0894 -0.0234
  150TMC2     C 2336   3.394   3.411  12.225  0.2574  0.0305 -0.0153
  150TMC2     O 2337   3.429   3.323  12.306 -0.3911 -0.1168 -0.4430
  150TMC2     H 2338   3.405   3.605  12.033  0.1369 -0.1656 -0.3972
  150TMC2    H1 2339   3.641   3.393  12.322 -1.0605 -0.6094  0.0145
  150TMC2    H2 2340   3.828   3.667  12.061 -1.7219  0.7097 -1.9826
  150TMC2    C7 2341   3.880   3.493  12.243 -0.6581 -1.3304 -0.0641
  150TMC2    C8 2342   3.602   3.689  11.900  0.1851 -0.7803 -0.1801
  150TMC2    O1 2343   3.967   3.571  12.218  0.0902 -0.4755  0.2361
  150TMC2    O2 2344   3.510   3.668  11.825 -0.6229 -0.2282 -0.1925
  150TMC2    O5 2345   3.718   3.747  11.860 -0.0061  0.1020 -0.2154
  150TMC2    H5 2346   3.760   3.776  11.943  1.6247 -1.3044 -0.5563
  151MPD2     C 2347   2.898   3.303  12.294 -0.4585 -0.6357  0.3860
  151MPD2    C1 2348   2.900   3.428  12.231  0.2391 -0.5042  0.6444
  151MPD2    C2 2349   3.027   3.484  12.203 -0.1811 -0.0643  0.0829
  151MPD2    C3 2350   3.145   3.409  12.231 -0.3933  0.8561  0.2747
  151MPD2    C4 2351   3.135   3.282  12.281 -0.1936 -0.1518 -0.3937
  151MPD2    C5 2352   3.015   3.233  12.316  0.1868 -0.2386  0.2200
  151MPD2     H 2353   3.020   3.585  12.162 -2.6799  0.8344  2.7224
  151MPD2    H1 2354   3.218   3.219  12.310  0.0209  0.3419  0.0594
  151MPD2    H2 2355   2.803   3.254  12.309 -0.5647 -0.1532  1.2829
  151MPD2    H3 2356   3.009   3.134  12.360 -0.4735  0.3168  1.3810
  151MPD2     N 2357   3.271   3.458  12.187  0.7779 -0.5171  0.0077
  151MPD2    H5 2358   3.271   3.540  12.127  0.5802 -0.5693 -0.0644
  151MPD2    N1 2359   2.770   3.479  12.202 -0.0704 -0.3683 -0.0089
  151MPD2    H7 2360   2.685   3.427  12.219 -1.5132  1.4901 -1.6361
  152TMC2    C1 2361   3.039   3.242  12.659 -0.4056  0.0591  0.8135
  152TMC2    C2 2362   3.141   3.151  12.662 -0.8463  0.9966 -0.1319
  152TMC2    C3 2363   3.268   3.195  12.638  0.0638 -0.7117 -0.0925
  152TMC2    C4 2364   3.066   3.370  12.622 -0.2753 -0.3904  0.2265
  152TMC2    C5 2365   3.196   3.414  12.597 -0.3537  0.7272 -0.0380
  152TMC2    C6 2366   3.298   3.322  12.611 -0.6462 -0.2078 -0.1895
  152TMC2     C 2367   2.904   3.221  12.707  0.4023  0.0471 -0.1155
  152TMC2     O 2368   2.812   3.292  12.662 -0.0509 -0.6330 -0.5514
  152TMC2     H 2369   3.118   3.045  12.662  3.8909 -0.0398  0.5864
  152TMC2    H1 2370   2.988   3.446  12.629  0.4041  0.2292  1.1019
  152TMC2    H2 2371   3.400   3.344  12.581 -1.3199  2.9038 -0.1788
  152TMC2    C7 2372   3.226   3.547  12.548  0.5426 -0.3421 -0.3473
  152TMC2    C8 2373   3.369   3.098  12.686 -0.1592  0.6800  0.1623
  152TMC2    O1 2374   3.135   3.625  12.515 -0.9520 -0.2890 -0.6861
  152TMC2    O2 2375   3.317   3.035  12.779  0.3216 -0.3484 -0.1272
  152TMC2    O5 2376   3.476   3.175  12.708  0.2178 -0.0554  0.7002
  152TMC2    H5 2377   3.529   3.166  12.625 -1.8650  2.0063 -0.8695
  153MPD2     C 2378   2.761   2.990  12.963  0.1658 -0.1507 -0.4334
  153MPD2    C1 2379   2.770   3.107  12.878 -0.2578 -0.4406 -0.2393
  153MPD2    C2 2380   2.676   3.213  12.897  0.2588  0.2442  0.0154
  153MPD2    C3 2381   2.575   3.192  12.988 -0.0737  0.5688  0.8324
  153MPD2    C4 2382   2.567   3.082  13.071  0.2370 -0.4216 -0.1099
  153MPD2    C5 2383   2.665   2.984  13.055  0.0429  0.0196 -0.4010
  153MPD2     H 2384   2.689   3.312  12.855 -4.2562  0.7549 -0.1711
  153MPD2    H1 2385   2.493   3.064  13.148  0.1344  0.2971 -0.0447
  153MPD2    H2 2386   2.828   2.907  12.943  2.2132  1.1138  1.0590
  153MPD2    H3 2387   2.658   2.896  13.119  0.0707 -0.0865 -0.5426
  153MPD2     N 2388   2.499   3.309  13.012 -0.2279  0.6555  0.0502
  153MPD2    H5 2389   2.532   3.393  12.966  2.0205  0.0102  0.4932
  153MPD2    N1 2390   2.880   3.113  12.789 -0.3008 -0.5300 -0.4436
  153MPD2    H7 2391   2.957   3.048  12.803 -0.1507  0.1966  2.0025
  154TMC2    C1 2392   4.325   2.716   0.290 -0.2487  0.5078 -0.1983
  154TMC2    C2 2393   4.309   2.578   0.305 -0.4405 -0.3226  0.0751
  154TMC2    C3 2394   4.358   2.500   0.207  0.3089  0.2116  0.3751
  154TMC2    C4 2395   4.404   2.768   0.189  0.5693 -0.0626 -0.2122
  154TMC2    C5 2396   4.459   2.679   0.099 -0.3444 -0.0788  0.0316
  154TMC2    C6 2397   4.428   2.546   0.099 -0.2088 -0.2051 -0.7162
  154TMC2     C 2398   4.297   2.790   0.411 -0.0416 -0.1861  0.2246
  154TMC2     O 2399   4.205   2.753   0.479 -0.1294 -0.2111  0.3489
  154TMC2     H 2400   4.254   2.543   0.391 -0.2160 -1.4247 -0.2353
  154TMC2    H1 2401   4.402   2.874   0.164  0.9300  0.4379  1.8632
  154TMC2    H2 2402   4.462   2.477   0.022  0.6583 -0.0998 -0.4328
  154TMC2    C7 2403   4.536   2.719  17.725 -0.3774 -0.7366  0.4858
  154TMC2    C8 2404   4.368   2.355   0.219  0.0025  0.0636 -0.3182
  154TMC2    O1 2405   4.543   2.635  17.639 -0.2691 -0.2086 -0.1316
  154TMC2    O2 2406   4.376   2.276   0.126 -0.9892  0.0013  0.0184
  154TMC2    O5 2407   4.434   2.338   0.339  0.5099 -0.4556  0.1385
  154TMC2    H5 2408   4.432   2.422   0.390 -1.8701 -0.0777 -0.6053
  155MPD2     C 2409   4.395   3.141   0.449 -0.3439 -0.7014 -0.6096
  155MPD2    C1 2410   4.318   3.031   0.471  0.0672 -0.5926 -0.7633
  155MPD2    C2 2411   4.226   3.039   0.572  0.0889 -0.0985  0.0403
  155MPD2    C3 2412   4.189   3.157   0.633  0.3984  0.0083 -0.0176
  155MPD2    C4 2413   4.252   3.273   0.584 -0.1051  0.3771 -1.1583
  155MPD2    C5 2414   4.349   3.264   0.491  0.0191  0.8435  0.6575
  155MPD2     H 2415   4.172   2.948   0.597  4.2528 -2.8752 -1.2299
  155MPD2    H1 2416   4.216   3.371   0.614  0.9918  0.6308 -0.6647
  155MPD2    H2 2417   4.484   3.139   0.387 -0.9197 -0.9538 -1.4198
  155MPD2    H3 2418   4.398   3.355   0.458 -0.5212  1.6325  2.0480
  155MPD2     N 2419   4.089   3.153   0.732  0.3270  0.2270  0.3078
  155MPD2    H5 2420   4.045   3.062   0.729 -0.7037  0.6656  2.1419
  155MPD2    N1 2421   4.355   2.913   0.402 -0.4780  0.2885  0.4029
  155MPD2    H7 2422   4.429   2.920   0.333 -1.1340  1.5033 -0.1945
  156TMC2    C1 2423   3.293   1.081  12.282 -0.4997 -0.2741 -0.1408
  156TMC2    C2 2424   3.356   0.994  12.365  0.1359 -0.1727 -0.3854
  156TMC2    C3 2425   3.360   0.863  12.323  0.3208 -0.8218  0.2907
  156TMC2    C4 2426   3.242   1.049  12.156 -0.4722 -0.1340  0.6901
  156TMC2    C5 2427   3.262   0.918  12.119 -0.0036  0.2273  0.0589
  156TMC2    C6 2428   3.314   0.821  12.201  0.2672  0.8097 -0.1296
  156TMC2     C 2429   3.268   1.217  12.328  0.0097 -0.1403 -0.1485
  156TMC2     O 2430   3.243   1.293  12.232  0.4002 -0.4211  0.0147
  156TMC2     H 2431   3.392   1.015  12.465 -3.2479  1.1294  0.5478
  156TMC2    H1 2432   3.186   1.124  12.103 -0.5425  0.3676  1.4725
  156TMC2    H2 2433   3.314   0.718  12.168  0.5526  0.6814  0.2671
  156TMC2    C7 2434   3.231   0.873  11.985 -0.1428  1.1668 -0.0564
  156TMC2    C8 2435   3.400   0.764  12.422 -0.0524 -0.6575 -0.4956
  156TMC2    O1 2436   3.200   0.757  11.963 -0.4267 -0.3257 -0.3642
  156TMC2    O2 2437   3.467   0.806  12.515 -0.1494 -0.0797  0.0251
  156TMC2    O5 2438   3.292   0.679  12.442  0.1713 -0.2340 -0.6087
  156TMC2    H5 2439   3.213   0.701  12.388 -0.8642 -0.6481  0.7514
  157MPD2     C 2440   3.277   1.363  12.664  0.5982 -0.0632 -0.0221
  157MPD2    C1 2441   3.248   1.357  12.529 -0.2511 -0.3981  0.3308
  157MPD2    C2 2442   3.187   1.456  12.457  0.1750 -0.0917 -0.1889
  157MPD2    C3 2443   3.151   1.568  12.533 -0.0726  0.1442  0.4759
  157MPD2    C4 2444   3.181   1.585  12.667 -0.2361  0.1421  0.8412
  157MPD2    C5 2445   3.240   1.480  12.732 -0.1747  0.2860 -0.3361
  157MPD2     H 2446   3.163   1.454  12.351 -0.3025  2.4392 -0.1275
  157MPD2    H1 2447   3.148   1.668  12.729 -1.4461 -1.8001  2.7764
  157MPD2    H2 2448   3.317   1.287  12.730 -0.6546  0.2811  1.1454
  157MPD2    H3 2449   3.237   1.475  12.840 -0.2434 -1.8469 -0.4423
  157MPD2     N 2450   3.049   1.641  12.465 -0.5362 -0.7583 -0.4859
  157MPD2    H5 2451   3.024   1.609  12.372  1.6228  0.4980 -1.4956
  157MPD2    N1 2452   3.274   1.228  12.466  0.9922 -0.4976 -0.1401
  157MPD2    H7 2453   3.303   1.147  12.520 -1.3321 -1.0753  0.2642
  158TMC2    C1 2454   3.704   4.671  13.602 -0.3665  0.2423  0.1458
  158TMC2    C2 2455   3.779   0.039  13.557 -0.2955 -0.8291 -0.0251
  158TMC2    C3 2456   3.723   0.129  13.471  0.1956  0.3840  0.8449
  158TMC2    C4 2457   3.579   4.644  13.552  0.3148 -0.0416  0.2592
  158TMC2    C5 2458   3.529   4.734  13.461  0.0540 -0.1928 -0.0637
  158TMC2    C6 2459   3.598   0.112  13.426  0.3615  0.0679  0.1749
  158TMC2     C 2460   3.744   4.626  13.729  0.3412 -0.3511  0.3632
  158TMC2     O 2461   3.820   4.696  13.793 -0.0025  0.4396  0.0517
  158TMC2     H 2462   3.877   0.054  13.602 -0.0797 -1.7642 -0.1711
  158TMC2    H1 2463   3.507   4.577  13.597  1.9547 -1.3178  0.9707
  158TMC2    H2 2464   3.548   0.187  13.366  0.7898 -1.1854 -1.7479
  158TMC2    C7 2465   3.390   0.003  13.417 -0.5425  0.0476  0.2602
  158TMC2    C8 2466   3.806   0.240  13.454  0.7422 -0.7196 -0.3025
  158TMC2    O1 2467   3.349   0.116  13.405  0.3027  0.1376 -0.0216
  158TMC2    O2 2468   3.924   0.234  13.492  0.0438 -0.2444 -0.5111
  158TMC2    O5 2469   3.725   0.353  13.433 -0.2893  0.5400  0.4115
  158TMC2    H5 2470   3.629   0.334  13.435  0.3527 -2.5457  1.2627
  159MPD2     C 2471   3.632   4.373  14.151 -0.4651 -0.1688 -0.2346
  159MPD2    C1 2472   3.560   4.304  14.053  0.4718  0.1130 -0.6775
  159MPD2    C2 2473   3.580   4.363  13.927  0.1934 -0.4812  0.0463
  159MPD2    C3 2474   3.675   4.463  13.902  0.1020  0.1246 -0.2701
  159MPD2    C4 2475   3.758   4.504  14.000 -0.1239 -0.5658  0.4055
  159MPD2    C5 2476   3.732   4.467  14.125  1.0652 -0.2378  0.4171
  159MPD2     H 2477   3.526   4.326  13.840 -0.3173  1.6295 -0.5125
  159MPD2    H1 2478   3.832   4.583  13.987 -1.2732  0.4625  0.0901
  159MPD2    H2 2479   3.631   4.344  14.256  2.5104  0.1467 -0.1389
  159MPD2    H3 2480   3.793   4.510  14.204  0.7411  2.3946 -0.7709
  159MPD2     N 2481   3.671   4.512  13.773  0.4421 -0.2123 -0.3770
  159MPD2    H5 2482   3.608   4.461  13.712  0.1171 -0.2957  0.0362
  159MPD2    N1 2483   3.470   4.201  14.086 -0.0533  0.2302  0.3425
  159MPD2    H7 2484   3.455   4.169  14.182 -1.6092 -1.3135 -0.4091
  160TMC2    C1 2485   2.645   2.764   1.422  0.3343 -0.0329 -0.4502
  160TMC2    C2 2486   2.637   2.748   1.562  1.1664 -0.2747  0.3442
  160TMC2    C3 2487   2.651   2.860   1.634  0.2877 -0.6944 -0.4287
  160TMC2    C4 2488   2.701   2.874   1.365 -0.4536  0.6171  0.6916
  160TMC2    C5 2489   2.747   2.973   1.450 -1.2089  0.1328 -0.1886
  160TMC2    C6 2490   2.709   2.971   1.580  0.0145  0.2382  0.5144
  160TMC2     C 2491   2.581   2.664   1.342  0.1077 -0.6407 -0.4418
  160TMC2     O 2492   2.561   2.552   1.387  0.3931  0.2475  0.5586
  160TMC2     H 2493   2.600   2.660   1.612  0.9178 -0.0969  0.4710
  160TMC2    H1 2494   2.717   2.884   1.258 -1.1351 -0.0863  0.5186
  160TMC2    H2 2495   2.764   3.044   1.639  1.2111 -1.8966  2.0639
  160TMC2    C7 2496   2.852   3.059   1.405 -0.0089  0.3075  0.2918
  160TMC2    C8 2497   2.652   2.864   1.776 -0.1311  0.3369 -0.0264
  160TMC2    O1 2498   2.875   3.162   1.464 -0.0536  0.2697  0.4731
  160TMC2    O2 2499   2.709   2.952   1.840  0.1170  0.3121  0.0721
  160TMC2    O5 2500   2.543   2.805   1.821 -0.3083 -0.4757  0.3171
  160TMC2    H5 2501   2.481   2.794   1.745 -0.5259  0.5097  0.3532
  161MPD2     C 2502   2.483   2.492   1.125  0.6844  0.4383  0.4953
  161MPD2    C1 2503   2.489   2.633   1.121  0.3141  0.0081  0.1942
  161MPD2    C2 2504   2.423   2.692   1.013  0.5616  0.0953 -0.6900
  161MPD2    C3 2505   2.346   2.619   0.919  0.1846 -0.0001 -0.0381
  161MPD2    C4 2506   2.329   2.487   0.935 -0.2144  0.6278  0.0436
  161MPD2    C5 2507   2.398   2.424   1.037  0.4053 -0.1537  0.3633
  161MPD2     H 2508   2.437   2.799   1.006  1.2731  0.1291  1.3722
  161MPD2    H1 2509   2.270   2.426   0.868  0.0884  0.2751  0.1008
  161MPD2    H2 2510   2.534   2.433   1.201  1.0178  0.8750  0.6086
  161MPD2    H3 2511   2.382   2.317   1.049  0.0108 -0.4652 -2.9524
  161MPD2     N 2512   2.282   2.686   0.813 -0.1301 -0.1343 -1.2714
  161MPD2    H5 2513   2.210   2.636   0.761  0.0510 -1.7200  0.0206
  161MPD2    N1 2514   2.546   2.710   1.220  0.0133  0.2587 -0.0405
  161MPD2    H7 2515   2.549   2.810   1.204  0.9023  0.2038 -0.2048
  162TMC2    C1 2516   0.701   3.970   1.160  0.0302 -0.1561 -0.5841
  162TMC2    C2 2517   0.653   4.051   1.258  0.0934  0.5140 -0.4414
  162TMC2    C3 2518   0.621   3.999   1.381  0.2324  0.1836 -0.5710
  162TMC2    C4 2519   0.687   3.838   1.167  0.2873  0.7976  0.4129
  162TMC2    C5 2520   0.640   3.790   1.289  0.4142 -0.7694 -0.2573
  162TMC2    C6 2521   0.611   3.865   1.403 -0.5456 -0.1790 -0.4925
  162TMC2     C 2522   0.759   4.019   1.034 -0.6335 -0.0484 -0.4669
  162TMC2     O 2523   0.802   3.934   0.952 -0.3016 -0.8121 -0.1213
  162TMC2     H 2524   0.659   4.159   1.248 -0.6961  0.5818 -0.1289
  162TMC2    H1 2525   0.711   3.770   1.086 -0.6479  0.2209  0.6192
  162TMC2    H2 2526   0.597   3.825   1.503 -0.4238 -1.4699 -0.9978
  162TMC2    C7 2527   0.664   3.646   1.315  0.3052 -0.6301 -0.0482
  162TMC2    C8 2528   0.580   4.104   1.477  0.1566  1.0023 -0.1450
  162TMC2    O1 2529   0.600   3.603   1.408  0.0406  0.2527 -0.3943
  162TMC2    O2 2530   0.552   4.218   1.443  0.0579  0.2802 -0.1732
  162TMC2    O5 2531   0.638   4.074   1.593 -0.4269 -0.3359  0.1081
  162TMC2    H5 2532   0.689   3.991   1.604  2.3381  1.1353 -1.4883
  163MPD2     C 2533   0.886   4.369   0.691  0.6509 -0.4182  0.4273
  163MPD2    C1 2534   0.828   4.240   0.668 -0.7183 -0.1493  0.2327
  163MPD2    C2 2535   0.787   4.173   0.783  0.1414 -0.0609 -0.1798
  163MPD2    C3 2536   0.817   4.220   0.909 -0.6530  0.0995 -0.2488
  163MPD2    C4 2537   0.866   4.341   0.924 -0.3041  0.4704 -0.1620
  163MPD2    C5 2538   0.892   4.421   0.816  0.6740 -0.8141  0.5722
  163MPD2     H 2539   0.732   4.081   0.770 -0.5735  0.1335  1.4956
  163MPD2    H1 2540   0.884   4.383   1.022 -3.0589  2.4298 -0.4925
  163MPD2    H2 2541   0.906   4.435   0.607 -1.2417 -1.4548 -0.8366
  163MPD2    H3 2542   0.930   4.522   0.828  0.1585 -0.6624  0.9407
  163MPD2     N 2543   0.778   4.152   1.025  0.3280  0.4457  0.7580
  163MPD2    H5 2544   0.789   4.193   1.117  2.3518  1.2036  0.1683
  163MPD2    N1 2545   0.826   4.197   0.529 -0.4080  0.5622  1.0500
  163MPD2    H7 2546   0.873   4.257   0.462 -1.4764  0.0307 -0.1550
  164TMC2    C1 2547   1.651   4.213  10.652 -0.0277  0.2380  0.5290
  164TMC2    C2 2548   1.773   4.265  10.666 -0.0704 -0.2183  0.2487
  164TMC2    C3 2549   1.787   4.395  10.646  0.0289 -0.1669 -0.9089
  164TMC2    C4 2550   1.541   4.291  10.635  0.0085  0.0532  0.3962
  164TMC2    C5 2551   1.557   4.424  10.615 -0.5296  0.2325  0.4651
  164TMC2    C6 2552   1.682   4.477  10.624 -0.5620  0.0309  0.3084
  164TMC2     C 2553   1.632   4.070  10.653  0.7650  0.6121 -0.3001
  164TMC2     O 2554   1.517   4.021  10.675  0.2328 -0.5061  0.2114
  164TMC2     H 2555   1.853   4.200  10.700 -1.6909 -2.3554 -0.0753
  164TMC2    H1 2556   1.443   4.250  10.610 -0.4250  0.5880  1.2018
  164TMC2    H2 2557   1.697   4.584  10.620  0.8589 -0.1993 -0.6875
  164TMC2    C7 2558   1.445   4.512  10.620  0.3741 -0.2531 -0.3048
  164TMC2    C8 2559   1.895   4.446  10.730 -0.3113 -0.1417  0.2728
  164TMC2    O1 2560   1.336   4.466  10.653  0.2756 -0.0117 -0.2715
  164TMC2    O2 2561   1.960   4.377  10.807 -0.3094  0.3737 -0.1826
  164TMC2    O5 2562   1.917   4.570  10.703  0.3334 -0.7890 -0.4059
  164TMC2    H5 2563   1.880   4.597  10.616  0.8059 -3.4144 -1.4241
  165TMC2    C1 2564   2.209   1.394   0.637 -0.3734 -0.3788  0.0616
  165TMC2    C2 2565   2.245   1.307   0.534 -0.4971 -0.6484 -1.4361
  165TMC2    C3 2566   2.377   1.277   0.526 -0.0233 -0.5133  0.4410
  165TMC2    C4 2567   2.298   1.429   0.733 -0.1949  0.2681  0.1147
  165TMC2    C5 2568   2.423   1.377   0.727 -0.6307 -0.6606  0.4494
  165TMC2    C6 2569   2.472   1.302   0.618 -0.0820 -0.0229 -1.1304
  165TMC2     C 2570   2.081   1.453   0.647 -1.1836 -0.1238  0.4476
  165TMC2     O 2571   2.056   1.507   0.754 -0.0391  0.7508 -0.5444
  165TMC2     H 2572   2.175   1.280   0.456  0.1564 -1.9237 -1.5750
  165TMC2    H1 2573   2.276   1.515   0.795  0.0599 -0.1724  0.8228
  165TMC2    H2 2574   2.577   1.280   0.607 -0.4661 -2.3753 -0.1599
  165TMC2    C7 2575   2.518   1.399   0.835  0.5082 -0.0123 -0.2301
  165TMC2    C8 2576   2.412   1.181   0.427 -0.5397  0.2804 -0.2386
  165TMC2    O1 2577   2.636   1.388   0.809 -0.6063  0.4172 -0.1898
  165TMC2    O2 2578   2.528   1.164   0.384  0.4567  0.5973 -0.1372
  165TMC2    O5 2579   2.345   1.079   0.477  0.0228  0.1133  0.2707
  165TMC2    H5 2580   2.271   1.098   0.539 -0.5842 -4.3895  0.8912
  166MPD2     C 2581   1.639   1.649   0.525  0.4737  0.1995 -0.1954
  166MPD2    C1 2582   1.690   1.603   0.645 -1.4470  0.4093  0.0790
  166MPD2    C2 2583   1.805   1.523   0.654  0.3839 -0.3057  0.0971
  166MPD2    C3 2584   1.879   1.496   0.537  0.0247 -0.5691  0.2847
  166MPD2    C4 2585   1.826   1.544   0.419 -0.0403 -0.7298  0.4388
  166MPD2    C5 2586   1.715   1.623   0.411  0.3590 -0.1152 -0.3228
  166MPD2     H 2587   1.841   1.485   0.749 -0.8457 -2.6807 -0.3865
  166MPD2    H1 2588   1.895   1.550   0.335 -1.2115 -1.4136 -0.5599
  166MPD2    H2 2589   1.548   1.706   0.524 -0.6223 -1.5513  0.1239
  166MPD2    H3 2590   1.688   1.668   0.316 -0.8938 -0.5765 -0.1862
  166MPD2     N 2591   2.007   1.447   0.533 -0.3793  0.2824  0.4285
  166MPD2    H5 2592   2.046   1.424   0.441 -0.8109 -1.1543  0.6085
  166MPD2    N1 2593   1.610   1.633   0.758  0.2391 -0.0674  0.0693
  166MPD2    H7 2594   1.522   1.682   0.744  0.1714 -0.5008 -1.0474
  167TMC2    C1 2595   0.773   3.938  12.997 -0.9598 -0.4358  0.2362
  167TMC2    C2 2596   0.761   3.948  13.136  0.2500  0.0525 -1.0542
  167TMC2    C3 2597   0.843   3.869  13.219 -0.2136 -0.4722 -0.8753
  167TMC2    C4 2598   0.857   3.837  12.948 -0.8229 -0.4313 -0.4289
  167TMC2    C5 2599   0.940   3.770  13.041 -0.3532  0.1497 -0.6540
  167TMC2    C6 2600   0.942   3.782  13.173  0.5898 -0.0472 -0.3736
  167TMC2     C 2601   0.686   4.015  12.909 -0.3077  0.4557  0.3570
  167TMC2     O 2602   0.627   4.106  12.963  0.2691  0.5196 -0.5490
  167TMC2     H 2603   0.698   4.023  13.184  0.2311  0.7776 -2.2160
  167TMC2    H1 2604   0.857   3.812  12.842 -1.7233  3.8073 -1.4548
  167TMC2    H2 2605   1.008   3.729  13.241  1.0691  0.5594 -0.3587
  167TMC2    C7 2606   1.048   3.694  12.993  1.1732 -0.4355  0.3028
  167TMC2    C8 2607   0.850   3.906  13.358  0.0165  0.0732  0.4557
  167TMC2    O1 2608   1.095   3.611  13.072 -0.0379 -0.4508 -0.0821
  167TMC2    O2 2609   0.759   3.901  13.441 -0.3337 -0.6570 -0.1934
  167TMC2    O5 2610   0.980   3.902  13.390 -0.5662  0.0261 -0.4950
  167TMC2    H5 2611   1.045   3.902  13.316  0.7083 -3.1990  0.6076
  168MPD2     C 2612   0.549   4.144  12.672  0.6706 -0.6225 -0.1458
  168MPD2    C1 2613   0.644   4.040  12.660  0.3085 -0.4441 -0.2730
  168MPD2    C2 2614   0.682   4.008  12.530 -0.3218  0.5069  0.3156
  168MPD2    C3 2615   0.642   4.085  12.423 -0.2776  0.5511  0.1848
  168MPD2    C4 2616   0.547   4.185  12.446  0.5752  0.7056  0.0126
  168MPD2    C5 2617   0.493   4.206  12.569 -0.0588 -0.6913  0.1688
  168MPD2     H 2618   0.747   3.924  12.510 -1.6062 -1.1798  3.1442
  168MPD2    H1 2619   0.514   4.250  12.365 -1.5487  1.1968  1.2718
  168MPD2    H2 2620   0.524   4.184  12.770 -1.6115 -1.6377 -0.3162
  168MPD2    H3 2621   0.423   4.288  12.584  1.3075  0.4552  0.2154
  168MPD2     N 2622   0.664   4.051  12.291  0.8963 -0.5541 -0.7652
  168MPD2    H5 2623   0.603   4.097  12.224 -0.1772  2.2825  2.1878
  168MPD2    N1 2624   0.704   3.982  12.775 -0.1669  0.0197 -0.2123
  168MPD2    H7 2625   0.789   3.926  12.766  0.4728  1.0255 -0.4617
  169MPD1     C 2626   3.658   4.503   8.674 -0.2747  0.0047 -0.0821
  169MPD1    C1 2627   3.602   4.539   8.790 -0.0319 -0.0244 -0.4746
  169MPD1    C2 2628   3.579   4.441   8.890 -0.8135 -0.0234  0.5110
  169MPD1    C3 2629   3.607   4.305   8.864 -0.3192 -0.0886  0.2089
  169MPD1    C4 2630   3.674   4.270   8.742  0.3269  0.2921  0.0255
  169MPD1    C5 2631   3.702   4.377   8.655  0.1717 -0.5786 -0.5055
  169MPD1     H 2632   3.536   4.468   8.986 -1.2847  1.7466 -0.1908
  169MPD1    H1 2633   3.703   4.171   8.708  1.2329  1.0529 -1.3930
  169MPD1    H2 2634   3.678   4.581   8.601 -0.6674  0.7206  0.5755
  169MPD1    H3 2635   3.749   4.356   8.559  2.1084 -1.7366  0.6804
  169MPD1     N 2636   3.563   4.205   8.958  0.2850  0.1152 -0.3986
  169MPD1    H5 2637   3.522   4.251   9.038 -0.4364  2.0500 -1.8924
  169MPD1    N1 2638   3.574   4.672   8.817 -0.1407  0.5602  1.0448
  169MPD1    H6 2639   3.498   4.676   8.885 -0.3944  1.4169  0.6997
  169MPD1    H7 2640   3.550   4.711   8.726 -0.9678  0.5682  1.2693
  170MPD1     C 2641   1.441   1.277  12.783 -0.5025 -0.3306  0.4551
  170MPD1    C1 2642   1.556   1.240  12.850 -0.5265 -0.0992 -1.2812
  170MPD1    C2 2643   1.580   1.296  12.971  0.4775  0.5026 -0.4695
  170MPD1    C3 2644   1.508   1.405  13.015  0.1815  0.4209 -0.1965
  170MPD1    C4 2645   1.392   1.441  12.948  0.7781  0.5442 -0.0573
  170MPD1    C5 2646   1.354   1.367  12.833  0.4707  0.3918 -0.1691
  170MPD1     H 2647   1.674   1.266  13.015 -0.0454  0.2382  0.4572
  170MPD1    H1 2648   1.325   1.516  12.989  0.6065 -0.4585  1.5032
  170MPD1    H2 2649   1.418   1.237  12.685 -0.1579 -2.2716  1.1665
  170MPD1    H3 2650   1.264   1.392  12.778  0.4733 -0.6191 -0.6462
  170MPD1     N 2651   1.548   1.465  13.135  0.1095 -0.3831 -0.3119
  170MPD1    H5 2652   1.623   1.422  13.189 -1.3009 -0.1309  1.8787
  170MPD1    N1 2653   1.655   1.168  12.778  0.7248  0.0059  0.3568
  170MPD1    H6 2654   1.623   1.124  12.693  2.4106  1.4845 -1.0442
  170MPD1    H7 2655   1.695   1.091  12.832 -0.3062  0.8240  2.2684
  171MPD1     C 2656   0.187   2.866  15.290  0.2975 -0.2055  1.0238
  171MPD1    C1 2657   0.172   2.770  15.189  0.4498 -0.5422 -0.3321
  171MPD1    C2 2658   0.186   2.635  15.228 -0.3096 -0.1578  0.4926
  171MPD1    C3 2659   0.221   2.597  15.353  0.5745  0.1811 -0.0162
  171MPD1    C4 2660   0.244   2.697  15.446  0.0922  0.6434  0.1236
  171MPD1    C5 2661   0.225   2.831  15.414  0.3281  0.4655  0.3793
  171MPD1     H 2662   0.150   2.558  15.160  1.5712  0.2728 -0.9837
  171MPD1    H1 2663   0.282   2.672  15.545  0.4368 -1.4029 -0.5286
  171MPD1    H2 2664   0.167   2.971  15.275  0.1456 -0.1881  1.3524
  171MPD1    H3 2665   0.238   2.901  15.495  1.3679  1.4197 -0.6133
  171MPD1     N 2666   0.239   2.464  15.399  0.0925  0.2963  0.2318
  171MPD1    H5 2667   0.259   2.458  15.499 -3.3943 -0.4937  0.8728
  171MPD1    N1 2668   0.115   2.809  15.064 -0.4995  0.2411 -0.0843
  171MPD1    H6 2669   0.162   2.894  15.032 -0.5693  0.9584  1.7266
  171MPD1    H7 2670   0.118   2.740  14.989  2.1233 -1.3765  1.5187
  172MPD1     C 2671   0.065   1.867   0.946 -0.1577  0.1950  0.1483
  172MPD1    C1 2672   0.079   1.762   0.850  0.1714 -0.0624  0.1002
  172MPD1    C2 2673   4.713   1.755   0.751  0.1874  0.3194 -0.0583
  172MPD1    C3 2674   4.605   1.844   0.761 -0.5803  0.5234  0.6412
  172MPD1    C4 2675   4.593   1.938   0.863  0.1924 -0.5411 -0.4734
  172MPD1    C5 2676   4.695   1.953   0.947  0.0476  0.5249 -0.6152
  172MPD1     H 2677   4.712   1.689   0.665 -0.3648  0.9193 -0.5158
  172MPD1    H1 2678   4.509   2.006   0.873  0.4595 -0.5174  1.5301
  172MPD1    H2 2679   0.141   1.887   1.021 -0.3632 -0.2308  0.4729
  172MPD1    H3 2680   4.682   2.027   1.025 -1.0281  0.0343 -0.3391
  172MPD1     N 2681   4.506   1.869   0.661 -0.1051  0.2143 -0.6650
  172MPD1    H5 2682   4.423   1.925   0.676 -0.9771 -0.9665 -1.0985
  172MPD1    N1 2683   0.204   1.701   0.828  0.6529 -0.5429 -0.0272
  172MPD1    H6 2684   0.193   1.615   0.775  1.0471  0.0750 -1.0984
  172MPD1    H7 2685   0.247   1.684   0.919  0.1071 -1.2511  0.1032
  173MPD1     C 2686   1.177   2.128  13.817  0.0681 -0.7631 -0.5435
  173MPD1    C1 2687   1.058   2.055  13.842  0.5848  0.0665  0.3225
  173MPD1    C2 2688   1.069   1.935  13.924  0.3469 -1.0260 -0.1849
  173MPD1    C3 2689   1.193   1.895  13.969  0.2746 -0.9912 -0.2711
  173MPD1    C4 2690   1.302   1.975  13.938  0.4418 -0.0083 -0.0513
  173MPD1    C5 2691   1.298   2.092  13.866  0.4941 -0.0172 -0.5861
  173MPD1     H 2692   0.975   1.894  13.957 -0.8137 -0.6386 -2.9700
  173MPD1    H1 2693   1.397   1.945  13.979 -0.2549  0.3593  1.8024
  173MPD1    H2 2694   1.166   2.226  13.773 -0.3255 -1.3520 -1.7782
  173MPD1    H3 2695   1.381   2.159  13.847 -0.1016  0.7514 -0.5118
  173MPD1     N 2696   1.194   1.777  14.053 -0.4722 -0.5607 -0.4655
  173MPD1    H5 2697   1.110   1.721  14.057 -0.3708 -0.5905  1.6046
  173MPD1    N1 2698   0.932   2.114  13.819 -0.1955  0.2301  1.0721
  173MPD1    H6 2699   0.909   2.174  13.898  4.9303  1.7747  1.4435
  173MPD1    H7 2700   0.951   2.184  13.747  0.1990 -0.7181  0.2635
  174MPD1     C 2701   1.985   1.271  14.380 -0.5136 -0.6063 -0.8735
  174MPD1    C1 2702   1.883   1.240  14.475 -0.7961  0.3098  0.3141
  174MPD1    C2 2703   1.751   1.287  14.460  0.4370 -0.2070  0.5518
  174MPD1    C3 2704   1.719   1.358  14.345 -0.1278  0.4564  0.6391
  174MPD1    C4 2705   1.813   1.378  14.246  0.3125 -0.0987  0.4979
  174MPD1    C5 2706   1.945   1.342  14.269  0.5561 -0.6920 -0.0277
  174MPD1     H 2707   1.681   1.270  14.540 -0.1962  1.6893  0.3905
  174MPD1    H1 2708   1.777   1.423  14.154  1.4612 -1.1214 -0.4656
  174MPD1    H2 2709   2.089   1.242  14.386 -0.4657 -0.5155 -1.2642
  174MPD1    H3 2710   2.019   1.363  14.193 -0.9310 -2.1910 -1.9064
  174MPD1     N 2711   1.590   1.406  14.320 -0.5380 -0.6098 -0.1000
  174MPD1    H5 2712   1.572   1.462  14.237 -0.7676 -0.2490  0.1906
  174MPD1    N1 2713   1.919   1.186  14.598  0.6061  0.1895  0.0744
  174MPD1    H6 2714   2.015   1.154  14.611  0.2714  0.2618  2.6625
  174MPD1    H7 2715   1.853   1.114  14.626  1.5847 -0.8534 -0.3350
  175MPD1     C 2716   4.420   2.291  15.505 -0.4754  0.1146  0.2573
  175MPD1    C1 2717   4.285   2.264  15.514  0.4326 -0.5683 -0.2876
  175MPD1    C2 2718   4.226   2.245  15.639  0.0672  0.1483 -0.1773
  175MPD1    C3 2719   4.301   2.277  15.754 -0.0428  0.2455  0.0243
  175MPD1    C4 2720   4.438   2.306  15.748 -0.1529 -0.7967 -0.7798
  175MPD1    C5 2721   4.490   2.318  15.619 -0.1198  0.2594 -0.2825
  175MPD1     H 2722   4.122   2.214  15.648  0.5435 -0.6391  2.8207
  175MPD1    H1 2723   4.504   2.311  15.834 -2.9719 -2.5174  1.5069
  175MPD1    H2 2724   4.470   2.289  15.409  1.4065 -0.1404  1.2567
  175MPD1    H3 2725   4.597   2.336  15.615 -0.0373  0.4327  2.6460
  175MPD1     N 2726   4.239   2.298  15.879 -1.0071 -0.1379  0.3838
  175MPD1    H5 2727   4.284   2.357  15.947 -0.2615 -0.6296  0.3173
  175MPD1    N1 2728   4.214   2.226  15.398 -0.1704  0.0648 -0.4554
  175MPD1    H6 2729   4.118   2.245  15.426  0.9009  1.9289  1.9160
  175MPD1    H7 2730   4.236   2.274  15.311  0.7418 -1.2367 -0.9484
  176MPD1     C 2731   0.559   3.975  16.134  0.9529  0.3801 -1.7283
  176MPD1    C1 2732   0.619   4.100  16.122 -0.0784  0.3882 -0.0753
  176MPD1    C2 2733   0.594   4.190  16.226  0.0005 -0.0332 -0.5979
  176MPD1    C3 2734   0.551   4.146  16.352  0.5038 -0.1140  0.4560
  176MPD1    C4 2735   0.506   4.012  16.366 -0.0030 -0.1935  1.0100
  176MPD1    C5 2736   0.500   3.934  16.255  0.7454  0.6720  0.4663
  176MPD1     H 2737   0.605   4.297  16.216 -1.2268 -0.0169 -1.7046
  176MPD1    H1 2738   0.457   3.985  16.459 -2.8640  1.7237  0.0359
  176MPD1    H2 2739   0.562   3.897  16.058 -1.4636 -0.8464 -0.5721
  176MPD1    H3 2740   0.456   3.835  16.254  0.9923  0.5583  1.9017
  176MPD1     N 2741   0.539   4.240  16.455  0.8720  0.0568 -0.1039
  176MPD1    H5 2742   0.600   4.320  16.448  2.2171 -0.9528 -0.0252
  176MPD1    N1 2743   0.677   4.144  16.004 -0.5965 -0.1705 -0.4796
  176MPD1    H6 2744   0.735   4.226  16.017  0.3690 -0.8314 -0.6184
  176MPD1    H7 2745   0.740   4.071  15.971 -1.5732 -1.2548  0.0678
  177MPD1     C 2746   4.187   4.348   9.562 -0.8593  0.3103 -0.0145
  177MPD1    C1 2747   4.119   4.440   9.482 -0.1102 -0.4291 -0.1300
  177MPD1    C2 2748   3.981   4.431   9.474 -0.3869  0.2252 -0.0507
  177MPD1    C3 2749   3.908   4.345   9.549  0.2151 -0.0270  0.3583
  177MPD1    C4 2750   3.983   4.267   9.641 -0.8177  0.5972 -0.4612
  177MPD1    C5 2751   4.122   4.263   9.641  1.1103  0.6680 -0.4384
  177MPD1     H 2752   3.931   4.497   9.403  0.1436 -0.8836 -1.4511
  177MPD1    H1 2753   3.938   4.202   9.716  2.0962 -1.0265 -0.1286
  177MPD1    H2 2754   4.295   4.345   9.569 -0.9525  0.4193  1.4723
  177MPD1    H3 2755   4.185   4.202   9.704 -1.0576  0.2809  1.3807
  177MPD1     N 2756   3.771   4.352   9.543 -0.4828  0.1390  0.2866
  177MPD1    H5 2757   3.723   4.409   9.475 -0.1961 -0.3615 -0.3372
  177MPD1    N1 2758   4.190   4.529   9.400 -0.0865 -0.3700 -0.0691
  177MPD1    H6 2759   4.117   4.569   9.340 -0.4194 -1.6731 -0.5155
  177MPD1    H7 2760   4.253   4.479   9.339  0.3863  1.1320 -0.8313
  178MPD1     C 2761   2.089   4.451  17.511  0.7187  0.2077 -0.2970
  178MPD1    C1 2762   2.071   4.557  17.595 -0.4423  0.2989 -0.0468
  178MPD1    C2 2763   2.065   4.683  17.551  0.1928 -0.2123 -0.0109
  178MPD1    C3 2764   2.063   4.702  17.413 -0.2447 -0.0411 -0.2417
  178MPD1    C4 2765   2.072   4.596  17.324  0.4957  0.1182 -0.0068
  178MPD1    C5 2766   2.089   4.472  17.378  0.3482  0.1995  0.0116
  178MPD1     H 2767   2.072   0.026  17.625 -3.1803  0.9570 -0.9052
  178MPD1    H1 2768   2.086   4.612  17.217  1.6772  1.4954  0.3391
  178MPD1    H2 2769   2.117   4.353  17.549  1.4927  0.4022 -0.3665
  178MPD1    H3 2770   2.117   4.388  17.315 -0.1800 -1.1036  1.4945
  178MPD1     N 2771   2.044   0.095  17.353  0.8879  0.7614 -0.2713
  178MPD1    H5 2772   2.035   0.084  17.253  0.8404 -0.2618 -0.1515
  178MPD1    N1 2773   2.088   4.533  17.732 -0.1044  0.1382  0.1408
  178MPD1    H6 2774   2.044   4.611   0.038  1.8828  1.7534 -0.6530
  178MPD1    H7 2775   2.065   4.436   0.011 -1.2297  0.2802 -0.4578
  179MPD1     C 2776   0.225   3.493  16.083  0.2476 -0.1379 -0.3366
  179MPD1    C1 2777   0.306   3.565  16.174  0.1681  0.1458  0.6314
  179MPD1    C2 2778   0.445   3.565  16.166  0.3490 -0.5630  0.3650
  179MPD1    C3 2779   0.508   3.480  16.079  1.2123  0.2233  0.2547
  179MPD1    C4 2780   0.429   3.399  15.994  0.0541  0.3696  0.3657
  179MPD1    C5 2781   0.290   3.405  15.999 -1.2610  0.0693  0.0778
  179MPD1     H 2782   0.503   3.631  16.230  0.3602  0.5924 -0.8201
  179MPD1    H1 2783   0.477   3.314  15.949  1.4389  1.3460 -0.0125
  179MPD1    H2 2784   0.117   3.488  16.080  0.1770 -0.0278  1.9209
  179MPD1    H3 2785   0.236   3.342  15.929 -0.9975 -0.1760  0.0974
  179MPD1     N 2786   0.651   3.473  16.060  0.4298  0.3922  0.5630
  179MPD1    H5 2787   0.679   3.410  15.985  1.6165 -1.7305  2.7991
  179MPD1    N1 2788   0.243   3.660  16.256 -0.3889  0.4076  0.1473
  179MPD1    H6 2789   0.145   3.641  16.271 -0.3479  1.3277  1.4870
  179MPD1    H7 2790   0.298   3.682  16.339  1.0455  1.6596 -1.1250
  180MPD1     C 2791   1.562   4.488  15.202  0.9380 -0.0473 -0.6268
  180MPD1    C1 2792   1.638   4.495  15.089 -0.6610  0.6625 -0.3793
  180MPD1    C2 2793   1.586   4.527  14.969 -0.5960  0.2448  0.5899
  180MPD1    C3 2794   1.446   4.519  14.946 -0.3657  0.6436 -0.7090
  180MPD1    C4 2795   1.368   4.517  15.058  0.3631  0.0204  0.0562
  180MPD1    C5 2796   1.425   4.510  15.183  0.4834 -0.6928 -0.7204
  180MPD1     H 2797   1.652   4.547  14.886  0.2525 -3.9727  0.2486
  180MPD1    H1 2798   1.261   4.530  15.062  0.7693  3.1311  1.2785
  180MPD1    H2 2799   1.604   4.446  15.293  0.6909  1.7911  0.3343
  180MPD1    H3 2800   1.371   4.535  15.273 -0.8566 -0.6067 -1.5499
  180MPD1     N 2801   1.402   4.538  14.806  0.4468  0.3975 -0.1510
  180MPD1    H5 2802   1.472   4.533  14.733  0.9797 -2.6372  0.5702
  180MPD1    N1 2803   1.778   4.502  15.112  0.6856 -0.0609  0.6519
  180MPD1    H6 2804   1.797   4.464  15.204  0.8722  1.3972  1.2190
  180MPD1    H7 2805   1.833   4.468  15.033  0.3106  1.1014 -0.1198
  181MPD1     C 2806   3.649   2.169   8.971  0.0984 -0.0314  0.1389
  181MPD1    C1 2807   3.637   2.279   9.051 -0.4613  0.1331 -0.5688
  181MPD1    C2 2808   3.655   2.267   9.187 -0.2871 -0.1418 -0.0054
  181MPD1    C3 2809   3.651   2.144   9.246  0.0477 -0.0866  0.0689
  181MPD1    C4 2810   3.650   2.030   9.169  0.3916  0.7479 -0.2104
  181MPD1    C5 2811   3.649   2.046   9.032 -0.0683 -0.1277 -0.4557
  181MPD1     H 2812   3.648   2.356   9.248  1.3045 -0.8897  1.2643
  181MPD1    H1 2813   3.646   1.931   9.214  1.1585  0.6752 -0.3190
  181MPD1    H2 2814   3.662   2.176   8.864  0.3315 -1.8830  0.0508
  181MPD1    H3 2815   3.661   1.964   8.962 -0.6051  1.0225 -1.8858
  181MPD1     N 2816   3.676   2.118   9.383 -0.6255 -0.1545 -0.5333
  181MPD1    H5 2817   3.712   2.026   9.409  0.8312  0.5701  0.0199
  181MPD1    N1 2818   3.637   2.415   9.004  0.1160 -1.1020  0.0726
  181MPD1    H6 2819   3.586   2.464   9.077  0.3585  1.1590 -1.2866
  181MPD1    H7 2820   3.578   2.412   8.921  1.3102 -0.7350 -0.7833
  182MPD1     C 2821   4.136   0.256   1.085  0.2374 -0.3277 -0.1178
  182MPD1    C1 2822   4.076   0.370   1.137 -0.0845  0.5087  0.0036
  182MPD1    C2 2823   4.027   0.469   1.049 -0.2006  0.3117  0.4479
  182MPD1    C3 2824   4.016   0.435   0.915 -0.0928 -0.3458 -0.6913
  182MPD1    C4 2825   4.064   0.314   0.869 -0.1556 -0.8414  0.5648
  182MPD1    C5 2826   4.110   0.222   0.958 -0.9142  0.3013  0.1842
  182MPD1     H 2827   3.997   0.564   1.092 -0.8554 -0.0055  0.6969
  182MPD1    H1 2828   4.046   0.284   0.767 -4.1986  0.0264  1.0230
  182MPD1    H2 2829   4.183   0.182   1.148  0.3137 -1.4984 -1.5348
  182MPD1    H3 2830   4.133   0.124   0.916 -0.9731  1.4843 -2.5541
  182MPD1     N 2831   3.947   0.512   0.817  0.0816  0.2744  0.3599
  182MPD1    H5 2832   3.942   0.470   0.724 -2.9556 -1.3282  1.2625
  182MPD1    N1 2833   4.095   0.403   1.274 -0.5683  0.0109 -0.1162
  182MPD1    H6 2834   4.102   0.314   1.323  0.8440  0.2928  0.1844
  182MPD1    H7 2835   4.026   0.457   1.325  1.5950  2.6148  0.0207
  183MPD1     C 2836   3.276   2.201   8.646 -0.0148  0.0073  0.3178
  183MPD1    C1 2837   3.337   2.082   8.683 -0.3901 -0.5417  0.7632
  183MPD1    C2 2838   3.343   2.051   8.821 -0.2311 -0.6108 -0.0740
  183MPD1    C3 2839   3.308   2.145   8.920 -0.3184 -0.4683  0.2499
  183MPD1    C4 2840   3.259   2.265   8.881 -0.0434  0.3659  0.3922
  183MPD1    C5 2841   3.234   2.285   8.743  0.2280 -0.2808  0.1930
  183MPD1     H 2842   3.387   1.958   8.855  1.8985 -0.1485 -1.5722
  183MPD1    H1 2843   3.210   2.334   8.948 -0.5668  0.3744 -0.0018
  183MPD1    H2 2844   3.261   2.226   8.542  1.4143  1.1884  0.4017
  183MPD1    H3 2845   3.187   2.380   8.719  1.7025  0.2359 -0.6842
  183MPD1     N 2846   3.309   2.100   9.057 -0.2731  0.1164 -0.3851
  183MPD1    H5 2847   3.333   2.006   9.085  0.0985 -0.0903 -1.4020
  183MPD1    N1 2848   3.362   1.977   8.588  0.7788  0.2485  0.1295
  183MPD1    H6 2849   3.425   1.912   8.634  0.5371  1.3833  2.1230
  183MPD1    H7 2850   3.396   2.004   8.496 -1.3200 -1.1997 -1.0719
  184MPD1     C 2851   1.960   0.332   9.578  0.8698 -0.5554 -0.2126
  184MPD1    C1 2852   2.010   0.455   9.553  0.0125 -0.4680 -0.3473
  184MPD1    C2 2853   2.144   0.466   9.514 -0.6225  0.2954  0.4215
  184MPD1    C3 2854   2.219   0.352   9.485  0.1972 -0.5660  0.9785
  184MPD1    C4 2855   2.148   0.237   9.471  0.1055  0.0959 -0.4544
  184MPD1    C5 2856   2.025   0.224   9.535  0.4947 -0.2736  0.5226
  184MPD1     H 2857   2.181   0.567   9.507  0.5691 -0.0072  2.2629
  184MPD1    H1 2858   2.199   0.149   9.435 -1.5962  0.4344 -3.7276
  184MPD1    H2 2859   1.858   0.322   9.615  1.1182 -2.2394  0.0154
  184MPD1    H3 2860   1.970   0.131   9.541  1.6476 -0.9405  0.7876
  184MPD1     N 2861   2.355   0.348   9.463  0.8523  0.2204  0.5471
  184MPD1    H5 2862   2.395   0.254   9.460 -0.4968 -0.3410  0.3683
  184MPD1    N1 2863   1.938   0.565   9.600 -0.0513 -0.0131 -0.8358
  184MPD1    H6 2864   1.838   0.551   9.605 -0.1922  2.4940  3.5646
  184MPD1    H7 2865   1.966   0.651   9.553 -1.5663  0.9559  0.0624
  185MPD1     C 2866   2.758   4.473   9.039 -0.3393 -0.4400 -0.0965
  185MPD1    C1 2867   2.873   4.523   9.092  0.3585  0.8305  0.1011
  185MPD1    C2 2868   2.861   4.648   9.159 -0.7358 -0.1163  0.3659
  185MPD1    C3 2869   2.733   4.706   9.156  0.4614  0.8983  0.0354
  185MPD1    C4 2870   2.622   4.658   9.096 -0.2535 -0.0650 -0.2218
  185MPD1    C5 2871   2.635   4.530   9.046  0.9266 -0.3064  0.1975
  185MPD1     H 2872   2.949   4.695   9.201 -2.2285  1.8273  1.3399
  185MPD1    H1 2873   2.521   4.696   9.111 -0.1014 -0.0877  0.8403
  185MPD1    H2 2874   2.769   4.398   8.962  0.2666  1.1041 -1.5280
  185MPD1    H3 2875   2.547   4.480   9.007  0.8828  1.4407 -1.9743
  185MPD1     N 2876   2.712   0.094   9.221 -0.4892  0.0083 -0.3344
  185MPD1    H5 2877   2.622   0.133   9.198 -0.3784 -0.1414 -1.0190
  185MPD1    N1 2878   3.000   4.470   9.060  0.4288  0.9414  0.1264
  185MPD1    H6 2879   3.003   4.369   9.052  0.8860  1.0290 -0.8370
  185MPD1    H7 2880   3.076   4.506   9.119  0.0062  0.3075  1.0537
  186MPD1     C 2881   1.318   3.681  15.348 -0.5774  0.4106  0.0133
  186MPD1    C1 2882   1.196   3.747  15.377 -0.7201  0.3904  0.3369
  186MPD1    C2 2883   1.199   3.837  15.483 -0.1637  0.8467  0.5648
  186MPD1    C3 2884   1.308   3.850  15.564  1.0232 -0.3550 -0.3427
  186MPD1    C4 2885   1.422   3.775  15.547  0.1889  0.4445  0.3862
  186MPD1    C5 2886   1.425   3.704  15.437 -0.7110 -0.5313  0.1357
  186MPD1     H 2887   1.113   3.898  15.509 -0.5277  0.3451  0.5413
  186MPD1    H1 2888   1.513   3.797  15.602 -0.8157 -0.5460  2.4470
  186MPD1    H2 2889   1.330   3.611  15.266 -1.5438 -0.3797  0.5420
  186MPD1    H3 2890   1.517   3.652  15.415 -0.5000 -0.3250  0.5401
  186MPD1     N 2891   1.320   3.942  15.669  0.2934  0.5549  0.4551
  186MPD1    H5 2892   1.403   3.939  15.728  0.6580 -0.3301 -0.1045
  186MPD1    N1 2893   1.090   3.743  15.289 -0.0173 -0.0832 -0.2542
  186MPD1    H6 2894   1.001   3.771  15.331  0.2370  0.6631 -0.1964
  186MPD1    H7 2895   1.072   3.663  15.230  0.4901 -0.3013 -0.1131
  187MPD1     C 2896   1.491   0.271  17.527  0.1452 -0.2535 -0.1636
  187MPD1    C1 2897   1.384   0.211  17.468 -0.5897 -0.0049 -0.0830
  187MPD1    C2 2898   1.300   0.283  17.386  0.2058 -0.2556  1.3423
  187MPD1    C3 2899   1.332   0.413  17.358  0.2029 -0.4553  0.0679
  187MPD1    C4 2900   1.455   0.456  17.395 -0.2791  0.2890  0.1672
  187MPD1    C5 2901   1.536   0.389  17.475  0.2747 -0.0548  1.0014
  187MPD1     H 2902   1.215   0.240  17.335 -0.6165  2.1231  0.7071
  187MPD1    H1 2903   1.491   0.549  17.350 -0.1010  0.6019  0.9633
  187MPD1    H2 2904   1.558   0.222  17.598  1.2171 -1.7593 -2.2059
  187MPD1    H3 2905   1.629   0.436  17.506  1.0226 -1.4786  0.9112
  187MPD1     N 2906   1.258   0.499  17.270  0.0398  0.4776 -0.7570
  187MPD1    H5 2907   1.305   0.587  17.248  1.6535 -0.3676 -0.6643
  187MPD1    N1 2908   1.356   0.080  17.503  0.4925 -1.0861  0.4933
  187MPD1    H6 2909   1.297   0.033  17.434 -2.0721  0.0194  1.9800
  187MPD1    H7 2910   1.439   0.022  17.519  2.1832  0.9053 -0.9650
  188MPD1     C 2911   0.518   1.402   9.761  0.4032 -0.0419  0.0017
  188MPD1    C1 2912   0.604   1.345   9.667 -0.2874 -0.5091 -0.3083
  188MPD1    C2 2913   0.662   1.228   9.705  0.9877  0.1720 -0.4077
  188MPD1    C3 2914   0.642   1.170   9.835  0.3164 -0.4378 -0.2501
  188MPD1    C4 2915   0.558   1.234   9.921  0.5447  0.3467  0.1518
  188MPD1    C5 2916   0.512   1.353   9.892  0.3990  0.3526 -0.4905
  188MPD1     H 2917   0.722   1.173   9.634  0.7794  0.2038 -0.6062
  188MPD1    H1 2918   0.554   1.201  10.024 -0.4236  2.0133  0.6537
  188MPD1    H2 2919   0.473   1.497   9.732  0.2004  0.1073  0.8128
  188MPD1    H3 2920   0.467   1.407   9.974 -0.2768 -1.3272  0.2412
  188MPD1     N 2921   0.691   1.040   9.869  0.1386  0.2573 -0.0051
  188MPD1    H5 2922   0.652   0.999   9.954  0.6944 -0.7015 -0.2181
  188MPD1    N1 2923   0.617   1.383   9.536  0.3341 -0.3526  0.5632
  188MPD1    H6 2924   0.616   1.482   9.511 -1.9223 -0.9334 -1.6989
  188MPD1    H7 2925   0.691   1.347   9.477  0.5681  0.1726  0.5311
  189MPD1     C 2926   2.600   2.114   0.684  0.1133 -0.1229  0.2379
  189MPD1    C1 2927   2.462   2.128   0.682 -0.6733 -1.0683 -0.4752
  189MPD1    C2 2928   2.395   2.112   0.560 -0.2956  0.8661  0.4240
  189MPD1    C3 2929   2.457   2.051   0.448  0.6357 -0.5667  0.1298
  189MPD1    C4 2930   2.599   2.037   0.452  0.0415  0.1726  0.3608
  189MPD1    C5 2931   2.661   2.064   0.567 -0.6747  0.0762 -0.4712
  189MPD1     H 2932   2.288   2.129   0.564 -0.1250  1.2559  2.9385
  189MPD1    H1 2933   2.644   2.016   0.356 -0.3720 -0.1055  0.2254
  189MPD1    H2 2934   2.653   2.135   0.777  0.0329  1.7625 -0.1509
  189MPD1    H3 2935   2.769   2.060   0.564 -0.6526  1.9288 -2.5144
  189MPD1     N 2936   2.369   2.023   0.342  0.1884  0.1714  0.2041
  189MPD1    H5 2937   2.275   2.058   0.354 -0.3867 -0.1566 -3.3244
  189MPD1    N1 2938   2.395   2.192   0.787  0.4021 -0.3856  0.1500
  189MPD1    H6 2939   2.296   2.168   0.789  0.5540 -1.0886 -0.9196
  189MPD1    H7 2940   2.442   2.172   0.875 -0.6128  0.0757  0.7951
  190MPD1     C 2941   1.624   0.583  14.860 -0.6642  0.4930  0.1706
  190MPD1    C1 2942   1.757   0.543  14.869  0.2070 -0.4701 -0.5259
  190MPD1    C2 2943   1.790   0.455  14.974  0.1821 -0.0879 -0.1205
  190MPD1    C3 2944   1.705   0.430  15.078 -0.4924 -0.2216  0.4356
  190MPD1    C4 2945   1.573   0.476  15.070  0.2156 -0.7061  0.0261
  190MPD1    C5 2946   1.537   0.550  14.954  0.2758 -0.5320  0.5332
  190MPD1     H 2947   1.889   0.412  14.987  0.4123 -1.0577 -4.8701
  190MPD1    H1 2948   1.497   0.448  15.142 -2.2248 -0.2576 -2.3711
  190MPD1    H2 2949   1.596   0.650  14.780 -1.6008 -0.0962  0.0176
  190MPD1    H3 2950   1.431   0.570  14.946  0.6252  1.9521  1.9592
  190MPD1     N 2951   1.759   0.361  15.190  0.8037  0.6456 -0.2814
  190MPD1    H5 2952   1.857   0.335  15.192  0.3759 -1.0790 -1.6974
  190MPD1    N1 2953   1.843   0.568  14.760 -0.2299  0.5682  0.6258
  190MPD1    H6 2954   1.941   0.572  14.788 -0.6416  0.2712  2.1304
  190MPD1    H7 2955   1.825   0.663  14.728 -1.3359  0.1449  0.0209
  191MPD1     C 2956   0.938   1.979  13.004 -0.6500  0.5816 -0.6135
  191MPD1    C1 2957   0.991   2.090  12.954  0.5905 -0.0870 -0.1078
  191MPD1    C2 2958   0.915   2.200  12.948 -0.2622  0.4051  0.0983
  191MPD1    C3 2959   0.789   2.205  13.005  0.1761  0.3527  0.3441
  191MPD1    C4 2960   0.747   2.098  13.080 -0.3847  0.0292 -0.7843
  191MPD1    C5 2961   0.824   1.986  13.080  0.1897 -0.3318 -0.0571
  191MPD1     H 2962   0.947   2.289  12.896  0.1268  0.2256  0.0277
  191MPD1    H1 2963   0.662   2.100  13.148 -0.2525 -0.5783 -0.6018
  191MPD1    H2 2964   0.997   1.888  13.002  0.7518  1.4384  1.1859
  191MPD1    H3 2965   0.791   1.899  13.135  1.0832  0.6214  1.9944
  191MPD1     N 2966   0.718   2.323  13.006  0.6808  0.0870 -0.5122
  191MPD1    H5 2967   0.751   2.401  12.949 -0.8263 -1.2192 -3.1804
  191MPD1    N1 2968   1.118   2.085  12.886 -0.3330  0.8623  0.2375
  191MPD1    H6 2969   1.164   2.175  12.895  0.0319  0.4128  3.1208
  191MPD1    H7 2970   1.182   2.017  12.926  0.1655  0.3591 -1.4189
  192MPD1     C 2971   4.588   2.994  13.181  0.0167 -0.3450 -0.3428
  192MPD1    C1 2972   4.627   2.892  13.264  0.2492 -0.2690 -0.0184
  192MPD1    C2 2973   0.005   2.814  13.230  0.9570 -0.3850  0.2692
  192MPD1    C3 2974   0.073   2.847  13.114  0.2010 -0.8915  0.7541
  192MPD1    C4 2975   0.039   2.952  13.028  0.3561  0.0142  0.6429
  192MPD1    C5 2976   4.666   3.019  13.068 -0.5048 -1.0749 -0.1276
  192MPD1     H 2977   0.039   2.730  13.288 -1.0651  0.1799  2.2433
  192MPD1    H1 2978   0.102   2.978  12.944 -0.3553 -0.1703  0.0470
  192MPD1    H2 2979   4.514   3.067  13.212 -2.6671 -2.1766 -2.3387
  192MPD1    H3 2980   4.633   3.094  12.998  1.0420 -1.2262 -1.0096
  192MPD1     N 2981   0.190   2.781  13.076  0.2254 -0.2636  0.3674
  192MPD1    H5 2982   0.222   2.800  12.982 -1.1749  0.9054  0.1217
  192MPD1    N1 2983   4.538   2.864  13.370 -0.2860  0.0178 -0.0964
  192MPD1    H6 2984   4.505   2.956  13.397  1.2517  1.0429 -1.7063
  192MPD1    H7 2985   4.598   2.837  13.448 -0.1572  1.6218  0.3513
  193MPD1     C 2986   4.539   2.140  16.079  0.5268  0.1164 -0.0261
  193MPD1    C1 2987   4.513   2.185  16.211  0.0886 -0.9372  0.2497
  193MPD1    C2 2988   4.602   2.273  16.271  0.1697  0.8871  0.6241
  193MPD1    C3 2989   4.712   2.319  16.201 -0.4710 -0.6015 -0.6294
  193MPD1    C4 2990   4.727   2.287  16.069  0.0376 -0.0121 -0.5175
  193MPD1    C5 2991   4.644   2.191  16.012  0.2529 -0.0360  0.9647
  193MPD1     H 2992   4.588   2.297  16.376 -0.4539 -0.9655  0.9710
  193MPD1    H1 2993   0.075   2.326  16.013 -2.1698  2.9032 -1.7697
  193MPD1    H2 2994   4.482   2.068  16.021  0.5613 -2.2200  2.8443
  193MPD1    H3 2995   4.670   2.143  15.919 -2.5308  1.3172 -0.4996
  193MPD1     N 2996   0.070   2.412  16.247 -0.1948 -0.3773 -0.3572
  193MPD1    H5 2997   0.143   2.445  16.186 -1.9763 -1.6136 -3.1679
  193MPD1    N1 2998   4.417   2.112  16.280 -1.7033  0.4625 -0.1009
  193MPD1    H6 2999   4.350   2.069  16.216 -0.3781 -0.8919 -0.5775
  193MPD1    H7 3000   4.370   2.163  16.355 -0.1898 -0.8462  1.7237
  194MPD1     C 3001   2.557   4.270  16.406  0.2203 -0.1556 -0.1664
  194MPD1    C1 3002   2.653   4.335  16.476  0.0954 -0.5157 -0.1912
  194MPD1    C2 3003   2.734   4.264  16.570  0.4187  0.4183 -0.5697
  194MPD1    C3 3004   2.712   4.123  16.578 -0.2243  0.1902 -0.2478
  194MPD1    C4 3005   2.617   4.057  16.498  0.8413  0.0468 -0.5735
  194MPD1    C5 3006   2.550   4.130  16.407  0.5194 -0.4186 -0.0222
  194MPD1     H 3007   2.796   4.314  16.643 -1.1088 -0.7132  1.4825
  194MPD1    H1 3008   2.602   3.950  16.488  0.1284  0.1630 -0.7537
  194MPD1    H2 3009   2.495   4.318  16.330  0.4402  0.1368 -0.1639
  194MPD1    H3 3010   2.479   4.081  16.341  0.6887  0.1564 -0.6342
  194MPD1     N 3011   2.788   4.032  16.647 -0.2246  0.1674  0.2577
  194MPD1    H5 3012   2.759   3.936  16.635  0.6853 -0.0801 -0.0029
  194MPD1    N1 3013   2.655   4.476  16.466  0.3336  1.0916  0.0137
  194MPD1    H6 3014   2.752   4.507  16.460  0.4679  0.9034  1.2587
  194MPD1    H7 3015   2.607   4.496  16.378 -0.8299 -0.4703  0.3132
  195MPD1     C 3016   0.384   1.291  17.424  0.1507  0.5862  0.7407
  195MPD1    C1 3017   0.359   1.223  17.300 -0.6913 -0.5548 -0.1803
  195MPD1    C2 3018   0.343   1.087  17.306  0.3868 -0.2211 -0.7448
  195MPD1    C3 3019   0.343   1.020  17.425  0.1610 -0.2136 -0.6947
  195MPD1    C4 3020   0.368   1.085  17.546  0.8863  0.5703 -0.3284
  195MPD1    C5 3021   0.388   1.221  17.540  1.1964 -0.1554  0.0365
  195MPD1     H 3022   0.322   1.037  17.212 -0.4755 -0.3754 -0.4697
  195MPD1    H1 3023   0.359   1.039  17.644  1.2184  2.9886  0.8519
  195MPD1    H2 3024   0.393   1.399  17.420  0.2720  0.4977 -1.7507
  195MPD1    H3 3025   0.396   1.277  17.633 -0.2769  1.6942 -0.9564
  195MPD1     N 3026   0.342   0.875  17.429 -0.3022 -0.3224 -0.2289
  195MPD1    H5 3027   0.363   0.839  17.521  0.1736  1.9251  0.5581
  195MPD1    N1 3028   0.390   1.277  17.176  0.2345  0.0068 -0.0248
  195MPD1    H6 3029   0.350   1.370  17.174  0.4000  0.0591 -0.8238
  195MPD1    H7 3030   0.341   1.234  17.098 -1.4874  0.8311  0.6264
  196MPD1     C 3031   4.654   0.804  17.425  0.3694 -1.1247 -1.0971
  196MPD1    C1 3032   4.712   0.875  17.529  1.0141  0.6433 -0.4300
  196MPD1    C2 3033   0.020   0.804  17.643 -0.0340 -0.5694  0.5096
  196MPD1    C3 3034   0.028   0.665  17.645 -0.4759  0.6066 -0.2349
  196MPD1    C4 3035   4.724   0.595  17.535 -0.6338  0.0396 -0.1092
  196MPD1    C5 3036   4.665   0.666  17.428  0.0637  0.2520  0.5728
  196MPD1     H 3037   0.052   0.862  17.729 -0.3400 -0.0651  0.2851
  196MPD1    H1 3038   4.728   0.487  17.530  0.1146 -0.0055  1.6905
  196MPD1    H2 3039   4.612   0.847  17.335 -0.4821 -1.0931 -0.6859
  196MPD1    H3 3040   4.636   0.613  17.338  0.7229  1.0278 -0.1079
  196MPD1     N 3041   0.059   0.592   0.018  0.1968 -0.0538  0.6256
  196MPD1    H5 3042   0.049   0.491   0.018 -0.9989  0.0662 -1.2021
  196MPD1    N1 3043   4.709   1.015  17.528  0.2461  0.1443  0.7251
  196MPD1    H6 3044   0.038   1.060  17.593  1.6394 -1.5552  0.5099
  196MPD1    H7 3045   4.713   1.048  17.432 -1.7698  0.3768  0.7241
  197MPD1     C 3046   4.111   2.490   0.008 -0.0575  0.3054 -0.1179
  197MPD1    C1 3047   4.120   2.416  17.634 -0.1011  0.2311 -0.1714
  197MPD1    C2 3048   4.074   2.469  17.514 -0.1197  0.8814 -0.6719
  197MPD1    C3 3049   4.046   2.605  17.504  0.2764  0.0674 -0.2880
  197MPD1    C4 3050   4.036   2.675  17.622  0.4918 -0.0306  0.4102
  197MPD1    C5 3051   4.059   2.621   0.001 -0.0504 -0.3538  0.2099
  197MPD1     H 3052   4.067   2.416  17.419  0.8047 -0.9365  0.2754
  197MPD1    H1 3053   3.989   2.773  17.623 -0.8096 -0.6475  0.5272
  197MPD1    H2 3054   4.123   2.451   0.109  1.7261  1.4472  0.1100
  197MPD1    H3 3055   4.039   2.676   0.093 -1.4266 -1.8158  0.7838
  197MPD1     N 3056   4.024   2.677  17.379 -0.1384 -0.0723  0.3676
  197MPD1    H5 3057   4.008   2.777  17.386  0.7744  0.0706  0.3530
  197MPD1    N1 3058   4.147   2.277  17.645 -0.1156  0.2086 -0.0018
  197MPD1    H6 3059   4.196   2.240  17.563 -2.9528 -1.0157 -1.1763
  197MPD1    H7 3060   4.203   2.256  17.727 -0.8098 -0.2236  0.3671
  198MPD1     C 3061   0.700   1.596  15.484  0.5221 -0.0328  0.9115
  198MPD1    C1 3062   0.751   1.470  15.479 -0.0996  0.6482 -0.3927
  198MPD1    C2 3063   0.874   1.456  15.416  0.7146  0.1767 -0.3120
  198MPD1    C3 3064   0.956   1.557  15.371  0.1688 -0.0574  0.6840
  198MPD1    C4 3065   0.898   1.678  15.369  0.3406  0.0635  0.4819
  198MPD1    C5 3066   0.779   1.700  15.430  0.3881  0.3456 -0.3346
  198MPD1     H 3067   0.910   1.356  15.394  0.5871 -0.5672  2.8940
  198MPD1    H1 3068   0.950   1.766  15.332 -0.0271  1.1822  2.6334
  198MPD1    H2 3069   0.610   1.611  15.542 -0.5413 -1.0920 -0.4510
  198MPD1    H3 3070   0.733   1.798  15.438  1.9424  1.1959 -1.7295
  198MPD1     N 3071   1.075   1.516  15.312  0.2400 -0.0610 -0.0394
  198MPD1    H5 3072   1.094   1.420  15.286  0.0660 -0.4971  1.4191
  198MPD1    N1 3073   0.666   1.362  15.506  0.2253 -0.2028  0.1982
  198MPD1    H6 3074   0.714   1.273  15.515  3.3035  1.5218  0.7087
  198MPD1    H7 3075   0.616   1.376  15.594  0.5069 -3.1521  0.8210
  199MPD1     C 3076   3.419   2.786  10.396  0.4233  0.5166  0.0261
  199MPD1    C1 3077   3.454   2.910  10.344  0.1821 -0.2918  0.4682
  199MPD1    C2 3078   3.434   2.931  10.208 -0.0993  0.2669 -0.2546
  199MPD1    C3 3079   3.366   2.828  10.131  0.1840  0.4090  0.2154
  199MPD1    C4 3080   3.329   2.713  10.189 -0.6040 -0.1823 -0.5142
  199MPD1    C5 3081   3.359   2.691  10.318  1.1177  0.6968 -0.0020
  199MPD1     H 3082   3.470   3.025  10.169  0.4059  0.3882  0.5014
  199MPD1    H1 3083   3.280   2.633  10.134 -2.5626 -1.3357  2.9054
  199MPD1    H2 3084   3.429   2.772  10.503  0.2581 -0.2040 -0.0508
  199MPD1    H3 3085   3.347   2.595  10.368 -1.3200  1.2878  0.5480
  199MPD1     N 3086   3.338   2.839   9.997 -0.4161  0.4458 -0.2897
  199MPD1    H5 3087   3.308   2.754   9.950  0.1872  0.3126 -0.4371
  199MPD1    N1 3088   3.515   3.007  10.419 -0.6403 -0.1767 -0.3672
  199MPD1    H6 3089   3.515   3.102  10.383  0.6931  0.9479  2.5329
  199MPD1    H7 3090   3.479   3.012  10.514  1.8732 -1.5542  0.6785
  200MPD1     C 3091   2.700   2.945  15.470  0.1676 -0.1756 -0.1581
  200MPD1    C1 3092   2.764   2.847  15.400  0.7612 -0.4098 -0.2972
  200MPD1    C2 3093   2.767   2.862  15.260 -0.0730 -0.3323  0.5324
  200MPD1    C3 3094   2.708   2.971  15.198  0.7981  0.1689  1.3877
  200MPD1    C4 3095   2.657   3.074  15.269 -0.0270 -0.0130  0.3172
  200MPD1    C5 3096   2.646   3.056  15.404 -0.1655 -0.3012 -0.0235
  200MPD1     H 3097   2.823   2.788  15.204  0.1474  1.9223 -2.1885
  200MPD1    H1 3098   2.618   3.158  15.213  2.6315  1.5189  0.7718
  200MPD1    H2 3099   2.698   2.949  15.578  0.8150 -0.2252 -0.1427
  200MPD1    H3 3100   2.592   3.132  15.459 -2.2649 -3.9184  2.8538
  200MPD1     N 3101   2.692   2.960  15.055 -0.4007 -0.2752 -0.6177
  200MPD1    H5 3102   2.723   2.872  15.016 -2.3468 -1.2365  0.0393
  200MPD1    N1 3103   2.846   2.757  15.466 -0.5195  0.2972 -0.3457
  200MPD1    H6 3104   2.844   2.665  15.422 -1.1214  0.5720 -0.8876
  200MPD1    H7 3105   2.830   2.748  15.566  1.0643 -0.9366 -0.1927
  201MPD1     C 3106   0.267   2.081  12.579  0.2657 -0.3422  0.4591
  201MPD1    C1 3107   0.194   1.998  12.664 -0.6527 -0.1171 -0.3763
  201MPD1    C2 3108   0.221   1.861  12.666  0.6379 -0.3352  0.6098
  201MPD1    C3 3109   0.336   1.814  12.606 -0.9233 -1.0685 -0.8365
  201MPD1    C4 3110   0.406   1.897  12.517 -0.0930  0.0742  0.1401
  201MPD1    C5 3111   0.379   2.031  12.513 -0.0364  1.0726 -0.2644
  201MPD1     H 3112   0.154   1.788  12.709 -0.5232 -0.2052 -0.9869
  201MPD1    H1 3113   0.494   1.859  12.467 -0.5890 -2.2055  1.0085
  201MPD1    H2 3114   0.237   2.184  12.564  1.8120 -0.2122 -1.6910
  201MPD1    H3 3115   0.435   2.090  12.442  0.9679 -0.6112 -0.8466
  201MPD1     N 3116   0.369   1.680  12.628  0.4279 -0.5499  0.1070
  201MPD1    H5 3117   0.310   1.629  12.692  0.7793  0.0108  0.8867
  201MPD1    N1 3118   0.066   2.054  12.717 -0.0389  0.3760  0.4405
  201MPD1    H6 3119   0.066   2.156  12.721 -0.9701  0.4529 -1.5684
  201MPD1    H7 3120   0.019   2.006  12.794  0.9804 -2.4389 -0.6982
  202MPD1     C 3121   4.622   1.640   9.727 -0.7246 -0.1684 -0.7408
  202MPD1    C1 3122   4.515   1.668   9.648  0.4830 -0.3799  0.1036
  202MPD1    C2 3123   4.401   1.593   9.683 -0.3586  1.2175 -0.1420
  202MPD1    C3 3124   4.404   1.487   9.767  0.4473  0.2881  0.6232
  202MPD1    C4 3125   4.522   1.448   9.824  0.2932 -0.2488 -0.2936
  202MPD1    C5 3126   4.628   1.531   9.806 -0.5196  0.5069  0.9910
  202MPD1     H 3127   4.312   1.611   9.623 -0.9488  0.1929  0.4240
  202MPD1    H1 3128   4.529   1.363   9.890 -1.0302 -0.0166  0.1403
  202MPD1    H2 3129   4.703   1.712   9.726 -0.9879  0.1234 -0.9382
  202MPD1    H3 3130   4.721   1.519   9.862 -0.6555 -1.0354  0.8874
  202MPD1     N 3131   4.292   1.409   9.806 -0.4384  0.0976  0.3245
  202MPD1    H5 3132   4.304   1.334   9.872  1.2648  0.0644 -0.0205
  202MPD1    N1 3133   4.495   1.804   9.604  0.3953  0.3704  0.2640
  202MPD1    H6 3134   4.574   1.848   9.558  1.6187 -0.6852  1.3312
  202MPD1    H7 3135   4.414   1.817   9.544  1.3096  1.0653 -0.8147
  203MPD1     C 3136   3.370   2.015  12.122 -0.2175 -0.3212 -0.5925
  203MPD1    C1 3137   3.328   1.899  12.064  0.3305 -0.4433 -0.6013
  203MPD1    C2 3138   3.356   1.773  12.119  0.6406  0.0360 -0.4093
  203MPD1    C3 3139   3.451   1.768  12.217  0.5927 -0.0388  0.2873
  203MPD1    C4 3140   3.500   1.885  12.278 -0.1791 -0.5485 -0.5727
  203MPD1    C5 3141   3.457   2.008  12.226 -0.2394 -0.4487 -0.7833
  203MPD1     H 3142   3.318   1.685  12.070 -2.0745  1.0726 -0.1457
  203MPD1    H1 3143   3.573   1.883  12.357 -1.2871  1.1973  0.4980
  203MPD1    H2 3144   3.347   2.111  12.077  1.6351  1.3355  2.0297
  203MPD1    H3 3145   3.481   2.110  12.256  1.2955 -0.7544 -0.9501
  203MPD1     N 3146   3.493   1.638  12.266  0.1760 -0.8247 -0.0931
  203MPD1    H5 3147   3.468   1.562  12.203 -3.1465  0.1506  0.0873
  203MPD1    N1 3148   3.229   1.908  11.966 -0.2490 -0.3839 -0.0432
  203MPD1    H6 3149   3.227   1.999  11.920  0.8855 -0.6772 -0.6705
  203MPD1    H7 3150   3.237   1.833  11.898 -0.1920 -0.1833 -0.2540
  204MPD1     C 3151   2.466   3.063  17.299  0.2816 -0.8445 -0.6227
  204MPD1    C1 3152   2.531   3.062  17.176 -0.0269 -0.4619  0.9338
  204MPD1    C2 3153   2.648   2.987  17.162 -0.2908 -1.1024  0.6079
  204MPD1    C3 3154   2.695   2.911  17.269 -0.4723 -0.1903 -0.0294
  204MPD1    C4 3155   2.628   2.914  17.389  0.1735 -0.1276  0.4401
  204MPD1    C5 3156   2.519   2.994  17.403  0.1425  0.4250  0.6601
  204MPD1     H 3157   2.694   2.980  17.064 -0.5362  0.5092  0.3923
  204MPD1    H1 3158   2.661   2.860  17.477  0.7049 -2.2516 -1.0732
  204MPD1    H2 3159   2.383   3.133  17.300  0.9675 -0.0514  0.0893
  204MPD1    H3 3160   2.484   3.005  17.505  1.3646 -1.4661  1.2787
  204MPD1     N 3161   2.804   2.822  17.240  0.2908  0.3896  0.2702
  204MPD1    H5 3162   2.847   2.830  17.149 -0.5431  1.7359 -0.0068
  204MPD1    N1 3163   2.473   3.111  17.057  0.5394  0.2254  0.7797
  204MPD1    H6 3164   2.533   3.128  16.977 -1.8502 -2.2661 -1.5553
  204MPD1    H7 3165   2.395   3.175  17.070 -0.6314 -1.3674  1.6370
  205MPD1     C 3166   3.567   1.376   0.501  0.2107  0.0009 -0.3653
  205MPD1    C1 3167   3.660   1.365   0.402 -0.5922 -0.6813  0.1546
  205MPD1    C2 3168   3.630   1.412   0.272  0.4417 -0.0332  0.0429
  205MPD1    C3 3169   3.506   1.474   0.253  0.0080  0.2706 -0.6269
  205MPD1    C4 3170   3.427   1.506   0.358  0.1119  0.2165 -0.0440
  205MPD1    C5 3171   3.470   1.474   0.486 -0.0030 -0.3441 -0.1952
  205MPD1     H 3172   3.694   1.386   0.188 -1.3581 -0.6341 -1.1426
  205MPD1    H1 3173   3.334   1.559   0.342  1.7360  2.6293 -1.5334
  205MPD1    H2 3174   3.593   1.342   0.601 -1.9661  0.7021  0.4454
  205MPD1    H3 3175   3.407   1.495   0.572  0.0677 -1.9792  0.2610
  205MPD1     N 3176   3.447   1.502   0.127  0.2579  0.0380  0.0885
  205MPD1    H5 3177   3.371   1.569   0.121  0.1263 -0.2080 -1.0206
  205MPD1    N1 3178   3.767   1.282   0.429 -0.2724  0.7205  0.2585
  205MPD1    H6 3179   3.797   1.281   0.527  1.5837  1.0302 -0.3014
  205MPD1    H7 3180   3.848   1.303   0.371  0.3603  1.8902  1.5706
  206MPD1     C 3181   2.792   0.188  16.314  0.8409  0.6297 -0.5053
  206MPD1    C1 3182   2.861   0.073  16.301 -0.2856 -0.0351  0.2012
  206MPD1    C2 3183   2.876   0.015  16.176 -0.7826 -0.4456  0.3567
  206MPD1    C3 3184   2.810   0.066  16.066  0.2187 -0.0038 -0.0403
  206MPD1    C4 3185   2.753   0.190  16.077 -0.3697  0.3736  0.1609
  206MPD1    C5 3186   2.735   0.241  16.200 -0.1576  0.2319 -0.0292
  206MPD1     H 3187   2.931   4.658  16.166 -0.9045 -0.6336  1.4526
  206MPD1    H1 3188   2.713   0.245  15.993  0.4209 -1.1248 -1.1908
  206MPD1    H2 3189   2.789   0.243  16.408 -2.0949 -0.4222 -0.0008
  206MPD1    H3 3190   2.676   0.332  16.205 -0.6481  0.0459 -2.7350
  206MPD1     N 3191   2.814   0.009  15.936 -0.8918  0.2156 -0.6152
  206MPD1    H5 3192   2.744   0.047  15.872 -1.5624  1.1644  0.6888
  206MPD1    N1 3193   2.941   0.029  16.406  0.5041 -0.2136  0.5848
  206MPD1    H6 3194   2.901   0.066  16.492  1.3280 -1.2771  1.4224
  206MPD1    H7 3195   2.954   4.664  16.412  0.2348 -0.2117  1.1214
  207MPD1     C 3196   0.907   2.135   9.849  0.7100  0.3526  0.2964
  207MPD1    C1 3197   0.880   2.242   9.758 -0.4141 -0.6943 -0.1954
  207MPD1    C2 3198   0.901   2.367   9.810 -0.2217 -0.8815 -0.1719
  207MPD1    C3 3199   0.948   2.392   9.941 -0.0292  0.5186 -0.0512
  207MPD1    C4 3200   0.977   2.281  10.023  0.0714 -0.4456  0.4262
  207MPD1    C5 3201   0.952   2.155   9.976 -0.3021 -0.6201  0.1180
  207MPD1     H 3202   0.869   2.456   9.757  0.0771 -0.3978  0.4575
  207MPD1    H1 3203   1.030   2.296  10.117 -0.4635  1.6583  0.3751
  207MPD1    H2 3204   0.893   2.031   9.821  0.7685  0.7502 -1.2210
  207MPD1    H3 3205   0.967   2.073  10.045  0.8479 -0.3229  0.2361
  207MPD1     N 3206   0.968   2.519  10.006  0.3735  0.1117 -0.0067
  207MPD1    H5 3207   1.019   2.526  10.093 -0.1433  0.8245  0.2315
  207MPD1    N1 3208   0.819   2.217   9.637 -0.5779  0.5815  0.4795
  207MPD1    H6 3209   0.848   2.126   9.601  2.2225  1.4644  0.5506
  207MPD1    H7 3210   0.859   2.289   9.577  2.5034 -1.0568  0.5682
  208MPD1     C 3211   3.297   4.735  16.799 -0.3130  0.5072 -0.5067
  208MPD1    C1 3212   3.407   0.068  16.748  0.6581  0.2755 -0.4740
  208MPD1    C2 3213   3.487   0.132  16.841 -0.3627  0.5555 -0.4848
  208MPD1    C3 3214   3.445   0.166  16.965  0.6466 -0.4790 -0.2238
  208MPD1    C4 3215   3.321   0.110  17.005  0.3743 -0.1130 -0.4107
  208MPD1    C5 3216   3.260   0.019  16.924  0.3631 -0.3828 -0.5889
  208MPD1     H 3217   3.583   0.173  16.813  0.8125 -0.7096  1.6502
  208MPD1    H1 3218   3.283   0.121  17.106  3.2066 -0.7539  0.7167
  208MPD1    H2 3219   3.242   4.668  16.734  1.7966 -0.6954 -1.0466
  208MPD1    H3 3220   3.174   4.704  16.965  2.5177 -2.0082  1.9462
  208MPD1     N 3221   3.535   0.242  17.044 -0.1868 -0.4284 -0.2812
  208MPD1    H5 3222   3.624   0.272  17.008 -0.7443  2.1750  0.5379
  208MPD1    N1 3223   3.459   0.035  16.625 -0.3602 -0.8495  0.1104
  208MPD1    H6 3224   3.383   0.028  16.557  0.1639 -1.6886 -0.3816
  208MPD1    H7 3225   3.522   0.110  16.598 -1.0986 -0.2418  0.0649
  209MPD1     C 3226   1.204   1.455  10.471 -0.2581 -0.6096 -0.6706
  209MPD1    C1 3227   1.181   1.574  10.405  0.8392 -0.0404  0.7202
  209MPD1    C2 3228   1.244   1.686  10.461  0.4212  0.6582 -0.0809
  209MPD1    C3 3229   1.302   1.684  10.586 -0.5715  0.1162  1.1094
  209MPD1    C4 3230   1.322   1.557  10.649  0.5002  0.0649 -0.0460
  209MPD1    C5 3231   1.282   1.443  10.586  0.0313 -0.3650  0.3575
  209MPD1     H 3232   1.232   1.783  10.416  2.3761  1.5906  1.4344
  209MPD1    H1 3233   1.369   1.538  10.745  0.0375  1.3421  0.4322
  209MPD1    H2 3234   1.174   1.364  10.420 -0.9603 -0.7622  0.0108
  209MPD1    H3 3235   1.294   1.349  10.638 -0.4601 -1.4712 -1.5103
  209MPD1     N 3236   1.336   1.805  10.645  0.1076  0.8470  0.2588
  209MPD1    H5 3237   1.307   1.891  10.599  1.0482  0.1678 -1.6157
  209MPD1    N1 3238   1.126   1.573  10.272 -0.0330 -0.1255 -0.6801
  209MPD1    H6 3239   1.096   1.668  10.252 -0.8596 -0.1807  0.2783
  209MPD1    H7 3240   1.046   1.511  10.267  1.6163 -2.1712 -1.6602
  210MPD1     C 3241   1.425   2.319  11.624  0.9319 -0.2570  0.0902
  210MPD1    C1 3242   1.495   2.212  11.579 -0.1048 -0.1542 -0.1703
  210MPD1    C2 3243   1.486   2.171  11.450 -0.1323 -0.1321  0.5735
  210MPD1    C3 3244   1.410   2.245  11.360  0.1005 -0.5011  0.3932
  210MPD1    C4 3245   1.343   2.354  11.415 -0.1133  0.1791  0.4340
  210MPD1    C5 3246   1.355   2.399  11.544  0.3353 -0.4330  0.2372
  210MPD1     H 3247   1.538   2.080  11.422 -0.3989 -0.2201  0.3654
  210MPD1    H1 3248   1.265   2.399  11.354  0.1646  1.0624  0.7264
  210MPD1    H2 3249   1.424   2.347  11.729 -0.3003 -1.9340  0.5335
  210MPD1    H3 3250   1.301   2.479  11.593  1.2510  1.4967 -1.8933
  210MPD1     N 3251   1.397   2.213  11.218 -0.6771 -0.1221  0.2032
  210MPD1    H5 3252   1.329   2.274  11.174 -0.0460  0.8908  0.6498
  210MPD1    N1 3253   1.561   2.122  11.663 -0.1919  0.3197 -0.1574
  210MPD1    H6 3254   1.593   2.172  11.745  1.1601 -0.9592  0.0962
  210MPD1    H7 3255   1.629   2.058  11.623  1.0349  1.6537 -0.1912
  211MPD1     C 3256   3.239   1.980  16.238 -0.3763 -0.8630 -0.4238
  211MPD1    C1 3257   3.131   2.055  16.287  0.1065 -0.0642 -0.0164
  211MPD1    C2 3258   3.065   2.137  16.195  0.2622  0.4545  0.1709
  211MPD1    C3 3259   3.121   2.166  16.072  0.1898 -0.4308  0.2634
  211MPD1    C4 3260   3.232   2.100  16.030 -0.6391  0.4269  0.8304
  211MPD1    C5 3261   3.282   1.996  16.110  0.1382  0.0827 -0.6155
  211MPD1     H 3262   2.973   2.183  16.231 -0.0558  0.6667 -0.9188
  211MPD1    H1 3263   3.273   2.117  15.931  0.3383  1.8947  1.4831
  211MPD1    H2 3264   3.289   1.914  16.307 -2.4319 -1.3196  0.6458
  211MPD1    H3 3265   3.359   1.932  16.068  0.4860  0.4130 -0.4832
  211MPD1     N 3266   3.049   2.249  15.984 -0.6985 -0.4302 -0.3707
  211MPD1    H5 3267   2.979   2.302  16.035  1.4072  1.0144  0.9880
  211MPD1    N1 3268   3.082   2.010  16.414 -0.0031  0.1453  0.3565
  211MPD1    H6 3269   3.159   1.992  16.478  0.6046 -1.3926 -0.8083
  211MPD1    H7 3270   3.022   2.077  16.462 -0.3618 -0.8415  1.3101
  212MPD1     C 3271   2.491   3.476  16.832 -0.6843 -0.1509 -0.3286
  212MPD1    C1 3272   2.435   3.586  16.883 -0.6554 -0.8467  0.1089
  212MPD1    C2 3273   2.297   3.596  16.879 -0.0326 -0.2471 -0.0518
  212MPD1    C3 3274   2.209   3.487  16.850  0.2228  0.4143  0.7376
  212MPD1    C4 3275   2.268   3.375  16.799  0.4243 -0.1566 -0.1531
  212MPD1    C5 3276   2.406   3.372  16.785  0.0283  0.5566  0.5324
  212MPD1     H 3277   2.247   3.690  16.900  0.1753 -0.1246 -0.1137
  212MPD1    H1 3278   2.212   3.295  16.752  0.8982 -0.1236 -0.7793
  212MPD1    H2 3279   2.598   3.479  16.815 -0.7746 -4.5330 -1.5584
  212MPD1    H3 3280   2.455   3.287  16.738 -1.3905  0.5050 -0.8583
  212MPD1     N 3281   2.071   3.505  16.866  0.1364  0.5047 -0.0337
  212MPD1    H5 3282   2.016   3.425  16.837  0.8710 -0.4938  1.3717
  212MPD1    N1 3283   2.514   3.702  16.907  0.3008  0.0474  0.6752
  212MPD1    H6 3284   2.471   3.779  16.958 -0.2452  1.6538 -2.2028
  212MPD1    H7 3285   2.603   3.683  16.951  1.2780 -0.6157 -1.5539
  213MPD1     C 3286   0.414   4.730  15.595 -0.1814 -0.3962  0.9849
  213MPD1    C1 3287   0.335   4.686  15.494 -0.1194  0.1299  0.0972
  213MPD1    C2 3288   0.317   0.044  15.400 -0.0912 -0.2778 -0.4912
  213MPD1    C3 3289   0.334   0.173  15.422 -0.0410  0.5277 -0.2966
  213MPD1    C4 3290   0.368   0.216  15.547  0.5145  0.3622 -0.6463
  213MPD1    C5 3291   0.404   0.122  15.634 -0.3792 -0.1008  0.5418
  213MPD1     H 3292   0.290   0.004  15.303  0.3511 -2.5134  0.3057
  213MPD1    H1 3293   0.360   0.320  15.577 -0.6699 -0.1693  0.8325
  213MPD1    H2 3294   0.445   4.656  15.668  0.0866  0.1026  1.3762
  213MPD1    H3 3295   0.431   0.142  15.737 -1.9299 -0.1426  0.9539
  213MPD1     N 3296   0.311   0.266  15.317  0.5811 -0.3251  0.2243
  213MPD1    H5 3297   0.274   0.227  15.231  2.3728 -0.5718 -0.4454
  213MPD1    N1 3298   0.348   4.546  15.453  0.0469  0.6977 -0.2303
  213MPD1    H6 3299   0.263   4.520  15.404  0.5602 -0.1567 -0.6502
  213MPD1    H7 3300   0.351   4.478  15.529 -0.3264  0.3854 -0.4947
  214MPD1     C 3301   4.688   0.056  14.607  0.2653 -0.2326 -0.0520
  214MPD1    C1 3302   0.084   0.076  14.569 -0.1988  0.1341  0.8500
  214MPD1    C2 3303   0.161   0.159  14.649 -0.9733  0.7714 -0.4148
  214MPD1    C3 3304   0.104   0.217  14.763  0.2249 -0.1489  0.0042
  214MPD1    C4 3305   4.704   0.206  14.788  0.0140 -0.0057  0.0523
  214MPD1    C5 3306   4.634   0.130  14.705 -0.1657 -0.1313 -0.0226
  214MPD1     H 3307   0.268   0.166  14.633 -0.4289 -2.4495  1.8173
  214MPD1    H1 3308   4.651   0.253  14.871  0.9600 -0.0858  0.7106
  214MPD1    H2 3309   4.633   4.713  14.557 -0.9969  0.6519 -0.0613
  214MPD1    H3 3310   4.528   0.116  14.725 -0.1638 -0.2258 -0.0795
  214MPD1     N 3311   0.181   0.290  14.856  0.1456 -0.5571  0.1224
  214MPD1    H5 3312   0.135   0.311  14.944  2.6058  3.1559  0.4936
  214MPD1    N1 3313   0.142   0.003  14.467 -0.6743  0.4351 -0.2055
  214MPD1    H6 3314   0.229   4.695  14.499 -2.5812 -0.9300  3.1627
  214MPD1    H7 3315   0.088   4.653  14.461  0.2568 -0.4827  4.0258
  215MPD1     C 3316   0.693   1.686   9.792  0.1252 -0.2254  0.3793
  215MPD1    C1 3317   0.643   1.816   9.799 -0.0406  0.7977  0.8186
  215MPD1    C2 3318   0.684   1.896   9.909 -0.0875 -0.0288  0.1205
  215MPD1    C3 3319   0.767   1.841  10.007  0.0257  0.1721 -0.0471
  215MPD1    C4 3320   0.816   1.713   9.988 -1.0110 -0.1311 -0.7619
  215MPD1    C5 3321   0.786   1.641   9.880 -0.0841  0.3555 -0.6841
  215MPD1     H 3322   0.644   1.996   9.921 -0.1384 -0.0366  0.0157
  215MPD1    H1 3323   0.888   1.667  10.055  0.4661  1.5922 -1.1859
  215MPD1    H2 3324   0.667   1.620   9.711  1.0591 -0.8535  0.5853
  215MPD1    H3 3325   0.829   1.542   9.865 -2.1891 -0.4533 -1.4075
  215MPD1     N 3326   0.793   1.918  10.123 -0.0623 -0.1376  0.0962
  215MPD1    H5 3327   0.745   2.007  10.135 -0.4773 -0.5767  1.7279
  215MPD1    N1 3328   0.547   1.854   9.708 -0.3742 -0.3542  0.5190
  215MPD1    H6 3329   0.534   1.953   9.685 -0.0490 -0.2777  0.6739
  215MPD1    H7 3330   0.535   1.796   9.626  0.3010 -1.7472  1.4072
  216MPD1     C 3331   1.953   2.719   0.198 -0.4141  0.3425  0.4317
  216MPD1    C1 3332   1.893   2.838   0.174  0.2309 -0.1762  0.0229
  216MPD1    C2 3333   1.978   2.949   0.158  0.3082 -0.3172 -0.1075
  216MPD1    C3 3334   2.112   2.941   0.189 -0.5546  0.2131  0.4866
  216MPD1    C4 3335   2.168   2.821   0.224 -0.2189 -1.3220  0.3803
  216MPD1    C5 3336   2.086   2.713   0.230  0.9098  0.1807 -0.2371
  216MPD1     H 3337   1.941   3.046   0.128 -0.5554  0.1397  2.4264
  216MPD1    H1 3338   2.271   2.804   0.254  0.8871  2.2789 -1.3734
  216MPD1    H2 3339   1.892   2.630   0.187  0.9085 -0.4652 -0.3979
  216MPD1    H3 3340   2.124   2.620   0.271 -0.2911  0.0027  0.4682
  216MPD1     N 3341   2.181   3.060   0.190  0.1745  0.1047  0.5766
  216MPD1    H5 3342   2.137   3.140   0.146 -1.3196 -0.3316  1.2974
  216MPD1    N1 3343   1.763   2.837   0.111  0.2018 -0.0213  1.2886
  216MPD1    H6 3344   1.708   2.759   0.146  0.2590 -1.6671 -2.3465
  216MPD1    H7 3345   1.715   2.926   0.118 -0.6543 -0.2646 -1.8369
  217MPD1     C 3346   3.371   4.300   8.469  0.0460  0.0398  0.6355
  217MPD1    C1 3347   3.244   4.257   8.482  0.1671  0.2586 -0.6067
  217MPD1    C2 3348   3.142   4.333   8.544 -0.1944  0.4498 -0.1990
  217MPD1    C3 3349   3.188   4.456   8.597 -0.1860  0.0294  0.6801
  217MPD1    C4 3350   3.319   4.500   8.586 -0.4959  0.5101 -0.4391
  217MPD1    C5 3351   3.406   4.423   8.524  0.0104 -0.3690  0.1511
  217MPD1     H 3352   3.037   4.306   8.535  0.4022 -1.7434 -0.4888
  217MPD1    H1 3353   3.358   4.585   8.641 -1.7056 -0.2054  1.5036
  217MPD1    H2 3354   3.452   4.247   8.420  1.2224  1.1753  1.3754
  217MPD1    H3 3355   3.508   4.452   8.502 -0.2492  1.8062  1.7840
  217MPD1     N 3356   3.104   4.538   8.673 -0.1340  0.3537 -0.2200
  217MPD1    H5 3357   3.140   4.626   8.706  1.7738 -1.3833  2.3136
  217MPD1    N1 3358   3.213   4.134   8.422  0.0644  0.2578  0.7870
  217MPD1    H6 3359   3.260   4.120   8.333  3.1248 -0.6527  2.5446
  217MPD1    H7 3360   3.115   4.107   8.430  0.2196  0.1098  2.1679
  218MPD1     C 3361   4.735   2.070  13.416 -0.4930 -0.4785 -0.3763
  218MPD1    C1 3362   0.074   2.177  13.386  0.1743  0.2057 -0.4996
  218MPD1    C2 3363   0.165   2.173  13.285  0.5739  0.8061 -0.3258
  218MPD1    C3 3364   0.189   2.050  13.218  0.4364 -0.3975  0.3121
  218MPD1    C4 3365   0.120   1.936  13.259  0.1278  0.5636 -0.2591
  218MPD1    C5 3366   0.018   1.954  13.353  0.4644 -0.4318 -0.9187
  218MPD1     H 3367   0.230   2.256  13.258 -0.5079  1.2704 -1.5481
  218MPD1    H1 3368   0.134   1.837  13.218  3.2765  0.9832 -0.2171
  218MPD1    H2 3369   4.657   2.067  13.491  1.2707  0.7173  1.5017
  218MPD1    H3 3370   4.695   1.866  13.378 -0.5541  0.8737  1.2983
  218MPD1     N 3371   0.289   2.042  13.122  0.1077  0.1531  0.0244
  218MPD1    H5 3372   0.346   2.124  13.104 -0.1565 -0.1349 -2.1055
  218MPD1    N1 3373   0.032   2.302  13.445 -0.0254 -0.4500  0.0729
  218MPD1    H6 3374   0.097   2.380  13.454  0.2619 -0.5118 -1.4772
  218MPD1    H7 3375   4.716   2.297  13.533 -1.2319  1.2447 -0.5339
  219MPD1     C 3376   0.759   2.515  12.377 -0.5682  0.3017 -0.4519
  219MPD1    C1 3377   0.628   2.502  12.416  0.1374  0.1435  0.1936
  219MPD1    C2 3378   0.598   2.402  12.509  0.0464 -0.3676 -0.3416
  219MPD1    C3 3379   0.696   2.320  12.558  0.4941  0.4741 -0.0509
  219MPD1    C4 3380   0.825   2.333  12.515 -0.3471 -0.6864  0.2040
  219MPD1    C5 3381   0.854   2.430  12.427  0.1782  0.1616 -0.4083
  219MPD1     H 3382   0.492   2.396  12.533  0.4763 -2.3960  1.0684
  219MPD1    H1 3383   0.902   2.262  12.540  0.5302 -0.2254 -1.2001
  219MPD1    H2 3384   0.787   2.588  12.303  1.4597 -0.0641 -0.0413
  219MPD1    H3 3385   0.957   2.444  12.398  0.2860  1.5368  0.6653
  219MPD1     N 3386   0.673   2.224  12.657 -0.6595  0.7597  0.3101
  219MPD1    H5 3387   0.756   2.174  12.687 -0.3946  1.3537  0.5655
  219MPD1    N1 3388   0.529   2.574  12.346 -0.1185 -0.0313 -0.0614
  219MPD1    H6 3389   0.445   2.549  12.397 -1.1915  0.0725 -1.7825
  219MPD1    H7 3390   0.551   2.672  12.331 -2.4442  0.4383 -0.3716
  220MPD1     C 3391   4.531   3.221   9.381  0.5919 -0.3246 -0.8019
  220MPD1    C1 3392   4.477   3.101   9.425 -0.1086 -0.3063  0.4725
  220MPD1    C2 3393   4.559   3.003   9.483 -0.0826 -0.8288  0.9406
  220MPD1    C3 3394   4.698   3.032   9.500 -0.5837 -0.6502 -0.1407
  220MPD1    C4 3395   0.015   3.159   9.466 -0.0196 -0.3927 -0.5687
  220MPD1    C5 3396   4.662   3.243   9.400 -0.0026 -0.0826  0.1233
  220MPD1     H 3397   4.517   2.909   9.516 -0.9540 -1.0796 -0.9272
  220MPD1    H1 3398   0.116   3.195   9.479 -0.6946  0.8535  1.3853
  220MPD1    H2 3399   4.463   3.296   9.341  0.3731 -1.0098 -1.7106
  220MPD1    H3 3400   4.712   3.338   9.387  0.6125 -0.5221 -0.6761
  220MPD1     N 3401   0.040   2.932   9.566 -0.2928 -0.1364 -0.1643
  220MPD1    H5 3402   4.722   2.854   9.604 -1.4533  2.2509  3.1492
  220MPD1    N1 3403   4.333   3.088   9.427  0.2584 -0.2854  0.2023
  220MPD1    H6 3404   4.317   2.987   9.424  1.5609 -0.4290 -1.6375
  220MPD1    H7 3405   4.299   3.135   9.344  0.8329 -0.7409 -0.2952
  221MPD1     C 3406   3.218   0.835  17.051 -0.4229 -0.3178 -0.3462
  221MPD1    C1 3407   3.173   0.910  16.940  0.9193  0.0736 -0.2895
  221MPD1    C2 3408   3.202   0.867  16.814 -0.3232  0.4674  0.3824
  221MPD1    C3 3409   3.277   0.754  16.802  0.0104 -0.2254 -0.3911
  221MPD1    C4 3410   3.345   0.700  16.905  0.2640 -0.1264  0.2308
  221MPD1    C5 3411   3.317   0.746  17.033 -0.3549 -0.3525 -0.1978
  221MPD1     H 3412   3.149   0.904  16.727  1.0192  0.4103 -0.4620
  221MPD1    H1 3413   3.418   0.620  16.900 -2.1982 -2.4178  0.5994
  221MPD1    H2 3414   3.188   0.839  17.155 -1.0759  0.6155 -0.5745
  221MPD1    H3 3415   3.357   0.693  17.118  0.8533  0.6050 -0.1711
  221MPD1     N 3416   3.309   0.697  16.682  0.1334 -0.0622 -0.1691
  221MPD1    H5 3417   3.395   0.644  16.682  0.6314  0.7304 -2.2649
  221MPD1    N1 3418   3.074   0.998  16.955 -0.7055 -0.5736 -0.3811
  221MPD1    H6 3419   3.080   1.071  16.885 -2.0171  0.3913  0.5048
  221MPD1    H7 3420   3.071   1.038  17.049  2.4675 -1.2763  0.0022
  222MPD1     C 3421   1.886   4.009  17.161 -0.1679  0.4366  0.3705
  222MPD1    C1 3422   1.808   4.123  17.146 -0.5737 -0.7516  0.0029
  222MPD1    C2 3423   1.789   4.177  17.269 -0.9362 -0.4688 -0.0165
  222MPD1    C3 3424   1.826   4.124  17.397  0.0528  0.6097  0.5809
  222MPD1    C4 3425   1.891   4.000  17.397  0.5760  0.1690 -0.3623
  222MPD1    C5 3426   1.918   3.946  17.277 -0.6890  0.1166 -0.7761
  222MPD1     H 3427   1.743   4.274  17.259  0.8165  0.4028  0.3444
  222MPD1    H1 3428   1.931   3.948  17.483  2.5630 -1.1052 -2.0397
  222MPD1    H2 3429   1.919   3.958  17.071 -0.2032  1.6634 -0.3327
  222MPD1    H3 3430   1.980   3.857  17.276 -0.2839  0.4054 -2.2746
  222MPD1     N 3431   1.793   4.183  17.521  0.0781  0.3655 -0.8767
  222MPD1    H5 3432   1.828   4.136  17.604 -0.5313  1.2940 -0.1012
  222MPD1    N1 3433   1.755   4.164  17.023 -0.5175  0.3756 -0.3460
  222MPD1    H6 3434   1.781   4.101  16.947  1.7876  1.4552 -0.4477
  222MPD1    H7 3435   1.654   4.165  17.034 -0.3297  1.2342  1.3533
  223MPD1     C 3436   1.416   3.639   0.269 -0.7095  0.3420  0.3293
  223MPD1    C1 3437   1.521   3.648   0.177 -0.4967  1.3243  0.8180
  223MPD1    C2 3438   1.579   3.773   0.153  0.2669  0.5351  0.0604
  223MPD1    C3 3439   1.537   3.890   0.205  0.3038 -0.2849 -0.2799
  223MPD1    C4 3440   1.434   3.880   0.296  0.1185 -0.2159 -0.2999
  223MPD1    C5 3441   1.379   3.756   0.323 -0.7163 -0.5442  0.4982
  223MPD1     H 3442   1.664   3.782   0.087 -0.1628  0.8761 -0.4516
  223MPD1    H1 3443   1.386   3.963   0.347  2.4637  0.5749  0.5929
  223MPD1    H2 3444   1.368   3.550   0.309 -1.1973  0.0122 -0.9984
  223MPD1    H3 3445   1.290   3.756   0.386 -1.5897 -0.5826 -0.7357
  223MPD1     N 3446   1.604   4.006   0.168 -0.6491 -0.1709 -1.2089
  223MPD1    H5 3447   1.659   3.995   0.083 -1.1158 -2.9846 -1.1568
  223MPD1    N1 3448   1.577   3.536   0.119  0.1402  0.9043  0.2471
  223MPD1    H6 3449   1.619   3.533   0.026  1.9583  1.0681  1.0536
  223MPD1    H7 3450   1.509   3.461   0.117  2.0891 -0.8595 -0.1619
  224MPD1     C 3451   2.690   1.652   9.115 -0.0889 -0.2010  0.4481
  224MPD1    C1 3452   2.672   1.520   9.149 -0.1754 -0.0699  0.6399
  224MPD1    C2 3453   2.735   1.472   9.265 -0.1270 -0.0153 -0.1117
  224MPD1    C3 3454   2.835   1.550   9.326  0.5888  0.6349  0.4340
  224MPD1    C4 3455   2.861   1.674   9.279  0.3618 -0.0763 -0.1047
  224MPD1    C5 3456   2.777   1.734   9.183 -0.2882  0.5359 -0.0090
  224MPD1     H 3457   2.724   1.369   9.298 -0.1694  0.7700  2.3098
  224MPD1    H1 3458   2.941   1.733   9.322  1.6355 -2.0078  0.1783
  224MPD1    H2 3459   2.643   1.696   9.028  1.0218  3.4089  1.6460
  224MPD1    H3 3460   2.792   1.831   9.136  1.6808 -0.6282 -1.7686
  224MPD1     N 3461   2.922   1.507   9.432  0.2967  0.4245 -0.1807
  224MPD1    H5 3462   2.987   1.576   9.468  0.3100 -0.4121  1.3737
  224MPD1    N1 3463   2.565   1.456   9.090 -0.6405 -0.4221 -0.0948
  224MPD1    H6 3464   2.571   1.356   9.106  1.2706 -0.5337 -1.5491
  224MPD1    H7 3465   2.556   1.476   8.990 -2.2103 -1.7312 -0.2173
  225MPD1     C 3466   0.763   2.764  11.807  0.7574 -0.3970 -0.2271
  225MPD1    C1 3467   0.707   2.661  11.737  0.4857  0.6050 -0.0264
  225MPD1    C2 3468   0.623   2.574  11.808 -0.4537 -0.2539 -0.1408
  225MPD1    C3 3469   0.599   2.597  11.943 -0.1478 -0.7578  0.1352
  225MPD1    C4 3470   0.651   2.706  12.010 -0.1500  0.2885  0.0558
  225MPD1    C5 3471   0.738   2.779  11.944 -0.1526  0.6319 -0.1360
  225MPD1     H 3472   0.588   2.488  11.753  0.6529 -1.2507  0.7227
  225MPD1    H1 3473   0.622   2.740  12.109  0.9544 -4.0642  1.8929
  225MPD1    H2 3474   0.834   2.833  11.761  0.5257 -0.7502 -1.1262
  225MPD1    H3 3475   0.799   2.852  11.995  1.2879 -0.2069 -0.6789
  225MPD1     N 3476   0.515   2.514  12.024  0.0170  0.3773  0.2026
  225MPD1    H5 3477   0.520   2.529  12.124 -0.4341  1.2360  0.0884
  225MPD1    N1 3478   0.743   2.638  11.603  0.2234  0.0971  0.2333
  225MPD1    H6 3479   0.665   2.599  11.551 -0.3191 -1.3410  2.1211
  225MPD1    H7 3480   0.757   2.729  11.559  0.9498  0.3842  1.0491
  226MPD1     C 3481   3.603   2.607  10.908  0.2851  0.1214 -0.3222
  226MPD1    C1 3482   3.533   2.528  10.817  0.3019  0.2987 -0.5181
  226MPD1    C2 3483   3.557   2.544  10.682 -0.3073 -0.2057  0.4180
  226MPD1    C3 3484   3.664   2.614  10.636  0.3656  0.0268 -0.1727
  226MPD1    C4 3485   3.742   2.684  10.726  0.7699 -0.1050  0.2125
  226MPD1    C5 3486   3.708   2.686  10.861  0.3800  0.0532 -0.4010
  226MPD1     H 3487   3.500   2.478  10.617 -0.0891  1.2833 -1.2549
  226MPD1    H1 3488   3.825   2.749  10.701  0.7082  0.2517  0.9415
  226MPD1    H2 3489   3.573   2.617  11.011 -0.8944 -2.2452 -0.4489
  226MPD1    H3 3490   3.775   2.737  10.930 -2.1396 -1.8676  3.4724
  226MPD1     N 3491   3.679   2.605  10.491 -0.7002 -0.3725 -0.6856
  226MPD1    H5 3492   3.613   2.550  10.437  0.9727 -0.9804 -2.0986
  226MPD1    N1 3493   3.425   2.454  10.861  0.5112 -0.2532 -0.7725
  226MPD1    H6 3494   3.426   2.416  10.955  1.6632  1.1392 -0.2261
  226MPD1    H7 3495   3.384   2.387  10.796  1.4025  0.7960 -2.4287
  227MPD1     C 3496   4.310   2.712   9.673  0.2791  0.1818  0.4421
  227MPD1    C1 3497   4.241   2.597   9.697 -0.7850  0.6906  0.8184
  227MPD1    C2 3498   4.128   2.592   9.771 -0.1977 -0.4141 -0.6236
  227MPD1    C3 3499   4.089   2.704   9.834  0.1146 -0.0664  0.6004
  227MPD1    C4 3500   4.145   2.826   9.800  1.1129 -0.3425  0.7542
  227MPD1    C5 3501   4.257   2.829   9.723  0.1813  0.3163 -0.4278
  227MPD1     H 3502   4.077   2.498   9.786  0.9979 -0.6397  2.0102
  227MPD1    H1 3503   4.113   2.921   9.841 -2.1655 -1.8178  1.5594
  227MPD1    H2 3504   4.390   2.718   9.600 -0.9872  0.2667 -0.9467
  227MPD1    H3 3505   4.314   2.918   9.697  0.8033  0.0317 -0.0268
  227MPD1     N 3506   3.976   2.701   9.919 -0.0572 -0.4971 -0.1678
  227MPD1    H5 3507   3.924   2.613   9.925  0.6425 -0.8168  1.2477
  227MPD1    N1 3508   4.276   2.478   9.623  0.5070  0.1562  0.0452
  227MPD1    H6 3509   4.249   2.395   9.675 -0.1473 -0.0746 -0.6541
  227MPD1    H7 3510   4.377   2.467   9.625  0.2293 -1.9071  2.3158
  228MPD1     C 3511   2.417   0.129  12.876  0.5929 -0.1412 -0.3180
  228MPD1    C1 3512   2.332   0.222  12.803 -0.0156  0.3407  0.5967
  228MPD1    C2 3513   2.196   0.222  12.829  0.3307  0.8968 -0.0296
  228MPD1    C3 3514   2.134   0.123  12.902  0.0961  0.3280 -0.0348
  228MPD1    C4 3515   2.219   0.036  12.969  0.2463  0.3271  0.1649
  228MPD1    C5 3516   2.358   0.043  12.960 -0.1361 -0.0359  0.1851
  228MPD1     H 3517   2.135   0.293  12.775 -0.0692  1.2234  0.8459
  228MPD1    H1 3518   2.181   4.688  13.026 -4.4314  0.5687 -2.5440
  228MPD1    H2 3519   2.524   0.129  12.861  0.7250  0.8003  0.5590
  228MPD1    H3 3520   2.415   4.701  13.010  0.5350  0.7668  0.6753
  228MPD1     N 3521   1.993   0.122  12.902  0.1692  0.1482 -0.4613
  228MPD1    H5 3522   1.955   0.202  12.852  1.4435 -0.2175 -1.9963
  228MPD1    N1 3523   2.394   0.319  12.728  0.5202  0.1723  0.6361
  228MPD1    H6 3524   2.476   0.280  12.681  0.5681 -2.6540  3.0503
  228MPD1    H7 3525   2.331   0.356  12.658  2.7151 -1.3314 -2.0992
  229MPD1     C 3526   1.180   4.224  14.808  0.3435 -0.1806 -0.0174
  229MPD1    C1 3527   1.150   4.161  14.687  0.0565  0.4424 -0.6185
  229MPD1    C2 3528   1.207   4.032  14.674 -0.2546 -0.0375  0.1207
  229MPD1    C3 3529   1.291   3.976  14.771 -0.2258 -0.3468  0.2083
  229MPD1    C4 3530   1.319   4.046  14.886  0.2973 -0.0605 -0.6497
  229MPD1    C5 3531   1.257   4.171  14.905  0.1717  0.2716  0.4737
  229MPD1     H 3532   1.190   3.978  14.582  1.0582 -0.9357  0.4077
  229MPD1    H1 3533   1.382   4.002  14.962  0.6215  0.2129 -0.7606
  229MPD1    H2 3534   1.135   4.317  14.840  0.4515 -0.5565  1.2418
  229MPD1    H3 3535   1.282   4.220  14.999 -0.9333  2.8731 -0.6012
  229MPD1     N 3536   1.360   3.853  14.761 -0.0842 -0.1536 -0.2069
  229MPD1    H5 3537   1.431   3.832  14.830  1.2228 -1.2309 -1.8764
  229MPD1    N1 3538   1.042   4.206  14.603  0.3519 -0.2575 -0.2952
  229MPD1    H6 3539   1.037   4.307  14.612 -1.2521 -0.3990  0.2916
  229MPD1    H7 3540   1.061   4.189  14.504 -0.1681 -0.0461 -0.4305
  230MPD1     C 3541   1.799   3.266  15.378 -0.3445  0.4396  0.2387
  230MPD1    C1 3542   1.860   3.224  15.265 -0.0898  0.7640  0.6498
  230MPD1    C2 3543   1.801   3.256  15.141 -0.2429  0.6492  0.5131
  230MPD1    C3 3544   1.707   3.355  15.139 -0.3229 -1.0669 -0.6016
  230MPD1    C4 3545   1.663   3.405  15.258 -0.0767 -0.6750 -0.3205
  230MPD1    C5 3546   1.705   3.361  15.376 -0.3250  0.7887 -0.7507
  230MPD1     H 3547   1.841   3.206  15.054 -0.5469  0.8018  0.2858
  230MPD1    H1 3548   1.589   3.484  15.257 -0.9316 -1.4829 -0.0275
  230MPD1    H2 3549   1.823   3.214  15.470  0.7138  0.2716 -0.1312
  230MPD1    H3 3550   1.660   3.402  15.465 -2.0405  3.6267 -2.9209
  230MPD1     N 3551   1.664   3.398  15.013 -0.5641  0.3026 -0.4806
  230MPD1    H5 3552   1.710   3.338  14.945 -0.4816 -1.3925  1.0621
  230MPD1    N1 3553   1.960   3.127  15.270 -0.4324 -0.1354  0.2628
  230MPD1    H6 3554   2.023   3.141  15.191  0.9891 -1.2261  1.1988
  230MPD1    H7 3555   2.009   3.125  15.359 -0.4577 -1.5791  0.2560
  231MPD1     C 3556   4.514   0.462  14.985 -0.5794  0.2895  0.2122
  231MPD1    C1 3557   4.514   0.489  14.842  0.5589 -0.1189 -0.4828
  231MPD1    C2 3558   4.621   0.572  14.803  0.1817 -0.0865 -0.2228
  231MPD1    C3 3559   4.735   0.605  14.882  0.3968  0.3839  0.2995
  231MPD1    C4 3560   4.735   0.561  15.010 -0.2658  0.0969  0.0972
  231MPD1    C5 3561   4.625   0.498  15.059 -0.2363 -0.2086  0.1318
  231MPD1     H 3562   4.612   0.623  14.708  0.3734 -0.3903 -0.4067
  231MPD1    H1 3563   0.079   0.587  15.079  0.2847  1.2682 -0.9753
  231MPD1    H2 3564   4.430   0.408  15.027 -1.6003  1.0760 -0.8255
  231MPD1    H3 3565   4.629   0.482  15.166  0.0272 -0.0206  0.1498
  231MPD1     N 3566   0.105   0.681  14.819  0.0159  0.1689  0.1548
  231MPD1    H5 3567   0.099   0.709  14.722 -1.2137 -2.5896 -0.5702
  231MPD1    N1 3568   4.414   0.444  14.751 -0.4088 -0.8931 -0.2934
  231MPD1    H6 3569   4.461   0.419  14.665 -0.8154 -0.2761 -0.6912
  231MPD1    H7 3570   4.376   0.359  14.793 -2.9081  0.9311  1.1736
  232MPD1     C 3571   1.847   2.401   0.044 -0.4082  0.0816 -0.0526
  232MPD1    C1 3572   1.764   2.490  17.719 -0.4148  0.0716 -0.7040
  232MPD1    C2 3573   1.628   2.469  17.713  0.4433  0.2057 -1.2238
  232MPD1    C3 3574   1.578   2.344   0.014 -0.4334 -0.8222  0.8408
  232MPD1    C4 3575   1.664   2.251   0.074  0.3734  0.1249  0.2714
  232MPD1    C5 3576   1.795   2.289   0.088  0.1183  0.1195 -0.0002
  232MPD1     H 3577   1.568   2.543  17.661 -0.3966  1.0926  1.0446
  232MPD1    H1 3578   1.625   2.164   0.125 -1.9097  0.1128 -1.4869
  232MPD1    H2 3579   1.947   2.426   0.078  0.2909 -2.2609 -0.4369
  232MPD1    H3 3580   1.861   2.226   0.147 -0.0983  0.9552  1.1315
  232MPD1     N 3581   1.440   2.322  17.741  0.3013 -0.4705  0.3776
  232MPD1    H5 3582   1.388   2.408  17.725  1.2897  0.0510  0.0115
  232MPD1    N1 3583   1.823   2.596  17.642 -0.6910  0.5274 -0.1164
  232MPD1    H6 3584   1.915   2.622  17.677 -0.7734  0.4853  0.1309
  232MPD1    H7 3585   1.763   2.678  17.646 -1.0932  0.1561  1.4223
  233MPD1     C 3586   2.333   0.969   0.987  0.1843 -0.4887  0.1745
  233MPD1    C1 3587   2.428   0.963   0.887  0.1487  0.7264  0.1379
  233MPD1    C2 3588   2.556   1.009   0.911 -0.3809 -0.1355  0.0546
  233MPD1    C3 3589   2.594   1.063   1.035  0.5276  0.2934 -0.4471
  233MPD1    C4 3590   2.491   1.072   1.132  0.5375 -0.5992 -0.0469
  233MPD1    C5 3591   2.365   1.023   1.112  0.0915 -0.4021 -0.2476
  233MPD1     H 3592   2.633   0.988   0.839 -2.0057 -0.2579 -1.6404
  233MPD1    H1 3593   2.507   1.136   1.218  0.9090  0.4698 -0.9091
  233MPD1    H2 3594   2.236   0.920   0.977  0.1365 -0.2587 -0.5229
  233MPD1    H3 3595   2.284   1.040   1.183 -0.8011 -1.1170 -1.0865
  233MPD1     N 3596   2.726   1.095   1.051 -0.0961  0.5173  0.3913
  233MPD1    H5 3597   2.781   1.085   0.966 -2.5907  1.0559 -1.2681
  233MPD1    N1 3598   2.410   0.886   0.770 -0.2026 -0.1973 -0.1398
  233MPD1    H6 3599   2.469   0.918   0.693  0.0718 -0.6764 -0.1277
  233MPD1    H7 3600   2.313   0.881   0.738  0.0785 -2.4025 -0.6460
  234MPD1     C 3601   4.047   4.638   9.899 -0.1696 -0.8378 -0.7878
  234MPD1    C1 3602   4.006   0.018   9.960 -0.9933 -0.2007  0.0847
  234MPD1    C2 3603   3.944   0.112   9.888  0.1015  0.3996  0.7172
  234MPD1    C3 3604   3.912   0.084   9.759 -0.3143  0.1876  0.2848
  234MPD1    C4 3605   3.949   4.702   9.696 -0.2572  0.3780 -0.8468
  234MPD1    C5 3606   4.012   4.605   9.771 -0.2792  0.2070 -0.2208
  234MPD1     H 3607   3.912   0.202   9.938  0.5920  0.0182  1.7020
  234MPD1    H1 3608   3.932   4.680   9.592 -0.9051 -1.8108 -0.2774
  234MPD1    H2 3609   4.091   4.558   9.958  0.3492 -0.4222 -0.6030
  234MPD1    H3 3610   4.036   4.504   9.741  3.0287  1.1473 -0.7586
  234MPD1     N 3611   3.816   0.171   9.704 -0.6211  0.3202  0.0836
  234MPD1    H5 3612   3.790   0.255   9.754  0.1511  2.7308 -3.5094
  234MPD1    N1 3613   4.049   0.047  10.089  0.4181 -0.3673 -0.4476
  234MPD1    H6 3614   4.054   4.697  10.144 -1.9477  1.0339  1.9279
  234MPD1    H7 3615   3.978   0.107  10.131  0.5570 -0.2286 -0.4147
  235MPD1     C 3616   3.126   3.057  10.344  0.1577  0.5746 -0.4363
  235MPD1    C1 3617   2.993   3.074  10.384 -0.4959  0.7084 -0.4465
  235MPD1    C2 3618   2.912   3.142  10.299  0.3553  0.0675  0.0705
  235MPD1    C3 3619   2.950   3.216  10.194 -0.3938 -0.2373 -0.0001
  235MPD1    C4 3620   3.084   3.216  10.163 -0.3538 -0.6843 -0.2108
  235MPD1    C5 3621   3.166   3.127  10.229 -0.6360  0.2725  0.1323
  235MPD1     H 3622   2.809   3.144  10.333  0.1618  0.0242 -0.5230
  235MPD1    H1 3623   3.127   3.275  10.083 -0.0189 -0.9997 -0.2606
  235MPD1    H2 3624   3.197   2.984  10.380  0.6083 -0.3397 -3.1713
  235MPD1    H3 3625   3.272   3.129  10.206 -0.4828  2.8410  1.0582
  235MPD1     N 3626   2.854   3.297  10.128 -0.8153  0.1807 -0.1098
  235MPD1    H5 3627   2.757   3.276  10.150 -0.1314 -1.3001  1.5257
  235MPD1    N1 3628   2.944   2.991  10.483 -0.2286 -0.4109  0.3141
  235MPD1    H6 3629   3.008   2.987  10.562  0.7204  2.8075 -0.2891
  235MPD1    H7 3630   2.866   3.043  10.523 -1.0953 -0.5669 -1.1827
  236MPD1     C 3631   4.515   3.815   9.758 -1.0694  0.0833 -0.0140
  236MPD1    C1 3632   4.568   3.942   9.746 -0.1607 -0.2420 -0.2221
  236MPD1    C2 3633   4.686   3.970   9.812  0.6147  0.1990 -0.5435
  236MPD1    C3 3634   0.010   3.871   9.890 -0.5599  0.5899  0.2411
  236MPD1    C4 3635   4.687   3.748   9.901  0.3083  0.3964 -0.4879
  236MPD1    C5 3636   4.575   3.717   9.832 -0.6680 -0.2997  0.2949
  236MPD1     H 3637   4.714   4.075   9.816 -1.6289  0.6718  3.5899
  236MPD1    H1 3638   4.714   3.664   9.965 -0.0099  0.2711 -0.5178
  236MPD1    H2 3639   4.415   3.796   9.721 -1.7162  0.8848  1.3151
  236MPD1    H3 3640   4.516   3.626   9.840 -0.5888 -0.2892  0.9300
  236MPD1     N 3641   0.120   3.902   9.980 -0.0130 -0.3096  0.4202
  236MPD1    H5 3642   0.162   3.826  10.032 -1.0407  0.3677  2.2607
  236MPD1    N1 3643   4.482   4.039   9.695  0.2506  0.1737 -0.0894
  236MPD1    H6 3644   4.422   4.074   9.769  2.4863 -1.3676  2.5111
  236MPD1    H7 3645   4.537   4.119   9.667 -0.0869  0.3826 -0.1498
  237MPD1     C 3646   0.515   1.978  14.888  0.2751 -0.2704 -0.2768
  237MPD1    C1 3647   0.462   1.876  14.813  0.2401  0.4974 -0.1489
  237MPD1    C2 3648   0.331   1.870  14.780  0.2811 -0.1291 -0.2272
  237MPD1    C3 3649   0.247   1.936  14.873  0.2480  0.5073  0.0215
  237MPD1    C4 3650   0.296   2.039  14.947  1.1018  0.4254 -0.1047
  237MPD1    C5 3651   0.429   2.060  14.952  0.1129 -0.3375  0.2372
  237MPD1     H 3652   0.288   1.790  14.722  1.0868 -0.0252 -0.9700
  237MPD1    H1 3653   0.233   2.105  15.006 -0.0827 -1.2620  0.5316
  237MPD1    H2 3654   0.622   1.995  14.899  0.3704 -0.4570 -0.9047
  237MPD1    H3 3655   0.468   2.150  14.997  0.8040 -0.4628 -0.1193
  237MPD1     N 3656   0.109   1.904  14.869 -0.2220  0.0644 -0.3270
  237MPD1    H5 3657   0.050   1.939  14.943 -0.8451 -1.4673 -0.1108
  237MPD1    N1 3658   0.551   1.795  14.740 -0.1526  0.4944 -0.3991
  237MPD1    H6 3659   0.501   1.710  14.714 -1.0202  0.7135  0.5542
  237MPD1    H7 3660   0.633   1.764  14.792 -0.1963 -0.0559 -0.6550
  238MPD1     C 3661   2.233   4.536  14.866  0.0478  0.6247  0.3741
  238MPD1    C1 3662   2.179   4.616  14.962 -0.2281 -0.5123 -0.2658
  238MPD1    C2 3663   2.052   4.676  14.939  1.2649 -0.3597  0.0526
  238MPD1    C3 3664   1.987   4.667  14.813 -0.5766 -0.6895 -0.1317
  238MPD1    C4 3665   2.048   4.594  14.719 -0.4299 -0.2255 -0.6811
  238MPD1    C5 3666   2.168   4.525  14.743  0.0107  0.4539 -0.2248
  238MPD1     H 3667   2.008   0.001  15.017  0.2277  0.3271 -1.0598
  238MPD1    H1 3668   2.003   4.581  14.621  2.7952  0.0057 -2.1913
  238MPD1    H2 3669   2.331   4.491  14.870  0.1514  0.9939  1.9936
  238MPD1    H3 3670   2.220   4.475  14.661 -0.3451  1.8160 -1.2855
  238MPD1     N 3671   1.866   4.736  14.781 -0.3378 -0.1327 -0.5656
  238MPD1    H5 3672   1.833   4.717  14.687 -3.9744  1.1952  0.4713
  238MPD1    N1 3673   2.241   4.625  15.090  0.1681  0.0787 -0.5831
  238MPD1    H6 3674   2.342   4.611  15.091 -0.0319 -1.3949 -0.8865
  238MPD1    H7 3675   2.213   4.705  15.146  1.1322 -0.5617  0.7976
  239MPD1     C 3676   1.879   1.135  15.043 -0.0504 -0.4452  0.1301
  239MPD1    C1 3677   2.002   1.196  15.020  0.0047  0.7384 -0.0405
  239MPD1    C2 3678   2.007   1.291  14.924  0.4074 -0.0373 -0.6556
  239MPD1    C3 3679   1.892   1.348  14.867 -0.5254 -0.0320 -0.3301
  239MPD1    C4 3680   1.776   1.283  14.889  0.8683  0.0638 -0.1485
  239MPD1    C5 3681   1.772   1.188  14.988 -0.0532 -0.2092 -0.6074
  239MPD1     H 3682   2.108   1.327  14.911  0.7853 -0.5613  0.8257
  239MPD1    H1 3683   1.678   1.315  14.855  1.4417  1.0037 -0.9123
  239MPD1    H2 3684   1.866   1.062  15.122 -0.9309 -0.4419 -0.0206
  239MPD1    H3 3685   1.680   1.143  15.022  1.5978 -2.3562  1.0049
  239MPD1     N 3686   1.894   1.458  14.769 -0.4033  0.5028  0.3376
  239MPD1    H5 3687   1.808   1.482  14.720 -0.9958 -2.5764 -0.1601
  239MPD1    N1 3688   2.121   1.144  15.069  0.1400  0.3956 -0.0341
  239MPD1    H6 3689   2.121   1.097  15.159 -0.1716  1.3872  0.4911
  239MPD1    H7 3690   2.186   1.222  15.065 -0.3742  0.8657  0.7326
  240MPD1     C 3691   1.364   1.691  13.694  0.0398 -0.1882  0.4311
  240MPD1    C1 3692   1.304   1.577  13.640  0.1799 -0.2567 -0.7035
  240MPD1    C2 3693   1.323   1.454  13.696  0.3605  0.1281  0.1484
  240MPD1    C3 3694   1.414   1.437  13.803  0.0802  0.2326  0.0377
  240MPD1    C4 3695   1.474   1.549  13.851 -0.8000 -0.1402  0.4628
  240MPD1    C5 3696   1.447   1.671  13.799 -0.7129 -0.3107 -0.1410
  240MPD1     H 3697   1.250   1.382  13.664 -0.5167  0.0129  2.3693
  240MPD1    H1 3698   1.549   1.544  13.929  0.3011  0.4642 -0.5585
  240MPD1    H2 3699   1.350   1.792  13.658 -0.4979 -0.2773  0.3807
  240MPD1    H3 3700   1.503   1.754  13.841  1.5687 -1.8075 -0.2059
  240MPD1     N 3701   1.420   1.309  13.865  0.0324  0.1237 -0.7699
  240MPD1    H5 3702   1.373   1.230  13.823 -1.7230 -0.6684  2.6068
  240MPD1    N1 3703   1.223   1.591  13.528  0.0189 -0.6503 -0.3880
  240MPD1    H6 3704   1.258   1.663  13.466  0.4627 -1.8144 -1.5021
  240MPD1    H7 3705   1.184   1.510  13.480  0.5690 -0.3541 -1.3398
  241MPD1     C 3706   1.726   0.957  14.769 -0.0287 -0.4400 -0.3839
  241MPD1    C1 3707   1.800   0.912  14.662  0.7288 -0.5571  0.2500
  241MPD1    C2 3708   1.738   0.893  14.541  0.4200  0.3849  1.1341
  241MPD1    C3 3709   1.605   0.924  14.525  0.2142 -0.9225  0.1463
  241MPD1    C4 3710   1.534   0.963  14.632  0.1013 -0.0045  0.0800
  241MPD1    C5 3711   1.598   0.980  14.755 -0.3082  0.0830  0.0149
  241MPD1     H 3712   1.785   0.841  14.458 -2.1547 -1.9453  1.1588
  241MPD1    H1 3713   1.436   1.005  14.611  0.1254  0.8345  1.6572
  241MPD1    H2 3714   1.759   0.964  14.872  1.5703 -0.3177 -0.9155
  241MPD1    H3 3715   1.539   1.018  14.839 -1.1628 -0.0293 -0.5348
  241MPD1     N 3716   1.543   0.923  14.400 -0.1758 -0.1983 -0.0040
  241MPD1    H5 3717   1.444   0.946  14.399 -0.6076 -2.0717 -0.3267
  241MPD1    N1 3718   1.932   0.880  14.689 -1.5968 -0.5764 -0.4506
  241MPD1    H6 3719   1.979   0.946  14.750 -2.1677 -1.1985  0.6692
  241MPD1    H7 3720   1.990   0.870  14.606 -1.2011  0.1601 -0.2607
  242MPD1     C 3721   0.657   4.516  15.998 -0.1787  0.7278 -0.0258
  242MPD1    C1 3722   0.788   4.466  16.014 -0.1655 -0.8102  0.9669
  242MPD1    C2 3723   0.862   4.444  15.900  0.4308  0.1709 -0.5626
  242MPD1    C3 3724   0.804   4.462  15.779 -0.6190  0.0309 -0.4808
  242MPD1    C4 3725   0.667   4.502  15.773  0.1395 -0.0934  0.1437
  242MPD1    C5 3726   0.595   4.528  15.882 -0.3416  0.1126 -0.1926
  242MPD1     H 3727   0.962   4.404  15.905 -0.6001 -2.4973 -1.2892
  242MPD1    H1 3728   0.619   4.521  15.678  1.5578  1.5338 -0.2375
  242MPD1    H2 3729   0.601   4.532  16.089  0.5460 -1.7746  0.8720
  242MPD1    H3 3730   0.501   4.580  15.867 -0.5185  0.2494  1.3696
  242MPD1     N 3731   0.872   4.450  15.652  0.2612 -0.5600  0.8202
  242MPD1    H5 3732   0.809   4.447  15.572  0.7340 -0.3268  0.4441
  242MPD1    N1 3733   0.846   4.454  16.145 -0.7356 -0.6593 -0.0449
  242MPD1    H6 3734   0.777   4.439  16.218  0.2913 -0.2117  1.0041
  242MPD1    H7 3735   0.917   4.382  16.158  1.6091  1.6352 -0.2463
  243MPD1     C 3736   1.934   2.962  17.491 -0.7616 -0.4186  0.0428
  243MPD1    C1 3737   2.072   2.947  17.509  1.3305  0.2231 -0.3841
  243MPD1    C2 3738   2.143   2.940  17.391  0.4616  0.5167 -0.2990
  243MPD1    C3 3739   2.092   2.904  17.269  0.1347  0.7468  0.0037
  243MPD1    C4 3740   1.957   2.894  17.266  0.1895 -0.3065  0.4404
  243MPD1    C5 3741   1.881   2.931  17.372 -0.1250 -0.0887  0.7712
  243MPD1     H 3742   2.251   2.929  17.391  0.4629  0.5391 -0.8801
  243MPD1    H1 3743   1.908   2.862  17.174 -1.1460  0.2824  0.9421
  243MPD1    H2 3744   1.876   2.973  17.582 -1.2525 -0.6849 -0.2403
  243MPD1    H3 3745   1.775   2.921  17.350  0.1201 -1.4790  0.2278
  243MPD1     N 3746   2.185   2.881  17.170  0.4530  0.5187 -0.0715
  243MPD1    H5 3747   2.284   2.894  17.190  1.0050 -0.2198 -2.2348
  243MPD1    N1 3748   2.138   2.994  17.622 -0.0069  0.2010  0.2371
  243MPD1    H6 3749   2.085   2.959  17.702 -0.6665 -0.0053 -0.2912
  243MPD1    H7 3750   2.234   2.962  17.636  0.2641  0.3705 -1.2585
  244MPD1     C 3751   2.711   2.234  17.164 -0.0142 -0.0706  0.1573
  244MPD1    C1 3752   2.665   2.314  17.268 -1.1341  0.3808  0.6417
  244MPD1    C2 3753   2.613   2.433  17.224 -0.8110 -0.5488 -0.2365
  244MPD1    C3 3754   2.620   2.482  17.094 -0.1069  1.1934 -0.5033
  244MPD1    C4 3755   2.691   2.408  17.002  0.6104 -0.0080 -0.2430
  244MPD1    C5 3756   2.736   2.286  17.041 -0.4620  0.3392  0.1970
  244MPD1     H 3757   2.557   2.501  17.288 -0.7516 -0.3818 -0.3611
  244MPD1    H1 3758   2.710   2.434  16.898 -3.5044  0.1598 -0.9302
  244MPD1    H2 3759   2.733   2.130  17.185  0.7566  0.3624  1.4940
  244MPD1    H3 3760   2.788   2.217  16.976 -0.6319  2.0286 -1.7179
  244MPD1     N 3761   2.554   2.605  17.066  0.3250  0.4079  0.1169
  244MPD1    H5 3762   2.485   2.639  17.132 -0.5949 -0.8476 -0.2061
  244MPD1    N1 3763   2.649   2.255  17.393  0.0414  0.2464  0.0596
  244MPD1    H6 3764   2.650   2.320  17.471 -0.1013  0.8941 -0.4790
  244MPD1    H7 3765   2.705   2.172  17.411 -0.4044 -0.1076 -0.1665
  245MPD1     C 3766   4.362   3.627  12.402  0.3194 -0.2832 -0.1640
  245MPD1    C1 3767   4.408   3.759  12.404  0.3462  0.1918  0.6040
  245MPD1    C2 3768   4.448   3.809  12.529 -0.9323  0.2090 -0.2874
  245MPD1    C3 3769   4.447   3.728  12.642 -0.7380  0.7377 -0.0699
  245MPD1    C4 3770   4.400   3.599  12.641 -0.2231  0.1550 -0.1307
  245MPD1    C5 3771   4.350   3.553  12.518  0.2381  0.9923  0.0132
  245MPD1     H 3772   4.475   3.914  12.527 -1.6535  0.4212  1.0060
  245MPD1    H1 3773   4.378   3.526  12.718  2.4822 -0.2658  0.2162
  245MPD1    H2 3774   4.332   3.578  12.310  0.5369  1.9283 -1.4017
  245MPD1    H3 3775   4.303   3.456  12.512 -1.4727  1.7864  0.6371
  245MPD1     N 3776   4.480   3.783  12.765 -0.0751  0.4597  0.2803
  245MPD1    H5 3777   4.485   3.884  12.764  3.3558  0.2678 -0.9765
  245MPD1    N1 3778   4.389   3.833  12.285 -0.1504 -0.1251  0.1244
  245MPD1    H6 3779   4.406   3.783  12.198  0.8032  1.8350 -0.8306
  245MPD1    H7 3780   4.445   3.918  12.295 -0.6477  0.3610 -1.1659
  246MPD1     C 3781   0.035   2.689  10.079  0.0161 -0.1780  0.5621
  246MPD1    C1 3782   0.007   2.789   9.992 -0.6151 -0.1002 -0.5369
  246MPD1    C2 3783   0.084   2.903   9.996 -0.2766 -0.6742 -0.4568
  246MPD1    C3 3784   0.162   2.938  10.107 -0.2399  0.1631 -0.1553
  246MPD1    C4 3785   0.176   2.840  10.201  0.4134  0.3533  0.4445
  246MPD1    C5 3786   0.128   2.715  10.179  0.3788  1.3060 -0.3467
  246MPD1     H 3787   0.071   2.970   9.912 -0.7555 -1.5587 -1.0961
  246MPD1    H1 3788   0.251   2.845  10.279 -0.0811  0.9916  0.8663
  246MPD1    H2 3789   4.725   2.591  10.073 -2.9916  1.4377 -2.5586
  246MPD1    H3 3790   0.152   2.639  10.252 -2.2058  1.2144  0.4355
  246MPD1     N 3791   0.214   3.066  10.121 -0.2185  0.2867 -0.3973
  246MPD1    H5 3792   0.204   3.126  10.040  0.6508 -0.9303 -1.3960
  246MPD1    N1 3793   4.653   2.765   9.885  0.0391  0.7121 -0.0795
  246MPD1    H6 3794   4.615   2.852   9.846 -0.9476  0.5100  0.4182
  246MPD1    H7 3795   4.577   2.702   9.910  0.6428  0.1842  0.4230
  247MPD1     C 3796   3.692   4.019  16.302 -0.5051 -0.4564 -0.3416
  247MPD1    C1 3797   3.746   3.972  16.416  0.6601 -0.0780  0.4590
  247MPD1    C2 3798   3.782   3.838  16.411 -0.9348 -0.0381 -0.4115
  247MPD1    C3 3799   3.805   3.772  16.293  0.6033 -0.2898 -0.2719
  247MPD1    C4 3800   3.767   3.833  16.177  0.4769 -0.5141  0.2679
  247MPD1    C5 3801   3.709   3.955  16.178 -0.6708  0.4830 -0.4307
  247MPD1     H 3802   3.815   3.787  16.501  1.5106  0.0530 -1.2540
  247MPD1    H1 3803   3.779   3.782  16.083  1.2602 -0.3884  0.2944
  247MPD1    H2 3804   3.649   4.119  16.306  1.7449  0.5473 -0.8154
  247MPD1    H3 3805   3.676   4.005  16.087 -0.2040 -0.6339 -1.2111
  247MPD1     N 3806   3.838   3.641  16.284 -0.1411 -0.0165 -0.2164
  247MPD1    H5 3807   3.835   3.598  16.192 -0.4523  1.0603 -0.7053
  247MPD1    N1 3808   3.731   4.045  16.541  0.5861 -0.0085  0.3238
  247MPD1    H6 3809   3.803   4.019  16.608 -0.0261 -2.7457 -0.1033
  247MPD1    H7 3810   3.741   4.147  16.538  0.0957  0.0197 -0.3795
  248MPD1     C 3811   0.078   3.049  17.441  0.2551  0.6294  0.4103
  248MPD1    C1 3812   0.065   3.096  17.570  0.2596  0.4838  0.7702
  248MPD1    C2 3813   4.718   3.027  17.660 -0.5304  0.0195  0.8416
  248MPD1    C3 3814   4.666   2.903  17.628  0.1741 -0.1244  0.2715
  248MPD1    C4 3815   4.674   2.863  17.496  0.0592  0.1722 -0.0326
  248MPD1    C5 3816   0.010   2.937  17.402 -0.6383 -0.2239 -0.2813
  248MPD1     H 3817   4.696   3.061   0.019 -1.3427  1.4999  0.1605
  248MPD1    H1 3818   4.628   2.772  17.462  1.0568  0.1766 -1.4066
  248MPD1    H2 3819   0.130   3.103  17.363  0.8785 -1.7709 -0.8424
  248MPD1    H3 3820   0.014   2.904  17.299  2.6011 -1.3742  0.2136
  248MPD1     N 3821   4.592   2.846  17.731 -0.4511 -0.0517  0.3218
  248MPD1    H5 3822   4.595   2.889   0.081 -0.4132  0.4683  0.0782
  248MPD1    N1 3823   0.117   3.219  17.603 -0.4585  0.4360  0.0547
  248MPD1    H6 3824   0.102   3.236  17.703  1.6501  1.1279  0.2658
  248MPD1    H7 3825   0.217   3.220  17.586 -0.4825 -0.9419 -0.1013
  249MPD1     C 3826   2.253   2.720  11.236 -0.4629 -0.2444 -0.1314
  249MPD1    C1 3827   2.139   2.780  11.209 -0.4008  0.1486 -0.8723
  249MPD1    C2 3828   2.147   2.915  11.229 -0.2208  0.1849 -0.0619
  249MPD1    C3 3829   2.263   2.986  11.255 -0.2317  0.1142 -0.2662
  249MPD1    C4 3830   2.380   2.911  11.254 -0.2049 -0.1997  0.5442
  249MPD1    C5 3831   2.371   2.779  11.233 -0.4078  0.8411 -0.2913
  249MPD1     H 3832   2.058   2.976  11.221 -0.7941 -0.6712 -0.2229
  249MPD1    H1 3833   2.476   2.959  11.267  0.3063 -1.0438 -0.1328
  249MPD1    H2 3834   2.253   2.612  11.232  1.7344 -0.2186 -0.8411
  249MPD1    H3 3835   2.454   2.710  11.236 -0.8820  0.2793  0.0388
  249MPD1     N 3836   2.249   3.122  11.274 -0.4279  0.3592 -0.0487
  249MPD1    H5 3837   2.158   3.166  11.267 -0.1097  1.3343  1.9570
  249MPD1    N1 3838   2.022   2.707  11.205  0.1967 -0.7163 -0.2709
  249MPD1    H6 3839   1.958   2.755  11.142  0.1590 -1.7502 -1.0384
  249MPD1    H7 3840   2.048   2.617  11.164  0.4607 -0.0848 -1.5116
  250MPD2     C 3841   2.901   2.198  12.765  0.3891  0.2582  0.2503
  250MPD2    C1 3842   2.858   2.325  12.784 -0.1932 -0.0920  0.7607
  250MPD2    C2 3843   2.727   2.348  12.821 -0.7626 -0.5452  0.2432
  250MPD2    C3 3844   2.640   2.240  12.843 -0.3885  0.5556 -0.5541
  250MPD2    C4 3845   2.683   2.111  12.814  0.1347 -0.5356 -0.1517
  250MPD2    C5 3846   2.813   2.091  12.779  0.0788 -0.4935  0.0891
  250MPD2     H 3847   2.697   2.448  12.849  2.5433  0.5372 -0.1327
  250MPD2    H1 3848   2.621   2.029  12.847  0.5134 -0.9588 -0.5002
  250MPD2    H2 3849   3.005   2.176  12.745 -0.3559 -0.8913 -2.2834
  250MPD2    H3 3850   2.850   1.992  12.756  0.9671 -0.1226 -0.0614
  250MPD2     N 3851   2.504   2.248  12.885 -0.3588  0.4256 -0.5264
  250MPD2    H5 3852   2.455   2.162  12.905 -0.5695  0.6636 -0.0213
  250MPD2    N1 3853   2.964   2.420  12.784  0.1077  0.4372  0.2603
  250MPD2    H7 3854   3.054   2.378  12.767  0.8804  1.4983  1.7288
  251TMC3    C1 3855   3.067   2.627  12.859  0.3109 -0.3821  0.3667
  251TMC3    C2 3856   3.041   2.732  12.944 -0.2397 -0.2867 -0.7319
  251TMC3    C3 3857   3.150   2.807  12.975 -0.1206 -0.3337  0.2410
  251TMC3    C4 3858   3.188   2.587  12.812  0.1031  0.1913 -0.1830
  251TMC3    C5 3859   3.293   2.675  12.838 -0.2945  0.0933 -0.0501
  251TMC3    C6 3860   3.277   2.780  12.925 -0.2438  0.1743  0.6773
  251TMC3     C 3861   2.951   2.555  12.816  0.6272 -0.5270  0.0963
  251TMC3     O 3862   2.846   2.609  12.841 -0.1117  0.1216 -0.5971
  251TMC3     H 3863   2.947   2.736  12.998  0.3949 -2.4966  0.5401
  251TMC3    H1 3864   3.205   2.505  12.743  0.3513  0.6991 -0.7286
  251TMC3    H2 3865   3.356   2.850  12.952  0.8837 -0.9162  0.1888
  251TMC3    C7 3866   3.428   2.631  12.818 -0.1821 -0.0087  0.8150
  251TMC3    C8 3867   3.113   2.925  13.048 -0.1885  0.6366  0.6149
  251TMC3    O1 3868   3.446   2.511  12.820  0.8225 -0.1911  0.6730
  251TMC3    O2 3869   3.036   2.904  13.141 -0.2559 -0.2423 -0.3922
  252TMC3    C1 3870   3.518   3.985   9.035  1.0053  0.3959  0.4333
  252TMC3    C2 3871   3.576   4.010   9.157  0.0339  0.0319 -0.1912
  252TMC3    C3 3872   3.556   3.919   9.258  0.0315 -0.5849  0.1363
  252TMC3    C4 3873   3.447   3.872   9.016  0.3771 -0.2281  0.2988
  252TMC3    C5 3874   3.434   3.779   9.118  0.0023  0.4024 -0.1991
  252TMC3    C6 3875   3.489   3.802   9.241  0.4741 -0.4959  0.4138
  252TMC3     C 3876   3.545   4.070   8.924  0.0166  0.0610 -0.0739
  252TMC3     O 3877   3.557   4.013   8.813 -0.1034  0.6851  0.2455
  252TMC3     H 3878   3.644   4.093   9.170  0.3439 -0.1952 -0.3725
  252TMC3    H1 3879   3.401   3.857   8.919  1.4256  0.7695 -0.3569
  252TMC3    H2 3880   3.482   3.735   9.326  0.3577 -2.4328 -1.1009
  252TMC3    C7 3881   3.337   3.686   9.093  0.3840 -0.1369  0.4841
  252TMC3    C8 3882   3.648   3.931   9.366 -0.0728  0.0008  0.0571
  252TMC3    O1 3883   3.261   3.703   9.001  0.4429  0.2426 -0.3320
  252TMC3    O2 3884   3.694   4.040   9.382  0.0907 -1.1909  0.5663
  253MPD2     C 3885   4.297   2.189  14.831 -0.0472 -0.2265 -1.0382
  253MPD2    C1 3886   4.160   2.165  14.810  0.3805  0.4941  0.2195
  253MPD2    C2 3887   4.086   2.092  14.901 -0.2379 -0.1601  0.2780
  253MPD2    C3 3888   4.150   2.054  15.016  0.0859  0.5895  0.1865
  253MPD2    C4 3889   4.288   2.075  15.035 -0.3091  0.1830  0.8723
  253MPD2    C5 3890   4.362   2.145  14.941 -0.1863 -0.6261  0.3045
  253MPD2     H 3891   3.979   2.083  14.888  0.1410 -1.7103 -1.8115
  253MPD2    H1 3892   4.333   2.054  15.132  0.2370  0.1828  0.6174
  253MPD2    H2 3893   4.368   2.240  14.767  0.6952  0.7862  0.5754
  253MPD2    H3 3894   4.466   2.173  14.955 -0.9133  1.5595  1.3075
  253MPD2     N 3895   4.081   1.996  15.124 -0.2398  0.4343 -0.0249
  253MPD2    H5 3896   4.142   1.978  15.204  0.8494 -1.0605 -1.2104
  253MPD2    N1 3897   4.105   2.214  14.690 -0.0407  0.2512 -0.4687
  253MPD2    H7 3898   4.014   2.175  14.669  0.4796 -0.7687 -0.8711
  254TMC3    C1 3899   3.901   1.956  15.274  0.1819 -0.1714  0.3536
  254TMC3    C2 3900   3.787   2.008  15.333 -0.2240 -0.1871  0.3710
  254TMC3    C3 3901   3.745   1.955  15.448  0.3367  0.3737 -0.0929
  254TMC3    C4 3902   3.979   1.865  15.341  0.1774  0.0500  0.3476
  254TMC3    C5 3903   3.934   1.816  15.462 -0.0640  0.5824 -0.4934
  254TMC3    C6 3904   3.812   1.853  15.512 -0.1701 -0.6151  0.1654
  254TMC3     C 3905   3.946   2.003  15.141  0.3646 -0.4234 -1.5290
  254TMC3     O 3906   3.853   2.049  15.071 -0.1915  0.1494  0.4458
  254TMC3     H 3907   3.713   2.073  15.289 -0.4303 -2.0436 -1.9868
  254TMC3    H1 3908   4.074   1.829  15.300  0.6212  1.8328 -0.1701
  254TMC3    H2 3909   3.786   1.816  15.611  1.6289 -0.5427  0.6775
  254TMC3    C7 3910   4.022   1.730  15.543 -0.8286  0.3218 -0.7498
  254TMC3    C8 3911   3.674   2.038  15.537 -0.1336  0.6041  0.1554
  254TMC3    O1 3912   3.960   1.661  15.626 -0.3610 -0.2961  0.1212
  254TMC3    O2 3913   3.735   2.039  15.646 -0.2076  0.4715  0.2911
  255MPD2     C 3914   1.312   0.348   9.423  0.3027 -0.1432 -0.1607
  255MPD2    C1 3915   1.335   0.395   9.298  0.2769  1.2604 -0.2901
  255MPD2    C2 3916   1.451   0.351   9.235  0.2526  0.0547 -0.3357
  255MPD2    C3 3917   1.554   0.281   9.302 -0.4402 -0.5611 -0.2537
  255MPD2    C4 3918   1.537   0.266   9.438  0.0204 -0.6643 -0.5839
  255MPD2    C5 3919   1.419   0.298   9.492  0.2587  0.0087  0.0242
  255MPD2     H 3920   1.475   0.377   9.133  0.6357  1.2470  0.0530
  255MPD2    H1 3921   1.612   0.236   9.511  0.5381  0.0598 -0.8223
  255MPD2    H2 3922   1.224   0.367   9.483  0.4932  0.1424  0.0285
  255MPD2    H3 3923   1.404   0.288   9.599  0.2574  0.7381  0.0940
  255MPD2     N 3924   1.669   0.243   9.232 -0.0803 -0.1389 -0.4992
  255MPD2    H5 3925   1.689   0.281   9.140 -1.2170  1.1008 -0.2487
  255MPD2    N1 3926   1.228   0.465   9.231 -0.0481 -0.0028 -0.5414
  255MPD2    H7 3927   1.138   0.430   9.263  0.4557  1.8318  2.8699
  256TMC3    C1 3928   1.114   0.531   9.033  0.1152 -0.0832 -0.0889
  256TMC3    C2 3929   1.111   0.469   8.908 -0.1560 -0.6528  0.3874
  256TMC3    C3 3930   0.996   0.415   8.864  0.4968 -0.0731  0.1745
  256TMC3    C4 3931   1.003   0.506   9.113  0.2933 -0.2185  0.3157
  256TMC3    C5 3932   0.892   0.439   9.073  0.2139  0.0776 -1.1465
  256TMC3    C6 3933   0.881   0.403   8.941  0.3808 -0.3224 -0.0938
  256TMC3     C 3934   1.240   0.521   9.106  0.1983  0.2877 -0.2432
  256TMC3     O 3935   1.343   0.526   9.035  0.0698 -0.4607 -0.5322
  256TMC3     H 3936   1.190   0.480   8.835 -0.8591 -1.1184 -0.4486
  256TMC3    H1 3937   1.000   0.529   9.219 -0.2612 -1.0627  0.4809
  256TMC3    H2 3938   0.814   0.330   8.898  1.7684 -0.5558 -1.9057
  256TMC3    C7 3939   0.869   0.316   9.152 -0.4244 -0.7311 -0.8042
  256TMC3    C8 3940   1.002   0.316   8.767  0.0867 -0.0711  0.2972
  256TMC3    O1 3941   0.967   0.290   9.219  0.2296 -0.3519 -0.1073
  256TMC3    O2 3942   0.902   0.283   8.701 -0.1593  0.2008  0.5217
  257MPD2     C 3943   1.578   2.415  13.479  0.0033 -0.5541 -0.7045
  257MPD2    C1 3944   1.605   2.358  13.360 -0.2677  0.0137 -0.7921
  257MPD2    C2 3945   1.613   2.218  13.349  0.2874 -0.1556  0.4516
  257MPD2    C3 3946   1.600   2.138  13.457  1.0308 -0.5242 -0.3330
  257MPD2    C4 3947   1.571   2.194  13.576 -0.0160 -0.0798 -0.0360
  257MPD2    C5 3948   1.564   2.330  13.587 -0.1137 -0.3748  0.6877
  257MPD2     H 3949   1.631   2.175  13.251  0.8780  0.7071  0.1838
  257MPD2    H1 3950   1.565   2.139  13.670  1.5161  0.3965  0.3458
  257MPD2    H2 3951   1.576   2.523  13.487  2.0965 -0.5055 -0.9252
  257MPD2    H3 3952   1.576   2.371  13.686  1.1393 -0.0934  0.4165
  257MPD2     N 3953   1.611   2.008  13.429  0.2810  0.1147  0.2291
  257MPD2    H5 3954   1.617   1.984  13.331  1.5104 -0.4210  0.4311
  257MPD2    N1 3955   1.600   2.455  13.250  0.0121  0.8261 -0.5991
  257MPD2    H7 3956   1.561   2.546  13.270  0.0354  0.7542 -0.2352
  258TMC3    C1 3957   1.634   1.770  13.475 -0.4233  0.0095 -1.0885
  258TMC3    C2 3958   1.556   1.735  13.368  0.2022  0.1090  0.0152
  258TMC3    C3 3959   1.558   1.606  13.328  0.1263  0.2740  0.0137
  258TMC3    C4 3960   1.700   1.678  13.551  0.6583 -0.6645  0.1259
  258TMC3    C5 3961   1.697   1.546  13.505 -0.3540  0.5089 -0.1011
  258TMC3    C6 3962   1.634   1.508  13.388  0.0274 -0.8820 -0.1513
  258TMC3     C 3963   1.626   1.914  13.524 -0.1976  1.0171 -0.4652
  258TMC3     O 3964   1.657   1.928  13.642  0.0509  0.4058 -0.2602
  258TMC3     H 3965   1.494   1.808  13.316  0.0535  1.0219  1.4952
  258TMC3    H1 3966   1.766   1.707  13.631 -1.0931  0.4497  1.1816
  258TMC3    H2 3967   1.635   1.405  13.354 -0.2269 -0.5662 -1.1054
  258TMC3    C7 3968   1.746   1.439  13.583  0.4786  0.5924 -0.0995
  258TMC3    C8 3969   1.498   1.580  13.196  0.5040  0.5459 -0.2717
  258TMC3    O1 3970   1.701   1.329  13.554 -0.1075  0.8473  0.3359
  258TMC3    O2 3971   1.426   1.659  13.144 -0.4048 -0.3268 -0.0237
  259MPD2     C 3972   0.380   3.226   0.332  0.4799 -0.0898 -0.0513
  259MPD2    C1 3973   0.435   3.100   0.314 -0.3254 -0.2690  0.0441
  259MPD2    C2 3974   0.444   3.044   0.190  0.4415  0.7035 -0.1501
  259MPD2    C3 3975   0.413   3.123   0.081 -0.5034 -0.1398  0.4404
  259MPD2    C4 3976   0.350   3.248   0.100  0.1071 -0.2693  0.7041
  259MPD2    C5 3977   0.336   3.293   0.225 -0.6048 -0.0480 -0.2131
  259MPD2     H 3978   0.494   2.949   0.175  0.0944  0.4839  0.0965
  259MPD2    H1 3979   0.307   3.307   0.020  3.2925 -0.1600 -0.9382
  259MPD2    H2 3980   0.359   3.265   0.431  0.1117 -0.4454  0.0093
  259MPD2    H3 3981   0.298   3.391   0.253  1.6565  0.0526  2.5656
  259MPD2     N 3982   0.445   3.070  17.690 -0.1435  0.0423 -0.4377
  259MPD2    H5 3983   0.495   2.982  17.689  0.3121  0.3175 -1.6759
  259MPD2    N1 3984   0.472   3.034   0.431 -0.0833  0.0387 -0.4131
  259MPD2    H7 3985   0.453   3.080   0.520 -0.2126 -0.4963 -0.1653
  260TMC3    C1 3986   0.404   3.039  17.460 -0.1748  0.3202  0.9503
  260TMC3    C2 3987   0.506   3.074  17.376  0.1482 -0.0039  0.0242
  260TMC3    C3 3988   0.558   2.977  17.296 -0.2073 -0.6720 -0.3584
  260TMC3    C4 3989   0.360   2.908  17.484  0.0333  0.1349  0.8888
  260TMC3    C5 3990   0.421   2.813  17.402 -0.4561 -0.5672 -0.8456
  260TMC3    C6 3991   0.512   2.846  17.303  0.1315  0.0270  0.3282
  260TMC3     C 3992   0.413   3.130  17.569 -0.1487 -0.8722 -0.0021
  260TMC3     O 3993   0.383   3.246  17.541  0.1941  0.1999 -0.0243
  260TMC3     H 3994   0.553   3.172  17.380  0.4556 -0.0813 -1.4759
  260TMC3    H1 3995   0.285   2.890  17.560 -0.0160 -1.0768  0.5567
  260TMC3    H2 3996   0.553   2.772  17.235  4.4179  2.1304  0.6456
  260TMC3    C7 3997   0.453   2.690  17.460  0.2107 -0.1181 -0.3593
  260TMC3    C8 3998   0.702   2.985  17.311 -0.6808 -0.0771 -0.2132
  260TMC3    O1 3999   0.543   2.625  17.407  0.0203  0.1697 -0.2842
  260TMC3    O2 4000   0.752   3.088  17.280 -0.2898  0.3507 -0.7111
  261MPD2     C 4001   2.160   2.166  12.452  0.0572 -0.1045  0.3147
  261MPD2    C1 4002   2.162   2.302  12.464 -0.5406 -0.6616 -0.1379
  261MPD2    C2 4003   2.230   2.372  12.373 -0.6543  0.6055 -0.6021
  261MPD2    C3 4004   2.318   2.308  12.283  0.0397  0.1971  0.2446
  261MPD2    C4 4005   2.321   2.170  12.281  0.7655  0.6730 -0.1924
  261MPD2    C5 4006   2.237   2.101  12.360 -0.6524 -0.0915 -0.1676
  261MPD2     H 4007   2.224   2.480  12.365 -3.9491  0.2926 -2.3225
  261MPD2    H1 4008   2.396   2.118  12.223  0.4459  0.7810 -0.7074
  261MPD2    H2 4009   2.097   2.105  12.516 -1.8356  2.7678  1.1987
  261MPD2    H3 4010   2.243   1.993  12.362  0.4756 -0.0221 -0.1162
  261MPD2     N 4011   2.403   2.394  12.212  0.7400  0.2341 -0.2159
  261MPD2    H5 4012   2.367   2.489  12.207 -0.5113 -0.3306 -1.7610
  261MPD2    N1 4013   2.089   2.384  12.563  0.0378 -0.0221  0.2226
  261MPD2    H7 4014   2.126   2.475  12.587  0.0602 -0.8130  3.1792
  262TMC3    C1 4015   2.568   2.501  12.089  0.4835 -0.0623  0.0372
  262TMC3    C2 4016   2.506   2.622  12.116 -0.3907 -0.4681 -0.6680
  262TMC3    C3 4017   2.552   2.722  12.039  0.2803 -0.0660  0.6415
  262TMC3    C4 4018   2.678   2.482  12.011  0.5809 -0.1268 -0.0594
  262TMC3    C5 4019   2.719   2.591  11.943 -0.1761  0.2263  0.3039
  262TMC3    C6 4020   2.654   2.706  11.952  0.4929  0.0813 -0.3033
  262TMC3     C 4021   2.516   2.378  12.137  0.0677 -0.5821  0.0464
  262TMC3     O 4022   2.569   2.275  12.098  0.1258  0.0887  0.5932
  262TMC3     H 4023   2.434   2.628  12.197  0.7544 -0.1454  0.3122
  262TMC3    H1 4024   2.728   2.387  11.998  1.0235 -0.1141  1.4875
  262TMC3    H2 4025   2.680   2.791  11.890  1.0108  0.2532  0.1457
  262TMC3    C7 4026   2.848   2.587  11.874  1.0219 -0.1542 -0.0255
  262TMC3    C8 4027   2.497   2.851  12.047 -0.5115 -0.7659  0.1334
  262TMC3    O1 4028   2.912   2.482  11.873 -0.0189  0.0882 -0.2223
  262TMC3    O2 4029   2.572   2.935  12.002  0.0995 -0.8768 -0.1920
  263MPD2     C 4030   3.296   1.222  10.953  0.2050  0.3436  0.1098
  263MPD2    C1 4031   3.381   1.251  11.059  0.2460 -0.0216  0.8271
  263MPD2    C2 4032   3.486   1.344  11.041 -0.4510 -0.2648  0.8403
  263MPD2    C3 4033   3.512   1.401  10.919  0.3113 -0.7566 -0.3524
  263MPD2    C4 4034   3.422   1.369  10.814  0.2449  0.3701  0.4587
  263MPD2    C5 4035   3.311   1.287  10.833 -1.0406 -0.1459 -0.6238
  263MPD2     H 4036   3.556   1.372  11.119 -0.4999 -0.5825  0.9973
  263MPD2    H1 4037   3.429   1.423  10.719  0.4616  2.0914  1.4498
  263MPD2    H2 4038   3.212   1.155  10.968  0.7189 -0.4163 -0.4274
  263MPD2    H3 4039   3.237   1.265  10.756  0.3255 -1.9050 -1.4485
  263MPD2     N 4040   3.624   1.490  10.911 -0.2710 -0.3825 -0.1777
  263MPD2    H5 4041   3.686   1.484  10.992 -1.5383 -1.4600  0.7088
  263MPD2    N1 4042   3.363   1.171  11.171  0.6698  1.0718  0.2376
  263MPD2    H7 4043   3.284   1.108  11.169  0.5653  1.1951  0.6477
  264TMC3    C1 4044   3.783   1.637  10.825  0.0215 -0.2926 -0.0919
  264TMC3    C2 4045   3.802   1.665  10.955  0.2023 -0.1147  0.3241
  264TMC3    C3 4046   3.926   1.700  10.990  0.0798  0.2318 -0.2067
  264TMC3    C4 4047   3.890   1.643  10.732 -0.7358 -0.0807  0.6467
  264TMC3    C5 4048   4.012   1.675  10.776  0.5353  0.1019  0.9253
  264TMC3    C6 4049   4.034   1.709  10.906 -0.1142  0.7465 -0.2158
  264TMC3     C 4050   3.669   1.550  10.795  0.1832 -1.0571 -0.5651
  264TMC3     O 4051   3.631   1.541  10.681  0.3813  0.3178 -0.1313
  264TMC3     H 4052   3.713   1.686  11.013  1.4996  3.4182  1.0737
  264TMC3    H1 4053   3.880   1.611  10.629 -2.5956 -0.7739  1.0347
  264TMC3    H2 4054   4.131   1.734  10.946 -0.2960 -0.1707  0.7932
  264TMC3    C7 4055   4.120   1.697  10.675  0.4533  0.4679  0.2590
  264TMC3    C8 4056   3.952   1.773  11.110  0.2764  0.6174  0.1592
  264TMC3    O1 4057   4.099   1.655  10.562 -0.1836  0.1796  0.3542
  264TMC3    O2 4058   4.024   1.870  11.088 -0.0781  0.4235  0.2562
  265MPD2     C 4059   0.277   1.649  15.156  0.2478 -0.0782 -0.6803
  265MPD2    C1 4060   0.374   1.746  15.181 -0.1916  0.6439 -0.4328
  265MPD2    C2 4061   0.507   1.725  15.128 -0.9930  0.1783  0.4901
  265MPD2    C3 4062   0.535   1.602  15.067  0.7730 -1.1654 -0.0110
  265MPD2    C4 4063   0.432   1.514  15.035  0.6750 -0.2071 -0.3565
  265MPD2    C5 4064   0.307   1.545  15.071 -0.4048  0.2374  0.3449
  265MPD2     H 4065   0.576   1.806  15.145 -0.7149  0.3814 -1.6652
  265MPD2    H1 4066   0.444   1.422  14.979  1.0011 -0.9303  0.9028
  265MPD2    H2 4067   0.175   1.656  15.192  0.5973  1.7717 -0.0560
  265MPD2    H3 4068   0.232   1.473  15.040 -1.1114  2.0206 -2.0957
  265MPD2     N 4069   0.661   1.554  15.025  0.4344  0.0023 -0.1524
  265MPD2    H5 4070   0.674   1.454  15.009  1.0345  0.0727 -0.0956
  265MPD2    N1 4071   0.337   1.860  15.263 -0.0184 -0.0156 -0.1831
  265MPD2    H7 4072   0.378   1.949  15.237  0.9108 -0.6060 -0.7221
  266TMC3    C1 4073   0.205   1.998  15.406 -0.0079  0.1833  0.2628
  266TMC3    C2 4074   0.167   2.002  15.533 -0.0617  0.5529  0.5229
  266TMC3    C3 4075   0.159   2.120  15.597  0.5112 -0.1149  0.1846
  266TMC3    C4 4076   0.237   2.118  15.335  0.0213 -0.1013  0.8606
  266TMC3    C5 4077   0.212   2.231  15.403  0.1235  0.7665  0.1603
  266TMC3    C6 4078   0.168   2.235  15.529 -0.0637  0.7695 -0.4716
  266TMC3     C 4079   0.226   1.868  15.345 -0.4962  0.6364  0.5591
  266TMC3     O 4080   0.152   1.781  15.383 -0.8063  0.0649  0.3334
  266TMC3     H 4081   0.161   1.909  15.589 -0.0271  2.0434  3.0027
  266TMC3    H1 4082   0.279   2.120  15.235  0.3354 -0.2693  0.9889
  266TMC3    H2 4083   0.143   2.328  15.579 -3.3225  0.5996 -1.7555
  266TMC3    C7 4084   0.227   2.353  15.320  0.2696 -0.0004  0.0955
  266TMC3    C8 4085   0.173   2.115  15.743 -0.8041  0.5838  0.1949
  266TMC3    O1 4086   0.225   2.350  15.198 -0.5113  0.1160 -0.5499
  266TMC3    O2 4087   0.120   2.017  15.805  0.5730  0.4210  0.1159
  267MPD2     C 4088   3.077   3.059   0.355 -0.4056 -0.2409  0.2054
  267MPD2    C1 4089   3.050   3.126   0.233 -0.6249  0.5829  0.0240
  267MPD2    C2 4090   2.934   3.199   0.221  0.1573 -0.3159 -0.1500
  267MPD2    C3 4091   2.845   3.210   0.324 -0.6803  0.2668 -0.1471
  267MPD2    C4 4092   2.878   3.156   0.445  0.1778 -0.2409 -0.1194
  267MPD2    C5 4093   2.995   3.082   0.459 -0.1672  0.1881 -0.0444
  267MPD2     H 4094   2.911   3.232   0.120  0.7663  1.6555  0.3516
  267MPD2    H1 4095   2.813   3.165   0.531 -1.2510  0.0617 -1.2154
  267MPD2    H2 4096   3.166   2.998   0.367 -0.4534 -0.0431  1.5316
  267MPD2    H3 4097   3.013   3.027   0.551  1.7657  0.7180 -0.0987
  267MPD2     N 4098   2.714   3.269   0.312  0.4440  1.1645 -0.2365
  267MPD2    H5 4099   2.659   3.269   0.397 -2.6250  0.7126 -2.2279
  267MPD2    N1 4100   3.132   3.095   0.122  0.3836 -0.2447  0.6083
  267MPD2    H7 4101   3.218   3.048   0.150  1.6105 -0.0005 -2.7563
  268TMC3    C1 4102   3.253   3.141  17.663 -0.5829 -0.3365  0.4029
  268TMC3    C2 4103   3.302   3.256  17.599 -0.1540 -0.4502  0.6293
  268TMC3    C3 4104   3.432   3.273  17.598  0.1486  0.1565 -0.5052
  268TMC3    C4 4105   3.335   3.044  17.715  0.0472 -0.4034  0.0664
  268TMC3    C5 4106   3.471   3.069  17.719 -0.3490 -0.6711  0.2431
  268TMC3    C6 4107   3.523   3.188  17.666  0.0623  0.6294 -0.4537
  268TMC3     C 4108   3.135   3.163   0.006 -0.3016  0.6633  0.1242
  268TMC3     O 4109   3.072   3.263  17.719  0.1756  0.1716  0.3605
  268TMC3     H 4110   3.238   3.326  17.546 -0.6936 -0.8586  0.7372
  268TMC3    H1 4111   3.292   2.947  17.736 -0.0709 -0.0450  1.4977
  268TMC3    H2 4112   3.630   3.202  17.678 -0.2697  2.9338 -0.2035
  268TMC3    C7 4113   3.529   3.027   0.105  0.7372 -1.0222 -0.2615
  268TMC3    C8 4114   3.495   3.376  17.514  0.4308  0.3293  0.4045
  268TMC3    O1 4115   3.444   2.999   0.190  0.8153  0.3068 -0.5600
  268TMC3    O2 4116   3.610   3.404  17.538 -0.1211 -0.2824  0.1278
  269MPD2     C 4117   3.267   2.458  15.208 -0.2682  0.5670 -0.2440
  269MPD2    C1 4118   3.140   2.475  15.255  0.1720 -0.2351  0.1576
  269MPD2    C2 4119   3.092   2.607  15.261 -0.0334  0.3561  0.0228
  269MPD2    C3 4120   3.165   2.719  15.238  1.1380 -0.3438  0.4943
  269MPD2    C4 4121   3.290   2.689  15.190 -0.1345  0.1336 -0.2790
  269MPD2    C5 4122   3.332   2.570  15.163  0.2711 -0.1116 -0.6918
  269MPD2     H 4123   3.000   2.626  15.316  0.3195  0.2691  0.6399
  269MPD2    H1 4124   3.360   2.771  15.178  1.7790 -1.1448  2.0960
  269MPD2    H2 4125   3.296   2.360  15.172  1.0282  0.7664  0.2679
  269MPD2    H3 4126   3.432   2.561  15.122  0.3154  1.7695 -0.9787
  269MPD2     N 4127   3.113   2.848  15.258 -0.5434  0.0877 -0.4839
  269MPD2    H5 4128   3.022   2.852  15.302 -0.5776  2.4364 -0.7966
  269MPD2    N1 4129   3.068   2.355  15.284  0.4159  0.1178  0.0519
  269MPD2    H7 4130   3.114   2.268  15.256 -0.4315  0.3179 -1.9780
  270TMC3    C1 4131   2.895   2.217  15.355  0.6652  1.1065 -0.3928
  270TMC3    C2 4132   2.781   2.190  15.282 -0.6191  0.6211  0.6669
  270TMC3    C3 4133   2.745   2.054  15.266  0.6870  0.2260 -0.2313
  270TMC3    C4 4134   2.964   2.128  15.429  1.0595  0.0116 -0.4453
  270TMC3    C5 4135   2.920   2.001  15.425 -0.3888  0.1756  0.0783
  270TMC3    C6 4136   2.803   1.963  15.354  0.0977 -0.5489  0.0301
  270TMC3     C 4137   2.945   2.350  15.347 -0.1666  0.1223 -0.6247
  270TMC3     O 4138   2.871   2.440  15.379 -0.1042  0.0708  0.2467
  270TMC3     H 4139   2.740   2.271  15.224 -2.4530  1.1884  2.7547
  270TMC3    H1 4140   3.054   2.163  15.480  2.2304 -1.5202 -1.4720
  270TMC3    H2 4141   2.755   1.866  15.354 -0.4297 -0.2854 -1.0429
  270TMC3    C7 4142   3.006   1.894  15.477  0.8388 -0.0747  0.3803
  270TMC3    C8 4143   2.721   2.003  15.133 -0.1650 -0.4627 -0.5009
  270TMC3    O1 4144   2.982   1.778  15.444  0.5725  0.2054  0.1657
  270TMC3    O2 4145   2.764   1.894  15.103  0.4867 -0.0341 -0.2977
  271MPD2     C 4146   2.677   2.331  13.512  0.0786  0.2267 -0.2792
  271MPD2    C1 4147   2.582   2.235  13.533 -0.2360 -0.2845 -0.0510
  271MPD2    C2 4148   2.451   2.266  13.541 -0.5152  0.5049  0.3668
  271MPD2    C3 4149   2.419   2.394  13.519 -0.4491  0.4815 -0.7538
  271MPD2    C4 4150   2.511   2.487  13.480  0.2225  0.2686  0.2212
  271MPD2    C5 4151   2.643   2.454  13.469  0.2790  0.1525 -0.0471
  271MPD2     H 4152   2.373   2.194  13.564 -1.2918  1.1987 -0.0513
  271MPD2    H1 4153   2.482   2.587  13.452  1.3728  0.0018 -1.9459
  271MPD2    H2 4154   2.781   2.301  13.521  0.0464  0.3088  0.3645
  271MPD2    H3 4155   2.723   2.523  13.442  0.8631 -0.2929  0.5402
  271MPD2     N 4156   2.284   2.440  13.536 -0.2923 -0.1624  0.2906
  271MPD2    H5 4157   2.259   2.534  13.508 -1.4302 -0.2626  0.9510
  271MPD2    N1 4158   2.614   2.101  13.571 -0.4772 -0.0084  0.1509
  271MPD2    H7 4159   2.545   2.055  13.630 -0.2825 -0.9668 -0.3531
  272TMC3    C1 4160   2.754   1.944  13.661  0.1289 -0.3556 -0.5099
  272TMC3    C2 4161   2.864   1.861  13.647  0.7396  0.4282 -1.0220
  272TMC3    C3 4162   2.902   1.793  13.757  0.0438 -0.1069 -0.6494
  272TMC3    C4 4163   2.686   1.969  13.775 -0.0679 -0.1909 -0.6123
  272TMC3    C5 4164   2.733   1.898  13.886  0.0003  0.4026 -0.3930
  272TMC3    C6 4165   2.842   1.816  13.874  0.1425 -0.5311 -0.2520
  272TMC3     C 4166   2.738   2.043  13.556  0.0372  0.3957  0.5358
  272TMC3     O 4167   2.818   2.047  13.465  0.1795 -0.3627 -0.0945
  272TMC3     H 4168   2.919   1.857  13.554 -0.8475  1.6648 -2.0064
  272TMC3    H1 4169   2.597   2.029  13.788  0.8854  1.0043  0.4374
  272TMC3    H2 4170   2.881   1.768  13.963 -1.3176 -2.0834 -0.4495
  272TMC3    C7 4171   2.721   1.975  14.004  0.6278  0.0538  1.0461
  272TMC3    C8 4172   3.030   1.733  13.757 -0.0012 -0.0586  0.4553
  272TMC3    O1 4173   2.710   1.907  14.105  0.6644 -1.1095 -0.2542
  272TMC3    O2 4174   3.100   1.777  13.672  0.2130  0.1931  0.1274
  273MPD2     C 4175   3.718   4.640  10.766 -0.4468 -0.6053  0.9838
  273MPD2    C1 4176   3.834   4.718  10.783 -0.5358 -0.4759  0.2712
  273MPD2    C2 4177   3.846   0.104  10.721 -1.2447 -0.0683 -0.5380
  273MPD2    C3 4178   3.754   0.136  10.619 -0.3754  0.0303 -0.7257
  273MPD2    C4 4179   3.647   0.052  10.598 -0.5491  0.0242  0.2238
  273MPD2    C5 4180   3.628   4.677  10.670  1.1430 -0.3142 -0.9223
  273MPD2     H 4181   3.925   0.172  10.750 -4.0496  2.5456  0.9182
  273MPD2    H1 4182   3.562   0.078  10.535 -3.2524 -1.2468  3.3596
  273MPD2    H2 4183   3.713   4.538  10.804 -2.4674  0.2937  3.0995
  273MPD2    H3 4184   3.555   4.603  10.639  1.0551 -0.2622 -0.8423
  273MPD2     N 4185   3.758   0.264  10.550 -1.1229 -0.3642  0.5223
  273MPD2    H5 4186   3.672   0.304  10.515 -1.0380 -1.6107 -1.1117
  273MPD2    N1 4187   3.918   4.667  10.887 -0.2853 -0.3205 -0.3739
  273MPD2    H7 4188   3.858   4.618  10.953  1.8413 -2.4214 -0.0053
  274TMC3    C1 4189   3.834   0.484  10.527  0.3090  0.6474 -0.2075
  274TMC3    C2 4190   3.719   0.519  10.460 -0.4103  0.3947 -0.0871
  274TMC3    C3 4191   3.680   0.643  10.485 -0.2656 -0.2757  0.3967
  274TMC3    C4 4192   3.900   0.577  10.602 -0.0222  0.2342  0.6302
  274TMC3    C5 4193   3.864   0.709  10.611 -0.1594  0.8916  0.4122
  274TMC3    C6 4194   3.751   0.741  10.550 -0.1605  0.5080  0.0576
  274TMC3     C 4195   3.871   0.348  10.557  0.4393 -0.3652 -0.2658
  274TMC3     O 4196   3.983   0.323  10.601  0.2081 -0.0099 -0.2771
  274TMC3     H 4197   3.671   0.453  10.390 -0.7500  0.1451  0.3819
  274TMC3    H1 4198   3.993   0.550  10.650  0.2331  2.0507  1.1765
  274TMC3    H2 4199   3.699   0.833  10.573 -0.8192 -0.0806  0.9188
  274TMC3    C7 4200   3.869   0.764  10.744  0.0107  0.6204  0.1695
  274TMC3    C8 4201   3.541   0.670  10.456 -0.3041 -0.0712 -0.3773
  274TMC3    O1 4202   3.795   0.857  10.763  0.3074 -0.2416  0.4679
  274TMC3    O2 4203   3.468   0.574  10.447 -0.1954 -0.2973 -0.1323
  275MPD2     C 4204   3.976   2.966  14.253  0.0417  0.5694  0.0526
  275MPD2    C1 4205   3.880   3.053  14.295 -0.5936  0.8069 -0.0756
  275MPD2    C2 4206   3.750   3.019  14.266 -0.2417  0.2865 -0.6257
  275MPD2    C3 4207   3.707   2.920  14.189 -0.0726  0.2096 -0.1564
  275MPD2    C4 4208   3.810   2.838  14.144 -0.3586 -0.5030  0.4561
  275MPD2    C5 4209   3.939   2.859  14.176  0.1250 -0.0703  0.3261
  275MPD2     H 4210   3.672   3.080  14.309 -0.6293  0.1302 -1.1077
  275MPD2    H1 4211   3.783   2.746  14.093  0.3452 -0.3692 -0.1595
  275MPD2    H2 4212   4.081   2.986  14.270  0.2597  0.0826 -0.7057
  275MPD2    H3 4213   4.002   2.784  14.129 -0.8466 -0.4980 -0.2884
  275MPD2     N 4214   3.577   2.885  14.155 -0.2061  0.5959 -0.2268
  275MPD2    H5 4215   3.579   2.789  14.123 -1.8520  1.0140 -1.5332
  275MPD2    N1 4216   3.904   3.168  14.372  0.2813 -0.0887 -0.8122
  275MPD2    H7 4217   3.821   3.219  14.400  2.0023  0.4956  3.1601
  276TMC3    C1 4218   4.017   3.301  14.523  0.2879  0.1736 -0.2634
  276TMC3    C2 4219   3.896   3.341  14.572 -0.5751  0.3603  0.3311
  276TMC3    C3 4220   3.888   3.362  14.712  0.2339  0.0178 -0.2532
  276TMC3    C4 4221   4.130   3.293  14.605 -0.6225  0.1965 -0.3231
  276TMC3    C5 4222   4.109   3.308  14.735  0.5764 -1.2077 -0.0626
  276TMC3    C6 4223   3.988   3.342  14.790 -0.1113  0.1280 -0.5431
  276TMC3     C 4224   4.024   3.218  14.401  0.0085  0.1524  0.3291
  276TMC3     O 4225   4.135   3.180  14.360 -0.2157 -0.2601  0.2629
  276TMC3     H 4226   3.810   3.362  14.510 -0.9416  0.4635  0.8685
  276TMC3    H1 4227   4.227   3.274  14.562 -0.6456  0.3469 -0.4401
  276TMC3    H2 4228   3.975   3.371  14.894  2.1948  3.3354 -1.1646
  276TMC3    C7 4229   4.216   3.319  14.826  0.2861 -0.1865  0.0399
  276TMC3    C8 4230   3.772   3.281  14.742 -0.6882 -0.4024  0.2254
  276TMC3    O1 4231   4.192   3.354  14.939 -0.3885  0.6494 -0.3900
  276TMC3    O2 4232   3.666   3.330  14.708  0.2342  0.0114  0.1431
  277MPD2     C 4233   0.816   2.736  13.244 -0.4236 -0.6809 -0.0664
  277MPD2    C1 4234   0.690   2.756  13.298  0.3984  0.2236  0.4811
  277MPD2    C2 4235   0.630   2.645  13.351  0.3922  0.3233 -0.1854
  277MPD2    C3 4236   0.681   2.515  13.358  0.4245  0.0118  0.2366
  277MPD2    C4 4237   0.808   2.502  13.311  0.0510  0.0506 -0.6791
  277MPD2    C5 4238   0.868   2.613  13.257  0.0388  0.0605  0.8235
  277MPD2     H 4239   0.530   2.640  13.391  0.6893 -0.5636  0.4503
  277MPD2    H1 4240   0.851   2.403  13.309  1.2916  0.5891 -0.6099
  277MPD2    H2 4241   0.863   2.817  13.188  1.8128 -1.0973  1.2065
  277MPD2    H3 4242   0.962   2.597  13.207 -0.9631 -0.1405 -1.0120
  277MPD2     N 4243   0.607   2.413  13.418  0.2833  0.4227  0.7157
  277MPD2    H5 4244   0.510   2.431  13.442 -0.2815 -1.3090 -0.2407
  277MPD2    N1 4245   0.630   2.881  13.280 -0.0891  0.1625  0.0599
  277MPD2    H7 4246   0.676   2.951  13.223  0.2221  0.0619  0.1888
  278TMC3    C1 4247   0.542   2.176  13.449 -0.2089  0.2611 -0.4081
  278TMC3    C2 4248   0.569   2.050  13.408 -0.4003 -0.6688 -0.1394
  278TMC3    C3 4249   0.488   1.947  13.448  0.2442  0.4664  0.5785
  278TMC3    C4 4250   0.446   2.202  13.538  0.2589  0.1719 -0.2503
  278TMC3    C5 4251   0.365   2.095  13.578  0.8313 -0.3203  0.0973
  278TMC3    C6 4252   0.383   1.972  13.530  0.2418 -0.2099  0.3717
  278TMC3     C 4253   0.641   2.276  13.411 -0.0173 -0.4215  0.0361
  278TMC3     O 4254   0.753   2.229  13.401  0.5895 -0.2102  0.0622
  278TMC3     H 4255   0.662   2.033  13.354  0.1272 -3.8035  1.7966
  278TMC3    H1 4256   0.425   2.303  13.571  0.1414  0.2443 -0.5507
  278TMC3    H2 4257   0.317   1.895  13.569  1.8395 -1.2526  1.0111
  278TMC3    C7 4258   0.282   2.110  13.700 -0.1398 -0.3357  0.3774
  278TMC3    C8 4259   0.478   1.834  13.355 -0.2081 -0.6191  0.7255
  278TMC3    O1 4260   0.287   2.223  13.753  0.0585 -0.1578  0.0382
  278TMC3    O2 4261   0.555   1.848  13.256 -0.0379  0.1886  0.1960
  279MPD2     C 4262   4.264   1.483  17.725 -0.1853 -0.7429  0.0440
  279MPD2    C1 4263   4.304   1.613  17.714  0.0631  0.1977 -0.0972
  279MPD2    C2 4264   4.337   1.652  17.584  0.1161  0.3255 -0.1650
  279MPD2    C3 4265   4.306   1.572  17.475 -0.3065  0.7741 -0.2752
  279MPD2    C4 4266   4.238   1.458  17.489  0.4633  0.5486 -0.2490
  279MPD2    C5 4267   4.216   1.414  17.615 -0.3477 -0.3890 -0.6719
  279MPD2     H 4268   4.384   1.749  17.576 -1.9232  1.5006  2.0915
  279MPD2    H1 4269   4.207   1.398  17.404 -0.8324  1.3223 -0.3277
  279MPD2    H2 4270   4.243   1.432   0.077 -1.1292  0.2922  0.3964
  279MPD2    H3 4271   4.175   1.314  17.624 -0.2813 -0.4577 -1.0936
  279MPD2     N 4272   4.351   1.610  17.340 -0.0025  0.4219 -0.3969
  279MPD2    H5 4273   4.304   1.575  17.258 -1.0911  1.1945 -0.0968
  279MPD2    N1 4274   4.329   1.700   0.086 -0.2081  0.4143  0.8382
  279MPD2    H7 4275   4.327   1.650   0.174  0.2662 -1.0515  0.0300
  280TMC3    C1 4276   4.334   1.888   0.221  0.2927  0.5685 -0.1078
  280TMC3    C2 4277   4.418   1.830   0.316  0.0792  0.1319  0.6912
  280TMC3    C3 4278   4.415   1.882   0.441  0.1793 -0.0024 -0.1985
  280TMC3    C4 4279   4.250   1.987   0.256  0.4472 -0.3490  0.2552
  280TMC3    C5 4280   4.262   2.047   0.376 -0.1941 -1.0440 -0.5363
  280TMC3    C6 4281   4.336   1.987   0.482  0.3978 -0.4392  0.3021
  280TMC3     C 4282   4.306   1.834   0.090  0.1009  0.2226 -0.4186
  280TMC3     O 4283   4.236   1.891   0.009  0.0513 -0.1160 -0.1193
  280TMC3     H 4284   4.485   1.751   0.285 -1.1065 -0.4603 -0.3698
  280TMC3    H1 4285   4.200   2.037   0.174 -1.1230 -1.1813  0.6946
  280TMC3    H2 4286   4.365   2.042   0.570  0.1867  0.9784 -0.5155
  280TMC3    C7 4287   4.167   2.147   0.416  0.1964  0.0198  0.1065
  280TMC3    C8 4288   4.518   1.837   0.529  0.1968  1.4461  0.0225
  280TMC3    O1 4289   4.171   2.189   0.531  0.3242  0.6318 -0.5804
  280TMC3    O2 4290   4.603   1.769   0.473  0.8198  0.3585 -0.7485
  281TMC3    C1 4291   3.602   2.340  13.091 -0.1355  0.2140 -0.1273
  281TMC3    C2 4292   3.702   2.400  13.027  0.4719 -0.4734  0.0648
  281TMC3    C3 4293   3.771   2.326  12.933 -0.0252  0.6736 -0.2554
  281TMC3    C4 4294   3.556   2.210  13.064 -0.0816  0.0122 -0.2895
  281TMC3    C5 4295   3.636   2.138  12.974 -0.0170  0.0002  0.4303
  281TMC3    C6 4296   3.744   2.195  12.914 -0.3561 -0.2621  0.5970
  281TMC3     C 4297   3.523   2.403  13.205 -1.0321 -0.2486 -0.8732
  281TMC3     O 4298   3.470   2.333  13.286 -0.6090  0.1046 -0.9008
  281TMC3     H 4299   3.742   2.495  13.061 -0.7486  0.2957 -0.6468
  281TMC3    H1 4300   3.466   2.162  13.100  0.8014 -0.5941  1.1173
  281TMC3    H2 4301   3.790   2.131  12.839 -1.8146 -0.0662 -0.4688
  281TMC3    C7 4302   3.578   2.016  12.949 -0.7394  0.3577  0.4421
  281TMC3    C8 4303   3.910   2.365  12.889  0.3499  0.3938  0.1924
  281TMC3    O1 4304   3.646   1.912  12.958 -0.2038  0.1330 -0.3207
  281TMC3    O2 4305   3.990   2.271  12.894  0.1397  0.4373 -0.2854
  282MPD2     C 4306   0.640   3.758  15.051  0.6719  0.2944  0.2600
  282MPD2    C1 4307   0.515   3.822  15.042 -0.0675  0.0444  0.0393
  282MPD2    C2 4308   0.467   3.853  14.911  0.5031 -0.1859 -0.1558
  282MPD2    C3 4309   0.521   3.794  14.799  0.2451  0.7371 -0.1097
  282MPD2    C4 4310   0.637   3.729  14.820 -0.8294  0.4909 -0.2317
  282MPD2    C5 4311   0.696   3.710  14.941 -0.2409 -0.1786  0.3937
  282MPD2     H 4312   0.376   3.911  14.901  1.1369  0.6452 -1.1314
  282MPD2    H1 4313   0.682   3.680  14.735 -1.7076  0.0363 -0.4339
  282MPD2    H2 4314   0.697   3.736  15.140 -1.4698 -2.3295  0.9811
  282MPD2    H3 4315   0.785   3.648  14.951  0.4403  1.4663  4.3885
  282MPD2     N 4316   0.453   3.805  14.674  0.0746 -0.3839 -0.4593
  282MPD2    H5 4317   0.363   3.851  14.678 -1.0337 -2.4104 -2.3987
  282MPD2    N1 4318   0.450   3.881  15.151 -0.1406 -0.5730 -0.0445
  282MPD2    H7 4319   0.372   3.944  15.131 -0.4276 -0.8219  0.2794
  283TMC3    C1 4320   0.339   3.856  15.365  0.2712 -0.0316 -0.7773
  283TMC3    C2 4321   0.276   3.982  15.362  0.5913 -0.5525 -0.1088
  283TMC3    C3 4322   0.159   3.996  15.431 -0.2563 -0.2797 -0.5744
  283TMC3    C4 4323   0.299   3.756  15.445 -0.1777 -0.2991 -0.4245
  283TMC3    C5 4324   0.185   3.776  15.517 -0.3339  0.3806 -0.0854
  283TMC3    C6 4325   0.119   3.897  15.518 -0.4314  0.1688  0.3003
  283TMC3     C 4326   0.450   3.827  15.277  0.1053 -0.1082  0.2878
  283TMC3     O 4327   0.540   3.757  15.324 -0.2511  0.0540 -0.0581
  283TMC3     H 4328   0.315   4.068  15.307  0.9538 -0.5020  0.2304
  283TMC3    H1 4329   0.356   3.664  15.452  0.7779  0.4308  1.3261
  283TMC3    H2 4330   0.030   3.911  15.578 -0.0441  1.3622  0.6093
  283TMC3    C7 4331   0.135   3.671  15.593  0.1291 -0.1369  0.7345
  283TMC3    C8 4332   0.087   4.130  15.415 -0.0095 -1.1701 -0.6541
  283TMC3    O1 4333   0.047   3.711  15.671 -0.1379 -0.3559 -0.3330
  283TMC3    O2 4334   0.003   4.153  15.503 -0.1716  0.5117 -0.8256
  284MPD2     C 4335   3.379   3.120  11.906 -0.2050  0.3423  0.3734
  284MPD2    C1 4336   3.480   3.035  11.883 -0.0564 -0.2036  0.1600
  284MPD2    C2 4337   3.482   2.920  11.957 -1.5643 -0.4617  0.1691
  284MPD2    C3 4338   3.415   2.911  12.074  0.0224 -1.1742 -0.2346
  284MPD2    C4 4339   3.326   3.009  12.112 -0.2677  0.2381  0.2728
  284MPD2    C5 4340   3.304   3.115  12.026 -0.0385  0.8714 -0.3553
  284MPD2     H 4341   3.548   2.836  11.939  1.3236  1.4368  2.0111
  284MPD2    H1 4342   3.279   3.003  12.209  0.9914 -2.3037  0.7367
  284MPD2    H2 4343   3.377   3.210  11.845  0.8152  0.0957 -0.0182
  284MPD2    H3 4344   3.232   3.192  12.050  0.3583  0.4242  2.3028
  284MPD2     N 4345   3.443   2.803  12.169  0.2052  0.3845  0.2516
  284MPD2    H5 4346   3.445   2.824  12.268 -0.7217 -1.3357  0.6286
  284MPD2    N1 4347   3.570   3.062  11.781 -0.7637  0.7837  0.7203
  284MPD2    H7 4348   3.562   3.158  11.751 -0.1412  0.5678 -0.1305
  285TMC3    C1 4349   3.803   3.027  11.723 -0.2649  0.5457  0.3407
  285TMC3    C2 4350   3.919   2.954  11.753  0.4631 -0.0288  0.6205
  285TMC3    C3 4351   4.030   3.000  11.701 -0.0162  0.1849 -0.2345
  285TMC3    C4 4352   3.801   3.146  11.657 -0.1968  0.6446 -0.2264
  285TMC3    C5 4353   3.926   3.198  11.623  0.3261  0.3784  0.4603
  285TMC3    C6 4354   4.039   3.126  11.643  0.2647 -0.6955  0.1635
  285TMC3     C 4355   3.672   2.972  11.757 -0.1665  0.1548 -0.4642
  285TMC3     O 4356   3.678   2.848  11.772  0.0539  0.1103 -0.2057
  285TMC3     H 4357   3.910   2.862  11.810  0.7019 -0.2182  0.3515
  285TMC3    H1 4358   3.706   3.196  11.643 -1.4845 -1.4959  0.8654
  285TMC3    H2 4359   4.130   3.165  11.600  0.3898  0.1984  1.2252
  285TMC3    C7 4360   3.940   3.318  11.542 -0.7028  0.2741  0.0568
  285TMC3    C8 4361   4.106   2.897  11.636 -0.5583  0.0643 -0.4395
  285TMC3    O1 4362   4.049   3.347  11.497  0.2274  0.2919  0.4839
  285TMC3    O2 4363   4.067   2.781  11.646 -0.0137  0.3473  0.4785
  286MPD2     C 4364   3.472   1.240   1.502 -0.5857  0.4889  0.6095
  286MPD2    C1 4365   3.492   1.267   1.369  0.2568  0.5187  0.0736
  286MPD2    C2 4366   3.607   1.216   1.308 -0.0173  0.3777 -0.0986
  286MPD2    C3 4367   3.684   1.125   1.370  0.2854  0.1495  0.2657
  286MPD2    C4 4368   3.651   1.092   1.501  0.0785  0.6992 -0.2003
  286MPD2    C5 4369   3.548   1.150   1.570  0.2400  0.2911 -0.4397
  286MPD2     H 4370   3.627   1.239   1.204 -1.2926  1.0013 -0.2101
  286MPD2    H1 4371   3.708   1.009   1.542 -0.5709 -0.3216 -1.3624
  286MPD2    H2 4372   3.388   1.295   1.544  0.6888  1.8440  1.3838
  286MPD2    H3 4373   3.512   1.115   1.667 -0.8349  1.0124 -0.5746
  286MPD2     N 4374   3.794   1.055   1.313 -0.6867 -0.1484  0.3260
  286MPD2    H5 4375   3.839   0.985   1.372  1.9162  1.7707  0.6263
  286MPD2    N1 4376   3.408   1.359   1.301  0.2650  0.0073 -0.4265
  286MPD2    H7 4377   3.438   1.391   1.209  1.1077  3.1541  0.9324
  287TMC3    C1 4378   3.948   0.975   1.159  0.4477  0.0244 -0.0566
  287TMC3    C2 4379   3.975   0.955   1.025 -0.0067  0.0049 -0.4644
  287TMC3    C3 4380   4.092   0.880   1.000 -0.6751 -0.0668 -0.0429
  287TMC3    C4 4381   4.028   0.934   1.263  0.1156 -0.0974  0.1599
  287TMC3    C5 4382   4.145   0.859   1.238 -0.3190  0.3565  0.3233
  287TMC3    C6 4383   4.171   0.828   1.103 -0.1528  0.2924  0.0236
  287TMC3     C 4384   3.841   1.071   1.186  0.5907  0.0535 -0.1950
  287TMC3     O 4385   3.810   1.144   1.093  0.4140  0.3111 -0.5739
  287TMC3     H 4386   3.903   0.988   0.952 -2.5591 -2.2905  1.0335
  287TMC3    H1 4387   4.016   0.981   1.360 -1.8458  0.1372 -0.1877
  287TMC3    H2 4388   4.258   0.772   1.072 -3.1899 -3.9129 -0.9425
  287TMC3    C7 4389   4.253   0.847   1.342  0.2372 -0.2789 -0.4686
  287TMC3    C8 4390   4.124   0.852   0.867 -0.1738 -0.5814  0.2216
  287TMC3    O1 4391   4.235   0.926   1.435  0.0385 -0.8558  0.3036
  287TMC3    O2 4392   4.197   0.758   0.847  0.1830  0.0384 -0.2915
  288TMC3    C1 4393   1.368   1.452  14.343 -0.7615 -1.0080 -0.1310
  288TMC3    C2 4394   1.254   1.437  14.413 -0.3977 -0.2079  0.7661
  288TMC3    C3 4395   1.148   1.519  14.377 -0.3069  0.2350  0.2208
  288TMC3    C4 4396   1.383   1.538  14.241  0.6054  0.2699 -0.6265
  288TMC3    C5 4397   1.272   1.610  14.196  0.4415  0.4285  0.2858
  288TMC3    C6 4398   1.156   1.608  14.269 -0.1600 -0.2981 -0.4332
  288TMC3     C 4399   1.481   1.380  14.397  0.4543  0.3471 -0.1753
  288TMC3     O 4400   1.453   1.329  14.506  0.2247  0.4345  0.4907
  288TMC3     H 4401   1.242   1.379  14.504  0.5722 -0.3347  0.8124
  288TMC3    H1 4402   1.462   1.529  14.168  0.7738 -0.5540 -0.3418
  288TMC3    H2 4403   1.072   1.667  14.234  0.7252  1.2493  0.0319
  288TMC3    C7 4404   1.305   1.714  14.095 -0.5236 -0.2916 -0.5682
  288TMC3    C8 4405   1.023   1.513  14.447  0.3016  0.0669  0.4555
  288TMC3    O1 4406   1.417   1.753  14.095 -0.1682  0.0938 -0.3984
  288TMC3    O2 4407   0.958   1.617  14.441 -0.2276  0.5125  0.0771
  289MPD2     C 4408   1.124   0.544  14.116 -0.1049  0.1073  0.3929
  289MPD2    C1 4409   1.105   0.660  14.049 -0.1407 -0.2926 -0.4670
  289MPD2    C2 4410   0.997   0.665  13.962 -0.1989  0.2101  0.1691
  289MPD2    C3 4411   0.917   0.556  13.933  0.0733  0.2976  0.1825
  289MPD2    C4 4412   0.949   0.441  13.995  0.0270 -0.2007 -0.4824
  289MPD2    C5 4413   1.045   0.438  14.093  1.1629  0.1619  0.5945
  289MPD2     H 4414   0.992   0.758  13.907  0.8470  1.1328  1.6535
  289MPD2    H1 4415   0.907   0.345  13.968 -0.0968  0.0066 -1.0382
  289MPD2    H2 4416   1.193   0.540  14.200  1.0847  2.3881 -0.4693
  289MPD2    H3 4417   1.073   0.346  14.144 -1.5092 -1.3483 -0.6881
  289MPD2     N 4418   0.814   0.552  13.837 -0.3811 -0.2756 -0.1024
  289MPD2    H5 4419   0.784   0.462  13.801 -0.6908  0.3334 -1.3565
  289MPD2    N1 4420   1.192   0.766  14.081 -0.7162  0.3869 -0.1652
  289MPD2    H7 4421   1.253   0.741  14.159 -0.4012 -0.1171 -0.5690
  290TMC3    C1 4422   0.695   0.637  13.656  0.5204  0.3389 -0.0608
  290TMC3    C2 4423   0.696   0.726  13.552  0.0985 -0.3561  0.5384
  290TMC3    C3 4424   0.613   0.705  13.453 -0.0724  0.1874  0.5875
  290TMC3    C4 4425   0.599   0.545  13.674 -0.0924  0.0911  0.0168
  290TMC3    C5 4426   0.498   0.547  13.581  0.5315 -0.1636 -0.7167
  290TMC3    C6 4427   0.500   0.633  13.470  0.4177  0.1119 -0.2765
  290TMC3     C 4428   0.770   0.667  13.776  0.4842  0.2566  0.2655
  290TMC3     O 4429   0.772   0.785  13.808 -0.1150  0.5243  0.0274
  290TMC3     H 4430   0.777   0.798  13.556  0.0595 -0.1433 -2.5395
  290TMC3    H1 4431   0.594   0.498  13.772 -2.1356 -0.3678 -0.3095
  290TMC3    H2 4432   0.410   0.655  13.414  1.5773 -1.0020 -2.5847
  290TMC3    C7 4433   0.372   0.482  13.611  0.2678 -0.6693  0.3098
  290TMC3    C8 4434   0.609   0.807  13.346 -0.2102 -0.9118 -0.0953
  290TMC3    O1 4435   0.268   0.537  13.578  0.2856 -0.0722  0.5722
  290TMC3    O2 4436   0.543   0.788  13.243  0.0973 -0.2698 -0.5594
  291MPD2     C 4437   0.488   0.421   0.357  0.3792 -0.4929  0.7189
  291MPD2    C1 4438   0.468   0.322   0.272  0.0825 -0.4298  0.7587
  291MPD2    C2 4439   0.458   0.346   0.141  0.1493 -0.5083  0.5751
  291MPD2    C3 4440   0.452   0.477   0.103  0.4135  0.7093 -0.8739
  291MPD2    C4 4441   0.466   0.585   0.187  0.2869 -0.1433  0.7363
  291MPD2    C5 4442   0.476   0.548   0.321 -0.4618  0.7132  0.5507
  291MPD2     H 4443   0.439   0.268   0.067  1.6439 -0.5642  0.2419
  291MPD2    H1 4444   0.477   0.689   0.157 -1.1860 -0.4838 -1.0119
  291MPD2    H2 4445   0.502   0.396   0.462 -0.8377 -0.8460  0.8059
  291MPD2    H3 4446   0.482   0.629   0.393  0.3125  0.2966  0.9505
  291MPD2     N 4447   0.412   0.506  17.716  0.3851  0.4865  0.3156
  291MPD2    H5 4448   0.387   0.603  17.702  1.4370  0.7683  0.3552
  291MPD2    N1 4449   0.447   0.195   0.326 -0.0457 -0.4686  0.3469
  291MPD2    H7 4450   0.445   0.193   0.428  1.0657 -2.9335  0.3363
  292TMC3    C1 4451   0.389   4.701   0.341  0.5985 -0.7009  0.1495
  292TMC3    C2 4452   0.365   4.716   0.476 -0.5644 -0.2748  0.2824
  292TMC3    C3 4453   0.283   4.627   0.536  0.0187  0.7177  0.0438
  292TMC3    C4 4454   0.324   4.609   0.270  0.1772  0.0838 -0.2199
  292TMC3    C5 4455   0.234   4.521   0.332  0.4616  0.3952 -0.0585
  292TMC3    C6 4456   0.222   4.528   0.467 -0.9207  0.0529  0.1016
  292TMC3     C 4457   0.421   0.078   0.257  0.5126  1.0744 -0.3538
  292TMC3     O 4458   0.414   0.053   0.134 -0.0431 -0.3770  0.0251
  292TMC3     H 4459   0.431   0.039   0.539  0.1901  0.6512 -1.3580
  292TMC3    H1 4460   0.354   4.585   0.169  0.9513 -2.4316  0.5904
  292TMC3    H2 4461   0.155   4.453   0.507 -1.8194  0.1881 -1.1628
  292TMC3    C7 4462   0.186   4.409   0.256 -0.7497 -0.2127  0.0996
  292TMC3    C8 4463   0.254   4.653   0.676 -0.7692  0.3292 -0.3114
  292TMC3    O1 4464   0.176   4.297   0.308 -0.1276 -0.1748  0.5553
  292TMC3    O2 4465   0.277   0.025   0.732 -0.9354 -0.4918  0.2362
  293MPD2     C 4466   1.627   1.748  12.772  0.2863 -0.2043 -0.0597
  293MPD2    C1 4467   1.626   1.882  12.815  0.8771 -0.1308  0.1842
  293MPD2    C2 4468   1.702   1.903  12.933  0.4262  0.3719  0.0259
  293MPD2    C3 4469   1.757   1.807  13.018 -0.0112  0.5496  0.3478
  293MPD2    C4 4470   1.761   1.682  12.964 -0.2905 -0.7395 -0.3254
  293MPD2    C5 4471   1.688   1.652  12.847 -0.1570  0.3049  0.7087
  293MPD2     H 4472   1.715   2.006  12.963 -2.4882  1.0058 -0.9003
  293MPD2    H1 4473   1.816   1.603  13.014  1.7012 -0.0595 -1.4381
  293MPD2    H2 4474   1.585   1.714  12.678  1.0459  1.4876 -1.0005
  293MPD2    H3 4475   1.681   1.553  12.804  4.4600  0.4604 -0.3386
  293MPD2     N 4476   1.846   1.842  13.122  0.6855 -0.6343 -0.6494
  293MPD2    H5 4477   1.851   1.942  13.139  3.5521 -0.5709 -1.9688
  293MPD2    N1 4478   1.548   1.974  12.750  0.7934 -0.0149 -0.0788
  293MPD2    H7 4479   1.501   1.942  12.666  1.5680 -0.6241 -0.2857
  294TMC3    C1 4480   1.453   2.182  12.677  0.3794  0.8636 -0.1425
  294TMC3    C2 4481   1.362   2.107  12.612  1.0442 -0.0151  0.2721
  294TMC3    C3 4482   1.322   2.142  12.483  0.4882 -0.3568  0.2543
  294TMC3    C4 4483   1.517   2.281  12.605  0.2198 -0.4010 -0.0258
  294TMC3    C5 4484   1.483   2.312  12.475 -0.8609 -0.9791  0.5150
  294TMC3    C6 4485   1.378   2.251  12.416  0.9355  0.0225  0.1345
  294TMC3     C 4486   1.549   2.110  12.765 -0.6548  0.3685 -0.3904
  294TMC3     O 4487   1.614   2.168  12.849  0.0669  0.0448 -0.4673
  294TMC3     H 4488   1.311   2.033  12.673 -1.7175  1.1134 -0.6744
  294TMC3    H1 4489   1.604   2.328  12.650  1.0652  0.6077 -2.6802
  294TMC3    H2 4490   1.359   2.269  12.311 -2.4851  1.4846  1.0148
  294TMC3    C7 4491   1.530   2.431  12.418 -0.1276  0.1934  0.2249
  294TMC3    C8 4492   1.217   2.068  12.411  0.8908 -0.0440  0.1894
  294TMC3    O1 4493   1.567   2.517  12.495 -0.1439 -0.1555 -0.2368
  294TMC3    O2 4494   1.127   2.026  12.486  0.3791 -0.4267 -0.6595
  295MPD2     C 4495   1.942   0.849   0.932  0.1830  0.1737 -0.2038
  295MPD2    C1 4496   1.865   0.747   0.874 -0.5765  0.1471 -0.1635
  295MPD2    C2 4497   1.744   0.712   0.939  0.5736  0.1890  0.0330
  295MPD2    C3 4498   1.700   0.780   1.055 -0.3350  0.2148  0.4146
  295MPD2    C4 4499   1.785   0.876   1.103  0.1279  0.2632  0.3514
  295MPD2    C5 4500   1.908   0.899   1.054  0.0823  0.1160  0.2000
  295MPD2     H 4501   1.690   0.625   0.904 -1.6223  1.5563  0.0087
  295MPD2    H1 4502   1.771   0.923   1.200 -0.3679  1.7746 -0.4382
  295MPD2    H2 4503   2.038   0.879   0.893  0.2757  1.9773  1.4283
  295MPD2    H3 4504   1.975   0.971   1.100  0.2379  0.6918 -0.9049
  295MPD2     N 4505   1.583   0.758   1.134 -0.3477 -0.4709 -0.3394
  295MPD2    H5 4506   1.570   0.803   1.224 -1.5779 -0.0407 -0.7269
  295MPD2    N1 4507   1.891   0.680   0.753 -0.1143  0.3322  1.0082
  295MPD2    H7 4508   1.818   0.621   0.715 -0.1158  0.8944  0.1174
  296TMC3    C1 4509   1.387   0.651   1.210 -0.2956 -0.7310 -0.4648
  296TMC3    C2 4510   1.346   0.762   1.274  0.0043  0.3230 -0.2349
  296TMC3    C3 4511   1.242   0.749   1.361  0.4463 -0.1580 -0.2137
  296TMC3    C4 4512   1.331   0.522   1.228  0.4092  0.6532  0.1136
  296TMC3    C5 4513   1.242   0.521   1.335  0.4220 -0.0295 -1.6859
  296TMC3    C6 4514   1.196   0.627   1.403  0.4740  0.1871  0.0357
  296TMC3     C 4515   1.492   0.661   1.114  0.1082 -0.2473  0.5163
  296TMC3     O 4516   1.491   0.580   1.022 -0.3825 -0.1268 -0.4476
  296TMC3     H 4517   1.387   0.858   1.243 -0.0173  0.5985  0.6081
  296TMC3    H1 4518   1.354   0.439   1.162 -1.7530 -0.3383  0.6153
  296TMC3    H2 4519   1.129   0.612   1.487  1.1399 -0.1695  0.4950
  296TMC3    C7 4520   1.200   0.394   1.388  0.6007 -0.2755 -0.2216
  296TMC3    C8 4521   1.177   0.862   1.431  0.5180  0.5253  0.4438
  296TMC3    O1 4522   1.102   0.388   1.464 -0.0905 -0.0923 -0.4907
  296TMC3    O2 4523   1.120   0.848   1.535  0.2213 -0.1328  0.2979
  297MPD2     C 4524   4.384   2.586  16.523  0.8002 -0.1727 -0.7666
  297MPD2    C1 4525   4.409   2.576  16.386  0.3765 -0.2222 -0.4686
  297MPD2    C2 4526   4.485   2.666  16.318  0.9209 -0.3565 -0.2503
  297MPD2    C3 4527   4.537   2.783  16.380  0.6589 -0.3063 -0.0413
  297MPD2    C4 4528   4.520   2.791  16.517  0.6949  0.6046 -0.2289
  297MPD2    C5 4529   4.453   2.691  16.585 -0.1552 -0.4258 -0.0565
  297MPD2     H 4530   4.502   2.652  16.212 -0.8196 -0.0141 -0.5635
  297MPD2    H1 4531   4.564   2.878  16.564  0.8681  0.2347  0.2987
  297MPD2    H2 4532   4.319   2.519  16.579 -2.8434  2.7424 -1.5110
  297MPD2    H3 4533   4.432   2.695  16.691  1.3430  0.0895  0.2071
  297MPD2     N 4534   4.605   2.878  16.294  0.3178  0.7730  0.5142
  297MPD2    H5 4535   4.603   2.863  16.193  0.8292  0.9908  0.4681
  297MPD2    N1 4536   4.331   2.481  16.310 -0.6097  0.3231 -0.0148
  297MPD2    H7 4537   4.339   2.494  16.210 -1.0109 -2.0857 -0.3393
  298TMC3    C1 4538   4.142   2.350  16.265 -0.1972 -0.3593  0.7706
  298TMC3    C2 4539   4.180   2.335  16.136  0.2725  0.2758 -0.1529
  298TMC3    C3 4540   4.076   2.310  16.046 -1.0856 -0.1398 -0.3520
  298TMC3    C4 4541   4.014   2.364  16.299 -0.0138 -0.0994 -0.6214
  298TMC3    C5 4542   3.913   2.345  16.204  0.4641 -0.2609  0.2989
  298TMC3    C6 4543   3.941   2.314  16.075 -0.5740  0.3225 -0.2488
  298TMC3     C 4544   4.235   2.392  16.359  0.1263  0.5299 -0.1254
  298TMC3     O 4545   4.196   2.359  16.476 -0.5267 -0.4931  0.1354
  298TMC3     H 4546   4.283   2.314  16.112  0.2322  0.2704 -0.3196
  298TMC3    H1 4547   3.990   2.377  16.404 -0.8077  1.4465 -0.9936
  298TMC3    H2 4548   3.874   2.289  15.994 -0.5471  0.0728 -0.1925
  298TMC3    C7 4549   3.795   2.420  16.235 -0.4382 -0.2103  0.5301
  298TMC3    C8 4550   4.108   2.265  15.911 -0.1002 -0.2396 -0.2209
  298TMC3    O1 4551   3.743   2.413  16.344  0.4342  0.6861 -0.3566
  298TMC3    O2 4552   4.030   2.202  15.845  0.3648 -0.1999 -0.2818
  299MPD2     C 4553   0.480   2.145  10.451 -0.3147 -0.0201 -0.2226
  299MPD2    C1 4554   0.412   2.258  10.475  0.2335 -0.1109  0.7239
  299MPD2    C2 4555   0.274   2.255  10.449 -0.6376  0.6539 -0.3054
  299MPD2    C3 4556   0.206   2.138  10.412  0.6565 -0.4695  0.3000
  299MPD2    C4 4557   0.278   2.023  10.402 -0.8545 -0.8431  0.2369
  299MPD2    C5 4558   0.418   2.029  10.409 -0.1391  0.9492 -0.4994
  299MPD2     H 4559   0.223   2.350  10.454 -0.9212  0.4919 -0.1316
  299MPD2    H1 4560   0.245   1.935  10.349 -1.5297 -0.5160  0.1158
  299MPD2    H2 4561   0.588   2.143  10.453 -0.2861  1.8819  0.1837
  299MPD2    H3 4562   0.473   1.937  10.391 -1.5716  0.1998 -1.0039
  299MPD2     N 4563   0.072   2.137  10.372 -0.6195 -0.4676 -0.7262
  299MPD2    H5 4564   0.027   2.046  10.363 -0.0417 -0.7751 -0.5559
  299MPD2    N1 4565   0.480   2.369  10.532 -0.1107 -0.0259  0.8183
  299MPD2    H7 4566   0.578   2.362  10.557  0.0779  1.0109  0.3595
  300TMC3    C1 4567   4.631   2.183  10.242 -0.6671  0.3030 -0.4237
  300TMC3    C2 4568   4.594   2.254  10.130 -0.2745 -0.0218  0.4678
  300TMC3    C3 4569   4.466   2.240  10.080 -0.4375 -0.3125  0.4578
  300TMC3    C4 4570   4.539   2.112  10.319  0.3646 -0.2279 -0.6018
  300TMC3    C5 4571   4.413   2.108  10.266 -0.3111  0.8745  0.5167
  300TMC3    C6 4572   4.377   2.161  10.145 -0.7570  0.2904  0.3426
  300TMC3     C 4573   0.011   2.239  10.311  0.5638  0.7287  0.2190
  300TMC3     O 4574   0.058   2.348  10.275  0.0626  0.0251 -0.1716
  300TMC3     H 4575   4.665   2.308  10.068 -1.0702  0.6346  0.1166
  300TMC3    H1 4576   4.550   2.076  10.421 -1.5028  4.0558  1.0830
  300TMC3    H2 4577   4.275   2.159  10.108 -0.9533  2.6025  0.7500
  300TMC3    C7 4578   4.295   2.066  10.340  0.8235  0.4055  0.2104
  300TMC3    C8 4579   4.418   2.373  10.056  0.0019 -0.8238 -0.1070
  300TMC3    O1 4580   4.210   2.011  10.273  0.4959  1.2361 -0.1047
  300TMC3    O2 4581   4.320   2.394   9.986 -0.1074  0.1807  0.1629
  301MPD2     C 4582   2.094   3.657   0.543  0.0572 -0.4599  0.3406
  301MPD2    C1 4583   1.991   3.574   0.530 -0.0889  0.5462 -0.7855
  301MPD2    C2 4584   2.010   3.438   0.538 -0.2207  0.0358 -0.5585
  301MPD2    C3 4585   2.136   3.383   0.543  0.1609  0.0322  0.9022
  301MPD2    C4 4586   2.243   3.472   0.558 -0.7723  0.4383  0.1928
  301MPD2    C5 4587   2.219   3.602   0.577  0.0923  0.5324  0.3660
  301MPD2     H 4588   1.922   3.375   0.537  0.0778 -0.3488 -2.0349
  301MPD2    H1 4589   2.344   3.436   0.577  0.4092  2.9326 -1.2521
  301MPD2    H2 4590   2.085   3.765   0.547  0.8908 -0.3900  0.2141
  301MPD2    H3 4591   2.300   3.669   0.604  2.0672 -1.7357  0.0145
  301MPD2     N 4592   2.150   3.243   0.540  0.0083  0.0032 -0.0036
  301MPD2    H5 4593   2.242   3.205   0.558 -0.7470 -0.8806  1.9656
  301MPD2    N1 4594   1.856   3.616   0.532 -0.7079  0.7130 -0.1019
  301MPD2    H7 4595   1.780   3.549   0.527 -0.8942  0.7757  1.7685
  302TMC3    C1 4596   2.079   3.009   0.546  0.0673  0.5111 -0.0817
  302TMC3    C2 4597   2.176   2.986   0.646  1.0867  0.9064  0.0123
  302TMC3    C3 4598   2.173   2.856   0.694 -0.2006  0.7823 -0.0372
  302TMC3    C4 4599   1.973   2.926   0.515  0.2785  0.4560 -0.4820
  302TMC3    C5 4600   1.976   2.800   0.577 -0.2106  0.3684  0.2496
  302TMC3    C6 4601   2.076   2.763   0.661 -0.0079 -0.2546 -0.4505
  302TMC3     C 4602   2.054   3.148   0.501  0.4531  0.1265 -0.0769
  302TMC3     O 4603   1.952   3.167   0.436 -0.6466 -0.2165 -0.1633
  302TMC3     H 4604   2.243   3.064   0.679  0.8816  0.7153  0.8883
  302TMC3    H1 4605   1.913   2.948   0.427 -1.3154 -0.6522  0.3262
  302TMC3    H2 4606   2.067   2.663   0.703  0.6871  0.1624  0.6740
  302TMC3    C7 4607   1.876   2.706   0.530 -0.1839 -0.1000  0.0118
  302TMC3    C8 4608   2.272   2.819   0.792 -0.4231 -0.6015  0.1906
  302TMC3    O1 4609   1.911   2.590   0.518 -0.4751 -0.2493 -0.4820
  302TMC3    O2 4610   2.339   2.912   0.838  0.1061  0.3423 -0.0480
  303MPD2     C 4611   3.067   2.596  10.615  0.1769  0.0852  0.3499
  303MPD2    C1 4612   3.008   2.480  10.659 -0.1841 -0.2300 -0.2216
  303MPD2    C2 4613   2.990   2.370  10.577 -0.2755  0.0936 -0.0898
  303MPD2    C3 4614   3.009   2.386  10.439  0.2969  0.0184  0.4269
  303MPD2    C4 4615   3.076   2.497  10.395  0.1653 -0.4506  0.3020
  303MPD2    C5 4616   3.107   2.598  10.488  0.2890 -0.0736 -0.1933
  303MPD2     H 4617   2.953   2.277  10.618  1.1102 -0.2501  0.3712
  303MPD2    H1 4618   3.086   2.524  10.291 -0.7379 -1.3148  0.0004
  303MPD2    H2 4619   3.081   2.679  10.683  1.8420  0.3029 -0.2471
  303MPD2    H3 4620   3.154   2.687  10.446 -0.4421  0.8129  0.8562
  303MPD2     N 4621   2.960   2.294  10.342  0.0566  0.1049  0.0453
  303MPD2    H5 4622   2.987   2.325  10.249  1.1823  0.1980  0.4022
  303MPD2    N1 4623   2.970   2.487  10.801 -0.4200 -0.0663 -0.4213
  303MPD2    H7 4624   2.975   2.581  10.838  0.0274  0.8854 -2.8545
  304TMC3    C1 4625   2.855   2.426  10.994  0.0983 -0.0359  0.5284
  304TMC3    C2 4626   2.773   2.536  10.986  0.3584  0.1198  0.2358
  304TMC3    C3 4627   2.668   2.545  11.071 -0.2053 -0.1110  0.0308
  304TMC3    C4 4628   2.832   2.320  11.079 -0.2354 -0.4388 -0.3335
  304TMC3    C5 4629   2.733   2.341  11.172  0.4520  1.3015 -0.0508
  304TMC3    C6 4630   2.657   2.454  11.176 -0.0551 -0.1465  0.2133
  304TMC3     C 4631   2.925   2.382  10.873 -0.7775 -0.0375 -0.2006
  304TMC3     O 4632   2.927   2.264  10.861  0.7048 -0.0872  0.1415
  304TMC3     H 4633   2.777   2.613  10.911  1.3872 -0.4145 -0.2645
  304TMC3    H1 4634   2.889   2.228  11.083  3.0917  1.5807 -0.4367
  304TMC3    H2 4635   2.576   2.458  11.248  2.2505 -0.7972  2.8386
  304TMC3    C7 4636   2.652   2.228  11.208  0.9756  0.1016  0.1958
  304TMC3    C8 4637   2.536   2.586  11.020 -0.0311 -0.1320 -0.0087
  304TMC3    O1 4638   2.531   2.251  11.200  0.0568 -0.2259  0.2760
  304TMC3    O2 4639   2.521   2.699  10.976 -0.0470  0.8429 -0.3010
  305MPD2     C 4640   1.036   3.879  13.967  0.0131 -0.2401 -0.1669
  305MPD2    C1 4641   0.911   3.896  14.024 -0.2597  0.1044 -0.3298
  305MPD2    C2 4642   0.804   3.907  13.940 -0.0701 -0.1193 -0.2447
  305MPD2    C3 4643   0.826   3.913  13.806 -0.1706  0.2053  0.3249
  305MPD2    C4 4644   0.948   3.898  13.753 -0.3626  0.2024  0.0386
  305MPD2    C5 4645   1.056   3.882  13.833  0.0963  0.3335 -0.0698
  305MPD2     H 4646   0.704   3.925  13.976  1.0928  2.7230  1.5999
  305MPD2    H1 4647   0.964   3.880  13.648  1.8164 -0.4202  0.4933
  305MPD2    H2 4648   1.124   3.868  14.030  0.9145 -2.4718 -1.8316
  305MPD2    H3 4649   1.155   3.867  13.791 -0.0851 -0.6291 -0.1382
  305MPD2     N 4650   0.725   3.937  13.711 -0.7192  0.0311  0.0617
  305MPD2    H5 4651   0.750   3.965  13.616 -0.6931  1.6256  0.5410
  305MPD2    N1 4652   0.898   3.907  14.170  0.2295  0.2849 -0.5981
  305MPD2    H7 4653   0.985   3.919  14.220 -0.5202  1.8506  0.3247
  306TMC3    C1 4654   0.794   3.912  14.379 -0.7634  0.5331 -1.0400
  306TMC3    C2 4655   0.905   3.858  14.442 -0.0834  0.0421 -0.4447
  306TMC3    C3 4656   0.911   3.855  14.582  0.5334  0.2159 -0.0364
  306TMC3    C4 4657   0.716   3.999  14.451  0.0912 -0.2237  0.5765
  306TMC3    C5 4658   0.732   4.008  14.587 -0.0657  0.3757  0.7593
  306TMC3    C6 4659   0.824   3.931  14.657 -0.0712  0.1574 -0.2554
  306TMC3     C 4660   0.782   3.919  14.234 -0.1400  0.0669  0.8357
  306TMC3     O 4661   0.663   3.909  14.195 -0.1332  0.2093 -0.0378
  306TMC3     H 4662   0.979   3.795  14.394  1.4055  0.4165  1.3325
  306TMC3    H1 4663   0.636   4.052  14.401  0.8676 -1.0048 -1.5083
  306TMC3    H2 4664   0.822   3.918  14.764  1.2987  0.0630 -0.2436
  306TMC3    C7 4665   0.657   4.107  14.659 -0.6817 -1.1436  0.3910
  306TMC3    C8 4666   0.984   3.740  14.627 -0.3847  0.1953 -0.0445
  306TMC3    O1 4667   0.559   4.145  14.600 -0.1113  0.4573  0.4608
  306TMC3    O2 4668   1.000   3.654  14.546  0.2096 -0.1732  0.0074
  307MPD2     C 4669   3.591   1.864   0.135 -0.0444 -0.0916  0.0999
  307MPD2    C1 4670   3.493   1.961   0.134  0.7973  0.7517 -0.2785
  307MPD2    C2 4671   3.417   1.990   0.242  0.0997  0.4569  0.0125
  307MPD2    C3 4672   3.439   1.915   0.351  0.1738  0.8747 -0.2273
  307MPD2    C4 4673   3.537   1.822   0.358 -0.3542 -0.1149 -0.3350
  307MPD2    C5 4674   3.614   1.798   0.249 -0.3219  0.7907 -1.0753
  307MPD2     H 4675   3.355   2.078   0.228 -1.2250 -0.7704 -1.9523
  307MPD2    H1 4676   3.545   1.755   0.442 -2.0339  0.6566  0.4522
  307MPD2    H2 4677   3.655   1.834   0.053 -2.2978 -2.0145 -0.9566
  307MPD2    H3 4678   3.691   1.722   0.261 -0.1980  0.9640 -0.7847
  307MPD2     N 4679   3.359   1.928   0.466  0.0567  0.4905 -0.1926
  307MPD2    H5 4680   3.376   1.866   0.544  0.3521 -0.1005 -0.7297
  307MPD2    N1 4681   3.470   2.037   0.018 -0.4605  0.0802  0.0805
  307MPD2    H7 4682   3.421   2.124   0.034  1.0758  0.6697  1.5461
  308TMC3    C1 4683   3.037   1.875   0.734  0.5081 -0.4590  0.0167
  308TMC3    C2 4684   2.962   1.984   0.765 -0.7473 -0.6292 -0.1526
  308TMC3    C3 4685   3.010   2.108   0.730  0.2497 -0.0048 -0.2011
  308TMC3    C4 4686   3.157   1.891   0.670  0.2050 -0.4491 -0.4660
  308TMC3    C5 4687   3.191   2.016   0.620 -0.1573 -0.1040  0.2065
  308TMC3    C6 4688   3.119   2.129   0.649 -0.3399 -0.5963  1.1937
  308TMC3     C 4689   2.980   1.744   0.710  0.3985  0.2796 -0.1942
  308TMC3     O 4690   3.059   1.657   0.677 -0.4640 -0.2476 -0.1187
  308TMC3     H 4691   2.869   1.974   0.821 -0.3021  1.3853  0.9679
  308TMC3    H1 4692   3.207   1.807   0.623 -0.8040 -2.3201  1.8075
  308TMC3    H2 4693   3.148   2.220   0.597  0.8750 -1.8078 -0.2279
  308TMC3    C7 4694   3.278   2.037   0.495  0.0202  0.7611  0.0537
  308TMC3    C8 4695   2.919   2.219   0.753 -0.1999 -0.3889  0.0169
  308TMC3    O1 4696   3.247   2.132   0.426  0.1237  1.3503 -0.5594
  308TMC3    O2 4697   2.852   2.208   0.856 -0.1482 -0.0394 -0.2107
  309MPD2     C 4698   2.330   2.365  17.063  0.5838  0.4913  0.1085
  309MPD2    C1 4699   2.223   2.440  17.014  0.4652 -0.0176  0.9292
  309MPD2    C2 4700   2.119   2.470  17.101  0.2862 -0.0910  0.1164
  309MPD2    C3 4701   2.107   2.409  17.222  0.1093 -0.9046  0.6663
  309MPD2    C4 4702   2.204   2.327  17.273 -0.2580  0.4976 -0.9159
  309MPD2    C5 4703   2.319   2.313  17.191  0.1061 -0.0003  0.0731
  309MPD2     H 4704   2.041   2.539  17.069 -0.7992  0.6970  4.4158
  309MPD2    H1 4705   2.194   2.303  17.379 -0.1649  0.8832 -0.8197
  309MPD2    H2 4706   2.428   2.357  17.016  0.0715  1.2908 -1.0886
  309MPD2    H3 4707   2.405   2.262  17.234 -1.2079 -0.3522  2.2694
  309MPD2     N 4708   1.987   2.420  17.298  0.1330 -0.7545 -0.1611
  309MPD2    H5 4709   1.988   2.374  17.388  2.1048 -1.7853 -0.6979
  309MPD2    N1 4710   2.226   2.482  16.882 -0.0392 -0.4354  0.5116
  309MPD2    H7 4711   2.152   2.540  16.845 -0.5562 -1.1207  0.4568
  310TMC3    C1 4712   2.330   2.547  16.669  0.1358 -0.3807  0.1372
  310TMC3    C2 4713   2.210   2.578  16.613  0.9618 -0.4804  0.3344
  310TMC3    C3 4714   2.207   2.656  16.503 -0.0192 -0.2768 -0.4533
  310TMC3    C4 4715   2.451   2.584  16.617 -0.3686  0.0187 -0.0529
  310TMC3    C5 4716   2.444   2.672  16.515 -0.5657  0.6463  0.2122
  310TMC3    C6 4717   2.326   2.701  16.457  0.0908 -0.4791 -0.0832
  310TMC3     C 4718   2.329   2.462  16.789  0.1922 -0.0881  0.2815
  310TMC3     O 4719   2.438   2.407  16.806 -0.3219  0.0324 -0.1799
  310TMC3     H 4720   2.118   2.541  16.657 -1.5322 -0.5426 -4.9483
  310TMC3    H1 4721   2.546   2.546  16.653 -0.6033 -0.1061  0.4356
  310TMC3    H2 4722   2.321   2.760  16.366 -0.0414  1.3571  1.1087
  310TMC3    C7 4723   2.562   2.689  16.435 -0.2759 -0.1267 -0.0839
  310TMC3    C8 4724   2.101   2.634  16.402 -0.1018 -0.2180  0.4201
  310TMC3    O1 4725   2.632   2.589  16.422 -0.4445  0.4539 -0.3196
  310TMC3    O2 4726   2.083   2.731  16.327 -0.6268 -0.2249  0.7739
  311MPD2     C 4727   4.208   4.259  11.930  0.0078 -0.0277  0.5986
  311MPD2    C1 4728   4.295   4.298  12.028 -0.1376  0.2495  0.2757
  311MPD2    C2 4729   4.297   4.223  12.144  1.1844 -0.3264 -0.3324
  311MPD2    C3 4730   4.200   4.126  12.174 -0.5051 -0.2970  0.5239
  311MPD2    C4 4731   4.115   4.089  12.072 -0.6649 -0.0041 -0.0009
  311MPD2    C5 4732   4.114   4.160  11.961 -0.8086 -0.5543  0.1042
  311MPD2     H 4733   4.379   4.242  12.212  0.1978 -1.6668  1.2403
  311MPD2    H1 4734   4.034   4.017  12.078  1.0000 -1.7068  2.1883
  311MPD2    H2 4735   4.198   4.307  11.834  1.8388 -0.2228  0.3093
  311MPD2    H3 4736   4.039   4.140  11.885 -1.6717 -1.1823  1.1127
  311MPD2     N 4737   4.198   4.058  12.302  0.1256 -0.3501 -0.1177
  311MPD2    H5 4738   4.282   4.070  12.357 -0.5857 -2.5901  1.4456
  311MPD2    N1 4739   4.385   4.405  12.016  0.2388 -0.4107  0.4742
  311MPD2    H7 4740   4.452   4.433  12.088  1.2532 -0.7663 -0.3246
  312TMC3    C1 4741   4.119   3.905  12.462  0.3219  0.0168  0.0206
  312TMC3    C2 4742   4.033   3.807  12.473  0.4304 -0.1375 -0.5324
  312TMC3    C3 4743   3.993   3.774  12.593 -0.2784 -0.0710 -0.0832
  312TMC3    C4 4744   4.173   3.968  12.574  0.3073  0.5971 -0.1703
  312TMC3    C5 4745   4.129   3.919  12.699  0.3283  0.5155  0.0760
  312TMC3    C6 4746   4.041   3.813  12.713 -0.1569 -0.8198 -0.1221
  312TMC3     C 4747   4.097   3.978  12.345 -0.2071  0.0661 -0.1973
  312TMC3     O 4748   3.994   3.960  12.281 -0.3211 -0.7353  0.7003
  312TMC3     H 4749   4.006   3.749  12.385  0.5772 -3.2968  1.5259
  312TMC3    H1 4750   4.242   4.051  12.570  0.9731  0.1299  1.9679
  312TMC3    H2 4751   3.986   3.792  12.804  0.9279 -0.1090  0.6897
  312TMC3    C7 4752   4.200   3.977  12.816 -0.3082  0.7402  0.2406
  312TMC3    C8 4753   3.856   3.734  12.602 -0.4600  0.1174  0.4398
  312TMC3    O1 4754   4.262   4.081  12.804 -0.1061 -0.3222 -0.0485
  312TMC3    O2 4755   3.825   3.657  12.695 -0.0027 -0.4748  0.7598
  313MPD2     C 4756   3.833   2.877  11.368  0.0996  0.3964 -0.7520
  313MPD2    C1 4757   3.872   2.903  11.240  0.3569  0.0443  0.8627
  313MPD2    C2 4758   3.929   2.807  11.159 -0.0873  0.1612  0.1421
  313MPD2    C3 4759   3.945   2.677  11.200  0.0114  0.0247 -0.1862
  313MPD2    C4 4760   3.911   2.655  11.327 -0.3860  0.7984  0.2195
  313MPD2    C5 4761   3.860   2.746  11.414  0.4041 -0.1702 -1.0051
  313MPD2     H 4762   3.962   2.822  11.057 -0.6038 -0.8026 -0.1727
  313MPD2    H1 4763   3.916   2.559  11.378  0.8707 -1.1971 -3.6446
  313MPD2    H2 4764   3.771   2.943  11.429  1.2298 -0.2506  1.0950
  313MPD2    H3 4765   3.826   2.713  11.511  1.4378 -0.0767 -0.6086
  313MPD2     N 4766   3.991   2.579  11.098  0.2774 -0.1813  0.0676
  313MPD2    H5 4767   4.012   2.616  11.006 -2.5543 -1.4088 -1.0678
  313MPD2    N1 4768   3.850   3.032  11.184  0.0455  0.2753  0.6314
  313MPD2    H7 4769   3.890   3.042  11.091 -0.1064  1.4453  0.7019
  314TMC3    C1 4770   3.777   3.248  11.154 -0.6260 -0.2671 -0.1942
  314TMC3    C2 4771   3.904   3.288  11.129 -0.6927 -0.1007  0.2780
  314TMC3    C3 4772   3.934   3.319  10.996  0.7929 -0.4247  0.8767
  314TMC3    C4 4773   3.678   3.239  11.057 -0.4644  0.5542 -0.4124
  314TMC3    C5 4774   3.711   3.283  10.931  0.0873 -0.0652 -0.3626
  314TMC3    C6 4775   3.838   3.332  10.898 -0.5842  0.1539  0.3937
  314TMC3     C 4776   3.780   3.136  11.236 -0.0356  0.4725 -0.6899
  314TMC3     O 4777   3.707   3.138  11.336 -0.2028  0.5345  0.0574
  314TMC3     H 4778   3.972   3.294  11.214  0.7427 -0.1703 -0.8625
  314TMC3    H1 4779   3.576   3.217  11.085  0.1296 -2.1448 -0.4525
  314TMC3    H2 4780   3.865   3.374  10.801 -1.8957 -0.7317 -0.3521
  314TMC3    C7 4781   3.613   3.271  10.822 -0.6186  0.5664 -0.5186
  314TMC3    C8 4782   4.067   3.374  10.967 -0.2613 -0.3335  0.3757
  314TMC3    O1 4783   3.501   3.226  10.847  0.7664  0.2020  0.3404
  314TMC3    O2 4784   4.086   3.422  10.855 -0.3813  0.2003 -0.6321
  315MPD2     C 4785   3.708   1.896  17.176  0.2147  0.3128  0.2175
  315MPD2    C1 4786   3.759   1.903  17.307 -0.0758  0.5855 -0.7654
  315MPD2    C2 4787   3.785   2.029  17.365 -0.5584 -0.0372  0.1275
  315MPD2    C3 4788   3.748   2.138  17.296  0.0327 -0.2151 -0.7544
  315MPD2    C4 4789   3.696   2.130  17.171  0.3849  0.5011 -0.1384
  315MPD2    C5 4790   3.682   2.014  17.110  0.0155  0.3335  0.3864
  315MPD2     H 4791   3.830   2.054  17.460  0.9657 -0.8688 -0.3750
  315MPD2    H1 4792   3.662   2.214  17.113 -0.3332  1.2958  1.4502
  315MPD2    H2 4793   3.698   1.801  17.125  0.0948  0.3098  0.2479
  315MPD2    H3 4794   3.650   2.011  17.006  1.6691  2.0821 -0.1784
  315MPD2     N 4795   3.759   2.254  17.371 -0.1514  0.4049 -0.3113
  315MPD2    H5 4796   3.784   2.245  17.469 -2.9084  1.4034  0.4625
  315MPD2    N1 4797   3.781   1.797  17.396 -0.4244  0.0127  0.5875
  315MPD2    H7 4798   3.852   1.813  17.467 -0.2257  0.3502  0.3105
  316TMC3    C1 4799   3.715   2.478  17.419  0.2240  0.2654 -0.1587
  316TMC3    C2 4800   3.701   2.446  17.553 -0.9320 -0.7347  0.3581
  316TMC3    C3 4801   3.674   2.556  17.640 -0.8288  0.1904 -0.4355
  316TMC3    C4 4802   3.706   2.602  17.372  0.2978  0.0083 -0.1509
  316TMC3    C5 4803   3.682   2.698  17.462  0.1836 -0.0419  0.1704
  316TMC3    C6 4804   3.677   2.684  17.598 -0.2661  0.1132 -0.3677
  316TMC3     C 4805   3.737   2.378  17.320 -0.2812  0.6515  0.3227
  316TMC3     O 4806   3.698   2.408  17.210  0.6321 -0.5186 -0.3156
  316TMC3     H 4807   3.690   2.345  17.590  1.9427 -1.5556 -1.0853
  316TMC3    H1 4808   3.741   2.617  17.270 -2.6957 -2.7632 -1.5726
  316TMC3    H2 4809   3.673   2.766  17.669  2.2426 -0.7532  0.7666
  316TMC3    C7 4810   3.640   2.828  17.407  0.3600 -0.1047 -0.0658
  316TMC3    C8 4811   3.690   2.531   0.038  0.1090  0.4409 -0.4999
  316TMC3    O1 4812   3.638   2.919  17.488 -0.0177  0.4939 -0.4784
  316TMC3    O2 4813   3.641   2.617   0.113  0.2302 -0.1292  0.6069
  317MPD2     C 4814   0.921   0.867  12.663 -0.1806 -0.1744 -0.3096
  317MPD2    C1 4815   0.990   0.756  12.629 -0.8928  0.4213  0.6779
  317MPD2    C2 4816   1.030   0.675  12.732  0.1103  0.2050 -0.1645
  317MPD2    C3 4817   1.017   0.710  12.869  0.1548 -0.2296 -0.3452
  317MPD2    C4 4818   0.936   0.818  12.895 -0.2371 -0.2276  0.2739
  317MPD2    C5 4819   0.875   0.888  12.789 -0.1997  0.0434 -0.9950
  317MPD2     H 4820   1.072   0.579  12.705 -0.5726  0.4375 -2.0134
  317MPD2    H1 4821   0.908   0.842  12.997 -1.5625  2.4080 -0.7147
  317MPD2    H2 4822   0.888   0.940  12.590 -1.4849 -0.9747 -0.5137
  317MPD2    H3 4823   0.809   0.971  12.812 -0.5655 -0.5536  0.1201
  317MPD2     N 4824   1.062   0.623  12.967  0.0361 -0.1518  0.3186
  317MPD2    H5 4825   1.098   0.532  12.937 -1.0880 -0.3171 -0.5443
  317MPD2    N1 4826   1.029   0.715  12.495  0.5394  0.3622  0.2195
  317MPD2    H7 4827   1.066   0.621  12.479 -1.7684 -0.5891  0.4922
  318TMC3    C1 4828   1.143   0.557  13.171 -0.3047 -0.3992 -0.2668
  318TMC3    C2 4829   1.079   0.437  13.164 -0.2083 -0.1018  0.4725
  318TMC3    C3 4830   1.141   0.327  13.222  0.1605  0.2424 -0.5553
  318TMC3    C4 4831   1.258   0.578  13.238  0.7625 -0.3859  0.3407
  318TMC3    C5 4832   1.300   0.469  13.306  0.2984 -0.1856 -0.1713
  318TMC3    C6 4833   1.250   0.340  13.295 -0.0073  0.0465 -0.3300
  318TMC3     C 4834   1.075   0.661  13.094 -0.2097 -0.1768 -0.3925
  318TMC3     O 4835   1.053   0.771  13.145  0.1991 -0.0601  0.3694
  318TMC3     H 4836   0.994   0.427  13.098  0.2347 -1.3341  0.0928
  318TMC3    H1 4837   1.295   0.678  13.255  0.7374 -0.5071  1.1071
  318TMC3    H2 4838   1.289   0.254  13.348  0.5909 -0.0370 -0.8984
  318TMC3    C7 4839   1.410   0.495  13.394  0.5299 -0.1522  0.2992
  318TMC3    C8 4840   1.080   0.196  13.209  0.0513  0.4293 -0.6274
  318TMC3    O1 4841   1.448   0.612  13.407  0.1696  0.2146 -0.0685
  318TMC3    O2 4842   1.091   0.117  13.301 -0.0093 -0.7494  0.0763
  319MPD2     C 4843   1.929   1.885  16.090 -0.4431  0.4128  0.3001
  319MPD2    C1 4844   1.815   1.874  16.155 -1.5656 -0.6715  0.0640
  319MPD2    C2 4845   1.691   1.859  16.092  0.3792 -0.1611 -0.5486
  319MPD2    C3 4846   1.687   1.856  15.955 -0.4611 -0.5095  0.6302
  319MPD2    C4 4847   1.802   1.863  15.884 -0.5838  0.0884 -0.5197
  319MPD2    C5 4848   1.925   1.877  15.950 -0.7051  0.2048 -0.5201
  319MPD2     H 4849   1.601   1.846  16.151  0.3339 -0.3815 -0.6660
  319MPD2    H1 4850   1.798   1.863  15.775 -2.9556  0.8701 -0.4260
  319MPD2    H2 4851   2.025   1.883  16.141  0.2454  0.4481 -1.0079
  319MPD2    H3 4852   2.019   1.884  15.898  0.1659 -3.3228  0.5659
  319MPD2     N 4853   1.560   1.839  15.883 -0.2347 -0.0675 -0.6597
  319MPD2    H5 4854   1.575   1.813  15.786 -1.1895 -4.3051  0.3211
  319MPD2    N1 4855   1.814   1.877  16.298 -0.1743 -0.6866  0.3232
  319MPD2    H7 4856   1.728   1.852  16.347  0.5018 -0.2579  1.7291
  320TMC3    C1 4857   1.335   1.851  15.838 -0.3386  0.2886  0.0524
  320TMC3    C2 4858   1.215   1.906  15.867 -0.6510 -0.2419  0.0703
  320TMC3    C3 4859   1.093   1.864  15.815  0.0170 -0.7275 -0.5029
  320TMC3    C4 4860   1.335   1.731  15.770  1.3465  0.3926  0.4804
  320TMC3    C5 4861   1.215   1.676  15.735 -1.0905 -0.3392 -0.3934
  320TMC3    C6 4862   1.093   1.745  15.745  0.6722 -0.0774  0.0295
  320TMC3     C 4863   1.436   1.868  15.939  0.4194  0.2183  0.2416
  320TMC3     O 4864   1.412   1.944  16.033  0.4081 -0.5685 -0.5030
  320TMC3     H 4865   1.212   1.987  15.940 -1.6065 -1.0056  0.8809
  320TMC3    H1 4866   1.425   1.670  15.769  2.6109  2.2823 -0.1118
  320TMC3    H2 4867   1.004   1.711  15.694 -0.1628  0.0396  1.4052
  320TMC3    C7 4868   1.201   1.551  15.672  0.8069 -0.4305 -0.1284
  320TMC3    C8 4869   0.981   1.943  15.844 -0.6405  0.8141 -0.1398
  320TMC3    O1 4870   1.307   1.514  15.623  0.1766  0.0287  0.0219
  320TMC3    O2 4871   0.988   2.056  15.893 -0.1020  0.6104 -0.2855
  321TMC3    C1 4872   1.881   1.928  16.522 -0.6189 -0.3030  0.0862
  321TMC3    C2 4873   1.832   1.809  16.573  0.1364 -0.6647 -0.0855
  321TMC3    C3 4874   1.821   1.795  16.706  0.0742 -0.6234 -0.1497
  321TMC3    C4 4875   1.929   2.030  16.595  0.8780  1.2180  0.6251
  321TMC3    C5 4876   1.914   2.017  16.735 -0.2728  0.4813 -0.6101
  321TMC3    C6 4877   1.854   1.902  16.783  0.3035  0.0540 -1.0703
  321TMC3     C 4878   1.915   1.928  16.372 -0.8552  0.3512 -0.4569
  321TMC3     O 4879   2.008   1.997  16.330  0.6776  0.0523  0.1681
  321TMC3     H 4880   1.814   1.726  16.506 -2.0348  0.4481 -0.8824
  321TMC3    H1 4881   1.985   2.112  16.552 -0.4618  0.2165 -3.0178
  321TMC3    H2 4882   1.845   1.900  16.891 -0.8061 -0.3695 -1.1753
  321TMC3    C7 4883   2.038   2.039  16.813 -0.1814 -0.9892  0.6280
  321TMC3    C8 4884   1.869   1.670  16.771  0.5830  0.1958  0.1713
  321TMC3    O1 4885   2.102   2.140  16.778 -0.2151  0.3153 -0.2310
  321TMC3    O2 4886   1.934   1.695  16.873 -0.1157 -0.0483 -0.7854
  322MPD2     C 4887   0.602   3.616  13.486  0.3374  0.7470 -0.2078
  322MPD2    C1 4888   0.603   3.529  13.590  0.0165  0.1865  0.2778
  322MPD2    C2 4889   0.645   3.395  13.554  0.0668 -0.7191  0.5015
  322MPD2    C3 4890   0.692   3.355  13.427  0.4463 -0.7640  0.7050
  322MPD2    C4 4891   0.687   3.453  13.328 -0.2453 -0.4202  0.2138
  322MPD2    C5 4892   0.639   3.577  13.357 -0.1255  0.4273  0.4068
  322MPD2     H 4893   0.652   3.318  13.629  1.4312 -2.3120 -1.2860
  322MPD2    H1 4894   0.712   3.425  13.226 -1.6936  0.7820 -0.4856
  322MPD2    H2 4895   0.576   3.721  13.494 -1.5975  0.1761  1.0506
  322MPD2    H3 4896   0.647   3.650  13.277 -0.0163  1.0342  0.9732
  322MPD2     N 4897   0.754   3.231  13.418 -0.8263 -0.2968 -0.5529
  322MPD2    H5 4898   0.738   3.174  13.500 -0.7460 -0.9030 -0.9567
  322MPD2    N1 4899   0.577   3.569  13.723  0.0754  0.1713 -0.2377
  322MPD2    H7 4900   0.585   3.666  13.751  0.1527 -0.2486  1.2243
  323TMC3    C1 4901   0.609   3.484  13.946 -0.3800 -0.5495  0.4706
  323TMC3    C2 4902   0.721   3.561  13.945  0.2694 -1.1516  0.1444
  323TMC3    C3 4903   0.825   3.521  14.015 -0.0230 -0.4790  0.1800
  323TMC3    C4 4904   0.596   3.380  14.029  0.8128 -0.8226 -0.5791
  323TMC3    C5 4905   0.699   3.344  14.106 -0.3475 -0.5116  0.1955
  323TMC3    C6 4906   0.814   3.415  14.100  0.3902 -0.2580  0.0519
  323TMC3     C 4907   0.553   3.467  13.813 -0.3464 -0.1549 -0.0679
  323TMC3     O 4908   0.499   3.360  13.783 -0.4435 -0.3407  0.0944
  323TMC3     H 4909   0.733   3.654  13.889  1.7795 -1.0283  0.6736
  323TMC3    H1 4910   0.503   3.325  14.026  1.4349 -1.8954 -0.0077
  323TMC3    H2 4911   0.906   3.391  14.151 -0.9163 -1.0454  2.0400
  323TMC3    C7 4912   0.699   3.218  14.180  0.4395 -0.1677  0.0161
  323TMC3    C8 4913   0.948   3.548  13.944  0.8119  0.6107  0.0126
  323TMC3    O1 4914   0.633   3.125  14.137 -0.4651 -0.0824  0.2691
  323TMC3    O2 4915   1.053   3.555  14.008 -0.0314 -0.0292  0.0700
  324MPD2     C 4916   2.463   3.976  14.134  0.4432  0.0652  0.5021
  324MPD2    C1 4917   2.507   4.076  14.048  0.7489  0.5576 -0.3880
  324MPD2    C2 4918   2.415   4.132  13.966 -0.2398 -0.8735 -0.0977
  324MPD2    C3 4919   2.285   4.092  13.960 -0.0720  0.4032 -0.1474
  324MPD2    C4 4920   2.243   3.992  14.043 -0.4524 -0.6528  0.1540
  324MPD2    C5 4921   2.333   3.929  14.127  0.5712  0.5180  0.7794
  324MPD2     H 4922   2.457   4.208  13.900 -0.3922  0.9592  1.9062
  324MPD2    H1 4923   2.139   3.960  14.044 -0.6438 -0.0307 -0.0432
  324MPD2    H2 4924   2.526   3.919  14.201  2.4134  2.0600  0.3810
  324MPD2    H3 4925   2.312   3.839  14.185  1.6284  0.5437  1.2150
  324MPD2     N 4926   2.187   4.149  13.874  0.1766 -0.0598 -0.6265
  324MPD2    H5 4927   2.091   4.119  13.877 -0.3540  1.4928 -1.6001
  324MPD2    N1 4928   2.633   4.137  14.058 -0.3175  0.0821 -0.1660
  324MPD2    H7 4929   2.659   4.215  14.000 -0.0935 -0.5253 -0.8875
  325TMC3    C1 4930   2.088   4.312  13.747  0.5986  0.6146 -0.5886
  325TMC3    C2 4931   1.993   4.222  13.702  0.4551  0.2042 -0.1810
  325TMC3    C3 4932   1.856   4.254  13.695  0.1042  0.5049  1.0971
  325TMC3    C4 4933   2.042   4.439  13.774 -0.0337  0.2728  0.2217
  325TMC3    C5 4934   1.909   4.463  13.779  0.0658  0.4463  0.5173
  325TMC3    C6 4935   1.808   4.372  13.745 -0.6095  0.0731  0.8959
  325TMC3     C 4936   2.210   4.271  13.809 -0.2211 -0.3206  0.2625
  325TMC3     O 4937   2.301   4.353  13.822  0.3929 -0.5337  0.2083
  325TMC3     H 4938   2.025   4.123  13.674  0.6282  0.2899 -0.2879
  325TMC3    H1 4939   2.114   4.514  13.804 -0.0912  0.5151 -0.2593
  325TMC3    H2 4940   1.707   4.410  13.745 -0.2199  1.1124  1.7751
  325TMC3    C7 4941   1.861   4.588  13.828 -0.0752  0.0870  0.4767
  325TMC3    C8 4942   1.780   4.172  13.604 -0.7309  0.2418 -0.4106
  325TMC3    O1 4943   1.932   4.687  13.802  0.4993 -0.0806  0.0436
  325TMC3    O2 4944   1.841   4.100  13.523 -0.1962 -0.9562 -0.0445
  326MPD2     C 4945   3.232   0.793  10.880  0.1702  0.5060  0.3481
  326MPD2    C1 4946   3.200   0.880  10.774  0.4985 -0.2584 -0.3732
  326MPD2    C2 4947   3.298   0.955  10.709  0.3403  0.3040 -0.6799
  326MPD2    C3 4948   3.433   0.944  10.746 -0.2304  0.6287  0.1674
  326MPD2    C4 4949   3.461   0.851  10.843  1.4200  0.4022 -0.1265
  326MPD2    C5 4950   3.363   0.782  10.915  0.7715  0.1819  0.2120
  326MPD2     H 4951   3.267   1.014  10.624 -0.5230 -1.4793 -1.6232
  326MPD2    H1 4952   3.562   0.837  10.879  0.1284 -0.2259  3.3208
  326MPD2    H2 4953   3.161   0.734  10.937 -1.7238  1.5460 -0.9348
  326MPD2    H3 4954   3.392   0.736  11.009 -0.0745  1.3896  1.0636
  326MPD2     N 4955   3.538   1.015  10.685 -0.3731  0.1496 -0.4714
  326MPD2    H5 4956   3.625   0.996  10.731  0.0980 -0.8814 -1.7844
  326MPD2    N1 4957   3.063   0.894  10.729  0.6169 -0.4828 -0.0995
  326MPD2    H7 4958   3.049   0.935  10.637 -2.5342 -1.6098 -0.1174
  327TMC3    C1 4959   2.840   0.848  10.723 -0.4581 -0.2545 -0.2260
  327TMC3    C2 4960   2.777   0.965  10.727 -0.2855 -0.5550  0.3713
  327TMC3    C3 4961   2.710   1.006  10.617 -0.0821 -0.3600  0.6765
  327TMC3    C4 4962   2.868   0.785  10.606  0.7768 -0.1785  0.0708
  327TMC3    C5 4963   2.816   0.838  10.487  0.5447 -0.4163  0.0693
  327TMC3    C6 4964   2.730   0.943  10.492  0.4267  0.0831 -0.2808
  327TMC3     C 4965   2.961   0.857  10.802  0.0475  0.3849 -0.0643
  327TMC3     O 4966   2.952   0.863  10.923  0.0979 -0.4686 -0.4140
  327TMC3     H 4967   2.778   1.009  10.827  2.2758 -1.2195  0.6540
  327TMC3    H1 4968   2.943   0.706  10.606  0.6726 -0.2698  2.1650
  327TMC3    H2 4969   2.689   0.979  10.399 -0.3795 -0.7800 -0.2513
  327TMC3    C7 4970   2.917   0.856  10.382 -0.0646 -0.5181  0.2000
  327TMC3    C8 4971   2.687   1.145  10.595  0.7619 -0.0993  0.3805
  327TMC3    O1 4972   2.883   0.915  10.281  0.0936  0.2840  0.3254
  327TMC3    O2 4973   2.705   1.191  10.482  0.2572 -0.3731  0.4139
  328MPD2     C 4974   0.834   0.106  16.987  0.3348  0.5000 -0.4386
  328MPD2    C1 4975   0.789   0.053  16.867 -0.1260  0.7225 -0.3263
  328MPD2    C2 4976   0.779   0.143  16.762  0.5314  0.2090 -0.8517
  328MPD2    C3 4977   0.833   0.269  16.762  0.0954 -0.1555  0.2810
  328MPD2    C4 4978   0.888   0.311  16.877 -0.9232 -0.0144  0.3060
  328MPD2    C5 4979   0.884   0.234  16.987 -0.5939  0.1466  0.4968
  328MPD2     H 4980   0.717   0.114  16.678 -1.1596  1.2693  0.0362
  328MPD2    H1 4981   0.914   0.417  16.880 -2.9258  0.4564  1.2517
  328MPD2    H2 4982   0.836   0.037  17.070 -1.5437 -0.6924 -1.3672
  328MPD2    H3 4983   0.929   0.265  17.081  0.6110  2.4758 -0.8372
  328MPD2     N 4984   0.805   0.371  16.670 -0.1829 -0.1962  0.5165
  328MPD2    H5 4985   0.815   0.467  16.703  0.1409  1.0487 -3.2105
  328MPD2    N1 4986   0.730   4.659  16.866 -0.1085  0.4687  0.2223
  328MPD2    H7 4987   0.722   4.610  16.955 -1.6045  1.8174  0.8358
  329TMC3    C1 4988   0.587   4.505  16.757  0.5520 -0.6374 -0.2826
  329TMC3    C2 4989   0.484   4.544  16.837  0.3529 -0.5386  0.8521
  329TMC3    C3 4990   0.371   4.472  16.827  0.4004  0.1033  0.0327
  329TMC3    C4 4991   0.589   4.394  16.674 -0.0563 -0.4633 -0.5441
  329TMC3    C5 4992   0.471   4.327  16.667 -0.0665  0.1186 -0.4473
  329TMC3    C6 4993   0.361   4.366  16.741 -0.1108 -0.5826 -0.1460
  329TMC3     C 4994   0.701   4.596  16.749  0.3897 -0.3028  0.0177
  329TMC3     O 4995   0.752   4.613  16.637  0.4448  0.0888 -0.0126
  329TMC3     H 4996   0.493   4.636  16.892  3.0509 -0.0048 -0.4911
  329TMC3    H1 4997   0.684   4.362  16.631 -0.0291 -1.6493  0.3944
  329TMC3    H2 4998   0.263   4.323  16.723 -0.8520  0.2369  1.8457
  329TMC3    C7 4999   0.454   4.233  16.559  0.2962 -0.4395 -0.1783
  329TMC3    C8 5000   0.246   4.510  16.892  0.4422 -0.8567 -0.0172
  329TMC3    O1 5001   0.352   4.166  16.575  0.2873 -0.9888 -0.2423
  329TMC3    O2 5002   0.144   4.448  16.866 -0.2723  0.7274  0.1114
  330TMC3    C1 5003   3.386   4.248   9.409 -0.6422  0.4333 -0.4522
  330TMC3    C2 5004   3.300   4.185   9.496 -0.1943  0.7133  0.2905
  330TMC3    C3 5005   3.340   4.157   9.619 -0.0333 -0.1255 -0.2283
  330TMC3    C4 5006   3.512   4.298   9.449  1.1731  0.0418 -0.2402
  330TMC3    C5 5007   3.545   4.273   9.581  0.0575 -0.7463  0.3459
  330TMC3    C6 5008   3.465   4.201   9.665  0.1143  0.0041  0.2755
  330TMC3     C 5009   3.349   4.262   9.272  0.4077  0.3519 -0.5830
  330TMC3     O 5010   3.409   4.345   9.205  0.3992  0.4192  0.5084
  330TMC3     H 5011   3.208   4.135   9.467  1.1294 -1.2260 -0.6021
  330TMC3    H1 5012   3.575   4.333   9.368  0.1928  2.5975  0.1151
  330TMC3    H2 5013   3.494   4.196   9.769 -1.1469  1.2550  0.6841
  330TMC3    C7 5014   3.686   4.276   9.618  0.4828  0.6266 -0.2697
  330TMC3    C8 5015   3.290   4.040   9.694 -0.3648 -0.3113  0.3821
  330TMC3    O1 5016   3.712   4.209   9.720 -0.0079 -0.4821 -0.2150
  330TMC3    O2 5017   3.170   4.011   9.675  0.1027 -0.3164  0.0889
  331MPD2     C 5018   2.628   4.150  12.679  0.2631  0.1723  0.0867
  331MPD2    C1 5019   2.497   4.136  12.654  0.0377  0.0178 -0.2658
  331MPD2    C2 5020   2.422   4.033  12.720  0.3065  0.0814 -0.1872
  331MPD2    C3 5021   2.479   3.954  12.821  0.3634 -0.2243 -0.1772
  331MPD2    C4 5022   2.614   3.980  12.855  0.4963 -0.5014 -0.6347
  331MPD2    C5 5023   2.686   4.064  12.770  0.0177 -0.0466  0.0860
  331MPD2     H 5024   2.324   4.000  12.685 -0.1091  0.5055  0.5740
  331MPD2    H1 5025   2.669   3.909  12.916  0.9239  0.4021  0.0266
  331MPD2    H2 5026   2.687   4.217  12.617 -1.2379  1.2126 -0.1879
  331MPD2    H3 5027   2.792   4.058  12.789 -0.0152 -2.1811 -0.3701
  331MPD2     N 5028   2.406   3.848  12.870 -0.5508  0.0906  0.0305
  331MPD2    H5 5029   2.314   3.825  12.833 -1.1266  1.4595  0.5821
  331MPD2    N1 5030   2.454   4.233  12.558 -0.3464  0.2888 -0.6501
  331MPD2    H7 5031   2.523   4.283  12.502  0.7371  1.7876  2.0651
  332TMC3    C1 5032   2.351   3.675  13.022 -0.1655 -0.7906  0.0584
  332TMC3    C2 5033   2.214   3.670  12.976  0.0360 -0.0406 -0.4479
  332TMC3    C3 5034   2.138   3.558  12.995  0.3349 -0.5492 -0.2294
  332TMC3    C4 5035   2.404   3.562  13.078  0.5967 -0.2240 -0.3009
  332TMC3    C5 5036   2.328   3.449  13.086 -0.1145 -0.5529 -0.1296
  332TMC3    C6 5037   2.195   3.442  13.048  0.1673  0.0492 -0.3281
  332TMC3     C 5038   2.449   3.768  12.980  0.3895  0.0617  1.0762
  332TMC3     O 5039   2.560   3.761  13.031 -0.6243  0.2670 -0.2438
  332TMC3     H 5040   2.167   3.765  12.956  0.4435  0.7403  2.3076
  332TMC3    H1 5041   2.510   3.548  13.095  1.0430  2.0072 -1.2153
  332TMC3    H2 5042   2.136   3.352  13.057  1.0516 -0.5850 -0.7811
  332TMC3    C7 5043   2.394   3.318  13.097  0.0826  0.0805 -0.1923
  332TMC3    C8 5044   2.000   3.556  12.950 -0.4301  0.5136 -0.6557
  332TMC3    O1 5045   2.328   3.219  13.138  0.4151  0.6362 -0.1386
  332TMC3    O2 5046   1.923   3.469  12.991  0.2004  0.0828 -0.6279
  333MPD2     C 5047   2.093   4.077  10.784  0.7303  0.8894  0.0077
  333MPD2    C1 5048   2.118   3.961  10.718  0.5528  0.4865 -0.5825
  333MPD2    C2 5049   2.049   3.844  10.760  1.0689  0.2025  0.4737
  333MPD2    C3 5050   1.950   3.862  10.857  0.0497  0.0520 -0.9128
  333MPD2    C4 5051   1.934   3.982  10.930  0.0149 -0.3850 -0.3193
  333MPD2    C5 5052   2.007   4.089  10.887 -0.1182 -0.2177  0.0395
  333MPD2     H 5053   2.061   3.744  10.719 -0.0616 -0.0221  0.6683
  333MPD2    H1 5054   1.863   3.988  11.012  1.3972  0.4157  0.8324
  333MPD2    H2 5055   2.156   4.160  10.753  0.7868  0.1452 -1.9046
  333MPD2    H3 5056   2.005   4.180  10.947 -1.8811  0.6238 -1.2951
  333MPD2     N 5057   1.889   3.740  10.896  0.1328  0.4467 -0.3300
  333MPD2    H5 5058   1.886   3.662  10.831  1.1222  0.1487 -0.0132
  333MPD2    N1 5059   2.222   3.963  10.626  0.8011 -0.7391 -0.0523
  333MPD2    H7 5060   2.266   4.051  10.604  1.4260 -0.4376  2.4225
  334TMC3    C1 5061   2.393   3.886  10.488 -0.4722  0.0680  0.0734
  334TMC3    C2 5062   2.480   3.789  10.459  0.7366  0.1566 -0.4292
  334TMC3    C3 5063   2.592   3.821  10.383 -0.3739  0.3950  0.2978
  334TMC3    C4 5064   2.408   4.014  10.446  0.2908 -0.4569 -1.4160
  334TMC3    C5 5065   2.516   4.039  10.364 -0.7072  0.6132  0.6359
  334TMC3    C6 5066   2.605   3.946  10.327 -0.1820 -0.4561  0.2629
  334TMC3     C 5067   2.274   3.854  10.553 -0.4855 -0.1339 -0.0698
  334TMC3     O 5068   2.239   3.736  10.555  0.0482 -0.1512 -0.1538
  334TMC3     H 5069   2.455   3.689  10.493 -1.4853  1.1365  0.8104
  334TMC3    H1 5070   2.329   4.088  10.444 -0.8756 -1.6230  0.7450
  334TMC3    H2 5071   2.681   3.966  10.252 -1.8592  1.0134 -1.0504
  334TMC3    C7 5072   2.529   4.177  10.310  0.3624 -0.2522  0.4675
  334TMC3    C8 5073   2.702   3.723  10.379 -0.4602  0.0323 -0.4338
  334TMC3    O1 5074   2.438   4.254  10.347 -0.2798 -0.0975 -0.0947
  334TMC3    O2 5075   2.673   3.604  10.383  0.2110  0.1542 -0.4841
  335TMC3    C1 5076   2.026   0.330  17.329  0.1645  0.2757  0.3568
  335TMC3    C2 5077   1.899   0.339  17.283  0.2530  0.1467  0.4555
  335TMC3    C3 5078   1.866   0.446  17.198 -0.2580 -0.5588  0.7029
  335TMC3    C4 5079   2.124   0.431  17.323 -0.1410  0.0311  0.0569
  335TMC3    C5 5080   2.085   0.537  17.244 -0.3723  0.3702  0.7544
  335TMC3    C6 5081   1.964   0.545  17.183 -0.3583  0.2893 -0.2008
  335TMC3     C 5082   2.060   0.216  17.417 -0.2423 -0.4217 -0.7101
  335TMC3     O 5083   2.096   0.249  17.531 -0.0175  0.1748  0.4248
  335TMC3     H 5084   1.830   0.256  17.297  0.5677  0.1407  1.9203
  335TMC3    H1 5085   2.217   0.405  17.371 -1.2393 -0.4759  1.9137
  335TMC3    H2 5086   1.950   0.629  17.115  0.9434  1.0775  0.5186
  335TMC3    C7 5087   2.177   0.645  17.211 -0.2985 -0.2503  0.1639
  335TMC3    C8 5088   1.739   0.461  17.132  0.1839 -0.5004  1.4494
  335TMC3    O1 5089   2.180   0.692  17.098  0.4641 -0.2113  0.0768
  335TMC3    O2 5090   1.724   0.560  17.061 -0.4990 -0.3720 -0.0139
  336MPD2     C 5091   1.199   3.086  16.522  0.2653  0.4236  0.0166
  336MPD2    C1 5092   1.206   3.071  16.387  0.0051  0.6399 -0.1469
  336MPD2    C2 5093   1.251   2.947  16.341  0.4024  0.1303 -0.5484
  336MPD2    C3 5094   1.299   2.854  16.432 -0.1687  0.1097 -0.4671
  336MPD2    C4 5095   1.291   2.874  16.564  0.4960  0.7597 -0.2236
  336MPD2    C5 5096   1.237   2.989  16.612  0.9968 -0.1259 -0.6407
  336MPD2     H 5097   1.238   2.941  16.233  2.2782 -0.4305 -0.7440
  336MPD2    H1 5098   1.322   2.798  16.635 -1.4708 -0.4190 -0.6327
  336MPD2    H2 5099   1.172   3.178  16.573  1.7407  0.3813  0.8863
  336MPD2    H3 5100   1.231   3.016  16.717 -0.1821  0.4530 -0.8577
  336MPD2     N 5101   1.339   2.722  16.397 -0.2241 -0.0063 -0.3216
  336MPD2    H5 5102   1.351   2.654  16.472  0.0908  0.3968 -0.0015
  336MPD2    N1 5103   1.153   3.163  16.290  0.0899  0.1448 -0.1504
  336MPD2    H7 5104   1.158   3.135  16.193  2.3121  0.9301 -0.2747
  337TMC3    C1 5105   1.048   3.361  16.201  0.1194  0.2613  0.1452
  337TMC3    C2 5106   1.082   3.314  16.075  0.1791 -0.1461 -0.0249
  337TMC3    C3 5107   1.015   3.360  15.966 -0.5618  0.7475  0.6960
  337TMC3    C4 5108   0.936   3.438  16.218  0.2910 -0.2276  0.2927
  337TMC3    C5 5109   0.872   3.478  16.107  0.0990 -0.4062 -0.0734
  337TMC3    C6 5110   0.905   3.447  15.978 -0.4399  0.3683  0.5464
  337TMC3     C 5111   1.083   3.279  16.315 -0.7207 -0.4537  0.0290
  337TMC3     O 5112   1.058   3.337  16.417  0.3217 -0.1535  0.0143
  337TMC3     H 5113   1.172   3.257  16.055  0.8635  0.7442  0.5167
  337TMC3    H1 5114   0.895   3.468  16.314  0.8517 -1.6427  0.9770
  337TMC3    H2 5115   0.870   3.507  15.895 -0.6401 -0.6560 -0.1027
  337TMC3    C7 5116   0.751   3.536  16.130  0.2054  0.0754  0.2534
  337TMC3    C8 5117   1.038   3.274  15.852  0.3961  0.0589 -0.0117
  337TMC3    O1 5118   0.750   3.629  16.210 -0.5360  0.0281  0.1330
  337TMC3    O2 5119   1.131   3.193  15.848  0.5306  0.0361 -0.1248
  338MPD2     C 5120   1.883   1.895   0.904 -0.0484 -0.0341  0.1385
  338MPD2    C1 5121   1.827   1.950   0.795 -0.6178 -0.5051  0.0245
  338MPD2    C2 5122   1.711   2.034   0.811 -0.8148 -0.8189 -0.0231
  338MPD2    C3 5123   1.660   2.050   0.935  0.3680 -0.0710  0.3267
  338MPD2    C4 5124   1.704   1.979   1.042 -0.4939 -0.0763 -0.2156
  338MPD2    C5 5125   1.825   1.913   1.019 -0.1761  0.2131  0.2741
  338MPD2     H 5126   1.666   2.090   0.729 -0.2183  0.7371  0.7139
  338MPD2    H1 5127   1.661   1.989   1.141  1.0565 -0.6090  0.5131
  338MPD2    H2 5128   1.979   1.845   0.913 -0.8336 -1.4126  0.8373
  338MPD2    H3 5129   1.881   1.863   1.098  0.5898 -0.5958 -0.7755
  338MPD2     N 5130   1.553   2.149   0.944 -0.6197 -0.0484  0.0091
  338MPD2    H5 5131   1.524   2.194   0.857  0.6628  2.1089  0.6778
  338MPD2    N1 5132   1.896   1.937   0.675  1.1418 -0.9439 -0.3087
  338MPD2    H7 5133   1.852   1.972   0.590  3.3751  1.8697 -0.3087
  339TMC3    C1 5134   1.355   2.255   1.030 -0.7802  0.1795  0.1082
  339TMC3    C2 5135   1.267   2.271   1.136  0.2956 -0.0878  0.1703
  339TMC3    C3 5136   1.156   2.340   1.107  0.2487  0.2541  0.3165
  339TMC3    C4 5137   1.318   2.275   0.902  0.1277 -0.4921 -0.1984
  339TMC3    C5 5138   1.192   2.331   0.876 -0.7923 -0.3104 -0.0411
  339TMC3    C6 5139   1.103   2.371   0.980 -1.1484 -0.4385  0.0753
  339TMC3     C 5140   1.473   2.173   1.058  0.2947  0.2458 -0.1463
  339TMC3     O 5141   1.490   2.131   1.172 -0.3823  0.3438 -0.6784
  339TMC3     H 5142   1.296   2.264   1.240  2.1096  1.9373 -0.2083
  339TMC3    H1 5143   1.382   2.258   0.816 -0.4452 -2.1084 -0.3001
  339TMC3    H2 5144   1.015   2.432   0.965  0.8252  2.1140 -1.2829
  339TMC3    C7 5145   1.140   2.316   0.743 -0.5739  0.1214 -1.0790
  339TMC3    C8 5146   1.105   2.411   1.218 -0.1145  0.0765  0.1026
  339TMC3    O1 5147   1.222   2.313   0.655 -0.8676 -0.0708 -0.1558
  339TMC3    O2 5148   1.183   2.454   1.300 -0.3211  0.7563 -0.7139
  340MPD2     C 5149   0.643   4.599   9.171 -0.1914 -0.2138  0.4916
  340MPD2    C1 5150   0.761   4.644   9.228 -0.3810 -0.2849 -0.2747
  340MPD2    C2 5151   0.795   0.043   9.225  0.5556  0.3069  0.2932
  340MPD2    C3 5152   0.707   0.132   9.156 -0.3447  0.7152 -0.0535
  340MPD2    C4 5153   0.592   0.080   9.099  0.0804 -1.0444 -0.1576
  340MPD2    C5 5154   0.566   4.684   9.103  0.4054 -0.1119  0.2405
  340MPD2     H 5155   0.891   0.073   9.265  1.5353 -0.8084 -1.1850
  340MPD2    H1 5156   0.523   0.143   9.044  2.3755  1.1983 -0.4751
  340MPD2    H2 5157   0.607   4.497   9.180 -2.0231  0.4600  0.7976
  340MPD2    H3 5158   0.471   4.652   9.064  1.4393 -0.9078 -1.6428
  340MPD2     N 5159   0.747   0.264   9.130 -0.0807 -0.6163 -0.0483
  340MPD2    H5 5160   0.673   0.321   9.091  0.0083  1.3217  2.6200
  340MPD2    N1 5161   0.853   4.550   9.280  0.5048 -0.1922  0.3407
  340MPD2    H7 5162   0.929   4.592   9.333 -0.1024  0.0367  1.0308
  341TMC3    C1 5163   0.967   4.356   9.319 -0.4062 -0.1288 -0.0935
  341TMC3    C2 5164   1.013   4.422   9.432 -0.0711  0.0505  0.5892
  341TMC3    C3 5165   1.138   4.387   9.474 -0.4489 -0.2533 -0.1565
  341TMC3    C4 5166   1.049   4.277   9.237  0.0012 -0.1080 -0.0804
  341TMC3    C5 5167   1.172   4.247   9.286 -0.1392 -0.1178 -0.0279
  341TMC3    C6 5168   1.219   4.300   9.401  0.7720  0.3239 -0.7184
  341TMC3     C 5169   0.842   4.412   9.268 -0.1429  0.5355 -0.0982
  341TMC3     O 5170   0.773   4.337   9.196  0.2169 -0.3752  0.3487
  341TMC3     H 5171   0.939   4.480   9.486 -1.9634  0.3793 -2.3338
  341TMC3    H1 5172   1.021   4.255   9.135  1.7057 -1.2724 -0.3069
  341TMC3    H2 5173   1.307   4.268   9.455  1.1221  2.6581  0.0663
  341TMC3    C7 5174   1.271   4.174   9.209 -0.3099  0.6856  0.7310
  341TMC3    C8 5175   1.156   4.366   9.614  0.1200 -0.6936 -0.4024
  341TMC3    O1 5176   1.385   4.202   9.244  0.7809 -0.0460  0.0476
  341TMC3    O2 5177   1.258   4.410   9.673 -0.3291 -0.0944  0.2477
  342MPD2     C 5178   4.268   3.127   0.047 -0.3437  0.5088 -0.7550
  342MPD2    C1 5179   4.369   3.153  17.697 -0.3802  0.3702  0.1061
  342MPD2    C2 5180   4.447   3.265  17.708 -0.3706 -1.2726  0.4812
  342MPD2    C3 5181   4.423   3.351   0.072  0.7700  0.1215 -0.3003
  342MPD2    C4 5182   4.318   3.330   0.164 -0.4865  0.4087  0.7530
  342MPD2    C5 5183   4.250   3.210   0.151 -0.4694  0.1503 -0.8914
  342MPD2     H 5184   4.522   3.280  17.631  0.7068  0.8012  1.9361
  342MPD2    H1 5185   4.294   3.394   0.248 -2.7192 -1.0733  1.2474
  342MPD2    H2 5186   4.201   3.043   0.040  2.1111 -1.5219  0.2424
  342MPD2    H3 5187   4.178   3.190   0.229 -1.1696 -0.1146 -1.6021
  342MPD2     N 5188   4.509   3.462   0.084 -0.3309  0.9011  0.0917
  342MPD2    H5 5189   4.463   3.547   0.114 -1.7519  0.3366 -0.4420
  342MPD2    N1 5190   4.387   3.061  17.586 -0.0167 -0.1262  0.3337
  342MPD2    H7 5191   4.467   3.077  17.526  0.1785  0.2553  0.6987
  343TMC3    C1 5192   4.336   2.896  17.424 -0.3664 -0.0259 -0.4228
  343TMC3    C2 5193   4.407   2.979  17.333  0.3472  0.4998 -0.5759
  343TMC3    C3 5194   4.465   2.916  17.230  0.5338  0.0888 -0.7018
  343TMC3    C4 5195   4.336   2.761  17.419  0.0704  0.0270  0.0659
  343TMC3    C5 5196   4.397   2.708  17.316  0.6221 -0.4196  0.6194
  343TMC3    C6 5197   4.459   2.779  17.215  0.9419 -0.5347  0.0185
  343TMC3     C 5198   4.297   2.955  17.553  0.4148 -0.6589  0.4977
  343TMC3     O 5199   4.197   2.903  17.607 -0.2678  0.0465 -0.0297
  343TMC3     H 5200   4.412   3.087  17.342  3.1638  0.2478  0.9264
  343TMC3    H1 5201   4.279   2.705  17.493  0.2846 -1.2753 -0.7560
  343TMC3    H2 5202   4.515   2.719  17.144  1.4287  0.4636 -0.4510
  343TMC3    C7 5203   4.385   2.566  17.292  0.1417  0.2112  0.5921
  343TMC3    C8 5204   4.524   3.004  17.124 -0.2247 -0.6650  0.7455
  343TMC3    O1 5205   4.344   2.537  17.179  0.1264  0.2623 -0.1274
  343TMC3    O2 5206   4.525   3.120  17.151  0.3699  0.0814 -0.1294
  344MPD2     C 5207   0.688   3.211  10.701 -0.0678 -0.4175  0.5025
  344MPD2    C1 5208   0.764   3.140  10.618 -0.4366  0.1125  0.3048
  344MPD2    C2 5209   0.868   3.209  10.558  0.4609  0.1184 -0.5429
  344MPD2    C3 5210   0.881   3.348  10.558  0.7969 -0.6302 -0.1186
  344MPD2    C4 5211   0.787   3.415  10.621  0.0476  0.1482  0.0125
  344MPD2    C5 5212   0.696   3.346  10.698  0.0993  0.1126  0.0167
  344MPD2     H 5213   0.927   3.155  10.485 -0.0463 -1.3593  0.1470
  344MPD2    H1 5214   0.784   3.524  10.616 -0.0763  0.2815  3.1136
  344MPD2    H2 5215   0.614   3.163  10.764 -1.5598  1.4709  0.1790
  344MPD2    H3 5216   0.630   3.400  10.764  1.1807  1.6832 -0.2051
  344MPD2     N 5217   0.968   3.422  10.476 -0.8468  0.4246 -0.0257
  344MPD2    H5 5218   0.963   3.524  10.474 -1.4248  0.3612 -2.5817
  344MPD2    N1 5219   0.745   3.003  10.605 -0.2906 -0.3873 -0.0462
  344MPD2    H7 5220   0.816   2.946  10.562  0.6500 -0.6152  1.8304
  345TMC3    C1 5221   1.111   3.481  10.303  0.3753 -0.2890 -0.2742
  345TMC3    C2 5222   1.234   3.541  10.321  0.3178 -0.1925 -0.1128
  345TMC3    C3 5223   1.254   3.658  10.252  0.1449 -0.2842  0.2144
  345TMC3    C4 5224   1.005   3.539  10.239 -0.2052 -0.1619  1.3284
  345TMC3    C5 5225   1.027   3.664  10.188  0.1556  0.9453 -0.5108
  345TMC3    C6 5226   1.150   3.725  10.187 -0.1916 -0.3180 -0.4933
  345TMC3     C 5227   1.068   3.379  10.399 -0.4295 -0.8684  0.3362
  345TMC3     O 5228   1.119   3.265  10.406  0.3746  0.1903 -0.4419
  345TMC3     H 5229   1.305   3.489  10.383 -1.8818 -1.7716  1.0995
  345TMC3    H1 5230   0.908   3.494  10.225  0.6416 -1.1205 -1.5283
  345TMC3    H2 5231   1.172   3.810  10.123  0.2970 -0.6431 -0.7597
  345TMC3    C7 5232   0.938   3.747  10.107 -0.0875  0.3164 -0.2303
  345TMC3    C8 5233   1.378   3.733  10.269  0.5759  0.7516 -0.0322
  345TMC3    O1 5234   0.964   3.867  10.111 -0.3699  0.0685 -0.4418
  345TMC3    O2 5235   1.484   3.674  10.285  0.3430  0.2564  0.3731
  346MPD2     C 5236   0.586   4.691  14.054 -0.6578  0.0044 -0.4896
  346MPD2    C1 5237   0.694   4.626  14.002  0.2266  0.3786 -0.4419
  346MPD2    C2 5238   0.804   4.604  14.088 -0.0581  0.0594 -0.6883
  346MPD2    C3 5239   0.811   4.643  14.223  0.0941  0.0730  0.3312
  346MPD2    C4 5240   0.698   4.703  14.270 -0.6253 -0.4914  0.1606
  346MPD2    C5 5241   0.594   4.728  14.187 -0.6156 -1.0017 -0.0108
  346MPD2     H 5242   0.892   4.554  14.048 -1.3915 -0.7445 -2.6113
  346MPD2    H1 5243   0.685   0.000  14.372 -0.5473  0.4335 -0.1259
  346MPD2    H2 5244   0.492   4.716  14.006 -0.0727  0.8893 -1.1909
  346MPD2    H3 5245   0.503   0.035  14.228 -0.2549 -0.2765  0.0378
  346MPD2     N 5246   0.932   4.626  14.293 -0.7362  0.2625  0.0987
  346MPD2    H5 5247   1.005   4.574  14.245 -2.5756  1.2455 -3.7735
  346MPD2    N1 5248   0.705   4.589  13.868 -0.5350  0.4218  0.0682
  346MPD2    H7 5249   0.790   4.537  13.847 -0.3017  1.7005 -2.0927
  347TMC3    C1 5250   1.090   4.646  14.457 -0.1535  0.3624  1.0867
  347TMC3    C2 5251   1.187   4.631  14.361  0.1026 -0.2306 -0.0141
  347TMC3    C3 5252   1.309   4.593  14.406 -0.7989 -0.7302 -0.2019
  347TMC3    C4 5253   1.119   4.628  14.588 -0.3466  1.0525 -0.5014
  347TMC3    C5 5254   1.248   4.597  14.630 -0.4563  0.0800  0.6771
  347TMC3    C6 5255   1.344   4.572  14.537 -0.3896 -0.5362  0.1097
  347TMC3     C 5256   0.951   4.665  14.421  0.3213  0.4241 -0.0961
  347TMC3     O 5257   0.892   4.730  14.505 -0.1605 -0.2961 -0.7322
  347TMC3     H 5258   1.175   4.659  14.257  2.4554 -2.2418 -0.8341
  347TMC3    H1 5259   1.045   4.654  14.663  0.0743 -0.2982  0.3782
  347TMC3    H2 5260   1.447   4.552  14.565 -0.3646  1.0131  1.1394
  347TMC3    C7 5261   1.271   4.568  14.772 -0.0880 -0.2068 -0.8361
  347TMC3    C8 5262   1.429   4.599  14.321  0.1519 -0.2787 -0.1731
  347TMC3    O1 5263   1.171   4.566  14.839 -0.4170 -0.0948 -0.4231
  347TMC3    O2 5264   1.519   4.523  14.352 -0.7976 -0.2351  0.0534
  348MPD2     C 5265   4.051   4.041  11.496 -0.7928 -0.2084 -0.5769
  348MPD2    C1 5266   4.162   4.118  11.470 -0.3390 -0.2579  0.6488
  348MPD2    C2 5267   4.174   4.203  11.361 -0.1030 -0.4601  0.6520
  348MPD2    C3 5268   4.064   4.200  11.273 -0.2816  0.2201  0.2083
  348MPD2    C4 5269   3.944   4.136  11.300 -0.0052  0.0541  0.1406
  348MPD2    C5 5270   3.939   4.057  11.412 -0.3839 -0.6157 -0.6583
  348MPD2     H 5271   4.273   4.239  11.337 -0.5259 -0.0099 -0.4047
  348MPD2    H1 5272   3.856   4.139  11.236  0.5209 -1.9725 -0.6657
  348MPD2    H2 5273   4.045   3.985  11.589 -2.4025  0.5174 -0.2485
  348MPD2    H3 5274   3.849   4.000  11.432 -0.9563 -0.1812 -1.9590
  348MPD2     N 5275   4.094   4.265  11.147 -0.1134 -0.8857 -0.3144
  348MPD2    H5 5276   4.186   4.306  11.135 -0.1426 -1.3596 -2.2053
  348MPD2    N1 5277   4.275   4.109  11.562  0.5377 -0.0162 -0.0930
  348MPD2    H7 5278   4.351   4.174  11.548  2.5851 -2.4913 -0.5343
  349TMC3    C1 5279   4.419   4.048  11.739 -0.1898 -0.1698 -0.7725
  349TMC3    C2 5280   4.438   3.955  11.841 -0.4455  1.0630 -0.1608
  349TMC3    C3 5281   4.566   3.914  11.865  0.7040  0.1960  0.3338
  349TMC3    C4 5282   4.517   4.119  11.675 -0.6863  0.6443 -0.0501
  349TMC3    C5 5283   4.643   4.080  11.708 -0.5463  0.1721  0.5516
  349TMC3    C6 5284   4.666   3.982  11.798 -0.0199  0.1465 -0.1022
  349TMC3     C 5285   4.285   4.040  11.682  0.2091  0.0083  0.0538
  349TMC3     O 5286   4.209   3.958  11.729 -0.0141  0.0523 -0.5170
  349TMC3     H 5287   4.355   3.910  11.894  0.6212 -3.3499 -2.1797
  349TMC3    H1 5288   4.502   4.204  11.610 -0.8025 -1.3772 -2.6857
  349TMC3    H2 5289   0.028   3.937  11.811 -1.0734 -1.7189  1.4138
  349TMC3    C7 5290   0.025   4.165  11.697  0.2929  0.8104  0.9347
  349TMC3    C8 5291   4.605   3.824  11.973 -0.1331 -0.1664 -0.6283
  349TMC3    O1 5292   0.101   4.155  11.789 -0.0182  0.3315 -0.6233
  349TMC3    O2 5293   4.706   3.840  12.039  0.7587 -0.1369  0.0062
  350MPD2     C 5294   4.030   2.411  10.123 -1.1353  0.7364  0.1295
  350MPD2    C1 5295   3.917   2.339  10.158  0.8019  0.4359  0.6900
  350MPD2    C2 5296   3.889   2.307  10.291  0.1846 -0.6103 -0.1004
  350MPD2    C3 5297   3.962   2.370  10.390  0.1518  0.0567  0.3226
  350MPD2    C4 5298   4.065   2.449  10.350 -0.1489  0.2185 -0.3694
  350MPD2    C5 5299   4.096   2.476  10.224 -0.1263  0.3238 -0.1358
  350MPD2     H 5300   3.805   2.242  10.312 -0.2942 -0.2292 -0.8312
  350MPD2    H1 5301   4.116   2.505  10.427  1.2915 -0.5987 -0.7207
  350MPD2    H2 5302   4.054   2.414  10.017  2.7159  1.0296  1.0017
  350MPD2    H3 5303   4.173   2.551  10.208 -0.7517  0.8024 -0.9062
  350MPD2     N 5304   3.931   2.353  10.530  0.0028 -0.2253 -0.1152
  350MPD2    H5 5305   3.854   2.289  10.544 -0.5097  0.4331  0.0967
  350MPD2    N1 5306   3.835   2.269  10.065  0.2559 -0.8508 -0.4419
  350MPD2    H7 5307   3.771   2.194  10.091 -2.0345  1.1149 -0.4321
  351TMC3    C1 5308   3.790   2.205   9.832  0.0126  0.5321  0.7117
  351TMC3    C2 5309   3.738   2.087   9.871 -0.5375 -0.2105 -0.7984
  351TMC3    C3 5310   3.669   2.018   9.777 -0.2126 -0.3450  0.2112
  351TMC3    C4 5311   3.787   2.248   9.701  0.0935  1.0688  0.5211
  351TMC3    C5 5312   3.726   2.164   9.610 -0.6379 -0.2542  0.3343
  351TMC3    C6 5313   3.656   2.053   9.648  0.5392  0.6963  0.1156
  351TMC3     C 5314   3.837   2.306   9.934 -0.2043  0.0925  0.0377
  351TMC3     O 5315   3.867   2.421   9.888  0.1747 -0.1193  0.0464
  351TMC3     H 5316   3.764   2.044   9.966 -0.1846  1.3068 -0.2108
  351TMC3    H1 5317   3.847   2.333   9.673  1.7261  0.1371  1.2207
  351TMC3    H2 5318   3.605   1.988   9.578  1.7535  0.7064 -0.7802
  351TMC3    C7 5319   3.691   2.217   9.479  0.2200 -0.0656 -0.1279
  351TMC3    C8 5320   3.578   1.916   9.828 -0.0711 -0.4047  0.5557
  351TMC3    O1 5321   3.711   2.340   9.466 -0.5642 -0.7879  0.5645
  351TMC3    O2 5322   3.530   1.844   9.747  0.5153 -0.5756  0.1655
  352MPD2     C 5323   1.176   4.310   1.029  0.0054 -0.5893 -0.4252
  352MPD2    C1 5324   1.282   4.341   0.942  0.1688  0.6685  0.8670
  352MPD2    C2 5325   1.340   4.240   0.861 -0.9660 -0.4715 -0.2797
  352MPD2    C3 5326   1.309   4.113   0.898 -0.0233  0.0821  0.0326
  352MPD2    C4 5327   1.222   4.077   1.002 -0.4493  0.2558 -0.1099
  352MPD2    C5 5328   1.142   4.173   1.059  0.2839 -0.4076  0.0265
  352MPD2     H 5329   1.411   4.270   0.785  0.0527 -1.6647  0.1922
  352MPD2    H1 5330   1.194   3.975   1.025  1.5469 -0.8148 -2.3852
  352MPD2    H2 5331   1.113   4.386   1.073  3.1048  0.5210  2.1523
  352MPD2    H3 5332   1.067   4.155   1.135 -0.1852 -1.6267 -0.7219
  352MPD2     N 5333   1.361   4.004   0.823  0.2141  0.0334 -0.4661
  352MPD2    H5 5334   1.331   3.913   0.856  0.7356 -1.6197 -4.5842
  352MPD2    N1 5335   1.310   4.477   0.928  0.8254 -0.2080  0.3480
  352MPD2    H7 5336   1.252   4.539   0.983 -0.5279 -0.3336 -0.9290
  353TMC3    C1 5337   1.493   3.881   0.673 -0.2184 -0.1772 -0.1733
  353TMC3    C2 5338   1.611   3.875   0.602 -0.3560 -0.2112 -0.2868
  353TMC3    C3 5339   1.668   3.758   0.562 -0.2717 -0.3791  0.1834
  353TMC3    C4 5340   1.417   3.771   0.691  0.2751 -0.0781  0.7761
  353TMC3    C5 5341   1.470   3.653   0.651  0.6107  0.8288 -0.1842
  353TMC3    C6 5342   1.590   3.642   0.577 -0.2638  0.7018  0.4383
  353TMC3     C 5343   1.454   4.013   0.722 -0.1414  0.8629  0.0229
  353TMC3     O 5344   1.502   4.111   0.664  0.4139 -0.2203  0.3059
  353TMC3     H 5345   1.668   3.967   0.592  0.5458 -0.6998  0.2917
  353TMC3    H1 5346   1.316   3.787   0.728 -0.3439 -1.3228 -0.4210
  353TMC3    H2 5347   1.619   3.542   0.549 -0.6876  1.4114 -2.4876
  353TMC3    C7 5348   1.377   3.543   0.649 -0.0250 -0.6379 -0.1286
  353TMC3    C8 5349   1.810   3.746   0.545  0.2623 -0.1804 -0.1175
  353TMC3    O1 5350   1.387   3.461   0.554 -0.3490 -0.1770  0.1908
  353TMC3    O2 5351   1.873   3.850   0.532  0.1732  0.0752 -0.0975
  354TMC3    C1 5352   3.263   0.633  13.289  0.0837  0.2028  1.0691
  354TMC3    C2 5353   3.350   0.739  13.316 -0.0561  0.6273  0.5011
  354TMC3    C3 5354   3.463   0.751  13.242 -0.0101  0.0408 -0.0188
  354TMC3    C4 5355   3.284   0.543  13.188 -0.7904 -0.0382  0.5112
  354TMC3    C5 5356   3.397   0.569  13.108  0.7409 -0.0268 -0.1819
  354TMC3    C6 5357   3.479   0.674  13.131 -0.4111 -0.3009  0.1730
  354TMC3     C 5358   3.127   0.671  13.313 -0.4425  0.3902  0.2261
  354TMC3     O 5359   3.103   0.787  13.348  0.0046  0.6873  0.1256
  354TMC3     H 5360   3.337   0.799  13.405  0.8934  0.2868  0.8722
  354TMC3    H1 5361   3.231   0.449  13.179 -0.9517 -0.2373  3.5582
  354TMC3    H2 5362   3.556   0.704  13.061 -2.1817  0.2357 -1.5487
  354TMC3    C7 5363   3.390   0.509  12.976  0.1850 -0.1952  0.4093
  354TMC3    C8 5364   3.523   0.883  13.238  0.1957  0.2966  0.7110
  354TMC3    O1 5365   3.279   0.491  12.938  0.2893  0.0322 -0.0133
  354TMC3    O2 5366   3.566   0.925  13.344  0.1408  0.0077  0.2804
  355MPD2     C 5367   3.977   1.207  11.841  0.1205  0.0500 -0.6336
  355MPD2    C1 5368   4.016   1.284  11.738  0.8879  0.0590  0.2567
  355MPD2    C2 5369   4.143   1.278  11.695  0.1981  0.1054 -0.7265
  355MPD2    C3 5370   4.238   1.215  11.769 -0.5083  0.2703  0.4287
  355MPD2    C4 5371   4.202   1.154  11.890 -0.5584  0.0018 -0.1045
  355MPD2    C5 5372   4.071   1.143  11.915  0.4507 -0.1049  0.2910
  355MPD2     H 5373   4.168   1.318  11.597  0.6419 -0.1314 -0.7097
  355MPD2    H1 5374   4.272   1.120  11.966 -1.7146 -1.9262  0.0834
  355MPD2    H2 5375   3.875   1.203  11.878  0.1923  0.4996 -0.3885
  355MPD2    H3 5376   4.049   1.097  12.011  0.3042 -2.6537 -0.9714
  355MPD2     N 5377   4.373   1.204  11.740 -0.3694  0.3666 -0.0010
  355MPD2    H5 5378   4.442   1.179  11.810 -0.4967 -0.8039 -0.2871
  355MPD2    N1 5379   3.913   1.373  11.682  0.5215  0.6001  0.0968
  355MPD2    H7 5380   3.822   1.375  11.728  0.5527  1.3715  0.1298
  356TMC3    C1 5381   4.565   1.294  11.647 -0.3102 -0.2758 -0.4154
  356TMC3    C2 5382   4.630   1.349  11.545  0.2829 -1.0564  0.3660
  356TMC3    C3 5383   0.007   1.430  11.569 -0.3793 -0.2456 -0.4848
  356TMC3    C4 5384   4.618   1.305  11.774  0.2720 -0.8502  0.0693
  356TMC3    C5 5385   4.726   1.386  11.796  0.9671 -0.4272  0.1463
  356TMC3    C6 5386   0.056   1.452  11.697 -0.3815 -0.3287 -0.1973
  356TMC3     C 5387   4.428   1.259  11.628  0.2932  0.0933  0.2004
  356TMC3     O 5388   4.382   1.274  11.510 -0.2797  0.0170 -0.3341
  356TMC3     H 5389   4.592   1.340  11.443  0.4904 -2.7518  0.4310
  356TMC3    H1 5390   4.561   1.279  11.862 -0.5905 -0.9639 -0.5187
  356TMC3    H2 5391   0.148   1.508  11.711  0.1231 -0.6299 -2.3429
  356TMC3    C7 5392   0.022   1.415  11.935  0.0026  0.3539  0.4282
  356TMC3    C8 5393   0.079   1.486  11.457 -0.1624 -0.2199  0.0400
  356TMC3    O1 5394   4.723   1.338  12.024 -0.6203 -0.4807 -0.5277
  356TMC3    O2 5395   0.076   1.432  11.347  0.1476 -0.0665  0.1442
  357MPD2     C 5396   3.326   1.099   0.456  0.0409 -0.5448 -0.6298
  357MPD2    C1 5397   3.397   1.070   0.564  0.3282 -0.1495  0.1908
  357MPD2    C2 5398   3.348   1.111   0.686  0.4398  0.4118 -0.3633
  357MPD2    C3 5399   3.222   1.163   0.692 -1.2567  0.2649  0.0475
  357MPD2    C4 5400   3.152   1.193   0.576  0.7336  0.0426  0.4526
  357MPD2    C5 5401   3.207   1.165   0.459  0.0596 -0.3386  0.3066
  357MPD2     H 5402   3.405   1.088   0.775 -1.6991  2.6196  1.5619
  357MPD2    H1 5403   3.059   1.248   0.569  0.0920 -0.9854  1.0105
  357MPD2    H2 5404   3.368   1.076   0.359  0.3140 -2.9842  0.0522
  357MPD2    H3 5405   3.174   1.216   0.370 -1.5548 -0.2759  0.9394
  357MPD2     N 5406   3.153   1.190   0.815  0.0911 -0.2861  0.1661
  357MPD2    H5 5407   3.055   1.214   0.804  0.4947  0.5237 -1.8198
  357MPD2    N1 5408   3.522   1.005   0.551  0.1920  0.3869 -0.0910
  357MPD2    H7 5409   3.538   0.953   0.466 -1.9853 -0.2455 -0.1136
  358TMC3    C1 5410   3.701   0.866   0.619  0.0544  0.2323  0.1083
  358TMC3    C2 5411   3.719   0.814   0.489 -0.6513  0.8045 -0.5828
  358TMC3    C3 5412   3.761   0.684   0.485  0.2081  0.5550  0.5025
  358TMC3    C4 5413   3.755   0.804   0.729  0.5894 -0.6545 -0.7957
  358TMC3    C5 5414   3.809   0.678   0.718 -0.5183  0.6054 -0.6018
  358TMC3    C6 5415   3.815   0.614   0.596  0.2248 -0.2555 -0.5178
  358TMC3     C 5416   3.615   0.976   0.649 -0.3060 -0.2608 -0.3684
  358TMC3     O 5417   3.606   0.994   0.769  0.0422 -0.0713 -0.1596
  358TMC3     H 5418   3.681   0.860   0.399 -1.7618  1.5718  0.2684
  358TMC3    H1 5419   3.739   0.841   0.830 -1.9482  0.9321 -1.7988
  358TMC3    H2 5420   3.827   0.506   0.590  1.3622 -0.0628 -1.6611
  358TMC3    C7 5421   3.867   0.621   0.835  0.3459  0.0557  0.3212
  358TMC3    C8 5422   3.739   0.620   0.354  0.0955  0.1036  0.6409
  358TMC3    O1 5423   3.857   0.686   0.941  0.6582  0.0042  0.3801
  358TMC3    O2 5424   3.726   0.690   0.254  0.1001  0.3354 -0.1161
  359MPD2     C 5425   3.900   4.427  11.603 -0.1192  0.1417 -0.3280
  359MPD2    C1 5426   3.991   4.532  11.608  0.6804  0.0941 -0.4525
  359MPD2    C2 5427   4.015   4.592  11.725 -0.2002  0.6716 -0.5881
  359MPD2    C3 5428   3.959   4.553  11.846 -0.3591  0.2606  0.3155
  359MPD2    C4 5429   3.873   4.445  11.840  0.1789 -0.2242  0.6282
  359MPD2    C5 5430   3.844   4.385  11.720  0.2843  0.2460  0.0067
  359MPD2     H 5431   4.085   4.675  11.721  0.7341 -0.0664  0.6406
  359MPD2    H1 5432   3.825   4.410  11.930 -1.6100 -2.6865 -1.2531
  359MPD2    H2 5433   3.872   4.377  11.511  2.6248 -0.7277 -0.6832
  359MPD2    H3 5434   3.771   4.306  11.710  0.0233  0.3360  1.2024
  359MPD2     N 5435   3.975   4.612  11.969  0.6826  0.4124  0.3744
  359MPD2    H5 5436   3.936   4.566  12.050 -1.0953 -0.0605 -0.7620
  359MPD2    N1 5437   4.049   4.587  11.491 -0.1996  0.0688  0.1368
  359MPD2    H7 5438   4.114   4.664  11.505 -0.7700  0.1993  2.1076
  360TMC3    C1 5439   4.074   4.652  11.263  0.0848 -0.0079 -0.0041
  360TMC3    C2 5440   4.173   0.014  11.289  0.3323  0.4857  0.0117
  360TMC3    C3 5441   4.207   0.103  11.185 -0.1466  0.3743 -0.2707
  360TMC3    C4 5442   4.025   4.642  11.139  0.4183  0.2704  0.5175
  360TMC3    C5 5443   4.084   4.717  11.040  0.7047  0.5987 -0.8730
  360TMC3    C6 5444   4.165   0.089  11.059 -0.2295 -0.7992 -0.0478
  360TMC3     C 5445   4.014   4.561  11.359  0.0339  0.2700  0.7859
  360TMC3     O 5446   3.941   4.481  11.314 -0.7184 -0.3130 -0.0358
  360TMC3     H 5447   4.194   0.045  11.390 -1.0671 -0.7036  0.6638
  360TMC3    H1 5448   3.954   4.564  11.113 -2.1032  2.6502  0.2835
  360TMC3    H2 5449   4.197   0.161  10.984  2.4624 -1.7173  0.2241
  360TMC3    C7 5450   4.044   4.708  10.904 -0.0885  0.9268 -0.2109
  360TMC3    C8 5451   4.260   0.236  11.226 -0.4223  0.3483  0.5755
  360TMC3    O1 5452   4.114   0.025  10.819  0.1808  0.0682  0.3081
  360TMC3    O2 5453   4.227   0.265  11.340  0.2208  0.3470 -0.5920
  361MPD2     C 5454   0.573   3.609  16.548 -0.0061 -0.0264 -0.4502
  361MPD2    C1 5455   0.558   3.657  16.679  0.0885 -0.8555 -0.5383
  361MPD2    C2 5456   0.659   3.633  16.773  0.4757  0.0528 -0.1376
  361MPD2    C3 5457   0.775   3.568  16.732  0.7388 -0.7310  0.1273
  361MPD2    C4 5458   0.789   3.524  16.602  0.0372  0.0366  0.6421
  361MPD2    C5 5459   0.690   3.546  16.512  0.9428  0.3736 -0.3475
  361MPD2     H 5460   0.637   3.665  16.874  0.8950 -0.0192 -0.0194
  361MPD2    H1 5461   0.863   3.451  16.573  1.2022  1.4156  0.1741
  361MPD2    H2 5462   0.509   3.628  16.463  0.2228  0.4918 -0.5137
  361MPD2    H3 5463   0.691   3.491  16.419 -2.1212 -2.9875  1.6097
  361MPD2     N 5464   0.876   3.526  16.819  0.2050 -0.5269 -0.0168
  361MPD2    H5 5465   0.964   3.503  16.774 -1.7694 -3.4387 -2.3642
  361MPD2    N1 5466   0.448   3.731  16.709 -0.1412  0.1445  0.6122
  361MPD2    H7 5467   0.447   3.748  16.809 -0.2128  0.2941  0.5850
  362TMC3    C1 5468   0.259   3.875  16.678 -0.3753 -0.1869  0.1289
  362TMC3    C2 5469   0.284   3.934  16.795 -0.9107 -0.3710  0.7997
  362TMC3    C3 5470   0.204   4.032  16.836  0.3629 -0.6504 -0.0518
  362TMC3    C4 5471   0.147   3.905  16.603  0.0261  0.6442 -0.0468
  362TMC3    C5 5472   0.071   4.006  16.645  0.0958 -0.2186  1.0493
  362TMC3    C6 5473   0.095   4.076  16.756 -0.4781  0.6735 -0.5029
  362TMC3     C 5474   0.351   3.779  16.621 -0.2755  0.4280 -1.1707
  362TMC3     O 5475   0.343   3.761  16.502 -0.0868  0.3682  0.0942
  362TMC3     H 5476   0.379   3.918  16.844 -1.6998 -0.9414  2.1545
  362TMC3    H1 5477   0.131   3.838  16.520  0.3896 -0.5861  0.8841
  362TMC3    H2 5478   0.038   4.166  16.774  0.1009  0.8885  0.2356
  362TMC3    C7 5479   4.701   4.056  16.560  0.7272  0.6040 -0.3492
  362TMC3    C8 5480   0.255   4.126  16.941 -0.9871 -0.0739 -0.1015
  362TMC3    O1 5481   4.647   4.163  16.585  0.0891  0.1538 -0.1380
  362TMC3    O2 5482   0.370   4.105  16.974  0.1437 -0.5530 -0.2108
  363TMC3    C1 5483   3.317   2.114   9.295 -0.6432 -0.1412 -0.0503
  363TMC3    C2 5484   3.303   1.973   9.314  0.7048  0.0383  0.0333
  363TMC3    C3 5485   3.312   1.916   9.435  0.6683  0.0718  0.4323
  363TMC3    C4 5486   3.323   2.191   9.410 -0.4737 -0.2953  0.5838
  363TMC3    C5 5487   3.317   2.125   9.529  0.2620  0.6002 -0.0705
  363TMC3    C6 5488   3.321   1.988   9.552 -0.2945 -0.6457 -0.1958
  363TMC3     C 5489   3.299   2.180   9.165  0.1616 -0.2928 -0.0284
  363TMC3     O 5490   3.279   2.303   9.169 -0.6156  0.3742  0.1621
  363TMC3     H 5491   3.285   1.909   9.228  1.9382  1.2915 -1.1621
  363TMC3    H1 5492   3.346   2.297   9.403 -1.7131 -0.0852 -0.2209
  363TMC3    H2 5493   3.339   1.941   9.648 -3.6944 -2.1883 -0.3059
  363TMC3    C7 5494   3.323   2.205   9.646 -0.1670  0.4255 -0.3762
  363TMC3    C8 5495   3.299   1.769   9.436 -0.3507 -0.7057 -0.0103
  363TMC3    O1 5496   3.389   2.307   9.632 -0.1033  0.1567  0.3398
  363TMC3    O2 5497   3.228   1.715   9.351 -0.3170 -0.4379  0.1094
  364MPD2     C 5498   2.532   1.598  10.761  0.0813  0.4582  0.1773
  364MPD2    C1 5499   2.597   1.557  10.645  0.0379  0.0965  0.1769
  364MPD2    C2 5500   2.644   1.429  10.636  0.6990  0.4128 -0.0370
  364MPD2    C3 5501   2.600   1.330  10.725 -0.2373  0.0856 -0.1157
  364MPD2    C4 5502   2.522   1.367  10.833 -0.0598  0.2106  0.0999
  364MPD2    C5 5503   2.503   1.501  10.854  0.1130 -0.3489  0.2600
  364MPD2     H 5504   2.721   1.404  10.563  1.0594 -2.1697  1.2432
  364MPD2    H1 5505   2.499   1.299  10.915  2.8701 -1.3181 -0.3432
  364MPD2    H2 5506   2.511   1.700  10.792 -1.8772  0.4672 -1.1490
  364MPD2    H3 5507   2.450   1.536  10.942  1.2224  1.5937  0.1389
  364MPD2     N 5508   2.642   1.198  10.713  0.6857 -0.4877 -0.5957
  364MPD2    H5 5509   2.631   1.142  10.797  0.0919  0.1967 -0.2148
  364MPD2    N1 5510   2.629   1.652  10.547  0.4126  0.6150 -0.2960
  364MPD2    H7 5511   2.640   1.752  10.561 -1.5415  0.8749 -0.6416
  365TMC3    C1 5512   2.737   1.715  10.340  0.2178  0.7361  0.1383
  365TMC3    C2 5513   2.743   1.692  10.207 -0.0053  0.1236  0.1367
  365TMC3    C3 5514   2.850   1.741  10.135  0.0395 -0.7585 -0.0529
  365TMC3    C4 5515   2.841   1.766  10.415 -0.6500 -0.1950 -0.2041
  365TMC3    C5 5516   2.951   1.807  10.344  0.2801  0.0835  0.4179
  365TMC3    C6 5517   2.954   1.805  10.205  0.7101 -0.1092 -0.1951
  365TMC3     C 5518   2.665   1.613  10.418  0.4735  0.3352  0.0809
  365TMC3     O 5519   2.637   1.508  10.362 -0.1020  0.2561  0.4401
  365TMC3     H 5520   2.656   1.652  10.158 -1.2598  2.6428  0.3070
  365TMC3    H1 5521   2.832   1.801  10.518 -0.6688 -1.0322  0.0812
  365TMC3    H2 5522   3.046   1.812  10.148  1.1608  2.0707  0.8075
  365TMC3    C7 5523   3.072   1.837  10.419 -0.3124  0.3291 -0.1274
  365TMC3    C8 5524   2.863   1.732   9.990  0.1394 -0.1688 -0.6332
  365TMC3    O1 5525   3.140   1.927  10.378 -0.5343 -0.4722  0.1760
  365TMC3    O2 5526   2.913   1.820   9.919 -0.0374  0.0689 -0.1581
  366MPD2     C 5527   0.596   2.641  15.080  0.8116  0.3578 -0.2257
  366MPD2    C1 5528   0.730   2.623  15.078  0.4909 -0.0129 -0.1291
  366MPD2    C2 5529   0.788   2.499  15.116 -0.1565  0.1395  0.6287
  366MPD2    C3 5530   0.706   2.393  15.155  0.2494 -0.5085 -0.6068
  366MPD2    C4 5531   0.569   2.411  15.150  0.3693 -0.2631  0.5681
  366MPD2    C5 5532   0.516   2.533  15.120 -0.3417  0.5230 -0.4018
  366MPD2     H 5533   0.896   2.492  15.112 -0.2242  0.3941 -1.9292
  366MPD2    H1 5534   0.505   2.336  15.195 -1.8803  1.9685  1.1029
  366MPD2    H2 5535   0.546   2.734  15.057  0.7473  0.6778  1.2152
  366MPD2    H3 5536   0.407   2.531  15.120 -0.3418  0.0481 -2.1040
  366MPD2     N 5537   0.767   2.265  15.178 -0.5387  0.3103 -0.1259
  366MPD2    H5 5538   0.868   2.266  15.182 -0.5477  0.6658 -0.0623
  366MPD2    N1 5539   0.814   2.734  15.051  0.0624  0.1478 -0.3870
  366MPD2    H7 5540   0.914   2.727  15.069  0.0831 -0.3858 -0.7078
  367TMC3    C1 5541   0.877   2.956  14.970 -0.6982 -0.3022 -0.3840
  367TMC3    C2 5542   0.989   2.956  15.051 -0.0238 -0.0699 -0.5967
  367TMC3    C3 5543   1.049   3.072  15.099  0.2398  0.6494 -0.3973
  367TMC3    C4 5544   0.825   3.080  14.945 -0.7604 -0.5417  0.3924
  367TMC3    C5 5545   0.886   3.195  14.988  0.2202 -0.0019 -0.9400
  367TMC3    C6 5546   0.995   3.196  15.066 -0.6153  0.3149 -0.6221
  367TMC3     C 5547   0.779   2.850  14.981  0.4332  0.6189 -0.7263
  367TMC3     O 5548   0.675   2.881  14.927  0.2348  0.0347 -0.2790
  367TMC3     H 5549   1.034   2.864  15.088  3.9281  1.5406 -1.4602
  367TMC3    H1 5550   0.725   3.085  14.902  0.6311  0.4991 -2.7064
  367TMC3    H2 5551   1.044   3.286  15.103 -3.0658  1.7114 -0.7332
  367TMC3    C7 5552   0.794   3.307  14.988  1.2708 -0.9559  0.5298
  367TMC3    C8 5553   1.160   3.063  15.195 -0.6574  0.3350 -0.3297
  367TMC3    O1 5554   0.784   3.364  15.093 -0.1018 -0.3391 -0.3038
  367TMC3    O2 5555   1.224   2.958  15.203  0.5755 -0.1764 -0.0315
  368MPD2     C 5556   2.465   4.355  12.962  0.1176  0.1111  0.4274
  368MPD2    C1 5557   2.470   4.451  12.859 -0.6302  0.2478 -0.5520
  368MPD2    C2 5558   2.595   4.493  12.817  0.6545  0.0330 -0.2344
  368MPD2    C3 5559   2.710   4.464  12.885  0.0367 -0.3516  0.8071
  368MPD2    C4 5560   2.704   4.376  12.991 -0.3514 -0.2218  0.2956
  368MPD2    C5 5561   2.583   4.320  13.023 -0.1334 -0.8871 -0.0954
  368MPD2     H 5562   2.597   4.555  12.728  2.4502 -0.4441 -0.5336
  368MPD2    H1 5563   2.788   4.334  13.045  0.5760  2.2624  0.7691
  368MPD2    H2 5564   2.373   4.305  12.992  0.0276 -0.1053 -0.2038
  368MPD2    H3 5565   2.568   4.243  13.099 -0.8978 -0.8413 -0.1964
  368MPD2     N 5566   2.840   4.507  12.846 -0.9198  0.4111 -0.0454
  368MPD2    H5 5567   2.911   4.465  12.905 -0.8491  0.3053 -0.2047
  368MPD2    N1 5568   2.343   4.492  12.798  0.0506 -0.1517  0.3276
  368MPD2    H7 5569   2.263   4.470  12.858 -0.1782 -0.6741 -0.1646
  369TMC3    C1 5570   2.195   4.604  12.638 -0.4901 -0.0456  0.7701
  369TMC3    C2 5571   2.192   4.710  12.551  0.1507  0.2790  0.1314
  369TMC3    C3 5572   2.081   0.004  12.480  1.1314  0.2593  0.0200
  369TMC3    C4 5573   2.084   4.527  12.659  0.2827 -0.3645  0.3918
  369TMC3    C5 5574   1.973   4.566  12.593 -0.1661 -0.1485 -0.4314
  369TMC3    C6 5575   1.969   4.666  12.496 -0.0600 -0.2261  0.7434
  369TMC3     C 5576   2.332   4.563  12.677  0.3148 -0.3601 -0.4162
  369TMC3     O 5577   2.418   4.569  12.590 -0.0706 -0.1317  0.1721
  369TMC3     H 5578   2.280   0.039  12.546  0.8448 -0.4820  2.4246
  369TMC3    H1 5579   2.084   4.454  12.739 -0.2656  0.3596  1.0576
  369TMC3    H2 5580   1.890   4.687  12.425 -0.1065  1.2526  1.2381
  369TMC3    C7 5581   1.850   4.518  12.656  0.8863 -0.4933  1.0520
  369TMC3    C8 5582   2.086   0.138  12.417  0.7833 -0.0593 -0.4436
  369TMC3    O1 5583   1.859   4.445  12.754  0.1271 -0.3244 -0.0354
  369TMC3    O2 5584   2.153   0.222  12.471 -0.5401 -0.6513  1.1157
  370TMC3    C1 5585   1.875   4.734  16.062  0.1309 -0.0441 -0.3437
  370TMC3    C2 5586   1.792   4.674  16.154 -0.4570 -0.0169  0.1037
  370TMC3    C3 5587   1.722   4.565  16.106  0.4150 -0.6397  0.1620
  370TMC3    C4 5588   1.895   4.692  15.936  0.1827  0.3817 -0.2023
  370TMC3    C5 5589   1.824   4.585  15.890 -0.3304  0.8322  0.2030
  370TMC3    C6 5590   1.746   4.511  15.979 -0.2617  0.4331 -0.1274
  370TMC3     C 5591   1.982   0.060  16.134  0.3298 -0.2857  0.5970
  370TMC3     O 5592   2.013   0.009  16.242  0.0073  0.3029  0.2599
  370TMC3     H 5593   1.772   4.729  16.245 -1.1762  2.3456 -1.4778
  370TMC3    H1 5594   1.963   0.005  15.868 -0.4268  2.3688  0.6066
  370TMC3    H2 5595   1.683   4.432  15.939  1.1152 -1.0944  0.7348
  370TMC3    C7 5596   1.875   4.524  15.772  0.1011  0.6007  0.2870
  370TMC3    C8 5597   1.646   4.485  16.199  0.1562  0.0043 -0.1820
  370TMC3    O1 5598   1.910   4.594  15.679  0.3766  0.9016  0.0844
  370TMC3    O2 5599   1.550   4.424  16.152  0.7746  0.3265 -0.3628
  371TMC3    C1 5600   3.093   3.084  15.249  0.2871  0.3822  0.1259
  371TMC3    C2 5601   2.998   3.086  15.344 -0.1343  0.8325  0.4785
  371TMC3    C3 5602   2.952   3.202  15.396 -0.5183 -0.0542  0.5423
  371TMC3    C4 5603   3.144   3.196  15.199 -0.2381  0.0384 -0.7334
  371TMC3    C5 5604   3.098   3.317  15.250 -0.5381  0.1387 -0.1102
  371TMC3    C6 5605   3.006   3.318  15.352 -0.1949 -0.4319  0.1836
  371TMC3     C 5606   3.176   2.968  15.227 -0.0334  0.2344 -0.0975
  371TMC3     O 5607   3.279   2.991  15.170 -0.2645 -0.1793  0.5088
  371TMC3     H 5608   2.962   2.993  15.387  2.0773 -0.2728 -0.0815
  371TMC3    H1 5609   3.195   3.190  15.103  1.2079 -1.3331  0.1177
  371TMC3    H2 5610   2.988   3.413  15.400  0.8294 -0.8608  1.4343
  371TMC3    C7 5611   3.172   3.440  15.222 -0.2060 -0.1024  0.5529
  371TMC3    C8 5612   2.937   3.195  15.537 -0.2295 -1.0983 -0.3224
  371TMC3    O1 5613   3.120   3.543  15.260  0.2573  0.0733 -0.0020
  371TMC3    O2 5614   3.000   3.112  15.601 -0.4959  0.5292 -0.3754
  372MPD2     C 5615   3.103   4.699  13.355 -0.0488  0.4527  0.6175
  372MPD2    C1 5616   3.181   4.604  13.416 -0.5611  0.6412  0.0726
  372MPD2    C2 5617   3.130   4.484  13.447 -0.7447  0.1587  0.6760
  372MPD2    C3 5618   2.995   4.473  13.450 -0.0468  0.5986 -0.3188
  372MPD2    C4 5619   2.915   4.574  13.405 -0.5759  0.3660  0.1664
  372MPD2    C5 5620   2.969   4.683  13.349 -0.0639  0.8654  0.4761
  372MPD2     H 5621   3.193   4.400  13.474  1.5746  1.2960 -1.1892
  372MPD2    H1 5622   2.807   4.566  13.395 -0.2831  0.6607 -3.5111
  372MPD2    H2 5623   3.137   0.063  13.329  1.3857  0.3345  1.9855
  372MPD2    H3 5624   2.896   0.021  13.317 -0.3749  0.8016  1.0316
  372MPD2     N 5625   2.949   4.347  13.485 -0.6922 -0.4625  0.0379
  372MPD2    H5 5626   3.021   4.284  13.519 -0.2207  0.5526  0.9361
  372MPD2    N1 5627   3.322   4.619  13.423 -0.5492 -0.1568  0.4966
  372MPD2    H7 5628   3.373   4.533  13.442  2.2354  0.5330 -3.7400
  373TMC3    C1 5629   2.797   4.176  13.550 -0.0928 -0.4194 -0.1937
  373TMC3    C2 5630   2.680   4.149  13.618 -0.1032  0.3951  0.0302
  373TMC3    C3 5631   2.651   4.018  13.654  0.3655  0.0805  0.6297
  373TMC3    C4 5632   2.885   4.085  13.507 -0.8296  0.9121 -0.0376
  373TMC3    C5 5633   2.852   3.956  13.539  1.0403 -0.2021  0.5015
  373TMC3    C6 5634   2.741   3.921  13.611  0.7801 -0.8645  0.1010
  373TMC3     C 5635   2.816   4.314  13.501  0.3851  0.5093 -1.2581
  373TMC3     O 5636   2.716   4.382  13.489  0.0098 -0.3770 -0.4121
  373TMC3     H 5637   2.628   4.234  13.662 -0.4803 -0.5630  1.4336
  373TMC3    H1 5638   2.979   4.097  13.454 -1.0892  0.4648 -0.5936
  373TMC3    H2 5639   2.719   3.816  13.628 -0.7421 -0.0241  3.4062
  373TMC3    C7 5640   2.955   3.861  13.521  0.1863  0.3576 -0.2481
  373TMC3    C8 5641   2.515   3.982  13.690 -0.0845  0.0462  0.3250
  373TMC3    O1 5642   3.042   3.872  13.435  0.2234 -1.1510  0.6979
  373TMC3    O2 5643   2.429   4.047  13.634  0.5017  0.2065  0.8318
  374TMC3    C1 5644   2.580   0.429   9.418  0.1215  0.0321 -0.1413
  374TMC3    C2 5645   2.668   0.521   9.455  0.2025  0.8468 -0.5492
  374TMC3    C3 5646   2.802   0.494   9.441  0.6912 -0.3673  0.4247
  374TMC3    C4 5647   2.613   0.309   9.356 -0.1634  1.2203  0.6896
  374TMC3    C5 5648   2.744   0.281   9.352 -0.0597  0.3747  0.2650
  374TMC3    C6 5649   2.838   0.374   9.388  0.2361 -0.3939  0.5732
  374TMC3     C 5650   2.441   0.458   9.447 -0.6193  0.1888  0.4813
  374TMC3     O 5651   2.425   0.578   9.447 -0.0291  0.1253  0.0375
  374TMC3     H 5652   2.644   0.616   9.502  1.4252  1.3112 -0.8743
  374TMC3    H1 5653   2.539   0.235   9.326 -0.3820  1.5409  0.4304
  374TMC3    H2 5654   2.945   0.363   9.386  0.3207  0.3199  1.6254
  374TMC3    C7 5655   2.799   0.158   9.300 -0.5418  0.3087 -0.3058
  374TMC3    C8 5656   2.895   0.577   9.520 -0.1407 -0.1371  0.5526
  374TMC3    O1 5657   2.900   0.126   9.354  0.7813  0.5875 -0.5651
  374TMC3    O2 5658   2.863   0.696   9.533 -0.1559  0.5820  0.0502
  375MPD2     C 5659   3.052   0.430  16.794  0.3977  0.7449 -0.4652
  375MPD2    C1 5660   2.982   0.501  16.699 -0.4828 -0.5068 -0.3951
  375MPD2    C2 5661   2.996   0.469  16.568  0.1974 -0.0220  0.3828
  375MPD2    C3 5662   3.066   0.349  16.529 -0.1489  0.2402  0.1422
  375MPD2    C4 5663   3.128   0.265  16.625  0.2421 -0.5974  0.6364
  375MPD2    C5 5664   3.113   0.308  16.756  0.0192 -0.2037 -0.5883
  375MPD2     H 5665   2.947   0.527  16.491  1.1087 -0.4707 -0.5371
  375MPD2    H1 5666   3.191   0.179  16.603 -0.3149 -0.4662 -1.4016
  375MPD2    H2 5667   3.050   0.472  16.893 -2.8627  0.9922 -0.6202
  375MPD2    H3 5668   3.163   0.245  16.829  0.7326 -0.0013 -0.9042
  375MPD2     N 5669   3.080   0.303  16.396  1.1968  0.4463  0.3496
  375MPD2    H5 5670   3.134   0.217  16.393  1.0802  0.4390 -1.6903
  375MPD2    N1 5671   2.948   0.630  16.741 -0.3268  0.0906 -0.8429
  375MPD2    H7 5672   2.960   0.645  16.841 -0.5701  1.2561 -0.9897
  376TMC3    C1 5673   3.125   0.309  16.163 -0.3873 -0.2118  0.0085
  376TMC3    C2 5674   3.234   0.226  16.179  0.1100 -0.7810  0.1903
  376TMC3    C3 5675   3.272   0.154  16.069 -0.2611  0.2244 -0.1519
  376TMC3    C4 5676   3.067   0.337  16.039  0.0902  0.6088 -0.5198
  376TMC3    C5 5677   3.116   0.262  15.934  0.1581  0.4623 -0.3529
  376TMC3    C6 5678   3.218   0.171  15.944  0.2042  0.3259 -0.1095
  376TMC3     C 5679   3.063   0.372  16.278  0.3036 -0.5900 -0.4417
  376TMC3     O 5680   3.007   0.477  16.250  0.0344  0.1269  0.0751
  376TMC3     H 5681   3.292   0.236  16.271  0.4988  1.6994 -0.3254
  376TMC3    H1 5682   2.979   0.400  16.040  0.1789  0.7384 -1.1242
  376TMC3    H2 5683   3.244   0.099  15.867 -0.5627  0.1739 -0.2196
  376TMC3    C7 5684   3.051   0.280  15.805 -0.0264  0.4176  0.4475
  376TMC3    C8 5685   3.404   0.090  16.069 -0.6443 -0.3785 -0.2843
  376TMC3    O1 5686   2.950   0.345  15.812  0.2069  0.4950 -0.6242
  376TMC3    O2 5687   3.463   0.070  15.964  0.6796 -0.0154  0.4601
  377MPD2     C 5688   1.579   4.211  12.342  0.7586  0.0831  0.4510
  377MPD2    C1 5689   1.507   4.314  12.290 -0.8035 -0.7109  1.0056
  377MPD2    C2 5690   1.372   4.326  12.316 -0.1972 -0.1057  0.4244
  377MPD2    C3 5691   1.305   4.236  12.398 -0.0868 -0.2098  0.0798
  377MPD2    C4 5692   1.381   4.128  12.445  0.2653  0.2196  0.0790
  377MPD2    C5 5693   1.513   4.115  12.418  0.8499 -0.1869  0.0965
  377MPD2     H 5694   1.314   4.406  12.272  1.7778  0.1641 -1.7288
  377MPD2    H1 5695   1.338   4.051  12.509 -0.4689  1.2842  0.8734
  377MPD2    H2 5696   1.688   4.209  12.338  0.7664  0.5410  0.4205
  377MPD2    H3 5697   1.571   4.035  12.461 -1.1417 -3.2534 -2.9158
  377MPD2     N 5698   1.169   4.254  12.435  0.2250 -0.0420 -0.4368
  377MPD2    H5 5699   1.135   4.188  12.504 -0.6764  0.5989 -0.2636
  377MPD2    N1 5700   1.565   4.413  12.207 -0.0558 -0.4287 -0.1543
  377MPD2    H7 5701   1.657   4.386  12.171 -0.1678  1.2762 -1.7234
  378TMC3    C1 5702   1.672   4.564  11.837  0.1010 -0.0342  0.6555
  378TMC3    C2 5703   1.571   4.578  11.929  0.0599 -0.6265 -0.3134
  378TMC3    C3 5704   1.607   4.583  12.059  0.3995 -0.2597  0.0103
  378TMC3    C4 5705   1.801   4.566  11.870 -0.4419 -0.0931  0.5987
  378TMC3    C5 5706   1.835   4.568  11.997 -0.4494 -0.0769 -0.0028
  378TMC3    C6 5707   1.738   4.568  12.095  0.2231 -0.5108 -0.5655
  378TMC3     C 5708   1.634   4.561  11.697  0.1164 -0.4627  0.5078
  378TMC3     O 5709   1.708   4.612  11.615 -0.5995 -0.1492 -0.3620
  378TMC3     H 5710   1.468   4.577  11.897  0.2616  0.6781 -1.0071
  378TMC3    H1 5711   1.874   4.577  11.790 -1.0814  0.9387  0.1536
  378TMC3    H2 5712   1.763   4.581  12.200 -1.5264  0.9141 -0.3228
  378TMC3    C7 5713   1.970   4.599  12.048  0.3738 -0.5006  0.2976
  378TMC3    C8 5714   1.511   4.529  12.148 -0.3136 -0.1756  0.0266
  378TMC3    O1 5715   1.983   4.607  12.170 -0.5624 -0.1369  0.2969
  378TMC3    O2 5716   1.394   4.565  12.142  0.5376 -0.8138  1.1645
  379MPD2     C 5717   1.778   2.320  16.166  0.7704 -0.5022 -0.2689
  379MPD2    C1 5718   1.805   2.451  16.139  0.2557 -0.9084  0.5007
  379MPD2    C2 5719   1.900   2.512  16.214 -0.8486 -0.6358  0.0952
  379MPD2    C3 5720   1.974   2.442  16.315 -0.2569  0.0987 -0.2037
  379MPD2    C4 5721   1.953   2.310  16.329 -0.5132 -0.5883  0.8814
  379MPD2    C5 5722   1.851   2.253  16.256 -0.0504 -0.1803  0.0209
  379MPD2     H 5723   1.929   2.612  16.184 -1.0092 -0.2991  1.0573
  379MPD2    H1 5724   2.011   2.248  16.397  0.0235 -0.2818  0.7037
  379MPD2    H2 5725   1.698   2.270  16.112 -0.3952 -0.1269  1.0990
  379MPD2    H3 5726   1.833   2.147  16.252  0.7195 -0.4296  3.4981
  379MPD2     N 5727   2.066   2.501  16.402 -0.7983  0.0709  0.0644
  379MPD2    H5 5728   2.111   2.444  16.472 -0.6792 -0.6357 -0.5795
  379MPD2    N1 5729   1.743   2.512  16.029  0.3691  1.1140 -0.1092
  379MPD2    H7 5730   1.678   2.457  15.974  0.4773 -0.1668  1.0390
  380TMC3    C1 5731   1.676   2.680  15.878 -0.2438 -0.1840  0.5440
  380TMC3    C2 5732   1.680   2.594  15.768 -0.3850 -0.1925  0.1284
  380TMC3    C3 5733   1.640   2.643  15.642 -0.1902  0.0435 -0.2975
  380TMC3    C4 5734   1.640   2.811  15.855  0.4410  0.1665  0.0063
  380TMC3    C5 5735   1.615   2.858  15.729 -0.2428  0.1911 -0.0059
  380TMC3    C6 5736   1.620   2.773  15.615  0.4790  0.3811 -0.0723
  380TMC3     C 5737   1.748   2.640  15.994  0.1116 -0.2021  0.5304
  380TMC3     O 5738   1.764   2.734  16.073  0.4266  0.2166 -0.0338
  380TMC3     H 5739   1.708   2.491  15.788 -1.1425  0.0677  2.6025
  380TMC3    H1 5740   1.638   2.887  15.933 -0.8186  0.1916 -0.0463
  380TMC3    H2 5741   1.593   2.807  15.515  1.6517  2.0216  0.1737
  380TMC3    C7 5742   1.552   2.991  15.721  0.8128  0.1956  0.4065
  380TMC3    C8 5743   1.672   2.548  15.542 -0.4263  0.2579  0.3349
  380TMC3    O1 5744   1.555   3.076  15.809  0.3737  1.0130 -0.1438
  380TMC3    O2 5745   1.669   2.433  15.575  0.1085  0.2790  0.0444
  381TMC3    C1 5746   1.292   4.120  15.815 -0.5160 -0.2697  0.4842
  381TMC3    C2 5747   1.414   4.086  15.862 -0.0428 -0.1882 -0.5025
  381TMC3    C3 5748   1.446   4.126  15.992  0.4535 -0.4425  0.1528
  381TMC3    C4 5749   1.210   4.200  15.886 -0.2259 -0.9908  1.1448
  381TMC3    C5 5750   1.240   4.224  16.017 -0.2835  0.1370  0.5435
  381TMC3    C6 5751   1.359   4.194  16.068 -1.1757  1.1022 -0.2482
  381TMC3     C 5752   1.234   4.040  15.711 -0.1837  0.4198  0.1473
  381TMC3     O 5753   1.115   4.056  15.694  0.2129  0.1170  0.1678
  381TMC3     H 5754   1.485   4.024  15.809  1.5939  0.8012  0.5078
  381TMC3    H1 5755   1.116   4.234  15.846  0.4317  0.6893  1.0626
  381TMC3    H2 5756   1.385   4.231  16.167  1.1515  1.7608 -1.0940
  381TMC3    C7 5757   1.123   4.202  16.108 -0.0438 -0.3645 -0.1097
  381TMC3    C8 5758   1.586   4.140  16.021 -0.2737  0.7540 -0.1464
  381TMC3    O1 5759   1.024   4.154  16.050  0.3380 -0.5929 -0.9295
  381TMC3    O2 5760   1.655   4.162  15.920  0.2091 -0.2939 -0.9091
  382MPD2     C 5761   1.296   1.284  16.691 -0.1153  0.4221  0.5350
  382MPD2    C1 5762   1.316   1.261  16.826  0.7164  0.3339 -0.6669
  382MPD2    C2 5763   1.248   1.153  16.888  0.0272 -0.1740  0.5081
  382MPD2    C3 5764   1.173   1.058  16.816  0.1142 -0.0944  0.4199
  382MPD2    C4 5765   1.156   1.084  16.679 -0.7567  0.2290  0.2865
  382MPD2    C5 5766   1.208   1.196  16.629 -0.0964 -0.4613  0.5553
  382MPD2     H 5767   1.255   1.150  16.996  0.6488  0.5847  0.4914
  382MPD2    H1 5768   1.113   1.014  16.609  1.9836 -0.1785 -1.0184
  382MPD2    H2 5769   1.354   1.352  16.630 -1.2995  1.4445  0.5341
  382MPD2    H3 5770   1.195   1.202  16.522  3.4108  0.2420  0.1629
  382MPD2     N 5771   1.109   0.953  16.875 -0.4874 -0.2732 -0.1651
  382MPD2    H5 5772   1.052   0.891  16.819  0.9435 -0.9554 -0.8577
  382MPD2    N1 5773   1.400   1.341  16.907 -0.1566  0.0475 -0.2532
  382MPD2    H7 5774   1.406   1.319  17.006 -1.4043 -0.0157 -0.1981
  383TMC3    C1 5775   1.091   0.770  17.014  0.5280 -0.4773 -0.4193
  383TMC3    C2 5776   0.954   0.767  16.992 -0.1593 -0.5244  0.2084
  383TMC3    C3 5777   0.887   0.657  17.044  0.0435  0.0078 -0.0755
  383TMC3    C4 5778   1.152   0.675  17.086  0.2276  0.0740 -0.2810
  383TMC3    C5 5779   1.077   0.565  17.132 -0.3919 -0.2198  0.1372
  383TMC3    C6 5780   0.939   0.559  17.120 -0.2093 -0.2254 -0.1292
  383TMC3     C 5781   1.158   0.892  16.991 -0.9826  0.1041  0.5088
  383TMC3     O 5782   1.266   0.912  17.044 -0.0281  0.1082 -0.0024
  383TMC3     H 5783   0.903   0.850  16.943 -2.0693 -1.4766  0.5922
  383TMC3    H1 5784   1.255   0.684  17.119 -0.2524  0.9722  0.9704
  383TMC3    H2 5785   0.882   0.483  17.171  0.0038  1.4529  2.6390
  383TMC3    C7 5786   1.129   0.477  17.229  0.0536 -0.6511  0.2117
  383TMC3    C8 5787   0.753   0.649  17.018  0.5646 -1.5011 -0.6926
  383TMC3    O1 5788   1.052   0.389  17.269  0.6223  0.2934 -1.0190
  383TMC3    O2 5789   0.694   0.756  17.001  0.0818  0.0745  0.4614
  384MPD2     C 5790   2.856   2.932  12.150  0.3035  0.7413 -0.0773
  384MPD2    C1 5791   2.826   2.827  12.230 -0.1029  0.9192  0.0579
  384MPD2    C2 5792   2.910   2.717  12.225  0.2654 -0.1782 -0.2495
  384MPD2    C3 5793   3.024   2.715  12.146  0.3142 -0.1945  0.1158
  384MPD2    C4 5794   3.050   2.825  12.064  0.1278  0.4760  0.0683
  384MPD2    C5 5795   2.966   2.935  12.070 -0.6427 -0.0054 -0.8489
  384MPD2     H 5796   2.892   2.625  12.281 -1.8323  0.2988 -0.1317
  384MPD2    H1 5797   3.137   2.843  12.002 -1.1944 -0.3666 -1.9963
  384MPD2    H2 5798   2.808   3.029  12.159  1.1814  1.3259 -1.6316
  384MPD2    H3 5799   2.975   3.024  12.009 -0.2795 -0.7597 -1.9141
  384MPD2     N 5800   3.111   2.609  12.140 -0.4651 -0.5060 -1.7826
  384MPD2    H5 5801   3.181   2.628  12.069  3.9355 -1.0650  2.4024
  384MPD2    N1 5802   2.732   2.833  12.338  0.1632 -0.4695 -0.1191
  384MPD2    H7 5803   2.719   2.751  12.397 -1.1906 -1.4593 -1.8006
  385TMC3    C1 5804   3.169   2.387  12.137 -0.3227 -0.6288  0.5281
  385TMC3    C2 5805   3.175   2.394  12.003  0.1907 -0.5657  0.5035
  385TMC3    C3 5806   3.119   2.291  11.933 -0.4442  0.3898  0.0641
  385TMC3    C4 5807   3.129   2.269  12.189  0.6609  0.5879  0.0867
  385TMC3    C5 5808   3.067   2.171  12.119  0.2014  0.6474 -0.1236
  385TMC3    C6 5809   3.071   2.172  11.988 -0.4343 -0.3328  0.3734
  385TMC3     C 5810   3.112   2.495  12.213 -0.1431 -0.2343 -0.1114
  385TMC3     O 5811   3.073   2.463  12.324 -0.0470 -0.2119 -0.5409
  385TMC3     H 5812   3.199   2.482  11.945  0.1983 -0.1730  1.1091
  385TMC3    H1 5813   3.129   2.252  12.296  0.8716 -1.0954 -0.1914
  385TMC3    H2 5814   2.998   2.113  11.933 -0.5636  0.6760 -0.5326
  385TMC3    C7 5815   2.943   2.119  12.181  0.6740  0.6987  0.0590
  385TMC3    C8 5816   3.180   2.275  11.796  0.9335 -0.5666 -0.7667
  385TMC3    O1 5817   2.883   2.021  12.133 -0.0586 -0.3084  0.2888
  385TMC3    O2 5818   3.268   2.356  11.768  1.2739 -0.4016  0.1808
  386TMC3    C1 5819   2.870   0.354  11.362  0.6301 -0.2011 -0.0307
  386TMC3    C2 5820   2.914   0.423  11.253  0.1308 -0.3795  0.1353
  386TMC3    C3 5821   2.824   0.436  11.150  0.6556 -0.1059 -0.2897
  386TMC3    C4 5822   2.749   0.288  11.364 -0.1681 -0.1840  0.1096
  386TMC3    C5 5823   2.672   0.305  11.264 -0.4953 -0.3452  0.5174
  386TMC3    C6 5824   2.706   0.373  11.150 -0.3263  0.0043  0.0054
  386TMC3     C 5825   2.976   0.297  11.451 -0.7125 -1.3366  0.2800
  386TMC3     O 5826   3.088   0.302  11.405 -0.1387  0.2905  0.5037
  386TMC3     H 5827   3.013   0.468  11.245 -0.2690  0.6426  1.0253
  386TMC3    H1 5828   2.726   0.228  11.452  2.5265 -2.2284 -0.5347
  386TMC3    H2 5829   2.631   0.382  11.072 -1.3543 -0.2881  0.9586
  386TMC3    C7 5830   2.536   0.255  11.273 -0.2813 -1.2225 -0.0921
  386TMC3    C8 5831   2.860   0.483  11.020  1.0588 -0.8226 -0.1985
  386TMC3    O1 5832   2.493   0.238  11.388 -0.3071 -0.8125  0.1983
  386TMC3    O2 5833   2.774   0.540  10.958  0.2157 -0.1681 -0.6398
  387MPD2     C 5834   0.290   0.361   9.692 -0.0754 -0.5104  0.3752
  387MPD2    C1 5835   0.372   0.358   9.802  1.0334 -0.8191 -0.2114
  387MPD2    C2 5836   0.401   0.234   9.853  0.3837 -0.6950 -0.8353
  387MPD2    C3 5837   0.348   0.116   9.809  0.3624  0.7349  0.3598
  387MPD2    C4 5838   0.257   0.121   9.699  0.3048  0.2891  0.2764
  387MPD2    C5 5839   0.230   0.247   9.649  0.0006  0.1505  0.5384
  387MPD2     H 5840   0.475   0.237   9.933 -0.1711 -0.0851 -0.3458
  387MPD2    H1 5841   0.219   0.030   9.653 -0.7370  1.2043 -0.6606
  387MPD2    H2 5842   0.261   0.455   9.645  0.1616  0.4717  2.2029
  387MPD2    H3 5843   0.160   0.263   9.567 -0.0629  0.8827  0.7320
  387MPD2     N 5844   0.389   4.727   9.863  0.1369  0.3510 -0.1171
  387MPD2    H5 5845   0.463   4.724   9.932  2.4628  2.7653 -2.5103
  387MPD2    N1 5846   0.452   0.469   9.858  0.5204  0.1715 -0.2238
  387MPD2    H7 5847   0.524   0.439   9.923  0.1330 -2.1372 -0.8774
  388TMC3    C1 5848   0.597   0.638   9.792 -0.2512 -0.7535  0.1159
  388TMC3    C2 5849   0.624   0.772   9.798 -0.1356  0.0170 -0.1357
  388TMC3    C3 5850   0.751   0.819   9.803  0.5518  0.0956 -0.4255
  388TMC3    C4 5851   0.698   0.552   9.798  0.8614 -0.7697  0.7436
  388TMC3    C5 5852   0.825   0.597   9.794  0.2832 -0.5832  0.1582
  388TMC3    C6 5853   0.853   0.733   9.791  0.4188  0.0841 -0.1873
  388TMC3     C 5854   0.459   0.592   9.796  0.0782  0.1384  1.0192
  388TMC3     O 5855   0.372   0.663   9.743 -0.6555 -0.4583 -0.1170
  388TMC3     H 5856   0.540   0.839   9.808 -1.7650 -2.3742  1.9958
  388TMC3    H1 5857   0.683   0.446   9.778 -0.3017 -0.6034  0.6974
  388TMC3    H2 5858   0.956   0.768   9.793  1.5622 -3.1559 -1.7926
  388TMC3    C7 5859   0.937   0.497   9.808 -0.9804  0.3048  0.6938
  388TMC3    C8 5860   0.782   0.961   9.794  0.2601  0.4782 -0.3309
  388TMC3    O1 5861   1.042   0.532   9.763 -0.4835  0.3335  0.4398
  388TMC3    O2 5862   0.860   0.990   9.703  0.2976 -0.3962 -0.3317
  389MPD2     C 5863   0.272   3.010  11.093 -0.4408 -0.6538  0.3009
  389MPD2    C1 5864   0.160   2.945  11.055 -0.0161  0.4762  0.0797
  389MPD2    C2 5865   0.093   2.861  11.144 -0.2897  0.4752  0.0077
  389MPD2    C3 5866   0.147   2.845  11.272 -0.1709  0.3656  0.0049
  389MPD2    C4 5867   0.268   2.900  11.303 -0.0153 -0.5672 -0.8226
  389MPD2    C5 5868   0.333   2.978  11.211  0.3233 -0.3770 -0.4700
  389MPD2     H 5869   0.000   2.810  11.123  0.7426 -0.7235 -1.6268
  389MPD2    H1 5870   0.321   2.877  11.395  1.6781 -0.3118 -1.7451
  389MPD2    H2 5871   0.333   3.065  11.023 -1.2550 -0.9596 -0.6439
  389MPD2    H3 5872   0.430   3.019  11.236 -1.1277  0.9995  2.8170
  389MPD2     N 5873   0.085   2.766  11.375  0.4826  0.4002  0.1128
  389MPD2    H5 5874   0.108   2.793  11.471  1.2679 -0.8499  0.2670
  389MPD2    N1 5875   0.114   2.982  10.930  0.1456  0.5307 -0.0243
  389MPD2    H7 5876   0.183   3.039  10.882  1.3047  0.7721  1.9237
  390TMC3    C1 5877   4.678   2.603  11.470  0.5010  0.2858  0.0098
  390TMC3    C2 5878   4.641   2.473  11.480  0.1059  0.5221 -0.3721
  390TMC3    C3 5879   4.595   2.429  11.593 -0.3640  0.5211  0.8402
  390TMC3    C4 5880   4.656   2.693  11.570  0.7077  0.5658 -0.7164
  390TMC3    C5 5881   4.593   2.650  11.681 -0.7715 -0.2797  0.4522
  390TMC3    C6 5882   4.562   2.519  11.698 -0.1806 -0.5075  0.0346
  390TMC3     C 5883   0.006   2.653  11.351  0.0127  0.4667  0.2941
  390TMC3     O 5884   0.001   2.596  11.243 -0.1456  0.1036 -0.5797
  390TMC3     H 5885   4.646   2.405  11.395  1.2247  2.4092 -1.8110
  390TMC3    H1 5886   4.659   2.800  11.550 -2.8640  1.0768  1.6128
  390TMC3    H2 5887   4.516   2.483  11.790  1.6003  1.2452  1.6065
  390TMC3    C7 5888   4.529   2.746  11.768 -0.7217  0.5224 -0.3152
  390TMC3    C8 5889   4.562   2.291  11.596  0.0923 -0.5403  0.2125
  390TMC3    O1 5890   4.574   2.859  11.763  0.3377 -0.3788  0.0107
  390TMC3    O2 5891   4.522   2.237  11.496 -0.1012 -0.2551 -0.4836
  391MPD2     C 5892   3.546   4.292  10.540 -0.3083  0.9287 -0.4883
  391MPD2    C1 5893   3.661   4.358  10.514 -0.7728 -0.4504 -0.0959
  391MPD2    C2 5894   3.668   4.454  10.418 -0.2415 -0.1755 -0.1196
  391MPD2    C3 5895   3.555   4.489  10.355  0.2399  0.2383 -0.1527
  391MPD2    C4 5896   3.435   4.436  10.398  0.1885  0.0645 -0.7537
  391MPD2    C5 5897   3.425   4.333  10.489 -0.7201 -0.3854 -0.5255
  391MPD2     H 5898   3.763   4.492  10.382 -0.5077  0.4839 -0.1347
  391MPD2    H1 5899   3.342   4.475  10.357 -1.1652  0.1485  2.3468
  391MPD2    H2 5900   3.555   4.206  10.605  0.3117 -0.2847 -2.1717
  391MPD2    H3 5901   3.327   4.295  10.515  0.1186 -2.3950 -0.2711
  391MPD2     N 5902   3.567   4.579  10.245 -0.1037 -0.1155 -0.0204
  391MPD2    H5 5903   3.664   4.604  10.228 -0.7821  1.4151 -1.5384
  391MPD2    N1 5904   3.780   4.322  10.582  0.1488 -0.1174 -0.5743
  391MPD2    H7 5905   3.773   4.249  10.652  1.0533 -1.2060 -1.6075
  392TMC3    C1 5906   3.504   0.018  10.092 -0.1749  0.6410 -0.1429
  392TMC3    C2 5907   3.402   0.082  10.027 -0.8083  0.1914  0.0932
  392TMC3    C3 5908   3.437   0.203   9.966  0.8978  0.6557  0.4919
  392TMC3    C4 5909   3.635   0.066  10.105  0.0860  0.1420 -0.0308
  392TMC3    C5 5910   3.653   0.193  10.062  1.2390 -0.1202  0.5914
  392TMC3    C6 5911   3.560   0.261   9.999  0.0760  0.1890 -0.4482
  392TMC3     C 5912   3.464   4.635  10.172 -0.5406  0.7982  0.1117
  392TMC3     O 5913   3.345   4.629  10.203 -0.7661 -0.2513  0.0318
  392TMC3     H 5914   3.312   0.026  10.003  0.4285 -1.6811 -0.2305
  392TMC3    H1 5915   3.716   0.002  10.137  0.1621  1.1826  1.9088
  392TMC3    H2 5916   3.567   0.362   9.960 -0.4033  0.3477 -0.1270
  392TMC3    C7 5917   3.753   0.273  10.135  0.0704  0.5954 -0.2528
  392TMC3    C8 5918   3.331   0.269   9.884 -0.3276  0.4775  0.0169
  392TMC3    O1 5919   3.836   0.209  10.194 -0.4338  0.1690 -0.1381
  392TMC3    O2 5920   3.236   0.199   9.854  0.4047  0.5935  0.1297
  393TMC3    C1 5921   3.058   2.612  11.401  0.4175 -0.4872  0.1013
  393TMC3    C2 5922   2.929   2.625  11.448  0.2766  0.4682 -0.1584
  393TMC3    C3 5923   2.867   2.501  11.478 -0.1893  0.3888  0.3205
  393TMC3    C4 5924   3.118   2.491  11.377 -0.0549 -0.2393 -0.4285
  393TMC3    C5 5925   3.058   2.376  11.412  0.5471  0.4294  0.1485
  393TMC3    C6 5926   2.931   2.379  11.465  0.0324 -0.1964  0.7139
  393TMC3     C 5927   3.106   2.728  11.337  0.5184 -0.2803 -0.3117
  393TMC3     O 5928   3.025   2.818  11.312 -0.2435  1.0875  0.1337
  393TMC3     H 5929   2.871   2.712  11.478 -0.5536 -0.6167  1.3736
  393TMC3    H1 5930   3.207   2.486  11.315  0.2481 -0.3987  0.0158
  393TMC3    H2 5931   2.883   2.284  11.483  0.1209 -0.6369 -1.3863
  393TMC3    C7 5932   3.083   2.259  11.328  0.0658 -0.3730  0.3645
  393TMC3    C8 5933   2.730   2.490  11.517  0.3994 -0.1127  0.1119
  393TMC3    O1 5934   2.987   2.190  11.295 -0.2018  0.3437  0.6697
  393TMC3    O2 5935   2.691   2.376  11.535  0.3070 -0.3720  0.2104
  394TMC3    C1 5936   4.711   3.025  10.744  0.3010 -0.5089  0.3576
  394TMC3    C2 5937   4.623   2.966  10.654  0.0072 -0.3392  0.3414
  394TMC3    C3 5938   4.626   3.005  10.527 -0.2000 -0.0922 -0.4385
  394TMC3    C4 5939   0.061   3.124  10.705 -0.2738 -0.0714 -0.1624
  394TMC3    C5 5940   0.063   3.149  10.576  0.5069  0.0957 -0.4357
  394TMC3    C6 5941   4.716   3.098  10.485 -0.2756  0.7007  0.5020
  394TMC3     C 5942   4.727   2.955  10.872  0.0725 -0.4696  0.4689
  394TMC3     O 5943   4.653   2.861  10.903 -0.3364 -0.1956  0.1250
  394TMC3     H 5944   4.531   2.915  10.681  0.6751 -0.7144  1.9432
  394TMC3    H1 5945   0.107   3.186  10.782  1.1611  0.5193 -1.4982
  394TMC3    H2 5946   4.733   3.115  10.379 -2.9851  0.4852  0.0308
  394TMC3    C7 5947   0.110   3.278  10.537 -0.7138 -0.1766 -0.1410
  394TMC3    C8 5948   4.521   2.989  10.433 -0.1628  0.4888  0.1279
  394TMC3    O1 5949   0.049   3.333  10.446  0.3869 -0.5343 -0.1721
  394TMC3    O2 5950   4.501   3.080  10.357 -0.0629 -0.3111 -0.3144
  395TMC3    C1 5951   4.550   0.023  14.162 -0.0236 -0.0730  0.0706
  395TMC3    C2 5952   4.428   0.081  14.142  0.5724  0.1545  0.2259
  395TMC3    C3 5953   4.405   0.216  14.165 -0.2054  0.5679 -0.3677
  395TMC3    C4 5954   4.659   0.100  14.180  0.7210 -0.5386 -0.1826
  395TMC3    C5 5955   4.638   0.240  14.170  0.8950  0.4838 -1.3141
  395TMC3    C6 5956   4.513   0.304  14.175 -0.2161  0.1690  0.8198
  395TMC3     C 5957   4.545   4.642  14.248  0.3855 -0.1922 -0.0294
  395TMC3     O 5958   4.648   4.576  14.243  0.1218  0.3722 -0.6596
  395TMC3     H 5959   4.347   0.014  14.116 -1.7856  1.7281  3.4524
  395TMC3    H1 5960   0.018   0.051  14.199  0.8506 -0.0014  0.5668
  395TMC3    H2 5961   4.498   0.409  14.195 -1.1164  0.3447 -0.7585
  395TMC3    C7 5962   0.008   0.326  14.215 -0.3143 -0.3706  0.1293
  395TMC3    C8 5963   4.297   0.251  14.257  0.4341  0.4093  0.2374
  395TMC3    O1 5964   4.714   0.428  14.260  0.1925 -0.0317  0.3853
  395TMC3    O2 5965   4.322   0.334  14.341 -0.7187 -0.1159 -0.2237
  396MPD2     C 5966   3.910   0.714  16.556  0.2711  0.0737 -0.3351
  396MPD2    C1 5967   3.950   0.827  16.634  0.3489  0.7990 -0.8070
  396MPD2    C2 5968   3.971   0.951  16.576 -0.0025  0.1168 -0.0243
  396MPD2    C3 5969   3.971   0.954  16.442 -0.3855 -1.1206  0.4356
  396MPD2    C4 5970   3.925   0.848  16.362 -0.2907 -0.0386  0.4713
  396MPD2    C5 5971   3.888   0.729  16.419  0.0741 -0.4422  0.3839
  396MPD2     H 5972   4.001   1.041  16.628  1.1660  0.6252 -1.5694
  396MPD2    H1 5973   3.920   0.852  16.254 -0.2828  0.8182  0.4985
  396MPD2    H2 5974   3.886   0.618  16.601  0.6763  1.3545  2.5868
  396MPD2    H3 5975   3.863   0.641  16.361  3.6455 -0.7597 -0.6591
  396MPD2     N 5976   4.023   1.076  16.383 -0.2649  0.4379  0.0102
  396MPD2    H5 5977   4.063   1.140  16.450 -2.7273 -1.3310  3.1813
  396MPD2    N1 5978   3.989   0.807  16.767 -0.5872 -0.0882 -0.1653
  396MPD2    H7 5979   3.992   0.710  16.796 -0.0390  0.1931  0.7386
  397TMC3    C1 5980   4.064   0.832  16.990 -0.6219 -0.1550 -0.1161
  397TMC3    C2 5981   4.189   0.877  17.028  0.6210  0.1737  0.4471
  397TMC3    C3 5982   4.286   0.780  17.072  0.4551 -0.0814 -0.4693
  397TMC3    C4 5983   4.028   0.701  17.003 -0.1097 -1.1954  0.5940
  397TMC3    C5 5984   4.120   0.615  17.049  0.3607 -0.4560 -0.4717
  397TMC3    C6 5985   4.251   0.650  17.091  0.6920 -0.0469 -1.2944
  397TMC3     C 5986   4.025   0.896  16.871 -0.0525 -0.1683 -0.2860
  397TMC3     O 5987   4.043   1.013  16.868  0.2725 -0.0670  0.3603
  397TMC3     H 5988   4.235   0.972  17.004 -1.1136  1.6595  2.9267
  397TMC3    H1 5989   3.925   0.675  16.984  0.0014 -0.0207 -1.6375
  397TMC3    H2 5990   4.320   0.571  17.118  1.7021  0.8868 -1.1795
  397TMC3    C7 5991   4.064   0.490  17.093 -0.4527 -0.0788 -0.3354
  397TMC3    C8 5992   4.422   0.815  17.119 -0.2779  0.6514 -0.5660
  397TMC3    O1 5993   3.963   0.454  17.029  0.1720 -0.9990  0.4592
  397TMC3    O2 5994   4.452   0.740  17.217 -0.1750  0.4331 -0.2512
  398MPD2     C 5995   2.135   2.486  17.606  0.5643 -0.0026  0.3302
  398MPD2    C1 5996   2.217   2.429  17.696 -0.3303 -0.2644  0.5514
  398MPD2    C2 5997   2.313   2.508   0.022 -0.5038 -0.1023 -0.5876
  398MPD2    C3 5998   2.340   2.642  17.733 -0.7371  0.8260 -0.1838
  398MPD2    C4 5999   2.258   2.688  17.629 -0.0081 -0.6579 -0.1035
  398MPD2    C5 6000   2.153   2.620  17.574  0.3915  0.3381 -0.3226
  398MPD2     H 6001   2.370   2.461   0.101 -0.8445 -0.1688 -0.3800
  398MPD2    H1 6002   2.274   2.791  17.600 -0.6173 -0.4621  0.2584
  398MPD2    H2 6003   2.065   2.433  17.542  1.5026 -0.7723 -0.0590
  398MPD2    H3 6004   2.082   2.666  17.506 -0.6233  1.5272  1.5567
  398MPD2     N 6005   2.440   2.713   0.067 -0.3438 -0.4864 -0.3509
  398MPD2    H5 6006   2.504   2.658   0.124  0.4025 -1.7965 -2.4447
  398MPD2    N1 6007   2.209   2.292  17.732 -0.9056  0.3335  0.0664
  398MPD2    H7 6008   2.281   2.265   0.056 -0.6558 -0.0940 -0.3792
  399TMC3    C1 6009   2.169   2.059  17.722 -0.0470 -0.1305  0.3729
  399TMC3    C2 6010   2.236   2.057   0.103 -0.4027  0.1321 -0.9753
  399TMC3    C3 6011   2.307   1.945   0.125 -0.2383  0.4672 -0.2392
  399TMC3    C4 6012   2.183   1.962  17.631 -0.0293 -0.1533  0.2987
  399TMC3    C5 6013   2.263   1.852  17.653  0.1530 -0.6959  0.4085
  399TMC3    C6 6014   2.329   1.844   0.031 -0.6411 -0.8161 -0.8026
  399TMC3     C 6015   2.134   2.187  17.671 -0.1631 -0.3821 -0.3485
  399TMC3     O 6016   2.058   2.198  17.576 -0.0785 -0.5096  0.0232
  399TMC3     H 6017   2.213   2.132   0.177 -0.2189  1.5093 -2.3175
  399TMC3    H1 6018   2.126   1.975  17.539  0.5035 -0.7713 -0.1219
  399TMC3    H2 6019   2.380   1.750   0.053  1.3081  0.2470 -0.7414
  399TMC3    C7 6020   2.230   1.727  17.600  1.0883 -0.3989  0.4873
  399TMC3    C8 6021   2.413   1.952   0.232 -0.6914  0.3248  0.2196
  399TMC3    O1 6022   2.230   1.624  17.666 -0.0770  0.0685  0.7256
  399TMC3    O2 6023   2.508   1.878   0.221 -0.3633 -0.3025  0.3541
  400TMC3    C1 6024   0.643   0.483  16.533  0.0942  0.2390  0.3971
  400TMC3    C2 6025   0.512   0.449  16.518  0.5853  0.4182  0.2024
  400TMC3    C3 6026   0.419   0.534  16.564  0.5971  0.1491 -0.0898
  400TMC3    C4 6027   0.689   0.595  16.594 -0.0073 -0.6429 -1.4187
  400TMC3    C5 6028   0.592   0.683  16.638  0.1718 -0.0234 -0.1817
  400TMC3    C6 6029   0.456   0.640  16.634 -1.0446 -0.2506 -0.4149
  400TMC3     C 6030   0.713   0.360  16.568  0.4220 -0.2808  0.8736
  400TMC3     O 6031   0.670   0.260  16.516 -0.4768 -0.5754  0.1866
  400TMC3     H 6032   0.476   0.350  16.493  0.6819 -0.4866  3.7003
  400TMC3    H1 6033   0.794   0.622  16.593  0.1240 -1.1359 -1.0092
  400TMC3    H2 6034   0.385   0.709  16.678  0.5521  1.2508 -0.2253
  400TMC3    C7 6035   0.628   0.826  16.637 -0.1805 -0.3196  0.6418
  400TMC3    C8 6036   0.279   0.496  16.574 -0.4400 -0.2802 -0.4129
  400TMC3    O1 6037   0.737   0.854  16.599 -0.3294 -0.1121 -0.0497
  400TMC3    O2 6038   0.208   0.572  16.642 -0.6103 -0.1285  0.4197
  401MPD2     C 6039   4.106   3.840   1.346 -0.3630  0.1383  0.3695
  401MPD2    C1 6040   4.181   3.775   1.251  0.3928  0.6269 -0.3991
  401MPD2    C2 6041   4.129   3.660   1.188 -0.5530 -0.6959 -0.5965
  401MPD2    C3 6042   3.995   3.634   1.208 -0.7456 -0.0349  0.0987
  401MPD2    C4 6043   3.921   3.694   1.310  0.2131  0.8278  0.1169
  401MPD2    C5 6044   3.982   3.801   1.376 -0.8724 -0.4305 -0.0954
  401MPD2     H 6045   4.184   3.597   1.118 -1.0053 -1.8762  0.1086
  401MPD2    H1 6046   3.816   3.672   1.326  0.4206  0.9871  1.7550
  401MPD2    H2 6047   4.156   3.918   1.402  0.5845 -1.0988  1.2590
  401MPD2    H3 6048   3.934   3.863   1.450  0.1195  1.0975 -0.7421
  401MPD2     N 6049   3.943   3.524   1.134 -0.1296  0.5769  0.5311
  401MPD2    H5 6050   4.021   3.470   1.098 -0.6918  0.5349 -0.6239
  401MPD2    N1 6051   4.319   3.800   1.222 -0.2627  0.5531 -0.3645
  401MPD2    H7 6052   4.358   3.766   1.135 -2.1237 -0.1068 -0.9371
  402TMC3    C1 6053   3.810   3.364   1.038 -0.0774 -0.3900 -0.7480
  402TMC3    C2 6054   3.757   3.244   1.076 -0.4034 -0.5425  0.5322
  402TMC3    C3 6055   3.791   3.127   1.009 -0.6856 -0.1139 -0.8545
  402TMC3    C4 6056   3.902   3.372   0.933  0.3126 -0.2777  0.5209
  402TMC3    C5 6057   3.924   3.255   0.864 -0.0041  0.2550  0.3581
  402TMC3    C6 6058   3.866   3.138   0.898  0.4030 -0.3129  1.0345
  402TMC3     C 6059   3.817   3.473   1.134 -0.4444  0.1200 -0.5165
  402TMC3     O 6060   3.711   3.506   1.184  0.6507 -0.6438  0.4093
  402TMC3     H 6061   3.694   3.252   1.163  1.9157  1.3730  2.0352
  402TMC3    H1 6062   3.929   3.473   0.902 -0.3531  0.9353  3.8650
  402TMC3    H2 6063   3.896   3.047   0.846  2.3618  2.0063 -1.9455
  402TMC3    C7 6064   4.049   3.266   0.797  0.1866  0.4555  0.0841
  402TMC3    C8 6065   3.837   3.028   1.107  0.6574 -0.0638 -0.4030
  402TMC3    O1 6066   4.088   3.381   0.786 -0.6977  0.3000 -0.1872
  402TMC3    O2 6067   3.916   2.945   1.065 -0.2825 -0.6521 -0.2249
  403MPD2     C 6068   2.146   2.395  13.200  0.2585  0.4195 -0.5861
  403MPD2    C1 6069   2.239   2.294  13.242 -0.1170  0.7350  0.0925
  403MPD2    C2 6070   2.377   2.308  13.205  0.1464  0.4559 -0.2565
  403MPD2    C3 6071   2.426   2.430  13.162  0.0690  0.2325  0.1030
  403MPD2    C4 6072   2.332   2.527  13.134 -1.4409  0.0063  0.2703
  403MPD2    C5 6073   2.195   2.505  13.140 -0.0359  0.6981  0.1290
  403MPD2     H 6074   2.449   2.232  13.233 -0.5918  1.4412  4.3262
  403MPD2    H1 6075   2.365   2.617  13.085 -1.0788 -0.1831  0.1686
  403MPD2    H2 6076   2.039   2.374  13.208  0.3543 -0.0021 -0.4036
  403MPD2    H3 6077   2.133   2.579  13.092  1.0265  1.4501 -0.0734
  403MPD2     N 6078   2.561   2.453  13.153 -0.2929  0.1158 -0.2962
  403MPD2    H5 6079   2.619   2.376  13.186  1.0527  0.9582 -0.6920
  403MPD2    N1 6080   2.187   2.167  13.278  0.1926 -0.1661 -0.4218
  403MPD2    H7 6081   2.089   2.173  13.305  0.7473  0.4384  1.4505
  404TMC3    C1 6082   2.164   1.949  13.351 -0.5321 -0.7467 -0.2331
  404TMC3    C2 6083   2.183   1.897  13.480 -0.0333  0.0394  0.4782
  404TMC3    C3 6084   2.098   1.795  13.512 -0.2300 -0.6988  0.5303
  404TMC3    C4 6085   2.063   1.918  13.274  0.3699  0.3612  0.2730
  404TMC3    C5 6086   1.985   1.816  13.314 -0.6934  0.0081  0.4183
  404TMC3    C6 6087   1.994   1.755  13.433 -0.1693  0.2849 -0.5568
  404TMC3     C 6088   2.255   2.050  13.302  0.6609 -0.0583  0.1501
  404TMC3     O 6089   2.378   2.028  13.294 -0.2636 -0.2360  1.3036
  404TMC3     H 6090   2.258   1.939  13.544  0.0139  0.7988 -0.0756
  404TMC3    H1 6091   2.073   1.954  13.172 -2.5732 -1.4119 -0.6566
  404TMC3    H2 6092   1.923   1.679  13.463  0.8644  0.2177  1.6862
  404TMC3    C7 6093   1.896   1.757  13.218  0.5943 -0.0118  0.1510
  404TMC3    C8 6094   2.108   1.741  13.643 -0.3187 -0.3371  0.2669
  404TMC3    O1 6095   1.856   1.638  13.231 -0.2720  0.3520  0.0902
  404TMC3    O2 6096   2.003   1.702  13.699 -0.6189  0.2677  0.0742
  405MPD2     C 6097   2.318   3.428  14.672  0.2457 -0.4319 -0.0877
  405MPD2    C1 6098   2.352   3.315  14.598  0.2347 -0.3837 -0.1933
  405MPD2    C2 6099   2.265   3.270  14.501 -0.8912  0.5521 -0.1640
  405MPD2    C3 6100   2.155   3.346  14.473  0.5317 -0.3475  0.5849
  405MPD2    C4 6101   2.117   3.458  14.542  0.0540 -0.3171 -0.6178
  405MPD2    C5 6102   2.204   3.496  14.643 -0.3473 -0.2515 -0.6105
  405MPD2     H 6103   2.279   3.174  14.453 -0.6240  0.5819 -0.1491
  405MPD2    H1 6104   2.035   3.525  14.522 -0.6672 -0.5492  1.6233
  405MPD2    H2 6105   2.375   3.443  14.762 -1.2587  0.6394  0.7002
  405MPD2    H3 6106   2.187   3.575  14.715  0.2416  0.7225 -1.5452
  405MPD2     N 6107   2.083   3.293  14.365  0.2003  0.2370  0.2629
  405MPD2    H5 6108   2.138   3.227  14.312  2.4809 -0.1727  3.1272
  405MPD2    N1 6109   2.481   3.258  14.631  0.0204  0.3283  0.0236
  405MPD2    H7 6110   2.536   3.308  14.699 -3.0093  1.2938  1.7593
  406TMC3    C1 6111   1.774   3.152  14.050  0.3585 -0.4628 -0.0791
  406TMC3    C2 6112   1.822   3.024  14.070  0.9780  0.0805 -0.2369
  406TMC3    C3 6113   1.930   3.003  14.152  0.1692 -0.9494 -0.3784
  406TMC3    C4 6114   1.819   3.257  14.125  0.0750  0.2697  0.1091
  406TMC3    C5 6115   1.914   3.229  14.225  0.3313 -0.0385 -0.1437
  406TMC3    C6 6116   1.971   3.103  14.237 -0.4486 -0.8792  0.1128
  406TMC3     C 6117   1.651   3.171  13.978  0.3988  0.1214  0.3821
  406TMC3     O 6118   1.636   3.287  13.939 -0.5467 -0.0649  0.3450
  406TMC3     H 6119   1.791   2.938  14.013 -2.5325  0.8469  0.5188
  406TMC3    H1 6120   1.783   3.358  14.110  1.5410  0.6736 -0.7628
  406TMC3    H2 6121   2.025   3.082  14.328  2.7043 -3.1997 -2.3088
  406TMC3    C7 6122   1.956   3.325  14.320  0.3385  0.4340  0.7301
  406TMC3    C8 6123   1.990   2.879  14.173  0.5072 -1.0951  0.7093
  406TMC3    O1 6124   1.878   3.411  14.363  0.2692  0.9482 -0.0984
  406TMC3    O2 6125   1.945   2.775  14.121 -0.0474 -0.4005 -0.0690
  407MPD2     C 6126   4.513   4.478   9.712 -0.1427 -0.6437  0.7882
  407MPD2    C1 6127   4.643   4.520   9.733  0.0960 -0.8705  0.0948
  407MPD2    C2 6128   4.677   4.641   9.796  0.1421  0.1532 -1.3574
  407MPD2    C3 6129   4.574   4.731   9.823 -0.3036 -0.1768 -0.0489
  407MPD2    C4 6130   4.443   4.691   9.800  0.0827  0.3671 -0.2887
  407MPD2    C5 6131   4.417   4.568   9.743 -0.3132  0.3329 -0.5443
  407MPD2     H 6132   0.043   4.678   9.798  0.0350  0.4784 -1.7846
  407MPD2    H1 6133   4.365   0.030   9.807 -0.9996 -0.8576  0.9121
  407MPD2    H2 6134   4.497   4.382   9.664 -0.3356  0.2006 -0.8458
  407MPD2    H3 6135   4.313   4.545   9.720 -0.5599  1.4298 -0.5124
  407MPD2     N 6136   4.592   0.121   9.872  0.0732 -0.2220 -0.7102
  407MPD2    H5 6137   4.508   0.179   9.873  1.1058  1.2798 -1.1250
  407MPD2    N1 6138   0.017   4.443   9.689 -0.1848  0.0828 -0.1073
  407MPD2    H7 6139   0.111   4.480   9.698 -0.2992  0.8828 -2.1658
  408TMC3    C1 6140   0.136   4.267   9.585 -0.8403  0.2413 -0.3441
  408TMC3    C2 6141   0.237   4.350   9.530  0.1638  0.3790 -0.4054
  408TMC3    C3 6142   0.357   4.302   9.480 -0.0820  0.3427  0.7242
  408TMC3    C4 6143   0.156   4.131   9.574  0.6541 -0.4088  0.3782
  408TMC3    C5 6144   0.267   4.091   9.508  1.0063 -0.2123  0.0872
  408TMC3    C6 6145   0.371   4.169   9.471 -0.4003  1.0786 -0.4069
  408TMC3     C 6146   0.012   4.317   9.632  0.1118  0.1292 -0.6680
  408TMC3     O 6147   4.654   4.240   9.607 -0.1634 -0.0909 -0.2243
  408TMC3     H 6148   0.214   4.456   9.532 -1.5411  0.0325 -1.9096
  408TMC3    H1 6149   0.079   4.062   9.610  0.2100 -0.4003 -0.5734
  408TMC3    H2 6150   0.458   4.125   9.424 -0.1790  2.0193 -0.8801
  408TMC3    C7 6151   0.284   3.952   9.487 -0.1792 -0.0762  2.1079
  408TMC3    C8 6152   0.479   4.386   9.494  0.1648  0.0141  0.6861
  408TMC3    O1 6153   0.322   3.927   9.377 -0.3836 -0.4624  0.3925
  408TMC3    O2 6154   0.589   4.326   9.494 -0.4748 -0.4767 -0.1448
  409MPD2     C 6155   4.180   0.241  16.879 -0.0975  0.4444  0.1187
  409MPD2    C1 6156   4.289   0.260  16.961  0.1546  0.4257 -0.3179
  409MPD2    C2 6157   4.388   0.353  16.932 -0.2945 -0.0477 -0.5047
  409MPD2    C3 6158   4.371   0.428  16.817 -0.3608 -0.0620 -0.7729
  409MPD2    C4 6159   4.263   0.410  16.734  0.0056  0.2943 -0.7459
  409MPD2    C5 6160   4.161   0.316  16.769 -0.3917 -0.1095  0.0495
  409MPD2     H 6161   4.475   0.363  16.995 -2.5433 -1.8316  2.9609
  409MPD2    H1 6162   4.261   0.471  16.644 -0.4457  0.1520 -0.8328
  409MPD2    H2 6163   4.101   0.168  16.888 -1.3601  1.7977  0.0259
  409MPD2    H3 6164   4.072   0.295  16.711  0.6689  2.0533 -2.3611
  409MPD2     N 6165   4.451   0.538  16.796 -0.1197  0.2132 -0.5049
  409MPD2    H5 6166   4.417   0.610  16.732 -0.5271  0.3455 -0.1373
  409MPD2    N1 6167   4.314   0.174  17.068  0.4367  0.1323 -0.1334
  409MPD2    H7 6168   4.386   0.194  17.137  1.1550 -0.8460 -0.6020
  410TMC3    C1 6169   4.639   0.682  16.823 -0.4906  0.2335  0.0982
  410TMC3    C2 6170   4.732   0.718  16.913 -0.4156 -0.0111 -0.5471
  410TMC3    C3 6171   0.098   0.793  16.865 -0.3267 -0.5603  0.4471
  410TMC3    C4 6172   4.637   0.727  16.695 -0.0819  0.9395  0.3699
  410TMC3    C5 6173   4.729   0.822  16.659 -0.4891 -0.2329 -0.1402
  410TMC3    C6 6174   0.103   0.851  16.737  0.1976  0.1409  0.1969
  410TMC3     C 6175   4.581   0.551  16.845  0.5320 -0.4781 -0.6028
  410TMC3     O 6176   4.652   0.486  16.921 -0.1672  0.0347  0.4332
  410TMC3     H 6177   0.009   0.674  17.011  2.4198 -1.5099 -1.5841
  410TMC3    H1 6178   4.578   0.675  16.621  0.2531  3.6748 -1.8181
  410TMC3    H2 6179   0.190   0.900  16.697  0.5692 -0.8784 -0.2479
  410TMC3    C7 6180   0.024   0.817  16.517  0.3567  0.1739  0.2310
  410TMC3    C8 6181   0.232   0.758  16.908  0.1083 -0.2040 -0.4609
  410TMC3    O1 6182   4.723   0.715  16.457  0.2152  0.6191  0.3524
  410TMC3    O2 6183   0.326   0.826  16.874 -0.2645  0.7101  0.0181
  411MPD2     C 6184   0.564   1.328  14.396 -0.4627 -0.2058  0.1052
  411MPD2    C1 6185   0.444   1.273  14.441 -0.4024 -0.2765 -0.3415
  411MPD2    C2 6186   0.409   1.149  14.398  0.0222  0.0176  0.3766
  411MPD2    C3 6187   0.485   1.083  14.304  0.1686  0.6391  0.7868
  411MPD2    C4 6188   0.606   1.137  14.270 -0.3451  0.2405 -0.9655
  411MPD2    C5 6189   0.648   1.257  14.312  0.9831 -0.3072  1.0572
  411MPD2     H 6190   0.315   1.104  14.428 -0.9110  1.5078 -0.3438
  411MPD2    H1 6191   0.664   1.081  14.198 -2.2884 -1.5607 -1.1388
  411MPD2    H2 6192   0.589   1.430  14.421 -0.7770 -0.5684  1.9540
  411MPD2    H3 6193   0.737   1.301  14.269  0.4675 -0.7195 -0.4159
  411MPD2     N 6194   0.455   0.957  14.244 -0.3744  0.4148  0.1882
  411MPD2    H5 6195   0.508   0.936  14.160 -2.1462 -2.2345 -0.2491
  411MPD2    N1 6196   0.347   1.345  14.518 -0.6796  0.3306 -0.2925
  411MPD2    H7 6197   0.257   1.301  14.534 -1.7054  2.5820  0.0193
  412TMC3    C1 6198   0.315   0.800  14.145  0.3494  0.4975  0.4043
  412TMC3    C2 6199   0.191   0.740  14.145 -0.9472  0.0289 -0.2844
  412TMC3    C3 6200   0.164   0.663  14.039  0.6148  0.2840  0.4190
  412TMC3    C4 6201   0.405   0.792  14.038 -0.1170  0.2485 -0.3267
  412TMC3    C5 6202   0.365   0.714  13.930 -0.3908  0.0373  0.2575
  412TMC3    C6 6203   0.252   0.647  13.933 -0.3126  0.5214 -0.2210
  412TMC3     C 6204   0.343   0.884  14.264  0.3849  0.0900  0.4461
  412TMC3     O 6205   0.272   0.874  14.361  0.4206  0.0060  0.1023
  412TMC3     H 6206   0.122   0.743  14.228 -0.2053 -0.0824  0.3337
  412TMC3    H1 6207   0.503   0.837  14.040 -1.1839  2.6063 -0.3790
  412TMC3    H2 6208   0.228   0.587  13.846 -2.0590  2.4196 -1.0588
  412TMC3    C7 6209   0.378   0.796  13.812 -0.8767  0.5459  0.4103
  412TMC3    C8 6210   0.027   0.666  13.987  0.6230 -0.1726  0.4795
  412TMC3    O1 6211   0.479   0.861  13.797 -0.5419 -0.8608 -0.5931
  412TMC3    O2 6212   0.013   0.681  13.865 -0.0353  0.9262  0.1350
  413MPD2     C 6213   1.620   4.147  15.574  0.2351  0.5447  0.4021
  413MPD2    C1 6214   1.541   4.149  15.455  0.1184  0.0687 -1.0009
  413MPD2    C2 6215   1.579   4.060  15.359  0.2472 -0.1069  0.5342
  413MPD2    C3 6216   1.697   3.987  15.373  0.6163  0.0268  0.1965
  413MPD2    C4 6217   1.779   3.995  15.483 -0.0569  0.2624  0.4836
  413MPD2    C5 6218   1.733   4.074  15.589 -0.2524 -0.4592 -0.0043
  413MPD2     H 6219   1.526   4.062  15.265  0.0082 -1.3897  0.6359
  413MPD2    H1 6220   1.867   3.933  15.497  0.1900  0.6452  0.6218
  413MPD2    H2 6221   1.596   4.207  15.661  1.0861  0.9369  0.3657
  413MPD2    H3 6222   1.790   4.071  15.681 -0.6907 -2.1997  0.2211
  413MPD2     N 6223   1.726   3.909  15.268 -0.4681 -0.2326 -0.3331
  413MPD2    H5 6224   1.666   3.914  15.186 -0.3382 -1.5765 -0.5096
  413MPD2    N1 6225   1.422   4.224  15.458  0.1120 -0.8631 -0.0014
  413MPD2    H7 6226   1.415   4.293  15.533  0.9695 -0.6036 -0.1498
  414TMC3    C1 6227   1.838   3.761  15.128  0.3250 -0.0652  0.1223
  414TMC3    C2 6228   1.915   3.644  15.118 -0.3413  0.1315  0.0874
  414TMC3    C3 6229   1.939   3.602  14.984  0.0942 -0.0431  0.0900
  414TMC3    C4 6230   1.800   3.840  15.023 -0.4245 -0.2988  0.1509
  414TMC3    C5 6231   1.830   3.791  14.898  0.0835 -0.1260  0.7595
  414TMC3    C6 6232   1.890   3.669  14.878  0.9732  0.3156  0.1488
  414TMC3     C 6233   1.803   3.797  15.267 -0.6538  0.2921  0.1932
  414TMC3     O 6234   1.861   3.752  15.368 -0.2100 -0.1455  0.2136
  414TMC3     H 6235   1.929   3.585  15.208 -1.5593 -0.5558 -0.1631
  414TMC3    H1 6236   1.757   3.939  15.027 -0.3825 -0.3601  2.1100
  414TMC3    H2 6237   1.897   3.621  14.781 -1.5958 -1.9443  1.0914
  414TMC3    C7 6238   1.770   3.870  14.791 -0.2093  0.6200 -0.4310
  414TMC3    C8 6239   2.017   3.480  14.977  0.4572 -0.3927  0.8499
  414TMC3    O1 6240   1.653   3.904  14.817  0.1599 -0.1450 -0.0929
  414TMC3    O2 6241   2.022   3.412  14.875  0.0990  0.4392  0.5895
  415TMC3    C1 6242   2.813   2.126  10.249 -0.3807 -0.0444  0.1752
  415TMC3    C2 6243   2.850   2.166  10.120 -0.2930 -0.0518 -0.0020
  415TMC3    C3 6244   2.754   2.150  10.026 -0.1126 -0.0140  0.4355
  415TMC3    C4 6245   2.702   2.050  10.279  0.0894 -0.0552 -0.3507
  415TMC3    C5 6246   2.614   2.037  10.171  0.2454 -0.5600 -0.2085
  415TMC3    C6 6247   2.639   2.083  10.045  1.1314 -0.7184  0.2277
  415TMC3     C 6248   2.869   2.192  10.363 -0.3633 -0.6216 -0.4988
  415TMC3     O 6249   2.812   2.157  10.466  0.3183 -0.2969  0.0505
  415TMC3     H 6250   2.946   2.212  10.102  0.9020 -2.7287 -0.4280
  415TMC3    H1 6251   2.696   2.001  10.375  0.5016 -0.5872 -0.5977
  415TMC3    H2 6252   2.558   2.068   9.975 -1.7690 -1.1866  3.7270
  415TMC3    C7 6253   2.522   1.931  10.190  1.2421  0.0695  0.1888
  415TMC3    C8 6254   2.797   2.177   9.893 -0.2233 -0.2656 -0.4260
  415TMC3    O1 6255   2.489   1.857  10.096  0.3383  0.6119 -0.5055
  415TMC3    O2 6256   2.732   2.120   9.808  0.0143  0.1129 -0.7514
  416MPD2     C 6257   4.017   0.750  11.238 -0.3944  0.0936  0.2101
  416MPD2    C1 6258   3.889   0.775  11.181 -0.7825 -0.0398  0.0112
  416MPD2    C2 6259   3.872   0.769  11.043  0.5306  0.0320 -0.1885
  416MPD2    C3 6260   3.975   0.732  10.962 -0.2442 -1.2141  0.1810
  416MPD2    C4 6261   4.101   0.711  11.017 -0.4449 -0.8493  0.0114
  416MPD2    C5 6262   4.124   0.724  11.155  0.8408  0.2726  0.2257
  416MPD2     H 6263   3.773   0.775  10.999  0.9541  1.9395 -0.9146
  416MPD2    H1 6264   4.194   0.702  10.962 -0.9751 -0.1532 -0.9891
  416MPD2    H2 6265   4.035   0.745  11.345  1.3429  0.4674 -0.0524
  416MPD2    H3 6266   4.223   0.706  11.195 -0.2853  0.4501  3.0628
  416MPD2     N 6267   3.965   0.722  10.825 -0.1108  0.8707  0.2326
  416MPD2    H5 6268   4.038   0.672  10.775  0.7955  2.8000 -0.3679
  416MPD2    N1 6269   3.784   0.804  11.272 -0.6223 -0.2163  0.7533
  416MPD2    H7 6270   3.800   0.813  11.372 -0.8518  0.5009  0.7323
  417TMC3    C1 6271   3.563   0.865  11.337  0.1513  0.7653 -0.0571
  417TMC3    C2 6272   3.600   0.871  11.465 -0.1712  0.2032  0.2529
  417TMC3    C3 6273   3.556   0.976  11.540 -0.2338 -0.0862 -0.3169
  417TMC3    C4 6274   3.473   0.956  11.283  0.2566 -0.9455 -0.3168
  417TMC3    C5 6275   3.438   1.061  11.363  0.3910  0.0883 -0.2018
  417TMC3    C6 6276   3.471   1.070  11.497 -0.1299 -0.0150  0.2945
  417TMC3     C 6277   3.646   0.801  11.242  0.4798 -0.7068  0.2552
  417TMC3     O 6278   3.583   0.764  11.144 -0.0545  0.0216  0.5719
  417TMC3     H 6279   3.666   0.803  11.518 -2.1318 -2.6662 -1.0065
  417TMC3    H1 6280   3.450   0.943  11.178  2.7183 -2.4703 -0.6770
  417TMC3    H2 6281   3.449   1.158  11.557 -1.1908  0.3278 -0.5812
  417TMC3    C7 6282   3.426   1.186  11.294 -0.3258  0.2671 -0.5940
  417TMC3    C8 6283   3.587   0.987  11.682 -0.1289 -0.0233 -0.0497
  417TMC3    O1 6284   3.493   1.282  11.328  0.2643 -0.3841  0.3705
  417TMC3    O2 6285   3.563   1.098  11.732 -0.1596 -0.0067 -0.3716
  418TMC3    C1 6286   2.831   2.911   0.034  0.3765  0.5088 -0.1175
  418TMC3    C2 6287   2.704   2.935   0.013 -0.2306 -0.6090 -0.3921
  418TMC3    C3 6288   2.612   2.880   0.096 -0.3790  0.4192 -0.1984
  418TMC3    C4 6289   2.877   2.855   0.151  0.3660 -1.1867  0.0995
  418TMC3    C5 6290   2.784   2.810   0.240  0.1230  0.2792  0.3766
  418TMC3    C6 6291   2.649   2.839   0.223 -0.4265  0.5145  0.0733
  418TMC3     C 6292   2.928   2.930  17.665 -0.0923  0.0529  0.3837
  418TMC3     O 6293   2.895   3.006  17.582  0.1491  0.1374  0.1916
  418TMC3     H 6294   2.664   2.968  17.659  0.5947  2.6198  0.3829
  418TMC3    H1 6295   2.982   2.837   0.169  0.5684 -0.3266 -0.2235
  418TMC3    H2 6296   2.573   2.809   0.295 -1.1831  0.3714 -0.7948
  418TMC3    C7 6297   2.832   2.724   0.356  0.2253 -0.5922 -0.6780
  418TMC3    C8 6298   2.477   2.848   0.047 -0.3676 -0.2442  0.9425
  418TMC3    O1 6299   2.941   2.671   0.346 -0.1360 -0.0789 -0.2635
  418TMC3    O2 6300   2.428   2.924  17.705 -0.0678  0.4176  0.9642
  419MPD2     C 6301   1.456   0.996  12.054  0.6372  1.0070  0.1409
  419MPD2    C1 6302   1.429   1.121  12.103  0.6704 -0.5348 -0.1153
  419MPD2    C2 6303   1.368   1.132  12.225  0.0811 -0.3247 -0.1314
  419MPD2    C3 6304   1.360   1.028  12.318 -0.0412  0.2967  0.2086
  419MPD2    C4 6305   1.418   0.907  12.281 -0.1805 -0.1220  0.4722
  419MPD2    C5 6306   1.464   0.892  12.149  0.0427  0.2972 -0.1192
  419MPD2     H 6307   1.349   1.233  12.259  1.4290  0.0172 -0.3926
  419MPD2    H1 6308   1.424   0.817  12.341 -0.5273 -0.4639  0.0005
  419MPD2    H2 6309   1.480   0.974  11.950  3.2692 -0.1454  0.9757
  419MPD2    H3 6310   1.497   0.796  12.111  0.0431  0.6979 -1.1296
  419MPD2     N 6311   1.308   1.051  12.448  0.4483 -0.1743 -0.2503
  419MPD2    H5 6312   1.251   1.134  12.458 -0.9774 -1.0666 -0.9368
  419MPD2    N1 6313   1.437   1.246  12.028 -0.7658  0.3154 -0.2599
  419MPD2    H7 6314   1.408   1.330  12.077  2.6012  1.1048  0.3873
  420TMC3    C1 6315   1.234   0.997  12.669  0.2747  0.1379 -0.1006
  420TMC3    C2 6316   1.140   1.096  12.663 -0.5395 -0.3608  0.0360
  420TMC3    C3 6317   1.087   1.146  12.783  0.0133  0.8976  0.2261
  420TMC3    C4 6318   1.270   0.953  12.791  0.1410 -0.0441  0.0621
  420TMC3    C5 6319   1.220   1.010  12.907  0.1331  0.2516  0.0453
  420TMC3    C6 6320   1.123   1.103  12.905 -0.6456 -0.2831  0.4399
  420TMC3     C 6321   1.309   0.956  12.546  0.3473 -0.0800 -0.1983
  420TMC3     O 6322   1.364   0.845  12.553 -0.4439  0.4040  0.4166
  420TMC3     H 6323   1.096   1.112  12.566 -4.2674 -0.5786  1.6872
  420TMC3    H1 6324   1.359   0.891  12.798  1.2237  1.4014 -1.0308
  420TMC3    H2 6325   1.086   1.152  12.993  0.2631  2.9435 -0.9775
  420TMC3    C7 6326   1.290   0.975  13.033  0.3546 -0.3628  0.3574
  420TMC3    C8 6327   0.992   1.253  12.771 -0.4937 -0.3960 -0.6669
  420TMC3    O1 6328   1.375   0.891  13.034  0.1550 -0.4342 -0.3853
  420TMC3    O2 6329   0.961   1.307  12.877  0.2782 -0.1672  0.1164
  421TMC3    C1 6330   2.766   2.562  13.148 -0.2528  0.1487  0.2529
  421TMC3    C2 6331   2.817   2.664  13.227  0.0240  0.1390 -0.5511
  421TMC3    C3 6332   2.924   2.625  13.310 -0.3832  0.4772  0.3631
  421TMC3    C4 6333   2.814   2.434  13.145 -0.4908  0.2205  0.0663
  421TMC3    C5 6334   2.929   2.409  13.209 -0.2676 -0.7351  0.3985
  421TMC3    C6 6335   2.986   2.502  13.295 -0.4105 -0.4266  0.3547
  421TMC3     C 6336   2.622   2.574  13.125 -0.1293  0.1652  0.0973
  421TMC3     O 6337   2.573   2.681  13.100 -0.2547  0.1851  0.3025
  421TMC3     H 6338   2.764   2.757  13.243  1.5118  1.3044 -2.3715
  421TMC3    H1 6339   2.788   2.368  13.064 -0.8049  0.3392  0.0683
  421TMC3    H2 6340   3.081   2.482  13.344  1.1876  1.0105 -2.1765
  421TMC3    C7 6341   3.024   2.317  13.144 -0.1612  0.1959  0.0879
  421TMC3    C8 6342   2.943   2.695  13.435  1.0554  0.3838  0.4974
  421TMC3    O1 6343   3.140   2.358  13.136 -0.7852  0.0119  0.2103
  421TMC3    O2 6344   2.890   2.807  13.445 -0.1944 -0.0217  0.3045
  422TMC3    C1 6345   4.729   4.617  11.837 -0.2885  0.0043 -0.9748
  422TMC3    C2 6346   0.017   4.683  11.958  0.2331 -0.6006  0.1452
  422TMC3    C3 6347   4.653   4.683  12.051 -0.0744  0.0813 -0.0210
  422TMC3    C4 6348   4.600   4.574  11.803 -0.0529 -0.1705 -0.0501
  422TMC3    C5 6349   4.509   4.578  11.908  0.8004 -0.3315  0.2586
  422TMC3    C6 6350   4.533   4.630  12.027 -0.1023  0.1026 -0.2164
  422TMC3     C 6351   0.104   4.585  11.744 -0.1158  0.1601 -0.2770
  422TMC3     O 6352   0.065   4.568  11.629  0.0660 -0.4052 -0.7242
  422TMC3     H 6353   0.114   4.728  11.976 -0.9949  2.4422 -0.9423
  422TMC3    H1 6354   4.582   4.527  11.707 -0.2476 -0.6101  0.2007
  422TMC3    H2 6355   4.462   4.630  12.109  2.9892 -0.1189  2.5007
  422TMC3    C7 6356   4.401   4.479  11.898  0.6724  0.0834 -0.5280
  422TMC3    C8 6357   4.685   0.007  12.183  0.8844 -0.3961  0.4589
  422TMC3    O1 6358   4.336   4.469  11.793  0.6017 -0.1894  0.1721
  422TMC3    O2 6359   0.066   0.004  12.211 -0.1104 -0.1275 -0.3504
  423MPD2     C 6360   1.491   0.198   0.302 -0.4110  0.4119 -0.2683
  423MPD2    C1 6361   1.446   0.085   0.372 -0.6257 -0.4558 -0.1812
  423MPD2    C2 6362   1.392   4.717   0.302  0.2028 -0.4329  0.2248
  423MPD2    C3 6363   1.388   4.717   0.167  0.0333  0.4793 -0.1305
  423MPD2    C4 6364   1.440   0.088   0.095 -0.4389 -0.0014 -0.3183
  423MPD2    C5 6365   1.498   0.188   0.161  0.1973  0.3052  0.1000
  423MPD2     H 6366   1.357   4.635   0.364 -1.6920  0.5619  0.4563
  423MPD2    H1 6367   1.455   0.085  17.729 -3.1607 -0.5277 -0.6953
  423MPD2    H2 6368   1.525   0.293   0.343  2.2213  1.0215 -3.8395
  423MPD2    H3 6369   1.542   0.271   0.108  0.7651 -0.3914 -0.5234
  423MPD2     N 6370   1.372   4.596   0.100  0.5121 -0.0259  0.3365
  423MPD2    H5 6371   1.388   4.603  17.741 -1.2331  0.8102  0.1155
  423MPD2    N1 6372   1.435   0.082   0.513  0.7572 -0.2296 -0.6955
  423MPD2    H7 6373   1.399   4.732   0.555 -1.8738  0.0490 -2.4246
  424TMC3    C1 6374   1.470   0.132   0.737 -0.3552  0.2935 -0.1393
  424TMC3    C2 6375   1.477   4.734   0.745  1.1684  0.2025 -0.7078
  424TMC3    C3 6376   1.398   4.676   0.831 -0.5568  0.5617 -0.0460
  424TMC3    C4 6377   1.393   0.206   0.818 -0.3708 -0.2456 -0.6582
  424TMC3    C5 6378   1.309   0.139   0.895 -0.0426  0.5899 -1.0626
  424TMC3    C6 6379   1.308   0.002   0.915  0.1738  0.1032  0.1277
  424TMC3     C 6380   1.477   0.184   0.599  0.1572  0.2776 -0.0068
  424TMC3     O 6381   1.524   0.294   0.574 -0.1959  0.1557 -0.5224
  424TMC3     H 6382   1.529   4.676   0.670  1.6617 -0.6075  0.2641
  424TMC3    H1 6383   1.370   0.308   0.789 -0.0261  0.0035 -0.0501
  424TMC3    H2 6384   1.226   4.692   0.971  1.9421 -2.2173  0.8366
  424TMC3    C7 6385   1.188   0.206   0.931  0.3745 -0.2545 -0.0970
  424TMC3    C8 6386   1.409   4.536   0.849  1.6347 -0.1110  0.6856
  424TMC3    O1 6387   1.194   0.329   0.964 -0.0999 -0.5252 -0.0029
  424TMC3    O2 6388   1.508   4.477   0.808  0.1098  0.4124  0.1455
  425MPD2     C 6389   0.547   3.407  17.179 -0.7410 -0.5355  0.8473
  425MPD2    C1 6390   0.421   3.345  17.196  0.3292  0.8673 -0.4776
  425MPD2    C2 6391   0.330   3.397  17.286  0.3306  0.0966  0.2170
  425MPD2    C3 6392   0.368   3.499  17.376  0.0914 -0.4634  0.4513
  425MPD2    C4 6393   0.490   3.562  17.353  0.2463  0.2046 -0.1227
  425MPD2    C5 6394   0.577   3.513  17.260 -0.2123 -0.1685 -0.1827
  425MPD2     H 6395   0.232   3.352  17.278  0.9611 -1.2449  0.1068
  425MPD2    H1 6396   0.515   3.646  17.417  0.2930 -0.8554  1.2540
  425MPD2    H2 6397   0.624   3.359  17.119 -2.9415 -1.8550 -0.8983
  425MPD2    H3 6398   0.678   3.553  17.255  0.2759 -1.4314 -0.5112
  425MPD2     N 6399   0.280   3.540  17.480  0.2887 -0.4366 -0.6009
  425MPD2    H5 6400   0.195   3.490  17.502  0.7825 -0.5721  1.0499
  425MPD2    N1 6401   0.397   3.233  17.113  0.2281  0.6462  0.0100
  425MPD2    H7 6402   0.475   3.199  17.057  0.1101  1.2489 -0.5092
  426TMC3    C1 6403   0.300   3.029  17.029  0.3910 -0.7801  0.1348
  426TMC3    C2 6404   0.386   3.027  16.921  0.0542 -0.3719 -0.1413
  426TMC3    C3 6405   0.408   2.905  16.868  0.0087 -0.3752 -0.7490
  426TMC3    C4 6406   0.245   2.920  17.083  0.4009  0.3501  0.3759
  426TMC3    C5 6407   0.271   2.801  17.027 -0.3466 -0.6388 -0.1427
  426TMC3    C6 6408   0.349   2.790  16.914  0.7534  0.4608  0.3653
  426TMC3     C 6409   0.281   3.152  17.105 -0.3221 -0.4895  0.9948
  426TMC3     O 6410   0.167   3.174  17.151 -0.4625 -0.8985  0.0656
  426TMC3     H 6411   0.432   3.122  16.895 -1.1280  0.5973  1.2515
  426TMC3    H1 6412   0.195   2.931  17.179 -0.4225  1.6313 -0.1934
  426TMC3    H2 6413   0.373   2.693  16.874  3.4948  0.5862  1.6546
  426TMC3    C7 6414   0.239   2.684  17.107  0.9455  0.3201  0.1903
  426TMC3    C8 6415   0.500   2.890  16.757 -0.1398  0.1319 -0.2480
  426TMC3    O1 6416   0.145   2.704  17.183 -0.4472  0.4457 -0.2442
  426TMC3    O2 6417   0.504   2.781  16.703  0.2629  0.1706  0.1440
  427MPD2     C 6418   4.052   0.950  14.423 -0.7226 -0.4941  0.0311
  427MPD2    C1 6419   3.992   0.997  14.537  0.1002  0.3422  0.4314
  427MPD2    C2 6420   3.860   1.035  14.534  0.5783  0.3801  0.5253
  427MPD2    C3 6421   3.782   1.003  14.421  0.5491 -0.8420 -0.6468
  427MPD2    C4 6422   3.841   0.943  14.312 -0.1215  0.1789 -0.0697
  427MPD2    C5 6423   3.975   0.937  14.311  0.5495 -0.2693 -0.0442
  427MPD2     H 6424   3.823   1.078  14.626 -1.6148  1.0419 -0.6872
  427MPD2    H1 6425   3.783   0.916  14.224 -0.6508  2.0941 -0.2917
  427MPD2    H2 6426   4.153   0.910  14.416  0.1962  1.7614  0.5047
  427MPD2    H3 6427   4.032   0.906  14.224 -0.4610 -0.5011 -0.6229
  427MPD2     N 6428   3.645   1.030  14.407  0.0608 -0.1495  0.5980
  427MPD2    H5 6429   3.610   1.022  14.312  0.8861 -1.3376  0.3923
  427MPD2    N1 6430   4.061   0.998  14.659  0.3359  0.0646 -0.0365
  427MPD2    H7 6431   3.998   1.013  14.738  0.7722 -2.8135  0.8526
  428TMC3    C1 6432   4.224   0.928  14.814 -1.0715 -0.2611 -0.1356
  428TMC3    C2 6433   4.144   0.829  14.858  0.7680  0.4946 -0.2176
  428TMC3    C3 6434   4.204   0.738  14.944  0.7449 -0.3316  0.0019
  428TMC3    C4 6435   4.358   0.938  14.845  0.1960 -0.1336 -0.2972
  428TMC3    C5 6436   4.411   0.848  14.940 -0.4465  0.9668  0.2250
  428TMC3    C6 6437   4.325   0.759  15.003  0.0805 -0.3381 -0.8444
  428TMC3     C 6438   4.193   0.966  14.681  0.6653 -0.3686  0.0955
  428TMC3     O 6439   4.280   0.938  14.598 -0.1577  0.2080 -0.0109
  428TMC3     H 6440   4.039   0.825  14.834  0.4767 -0.6348  1.2429
  428TMC3    H1 6441   4.413   1.019  14.797  0.9779 -0.7318 -0.4165
  428TMC3    H2 6442   4.357   0.691  15.081 -0.4771  0.8202  0.3888
  428TMC3    C7 6443   4.539   0.874  15.013 -0.7412  0.2349 -0.5436
  428TMC3    C8 6444   4.130   0.619  14.988  0.1974 -0.0267  0.3073
  428TMC3    O1 6445   4.540   0.842  15.130  0.5628 -0.0504 -0.1327
  428TMC3    O2 6446   4.089   0.544  14.899  0.0861 -0.5905  0.4076
  429MPD2     C 6447   4.249   1.122  17.359  0.6777 -0.0852  1.1190
  429MPD2    C1 6448   4.374   1.125  17.420 -0.0624  0.2788  0.4324
  429MPD2    C2 6449   4.469   1.201  17.362 -0.1143 -0.0178  0.4960
  429MPD2    C3 6450   4.449   1.280  17.248 -0.1930  0.9868  0.6599
  429MPD2    C4 6451   4.326   1.266  17.188  0.4868 -0.5894 -0.6406
  429MPD2    C5 6452   4.230   1.183  17.235  0.4240  0.4265  0.4908
  429MPD2     H 6453   4.566   1.213  17.408 -0.1014  1.5845  0.0386
  429MPD2    H1 6454   4.306   1.308  17.090 -0.3697 -0.8310 -0.5717
  429MPD2    H2 6455   4.159   1.073  17.395  0.4311 -0.2484  0.2683
  429MPD2    H3 6456   4.136   1.169  17.183 -0.7739  3.1927  1.9096
  429MPD2     N 6457   4.550   1.363  17.195 -0.2263 -0.0980  0.2466
  429MPD2    H5 6458   4.641   1.355  17.238 -1.2439 -0.7590  2.2628
  429MPD2    N1 6459   4.406   1.059  17.535  0.2498 -0.2325 -0.7129
  429MPD2    H7 6460   4.507   1.059  17.545  0.4036 -0.2352 -2.2487
  430TMC3    C1 6461   4.659   1.487  17.020  0.4429  0.8346  1.0670
  430TMC3    C2 6462   4.637   1.576  16.920  0.2263 -0.0663 -0.1998
  430TMC3    C3 6463   4.713   1.567  16.805 -0.2828  0.4515  0.0028
  430TMC3    C4 6464   0.013   1.385  16.995 -0.0750  0.0862  0.5969
  430TMC3    C5 6465   0.093   1.392  16.883 -0.3760  0.2739 -0.7329
  430TMC3    C6 6466   0.076   1.479  16.777 -0.3610  0.3096 -0.1931
  430TMC3     C 6467   4.534   1.449  17.090 -0.8359 -0.7188 -0.4656
  430TMC3     O 6468   4.427   1.481  17.038 -0.0207  0.0900  0.3957
  430TMC3     H 6469   4.556   1.647  16.917  0.0802 -0.2396 -0.3511
  430TMC3    H1 6470   0.044   1.316  17.072 -2.3895  2.2776  3.5243
  430TMC3    H2 6471   0.128   1.477  16.682  0.3826  0.5486  0.2103
  430TMC3    C7 6472   0.192   1.286  16.862  0.1693  0.6184 -0.0211
  430TMC3    C8 6473   4.644   1.631  16.689  0.7956  0.2411  1.0542
  430TMC3    O1 6474   0.179   1.179  16.924  0.2045 -0.5606 -0.2550
  430TMC3    O2 6475   4.577   1.729  16.716 -0.0112 -0.3758  0.1456
  431MPD2     C 6476   1.054   1.915  12.219 -0.0922 -0.2660 -0.2717
  431MPD2    C1 6477   1.185   1.946  12.198 -0.0057 -0.2022 -0.0644
  431MPD2    C2 6478   1.251   1.888  12.088  0.4814  0.2059 -0.4207
  431MPD2    C3 6479   1.187   1.792  12.008  0.4331  0.4654 -0.6797
  431MPD2    C4 6480   1.054   1.773  12.032  0.5952 -0.0451  0.5186
  431MPD2    C5 6481   0.987   1.835  12.135  0.6215  0.4851 -0.2091
  431MPD2     H 6482   1.354   1.919  12.073 -0.0729  1.8022 -0.8761
  431MPD2    H1 6483   0.997   1.701  11.975  0.3154 -0.7665  1.7105
  431MPD2    H2 6484   1.000   1.969  12.295 -0.9477 -1.5145  0.0009
  431MPD2    H3 6485   0.881   1.818  12.151  0.3705  1.9809 -0.2612
  431MPD2     N 6486   1.256   1.716  11.911  0.1528 -0.3474  0.0894
  431MPD2    H5 6487   1.200   1.639  11.877  0.1176 -0.3492  0.1505
  431MPD2    N1 6488   1.261   2.029  12.286  0.5086  0.5647  0.1391
  431MPD2    H7 6489   1.354   2.056  12.255  0.8049 -1.7957 -1.0726
  432TMC3    C1 6490   1.440   1.607  11.820 -0.3004  0.2384 -0.2314
  432TMC3    C2 6491   1.514   1.624  11.706 -0.5192  0.3251 -0.4711
  432TMC3    C3 6492   1.556   1.512  11.650  0.2229 -0.6577  0.3134
  432TMC3    C4 6493   1.420   1.484  11.882 -0.1040 -0.4960  0.1901
  432TMC3    C5 6494   1.474   1.375  11.828  0.6350 -0.0310  0.4854
  432TMC3    C6 6495   1.538   1.385  11.709  0.1564  0.3771  0.3349
  432TMC3     C 6496   1.387   1.725  11.887  0.1576  0.0746 -0.4388
  432TMC3     O 6497   1.465   1.819  11.886  0.1420 -0.2692 -0.2618
  432TMC3     H 6498   1.526   1.720  11.657  0.4545 -0.4029 -1.6904
  432TMC3    H1 6499   1.384   1.489  11.984 -0.3208  2.3340 -0.0271
  432TMC3    H2 6500   1.561   1.294  11.654 -0.1383  1.5587 -1.7371
  432TMC3    C7 6501   1.493   1.251  11.898 -0.5948 -0.0982 -0.0903
  432TMC3    C8 6502   1.652   1.534  11.542  0.4470  0.1663  0.0702
  432TMC3    O1 6503   1.538   1.161  11.833 -0.1017  0.3975 -0.0441
  432TMC3    O2 6504   1.666   1.644  11.494 -0.2464 -0.3024  0.6527
  433MPD2     C 6505   4.695   0.079  10.334  1.0220  0.4705 -0.0456
  433MPD2    C1 6506   0.059   0.033  10.419  0.1802 -0.2925 -0.2723
  433MPD2    C2 6507   0.129   0.122  10.488 -0.0677 -0.6627  0.4873
  433MPD2    C3 6508   0.112   0.257  10.471  0.5091 -0.3280  0.1002
  433MPD2    C4 6509   0.013   0.301  10.393 -0.1084  0.0067  0.1419
  433MPD2    C5 6510   4.675   0.215  10.312 -0.4261  0.4724  0.1066
  433MPD2     H 6511   0.210   0.090  10.551 -0.7651  0.6729  2.0831
  433MPD2    H1 6512   4.729   0.406  10.376  0.0792 -0.0105 -0.1943
  433MPD2    H2 6513   4.634   0.016  10.271  1.2573  1.1150 -0.9193
  433MPD2    H3 6514   4.593   0.241  10.247 -0.7476 -1.1468 -0.1215
  433MPD2     N 6515   0.191   0.331  10.559 -0.1119  0.2516 -0.3327
  433MPD2    H5 6516   0.250   0.265  10.609 -0.5354  1.2382  1.4757
  433MPD2    N1 6517   0.093   4.630  10.422  0.1093  0.3267  0.9091
  433MPD2    H7 6518   0.049   4.572  10.351  0.6820  0.4872  0.4191
  434TMC3    C1 6519   0.218   4.440  10.459  0.7637 -0.4182 -0.5696
  434TMC3    C2 6520   0.335   4.402  10.514 -0.0309 -0.2897  0.2929
  434TMC3    C3 6521   0.358   4.270  10.525 -0.0115  0.1077 -0.0547
  434TMC3    C4 6522   0.121   4.356  10.412  0.1377 -0.5119  0.1009
  434TMC3    C5 6523   0.144   4.227  10.437  0.2537  0.2652  0.2446
  434TMC3    C6 6524   0.264   4.178  10.482 -0.2513 -0.0016 -0.1278
  434TMC3     C 6525   0.180   4.570  10.510 -0.3483  0.3883 -0.8164
  434TMC3     O 6526   0.226   4.605  10.615 -0.1643 -0.2740  0.0901
  434TMC3     H 6527   0.404   4.476  10.552 -1.1318  1.2629 -0.7497
  434TMC3    H1 6528   0.027   4.384  10.365  0.8936  2.5645  0.4058
  434TMC3    H2 6529   0.280   4.071  10.485 -2.1844 -0.2691  0.8248
  434TMC3    C7 6530   0.065   4.143  10.359 -0.0010  1.1084 -0.5000
  434TMC3    C8 6531   0.463   4.226  10.618 -0.2483  0.8924  0.1073
  434TMC3    O1 6532   0.016   4.192  10.257 -0.0133 -0.3661  0.6514
  434TMC3    O2 6533   0.547   4.308  10.638 -0.5730 -0.3437 -0.2994
  435MPD2     C 6534   2.319   4.630  15.421  0.2420  0.3837  0.4459
  435MPD2    C1 6535   2.243   4.652  15.535 -0.5585  0.4612 -0.5923
  435MPD2    C2 6536   2.275   4.582  15.652  0.2717  0.0111  0.8844
  435MPD2    C3 6537   2.379   4.485  15.657 -0.8870 -0.0783  0.1752
  435MPD2    C4 6538   2.459   4.477  15.545 -0.0413  0.1062 -1.0145
  435MPD2    C5 6539   2.433   4.550  15.431  0.2453 -0.5100 -0.9228
  435MPD2     H 6540   2.206   4.592  15.735 -0.3585  0.2917  0.3338
  435MPD2    H1 6541   2.547   4.414  15.540 -1.1224 -1.4997  0.4347
  435MPD2    H2 6542   2.305   4.687  15.330 -3.0276 -1.4109 -0.2063
  435MPD2    H3 6543   2.496   4.538  15.344  0.5428  1.8733 -1.0348
  435MPD2     N 6544   2.394   4.397  15.767 -0.7089 -0.3604 -0.5143
  435MPD2    H5 6545   2.335   4.423  15.845 -0.8321 -0.4519 -0.5763
  435MPD2    N1 6546   2.131   0.001  15.537  0.5870 -0.5794  0.1075
  435MPD2    H7 6547   2.073   0.002  15.620 -0.6016 -1.2129 -0.7111
  436TMC3    C1 6548   1.872   0.284  15.623  0.5497 -0.0892  0.7116
  436TMC3    C2 6549   1.984   0.216  15.584 -0.0781 -0.2960  0.4390
  436TMC3    C3 6550   1.972   0.162  15.458  0.1802  1.0293 -0.4795
  436TMC3    C4 6551   1.769   0.323  15.540 -0.7443  0.4683 -0.3240
  436TMC3    C5 6552   1.774   0.275  15.408 -1.4993  0.0462 -0.6958
  436TMC3    C6 6553   1.877   0.193  15.366  0.5306  0.4610 -0.5788
  436TMC3     C 6554   1.861   0.295  15.761 -0.0640  1.2949 -1.1485
  436TMC3     O 6555   1.965   0.270  15.823 -0.2426 -0.3653 -0.0866
  436TMC3     H 6556   2.067   0.196  15.650  0.2508  2.2122  0.7813
  436TMC3    H1 6557   1.686   0.385  15.574 -1.1209 -2.2471  3.6682
  436TMC3    H2 6558   1.874   0.138  15.273  1.3401  0.4216 -0.5813
  436TMC3    C7 6559   1.694   0.341  15.303  0.2605 -0.3434 -1.0192
  436TMC3    C8 6560   2.085   0.069  15.426 -0.0235  0.4713  0.0887
  436TMC3    O1 6561   1.586   0.382  15.337  0.5342 -0.4549 -0.2473
  436TMC3    O2 6562   2.127   0.065  15.313 -0.0034  0.1468 -0.5292
  437TMC3    C1 6563   0.550   2.485  13.068 -0.3734 -0.2288  0.0478
  437TMC3    C2 6564   0.422   2.510  13.095 -0.0102  0.5934 -0.6418
  437TMC3    C3 6565   0.377   2.636  13.071  0.0777  0.2446  0.2693
  437TMC3    C4 6566   0.629   2.580  13.008 -0.6272  0.9939  0.5198
  437TMC3    C5 6567   0.579   2.700  12.984  0.4326  0.8636 -0.1828
  437TMC3    C6 6568   0.447   2.729  13.010 -0.2505  0.4704  1.0818
  437TMC3     C 6569   0.594   2.340  13.062  0.4291  0.6051  0.1996
  437TMC3     O 6570   0.509   2.261  13.103  0.2429  0.6835  0.1401
  437TMC3     H 6571   0.352   2.431  13.118 -0.3700  0.7169 -1.3085
  437TMC3    H1 6572   0.735   2.566  13.026 -1.0183 -0.4080  1.7205
  437TMC3    H2 6573   0.413   2.832  13.007  0.9762  0.8258 -0.9832
  437TMC3    C7 6574   0.654   2.813  12.947  0.5589  0.2003  0.7069
  437TMC3    C8 6575   0.246   2.667  13.126  0.1626 -0.5782  0.3000
  437TMC3    O1 6576   0.614   2.932  12.949 -0.7129  0.2165  0.0206
  437TMC3    O2 6577   0.216   2.596  13.222 -0.4815 -0.6704 -0.0609
  438MPD2     C 6578   3.023   2.642  16.443  0.4120  0.0133 -0.2747
  438MPD2    C1 6579   3.112   2.566  16.508  0.2748 -0.8113  0.3865
  438MPD2    C2 6580   3.093   2.547  16.646  0.2703  0.0892  0.3762
  438MPD2    C3 6581   3.008   2.629  16.720 -0.1949  0.1125  0.2459
  438MPD2    C4 6582   2.932   2.723  16.648  0.4029 -0.5589 -0.3585
  438MPD2    C5 6583   2.928   2.720  16.512  0.4331 -0.1623 -0.0060
  438MPD2     H 6584   3.159   2.481  16.700  0.5904  1.0815  1.1908
  438MPD2    H1 6585   2.852   2.780  16.694  1.5473  0.5228  0.2813
  438MPD2    H2 6586   3.010   2.636  16.335  0.1376  1.3064 -0.3151
  438MPD2    H3 6587   2.853   2.772  16.455 -1.7135 -1.0388  2.0194
  438MPD2     N 6588   2.997   2.611  16.866 -0.5737 -0.3318 -0.1531
  438MPD2    H5 6589   2.933   2.674  16.913 -3.4394 -3.0039 -0.5421
  438MPD2    N1 6590   3.208   2.488  16.445 -0.2490 -0.3575  0.0322
  438MPD2    H7 6591   3.270   2.428  16.499 -0.6065 -0.1180  0.6919
  439TMC3    C1 6592   3.325   2.383  16.275  0.3333 -0.4152 -0.1235
  439TMC3    C2 6593   3.384   2.398  16.149 -0.1769  0.5463 -0.0636
  439TMC3    C3 6594   3.489   2.313  16.118  0.2564  1.0546  0.5736
  439TMC3    C4 6595   3.373   2.283  16.358  0.5916  0.1567 -0.1551
  439TMC3    C5 6596   3.467   2.197  16.313 -0.3588 -0.2393 -0.4413
  439TMC3    C6 6597   3.529   2.207  16.197 -0.4166  0.7631  0.0178
  439TMC3     C 6598   3.234   2.492  16.308 -0.1736 -0.0908 -0.2382
  439TMC3     O 6599   3.172   2.551  16.218  0.1326 -0.5011  0.6266
  439TMC3     H 6600   3.359   2.478  16.080  1.9929  1.1378 -0.1601
  439TMC3    H1 6601   3.325   2.264  16.453 -0.9912 -1.8360 -1.3555
  439TMC3    H2 6602   3.624   2.161  16.173 -1.2713 -1.4214  0.8688
  439TMC3    C7 6603   3.544   2.120  16.403  0.1330  0.5340 -0.1404
  439TMC3    C8 6604   3.520   2.289  15.983  0.5664 -0.3434 -0.1766
  439TMC3    O1 6605   3.524   2.166  16.518  0.6312  0.3205 -0.4128
  439TMC3    O2 6606   3.611   2.213  15.961  0.2228  0.2805 -0.0638
  440MPD2     C 6607   1.571   3.056  14.416 -0.6151  0.5267 -0.4316
  440MPD2    C1 6608   1.649   3.124  14.503 -0.5874  0.0503 -0.4245
  440MPD2    C2 6609   1.773   3.067  14.539  0.1279  1.0951  0.2606
  440MPD2    C3 6610   1.809   2.940  14.495  0.3590  0.1555  0.3757
  440MPD2    C4 6611   1.727   2.874  14.401  0.0900  0.1119  0.2314
  440MPD2    C5 6612   1.605   2.933  14.370 -0.1546 -0.1420  0.1791
  440MPD2     H 6613   1.833   3.117  14.615  0.4388  0.2722  0.5498
  440MPD2    H1 6614   1.754   2.787  14.342 -1.0106 -1.2302  1.7450
  440MPD2    H2 6615   1.475   3.096  14.384 -1.0172  0.2254  0.3912
  440MPD2    H3 6616   1.543   2.881  14.298 -1.6279 -0.2197  1.5142
  440MPD2     N 6617   1.926   2.864  14.532  0.0185  0.3703  0.1902
  440MPD2    H5 6618   1.929   2.768  14.500 -0.0250  1.0087 -1.7350
  440MPD2    N1 6619   1.610   3.242  14.571  0.4149  0.2374  0.4220
  440MPD2    H7 6620   1.685   3.281  14.628  1.0479 -0.5746  0.1497
  441TMC3    C1 6621   2.111   2.825  14.681 -0.5567 -0.0596  0.1049
  441TMC3    C2 6622   2.214   2.881  14.753  0.5735 -0.2938 -0.3686
  441TMC3    C3 6623   2.253   2.819  14.864  0.2639 -0.1560  0.1131
  441TMC3    C4 6624   2.037   2.711  14.723  0.5977  0.5836  0.2797
  441TMC3    C5 6625   2.079   2.661  14.839 -0.0977 -0.7449 -0.2791
  441TMC3    C6 6626   2.179   2.713  14.910  0.2982 -0.1661  0.2549
  441TMC3     C 6627   2.034   2.920  14.602 -0.3097 -0.3361  0.1891
  441TMC3     O 6628   2.054   3.038  14.620 -0.7317  0.3615  0.1892
  441TMC3     H 6629   2.268   2.970  14.721  1.5458 -0.0082  2.0430
  441TMC3    H1 6630   1.943   2.668  14.691  1.2631 -0.7914  0.1468
  441TMC3    H2 6631   2.221   2.666  14.998 -0.3222 -0.6551  0.2851
  441TMC3    C7 6632   1.992   2.567  14.898 -0.0418 -0.2365  0.5233
  441TMC3    C8 6633   2.298   2.899  14.971  1.1175  0.5483  0.2307
  441TMC3    O1 6634   1.942   2.479  14.832 -0.7666 -0.4917 -0.1847
  441TMC3    O2 6635   2.355   2.853  15.072  0.1350  0.0289 -0.5272
  442MPD2     C 6636   0.317   3.454  16.876  0.0847 -0.1528  1.3439
  442MPD2    C1 6637   0.209   3.498  16.809 -0.9638 -0.3961  0.2953
  442MPD2    C2 6638   0.189   3.458  16.676 -0.1320  0.2441  0.0217
  442MPD2    C3 6639   0.285   3.375  16.612 -0.2364 -0.4698 -0.5422
  442MPD2    C4 6640   0.403   3.336  16.677 -0.1079 -0.2269  0.2180
  442MPD2    C5 6641   0.411   3.379  16.812 -0.1950  0.0510 -0.4911
  442MPD2     H 6642   0.090   3.475  16.636 -0.9387 -2.7201  0.7616
  442MPD2    H1 6643   0.481   3.279  16.628  1.8597  1.7536  1.0283
  442MPD2    H2 6644   0.340   3.476  16.980 -1.3851 -4.0975  2.5200
  442MPD2    H3 6645   0.502   3.359  16.868 -1.4876  0.1280  1.6067
  442MPD2     N 6646   0.273   3.323  16.474 -0.2440 -0.1281  0.4197
  442MPD2    H5 6647   0.348   3.265  16.438 -1.3302  0.6951 -3.2205
  442MPD2    N1 6648   0.109   3.582  16.862 -0.7657 -0.2276 -0.6882
  442MPD2    H7 6649   0.035   3.608  16.797  0.1081  0.7443 -1.2830
  443TMC3    C1 6650   4.721   3.703  17.010  0.0545  0.2403  0.5358
  443TMC3    C2 6651   4.685   3.774  16.901 -0.3474 -0.3784  0.3395
  443TMC3    C3 6652   4.553   3.785  16.883 -0.1332  0.2691  0.1238
  443TMC3    C4 6653   4.634   3.639  17.091  0.3718  0.3602 -0.2274
  443TMC3    C5 6654   4.501   3.661  17.072  0.1905  0.3190 -0.0703
  443TMC3    C6 6655   4.459   3.736  16.964  0.0660  0.3833  0.1452
  443TMC3     C 6656   0.098   3.626  16.991 -0.8996 -0.1089  0.3631
  443TMC3     O 6657   0.163   3.598  17.092  0.0634 -0.1449 -0.2487
  443TMC3     H 6658   0.019   3.819  16.831  0.0268 -0.7515  0.4731
  443TMC3    H1 6659   4.663   3.568  17.167 -2.2991 -0.9536 -0.4200
  443TMC3    H2 6660   4.354   3.752  16.942  1.2643  1.0076 -5.1379
  443TMC3    C7 6661   4.398   3.567  17.116 -0.8048  0.6097  0.1750
  443TMC3    C8 6662   4.512   3.789  16.738 -0.0229 -0.6594 -0.0387
  443TMC3    O1 6663   4.317   3.532  17.029 -0.0691 -0.0946 -0.2288
  443TMC3    O2 6664   4.603   3.755  16.666 -0.3184 -0.0642  0.1836
  444MPD2     C 6665   4.702   3.125  16.917 -0.0796  0.1866 -0.1331
  444MPD2    C1 6666   4.675   2.985  16.929 -0.4397  0.6230 -0.2424
  444MPD2    C2 6667   4.722   2.903  16.829 -0.2984 -0.0326  0.3112
  444MPD2    C3 6668   0.070   2.947  16.723  0.2261  0.3304  0.4492
  444MPD2    C4 6669   0.104   3.079  16.720 -0.0570 -0.3147 -0.7626
  444MPD2    C5 6670   0.044   3.165  16.816  0.7798  0.0366  0.5206
  444MPD2     H 6671   4.697   2.798  16.832  1.0104 -0.3306  0.5873
  444MPD2    H1 6672   0.178   3.113  16.649  1.3186 -0.2604  0.6881
  444MPD2    H2 6673   4.669   3.200  16.988  1.5995 -2.4401  3.4107
  444MPD2    H3 6674   0.077   3.268  16.810 -2.8881  1.2887  1.7999
  444MPD2     N 6675   0.125   2.852  16.632 -0.6802 -0.4799 -1.1124
  444MPD2    H5 6676   0.080   2.761  16.632  1.6489 -1.6042 -0.7415
  444MPD2    N1 6677   4.594   2.929  17.033  0.2080  0.6137 -0.6073
  444MPD2    H7 6678   4.576   2.829  17.031 -0.0671  0.6138  1.8584
  445TMC3    C1 6679   0.244   2.766  16.464 -0.0467  0.3480 -0.0366
  445TMC3    C2 6680   0.136   2.684  16.438 -0.3663  0.0456  0.6368
  445TMC3    C3 6681   0.166   2.562  16.384 -0.1618 -0.3256 -0.1549
  445TMC3    C4 6682   0.366   2.734  16.416 -0.0792  0.0704 -0.2369
  445TMC3    C5 6683   0.392   2.609  16.365 -0.1074 -0.0843 -0.5006
  445TMC3    C6 6684   0.293   2.515  16.344  1.0387  0.2648  0.1742
  445TMC3     C 6685   0.228   2.878  16.544  0.5991  0.4296  0.5208
  445TMC3     O 6686   0.308   2.970  16.536 -0.4421 -0.1168 -0.1832
  445TMC3     H 6687   0.036   2.700  16.476  0.9139  0.7565  3.6777
  445TMC3    H1 6688   0.451   2.802  16.415  1.6571 -2.1059  1.1178
  445TMC3    H2 6689   0.310   2.422  16.292  2.1492 -0.7183  2.3353
  445TMC3    C7 6690   0.532   2.560  16.374 -0.4555  0.3346 -0.4270
  445TMC3    C8 6691   0.063   2.467  16.373  0.3276 -0.5666 -0.5092
  445TMC3    O1 6692   0.625   2.640  16.377  0.2065 -0.1479 -0.0263
  445TMC3    O2 6693   4.716   2.461  16.462 -0.4468  0.0295 -0.5729
  446MPD2     C 6694   0.237   4.260  11.074  0.9584 -0.1901 -1.2398
  446MPD2    C1 6695   0.215   4.285  10.942  0.1897  0.3276  0.0408
  446MPD2    C2 6696   0.286   4.384  10.872  0.2057  0.1456 -0.9758
  446MPD2    C3 6697   0.373   4.462  10.945  0.0193 -0.6317  0.2503
  446MPD2    C4 6698   0.399   4.433  11.080 -0.6774  0.0317 -0.5725
  446MPD2    C5 6699   0.342   4.323  11.139  0.0696 -0.3591  0.2571
  446MPD2     H 6700   0.273   4.412  10.768  1.3310 -2.2972 -1.7592
  446MPD2    H1 6701   0.474   4.487  11.136 -1.5781  0.2482  0.4212
  446MPD2    H2 6702   0.178   4.194  11.136  2.5082  1.0580  1.5410
  446MPD2    H3 6703   0.372   4.275  11.231  0.1596 -1.8685 -0.5506
  446MPD2     N 6704   0.457   4.551  10.874  0.5867 -0.6252 -0.4593
  446MPD2    H5 6705   0.431   4.573  10.778 -2.0852  0.2375  0.4626
  446MPD2    N1 6706   0.106   4.215  10.883 -0.1389  0.2094 -0.1485
  446MPD2    H7 6707   0.067   4.254  10.798  2.6034  2.3372 -0.4551
  447TMC3    C1 6708   0.627   4.703  10.817  0.3088 -0.1226  0.1188
  447TMC3    C2 6709   0.554   0.046  10.738  0.2566  0.1997  0.6323
  447TMC3    C3 6710   0.619   0.131  10.655 -0.1589 -0.8051 -0.0911
  447TMC3    C4 6711   0.763   4.704  10.817 -0.5290 -0.4556  0.3522
  447TMC3    C5 6712   0.823   0.036  10.717 -0.2921 -0.0330  0.0613
  447TMC3    C6 6713   0.757   0.123  10.638  0.1575  0.6404  0.3855
  447TMC3     C 6714   0.568   4.611  10.922  0.3506 -0.0226  0.6737
  447TMC3     O 6715   0.642   4.589  11.018 -0.3114  0.0426 -0.0127
  447TMC3     H 6716   0.445   0.046  10.740  0.2308  1.7246 -0.6469
  447TMC3    H1 6717   0.825   4.647  10.885  1.9392  0.7611 -0.8722
  447TMC3    H2 6718   0.809   0.169  10.555 -1.4174  1.7926  0.0326
  447TMC3    C7 6719   0.964   0.011  10.689  0.3500  0.1669 -0.6843
  447TMC3    C8 6720   0.552   0.197  10.542  0.6986  0.0315  0.0487
  447TMC3    O1 6721   1.004   4.643  10.734  0.3326  0.7094  0.2694
  447TMC3    O2 6722   0.446   0.145  10.529  0.7380  0.1359 -0.0846
  448TMC3    C1 6723   2.978   3.946  16.776 -0.1116  0.3309  0.3762
  448TMC3    C2 6724   2.942   3.816  16.733 -0.4294 -0.7229 -0.7107
  448TMC3    C3 6725   2.974   3.712  16.819  0.1759 -0.0907  0.0082
  448TMC3    C4 6726   3.052   3.960  16.886  0.1467  0.2409  0.2865
  448TMC3    C5 6727   3.088   3.845  16.963 -0.5194  1.1086  0.4881
  448TMC3    C6 6728   3.053   3.718  16.928 -0.5629  0.1874 -0.7123
  448TMC3     C 6729   2.903   4.068  16.726  0.0784  0.7151  0.1209
  448TMC3     O 6730   2.949   4.181  16.735 -0.2515 -0.3167  0.3536
  448TMC3     H 6731   2.870   3.806  16.653 -0.0898 -0.2294 -1.0729
  448TMC3    H1 6732   3.087   4.058  16.917  4.0922 -1.4359  1.1474
  448TMC3    H2 6733   3.082   3.633  16.989 -2.6233  0.1585  0.2188
  448TMC3    C7 6734   3.189   3.866  17.067  0.0005  0.9684 -0.3785
  448TMC3    C8 6735   2.916   3.579  16.794 -0.0454  0.3355 -0.2979
  448TMC3    O1 6736   3.269   3.954  17.045 -0.0519  1.1776  0.4351
  448TMC3    O2 6737   2.966   3.491  16.863  0.4151 -0.4593  0.0418
  449MPD2     C 6738   4.567   2.431  13.831 -0.0644 -0.5003  0.9074
  449MPD2    C1 6739   4.445   2.471  13.807  0.0240 -0.1155 -0.4902
  449MPD2    C2 6740   4.359   2.376  13.753  0.5006 -0.0224  0.6753
  449MPD2    C3 6741   4.393   2.253  13.720  0.5472 -0.6530 -0.1709
  449MPD2    C4 6742   4.520   2.212  13.738  0.1502 -0.4664 -0.1269
  449MPD2    C5 6743   4.613   2.310  13.783 -0.0750  0.4647 -0.0273
  449MPD2     H 6744   4.264   2.416  13.720  1.1904  0.6041 -0.5631
  449MPD2    H1 6745   4.556   2.119  13.696 -0.3503 -0.5283 -0.4220
  449MPD2    H2 6746   4.646   2.499  13.859 -0.0452 -0.1580  0.0359
  449MPD2    H3 6747   4.717   2.282  13.795  1.0221  4.0382 -1.3792
  449MPD2     N 6748   4.289   2.176  13.649 -0.2698  0.1296  0.2017
  449MPD2    H5 6749   4.205   2.229  13.624 -0.9421 -0.9372  0.2134
  449MPD2    N1 6750   4.400   2.595  13.835  0.2655  0.6219 -0.5752
  449MPD2    H7 6751   4.298   2.600  13.835  0.2730  0.7573 -0.6930
  450TMC3    C1 6752   4.389   2.828  13.853  0.0419  0.7141 -0.0366
  450TMC3    C2 6753   4.411   2.912  13.751 -0.0180 -0.2467 -0.0340
  450TMC3    C3 6754   4.302   2.962  13.680  0.1168 -0.5421  0.2210
  450TMC3    C4 6755   4.265   2.796  13.886  0.3214  0.5098 -0.1230
  450TMC3    C5 6756   4.156   2.835  13.808  0.3543 -0.0710 -0.1129
  450TMC3    C6 6757   4.174   2.935  13.723  0.1204 -0.0733 -0.0497
  450TMC3     C 6758   4.475   2.712  13.855  0.7488 -0.2909 -0.8716
  450TMC3     O 6759   4.596   2.739  13.872  0.0267  0.2369  0.0696
  450TMC3     H 6760   4.513   2.935  13.721  0.4922  0.7896  2.5091
  450TMC3    H1 6761   4.240   2.738  13.974 -0.1625 -1.5543 -1.6228
  450TMC3    H2 6762   4.090   2.978  13.669  0.4846  0.8102  0.0930
  450TMC3    C7 6763   4.077   2.724  13.771 -0.5313  0.1061  0.1831
  450TMC3    C8 6764   4.310   3.073  13.589 -0.2282  0.7924  0.2371
  450TMC3    O1 6765   4.124   2.617  13.799  0.0407 -0.6298 -0.1542
  450TMC3    O2 6766   4.208   3.130  13.566 -0.1711 -0.3719  0.4294
  451MPD2     C 6767   0.869   0.784   1.275  0.5410 -0.1684 -0.1795
  451MPD2    C1 6768   0.945   0.865   1.198 -0.0947  0.2830  0.3882
  451MPD2    C2 6769   1.022   0.808   1.097 -0.3930 -0.1559 -0.0426
  451MPD2    C3 6770   1.041   0.670   1.086 -0.0936 -0.2907 -0.4780
  451MPD2    C4 6771   0.957   0.584   1.160  0.0005  0.0831  0.4440
  451MPD2    C5 6772   0.886   0.647   1.263  0.4176 -0.5102 -0.1303
  451MPD2     H 6773   1.088   0.873   1.041 -1.4838  0.6485 -0.3678
  451MPD2    H1 6774   0.974   0.477   1.154  2.4601  0.4013  1.5810
  451MPD2    H2 6775   0.805   0.812   1.357  3.8965 -0.3179  2.5260
  451MPD2    H3 6776   0.817   0.585   1.317 -0.7027  1.4156  0.6447
  451MPD2     N 6777   1.127   0.614   0.984 -0.6171 -0.2751  0.6296
  451MPD2    H5 6778   1.136   0.514   0.971 -0.4583 -0.3449  1.3113
  451MPD2    N1 6779   0.916   1.004   1.218 -0.6591 -0.0555 -0.1793
  451MPD2    H7 6780   0.855   1.026   1.296  0.2882  1.8249  0.0263
  452TMC3    C1 6781   1.267   0.603   0.788  0.8820 -0.2528 -0.0214
  452TMC3    C2 6782   1.172   0.530   0.721  0.1144 -0.4293 -0.4011
  452TMC3    C3 6783   1.195   0.518   0.590  0.3951 -0.1241 -0.7763
  452TMC3    C4 6784   1.375   0.656   0.733  0.2219 -0.3683 -0.3223
  452TMC3    C5 6785   1.403   0.633   0.600  0.6797 -0.3166 -0.3164
  452TMC3    C6 6786   1.296   0.578   0.524  0.3648 -0.4553  0.1850
  452TMC3     C 6787   1.203   0.685   0.891  0.6157  0.2673 -0.2259
  452TMC3     O 6788   1.206   0.804   0.866 -0.0646 -0.0956 -0.0760
  452TMC3     H 6789   1.082   0.497   0.772  0.2064  1.9589  1.3131
  452TMC3    H1 6790   1.454   0.690   0.800  0.5240  1.0536 -1.4056
  452TMC3    H2 6791   1.314   0.542   0.423  0.2596 -0.0263  0.0144
  452TMC3    C7 6792   1.519   0.691   0.528  0.2378 -1.0481  0.3218
  452TMC3    C8 6793   1.085   0.471   0.504  0.1751 -0.7807 -0.5958
  452TMC3    O1 6794   1.525   0.667   0.405 -0.6200 -0.3668 -0.2351
  452TMC3    O2 6795   1.006   0.381   0.537 -0.0133  0.4853 -0.4071
  453TMC3    C1 6796   2.619   3.615  12.080  0.2033 -0.4862 -0.7396
  453TMC3    C2 6797   2.512   3.528  12.113  0.4139  0.1170  0.3343
  453TMC3    C3 6798   2.389   3.556  12.059  0.3738 -0.3802  0.1966
  453TMC3    C4 6799   2.600   3.722  11.995  0.1870 -0.3883 -0.5108
  453TMC3    C5 6800   2.475   3.741  11.946  0.1508  0.7760 -0.5976
  453TMC3    C6 6801   2.370   3.654  11.965  0.3287 -0.1436 -0.0656
  453TMC3     C 6802   2.753   3.599  12.135 -0.0704 -0.2141  0.1409
  453TMC3     O 6803   2.837   3.680  12.092 -0.7925  0.4670  0.0974
  453TMC3     H 6804   2.521   3.452  12.189 -0.9027 -0.9249 -0.5571
  453TMC3    H1 6805   2.678   3.788  11.961 -0.3909 -0.4458 -1.9419
  453TMC3    H2 6806   2.267   3.670  11.934 -0.0971  0.4192  1.6547
  453TMC3    C7 6807   2.466   3.836  11.831 -0.8825  0.0144 -0.2410
  453TMC3    C8 6808   2.288   3.455  12.082 -0.4412  0.1793  0.2097
  453TMC3    O1 6809   2.368   3.811  11.757 -0.1984 -0.6241  0.2228
  453TMC3    O2 6810   2.177   3.496  12.114 -0.1615 -0.2864  0.0573
  454MPD2     C 6811   1.161   2.745  15.553  0.6483 -0.4182 -1.1648
  454MPD2    C1 6812   1.078   2.643  15.593 -1.1670 -0.2671  0.1609
  454MPD2    C2 6813   1.098   2.588  15.717  0.8535  0.5942  0.3672
  454MPD2    C3 6814   1.183   2.647  15.807 -0.2110  0.2605 -0.0146
  454MPD2    C4 6815   1.261   2.757  15.778  0.5502 -1.5092 -0.4199
  454MPD2    C5 6816   1.243   2.800  15.648 -0.2679  0.0665 -0.0642
  454MPD2     H 6817   1.011   2.531  15.747 -0.4057  2.0725 -0.4478
  454MPD2    H1 6818   1.322   2.802  15.855 -1.5460 -0.7221  0.7690
  454MPD2    H2 6819   1.158   2.794  15.456 -0.2427  0.0266 -0.9101
  454MPD2    H3 6820   1.285   2.895  15.616  0.0657 -0.2673 -0.6102
  454MPD2     N 6821   1.173   2.612  15.946 -0.0575 -0.2054 -0.5338
  454MPD2    H5 6822   1.206   2.676  16.017 -1.1027 -2.5107  2.0511
  454MPD2    N1 6823   0.970   2.591  15.522  0.0563  0.3658 -0.1270
  454MPD2    H7 6824   0.922   2.507  15.553 -1.8465  0.5545 -2.5747
  455TMC3    C1 6825   0.990   2.554  16.074  0.1933 -0.2501 -0.5173
  455TMC3    C2 6826   0.987   2.693  16.108  0.4258 -0.2050 -0.0503
  455TMC3    C3 6827   0.865   2.762  16.127  0.2152 -0.1375  0.4562
  455TMC3    C4 6828   0.866   2.501  16.062  0.0700 -0.5648 -0.2741
  455TMC3    C5 6829   0.748   2.571  16.065  0.6533  0.0115 -0.0521
  455TMC3    C6 6830   0.738   2.701  16.097  0.6221 -0.3143  0.0412
  455TMC3     C 6831   1.091   2.506  15.985  0.9688 -0.6948 -0.2199
  455TMC3     O 6832   1.068   2.404  15.921 -0.4048 -0.0294 -0.1083
  455TMC3     H 6833   1.072   2.756  16.132  0.2819 -0.1366  0.2819
  455TMC3    H1 6834   0.865   2.402  16.018 -1.6411  0.1122 -1.7754
  455TMC3    H2 6835   0.654   2.770  16.092  0.7625  0.0080  2.2539
  455TMC3    C7 6836   0.627   2.503  16.022  0.1229  0.3178 -0.5350
  455TMC3    C8 6837   0.862   2.885  16.210  0.1617  0.1374 -0.0148
  455TMC3    O1 6838   0.540   2.567  15.959  0.4057 -0.2317 -0.3788
  455TMC3    O2 6839   0.957   2.955  16.201  0.8594 -0.4020  0.1913
  456MPD2     C 6840   3.639   2.660  16.007  0.3988  0.0201 -0.7818
  456MPD2    C1 6841   3.668   2.604  16.125 -0.5608 -0.0329  0.4721
  456MPD2    C2 6842   3.609   2.651  16.243  0.3358 -0.2144  0.8535
  456MPD2    C3 6843   3.514   2.750  16.235  0.5005  0.2101  0.0907
  456MPD2    C4 6844   3.479   2.802  16.113 -0.1719  0.1092 -0.3085
  456MPD2    C5 6845   3.543   2.761  15.999  0.0186  0.4332  0.6968
  456MPD2     H 6846   3.636   2.613  16.341 -1.4952 -2.4364  0.4768
  456MPD2    H1 6847   3.408   2.883  16.106  0.8416  1.2063  2.4182
  456MPD2    H2 6848   3.688   2.633  15.914 -1.6937  0.2405 -1.9386
  456MPD2    H3 6849   3.513   2.814  15.909  1.1752 -0.0957  0.0073
  456MPD2     N 6850   3.439   2.786  16.352  0.3686 -0.0515 -0.0353
  456MPD2    H5 6851   3.475   2.753  16.442  0.6404  2.6401  0.8335
  456MPD2    N1 6852   3.772   2.504  16.129 -0.4406  0.1299 -0.0874
  456MPD2    H7 6853   3.838   2.495  16.052 -0.3213  0.8825 -0.0672
  457TMC3    C1 6854   3.271   2.874  16.483 -0.4447  0.6228  0.2166
  457TMC3    C2 6855   3.154   2.950  16.492 -0.1797  0.4715  0.1303
  457TMC3    C3 6856   3.107   2.983  16.624  0.4540  0.0704  0.8922
  457TMC3    C4 6857   3.333   2.825  16.594  0.1745 -0.8336 -0.7670
  457TMC3    C5 6858   3.269   2.846  16.713 -0.6800 -0.4708 -0.0638
  457TMC3    C6 6859   3.166   2.929  16.734  0.1652 -0.2420  0.9188
  457TMC3     C 6860   3.324   2.862  16.353  0.0255  1.0422 -0.1775
  457TMC3     O 6861   3.267   2.932  16.269 -0.0678 -0.6197 -0.4660
  457TMC3     H 6862   3.106   2.994  16.405 -0.8962  2.7320  1.6984
  457TMC3    H1 6863   3.418   2.759  16.587  1.1359  0.3078 -0.0113
  457TMC3    H2 6864   3.134   2.943  16.837  0.1116 -0.2222  0.8991
  457TMC3    C7 6865   3.360   2.847  16.820  1.1240 -0.5178  0.0557
  457TMC3    C8 6866   3.003   3.077  16.644  0.0494  0.2507 -1.0088
  457TMC3    O1 6867   3.439   2.754  16.829  0.0295 -0.3365 -0.5674
  457TMC3    O2 6868   2.979   3.103  16.761 -0.3874  0.2901 -0.5184
  458MPD2     C 6869   1.129   3.002  12.843 -0.0064 -0.0495 -0.0481
  458MPD2    C1 6870   1.140   2.870  12.879 -0.0141  0.0036  1.0965
  458MPD2    C2 6871   1.024   2.795  12.905 -0.2772  0.4432  0.1334
  458MPD2    C3 6872   0.900   2.855  12.904  0.5144  0.1312  0.3042
  458MPD2    C4 6873   0.892   2.993  12.878 -0.7872 -0.5210  0.5846
  458MPD2    C5 6874   1.006   3.059  12.843  0.0796  0.3554  0.3414
  458MPD2     H 6875   1.030   2.689  12.928 -0.1327  0.7646  1.5941
  458MPD2    H1 6876   0.796   3.042  12.887 -0.5351  0.5342 -2.5953
  458MPD2    H2 6877   1.219   3.062  12.843 -0.2397  0.2979  0.7913
  458MPD2    H3 6878   1.008   3.167  12.836  2.0016  0.3116  0.0274
  458MPD2     N 6879   0.784   2.773  12.922  0.1828 -0.1578 -0.0995
  458MPD2    H5 6880   0.800   2.673  12.923 -1.0331 -0.3772 -2.8357
  458MPD2    N1 6881   1.266   2.803  12.882  0.0766  0.6134 -0.3262
  458MPD2    H7 6882   1.348   2.861  12.864  1.2886 -0.7436  0.8209
  459TMC3    C1 6883   1.433   2.650  12.935 -0.1547 -0.2042  0.0985
  459TMC3    C2 6884   1.513   2.677  12.829  0.1063  0.2829 -0.1547
  459TMC3    C3 6885   1.644   2.629  12.838 -0.0214  0.4553 -0.0212
  459TMC3    C4 6886   1.464   2.559  13.034 -0.5822 -0.2730  0.4064
  459TMC3    C5 6887   1.587   2.503  13.021 -0.2379  0.9641 -0.0012
  459TMC3    C6 6888   1.679   2.534  12.923 -0.3439  0.1296  0.0889
  459TMC3     C 6889   1.292   2.678  12.927  0.2062 -1.0530 -0.1847
  459TMC3     O 6890   1.219   2.592  12.975  0.0603 -0.4638 -0.6187
  459TMC3     H 6891   1.479   2.745  12.752 -0.7893  0.4164  0.3579
  459TMC3    H1 6892   1.395   2.551  13.117  0.5886 -2.2329  1.1883
  459TMC3    H2 6893   1.774   2.482  12.919 -0.7405 -0.8581  3.5343
  459TMC3    C7 6894   1.642   2.421  13.121 -0.0671 -0.6263  0.2042
  459TMC3    C8 6895   1.742   2.668  12.742 -0.2461  0.7433  0.4805
  459TMC3    O1 6896   1.698   2.321  13.078 -0.1894 -0.3095 -0.2780
  459TMC3    O2 6897   1.842   2.600  12.730 -0.3257 -0.2462  0.1690
  460MPD2     C 6898   0.639   0.503  10.362 -0.0103  0.4702 -0.1196
  460MPD2    C1 6899   0.561   0.395  10.406  0.1759  0.4625  0.2115
  460MPD2    C2 6900   0.439   0.380  10.352  0.5550  0.1306 -0.4169
  460MPD2    C3 6901   0.385   0.477  10.265 -0.3011  0.4930 -0.5417
  460MPD2    C4 6902   0.467   0.579  10.216 -0.1550 -0.3861 -0.3424
  460MPD2    C5 6903   0.593   0.589  10.265 -0.4155 -0.0212  0.1091
  460MPD2     H 6904   0.384   0.288  10.368 -1.2991  1.2933 -0.1768
  460MPD2    H1 6905   0.440   0.647  10.137  0.1411  0.4944  0.3174
  460MPD2    H2 6906   0.738   0.516  10.403  0.2691 -0.5628 -0.4405
  460MPD2    H3 6907   0.663   0.665  10.232 -0.9454  0.3228 -0.2034
  460MPD2     N 6908   0.254   0.454  10.207  0.6220 -0.5922 -0.0083
  460MPD2    H5 6909   0.224   0.357  10.215  1.3291 -0.9436 -1.6217
  460MPD2    N1 6910   0.611   0.307  10.497  0.5587  0.6672  0.1386
  460MPD2    H7 6911   0.707   0.323  10.528 -0.0239  2.8440  0.7983
  461TMC3    C1 6912   0.062   0.489  10.086 -0.4361 -0.2111 -0.3798
  461TMC3    C2 6913   0.074   0.364  10.036 -0.5384 -0.6475 -0.1898
  461TMC3    C3 6914   4.700   0.305   9.971 -0.4115 -0.8387 -0.2639
  461TMC3    C4 6915   4.687   0.566  10.064  0.0914  0.5208 -0.0429
  461TMC3    C5 6916   4.574   0.501  10.011  0.4842  0.0427  0.4143
  461TMC3    C6 6917   4.576   0.370   9.966 -0.4416 -0.2629  0.0382
  461TMC3     C 6918   0.176   0.550  10.147 -0.5604  0.3350 -0.8071
  461TMC3     O 6919   0.189   0.671  10.145 -0.0136 -0.2663 -0.1073
  461TMC3     H 6920   0.167   0.308  10.043  0.8222  1.7106  0.7265
  461TMC3    H1 6921   4.671   0.661  10.113  3.0534  0.1682  1.5649
  461TMC3    H2 6922   4.495   0.329   9.907  0.7256 -0.7324 -1.2571
  461TMC3    C7 6923   4.453   0.576   9.987  0.0726  0.2090 -0.4552
  461TMC3    C8 6924   4.704   0.163   9.938  0.3586  0.2541  0.2801
  461TMC3    O1 6925   4.459   0.698  10.005  0.7755 -0.3761  0.0641
  461TMC3    O2 6926   0.062   0.103   9.984  0.1601  0.1225  0.3575
  462TMC3    C1 6927   0.291   0.663  17.362 -0.2170 -0.2381 -0.2456
  462TMC3    C2 6928   0.212   0.584  17.285  0.0680  0.0347 -0.0672
  462TMC3    C3 6929   0.209   0.451  17.312 -1.5358 -0.0989 -0.0701
  462TMC3    C4 6930   0.367   0.615  17.459 -0.0225 -0.3114  0.6113
  462TMC3    C5 6931   0.360   0.482  17.483 -0.3983 -0.3104  0.0766
  462TMC3    C6 6932   0.291   0.393  17.409  0.3604  0.6917  0.8849
  462TMC3     C 6933   0.299   0.800  17.326 -0.4438 -0.1121  0.2324
  462TMC3     O 6934   0.250   0.840  17.220 -0.3558  0.2541  0.2478
  462TMC3     H 6935   0.156   0.617  17.198 -1.8735 -1.9175  0.4256
  462TMC3    H1 6936   0.435   0.681  17.510 -1.0286 -0.4404  2.1065
  462TMC3    H2 6937   0.255   0.308  17.466 -1.6216  0.6968 -0.3378
  462TMC3    C7 6938   0.402   0.421  17.607  0.1636  0.0850  0.2493
  462TMC3    C8 6939   0.101   0.364  17.273 -0.0516 -0.7153  0.1463
  462TMC3    O1 6940   0.423   0.302  17.594  0.1728 -0.3144 -0.5344
  462TMC3    O2 6941   0.001   0.415  17.225 -0.0629  0.3072 -0.4208
  463MPD2     C 6942   1.871   3.651   0.851  0.7743 -0.3005  0.2408
  463MPD2    C1 6943   1.753   3.673   0.918  0.2215 -0.6927 -0.3677
  463MPD2    C2 6944   1.730   3.797   0.969  0.2901 -0.1164 -0.1890
  463MPD2    C3 6945   1.816   3.901   0.958  0.1962 -0.0534 -0.1418
  463MPD2    C4 6946   1.933   3.880   0.892  0.9749  0.1470  0.4499
  463MPD2    C5 6947   1.960   3.757   0.837  0.5243 -0.2618  0.2694
  463MPD2     H 6948   1.633   3.821   1.011  0.8460 -1.0842  1.6028
  463MPD2    H1 6949   2.012   3.955   0.891  0.4134  0.7508  3.3099
  463MPD2    H2 6950   1.897   3.553   0.814 -0.7517 -0.3238 -0.7647
  463MPD2    H3 6951   2.056   3.731   0.793 -0.0443 -0.2009 -1.0223
  463MPD2     N 6952   1.779   4.035   0.992  0.4816 -0.1270  0.1813
  463MPD2    H5 6953   1.847   4.109   0.978  1.9396 -1.3272  0.8871
  463MPD2    N1 6954   1.649   3.575   0.931 -0.0876 -0.2658  0.3617
  463MPD2    H7 6955   1.569   3.600   0.988 -1.5647  1.0940 -2.3423
  464TMC3    C1 6956   1.548   3.353   0.936  0.4303  0.2035  0.4231
  464TMC3    C2 6957   1.455   3.404   1.026  0.2856 -0.1271 -0.3549
  464TMC3    C3 6958   1.345   3.328   1.042 -0.7552  0.0158  0.7317
  464TMC3    C4 6959   1.530   3.235   0.864 -0.5043 -0.4351  0.0287
  464TMC3    C5 6960   1.416   3.168   0.884 -0.3654  0.0857 -0.4916
  464TMC3    C6 6961   1.323   3.214   0.973  0.3906 -0.9527 -0.1577
  464TMC3     C 6962   1.656   3.444   0.881 -0.8580  0.0940  0.0472
  464TMC3     O 6963   1.738   3.400   0.803  0.9261  0.2418 -0.5051
  464TMC3     H 6964   1.463   3.504   1.066 -0.0777 -0.4988  0.6473
  464TMC3    H1 6965   1.595   3.214   0.780 -0.4366  0.0265 -0.0346
  464TMC3    H2 6966   1.228   3.165   0.994 -1.4455  2.2546 -1.0163
  464TMC3    C7 6967   1.404   3.035   0.817 -0.4915 -0.0777 -0.5191
  464TMC3    C8 6968   1.241   3.390   1.127  0.0531 -0.3127 -0.3115
  464TMC3    O1 6969   1.506   2.991   0.769 -0.2625  0.6685  0.0061
  464TMC3    O2 6970   1.231   3.511   1.126 -0.3899  0.1168 -0.0857
  465MPD2     C 6971   2.366   3.183  16.431  0.2328 -0.1753 -0.5847
  465MPD2    C1 6972   2.266   3.099  16.473  0.1272  0.1580 -0.5136
  465MPD2    C2 6973   2.146   3.098  16.403 -0.1249  0.6681 -0.1839
  465MPD2    C3 6974   2.138   3.168  16.287 -0.3356 -0.0733 -0.0458
  465MPD2    C4 6975   2.244   3.241  16.238 -0.3169  0.7933 -0.0263
  465MPD2    C5 6976   2.356   3.253  16.314 -0.1478 -0.0936 -0.1857
  465MPD2     H 6977   2.064   3.043  16.447  3.6588 -3.3944  1.7363
  465MPD2    H1 6978   2.242   3.291  16.142 -0.0087 -1.2684 -1.1150
  465MPD2    H2 6979   2.460   3.190  16.484  0.2439 -1.9170 -0.3970
  465MPD2    H3 6980   2.434   3.325  16.291 -0.2008  0.2014  0.5564
  465MPD2     N 6981   2.015   3.153  16.216 -0.4197  0.6070  0.7850
  465MPD2    H5 6982   1.943   3.100  16.263 -0.9548 -0.4751 -1.2825
  465MPD2    N1 6983   2.282   3.020  16.592  0.1553 -0.4885  0.0864
  465MPD2    H7 6984   2.198   2.975  16.627  0.6276 -0.7853  0.8416
  466TMC3    C1 6985   1.661   3.069  16.139 -0.0750 -0.4847 -0.3136
  466TMC3    C2 6986   1.596   3.181  16.095  0.0178  0.3733 -0.4758
  466TMC3    C3 6987   1.659   3.280  16.027  0.2294  0.1881  0.1130
  466TMC3    C4 6988   1.796   3.060  16.114 -0.0155 -0.4959 -0.7099
  466TMC3    C5 6989   1.856   3.165  16.048 -0.2649  0.2208  0.0833
  466TMC3    C6 6990   1.788   3.273  15.994 -0.5651  0.2922 -0.4790
  466TMC3     C 6991   1.638   3.033  16.273  0.1026 -0.2033 -0.7822
  466TMC3     O 6992   1.606   3.122  16.346  0.6060  0.0014 -0.0308
  466TMC3     H 6993   1.488   3.183  16.100  0.0603 -0.5975  0.7069
  466TMC3    H1 6994   1.848   2.969  16.142 -1.1604 -0.9493 -0.0721
  466TMC3    H2 6995   1.838   3.358  15.950  2.0428 -0.4116  1.1499
  466TMC3    C7 6996   1.993   3.204  16.093  0.7185 -0.5307  0.2841
  466TMC3    C8 6997   1.583   3.400  15.987 -0.8904  0.9425  1.0014
  466TMC3    O1 6998   2.061   3.277  16.019 -0.3892 -0.3340 -0.4784
  466TMC3    O2 6999   1.645   3.482  15.920  0.2228 -0.0023 -0.7948
  467TMC3    C1 7000   3.437   1.388  13.384  0.4124  0.5189  0.4551
  467TMC3    C2 7001   3.389   1.441  13.265  0.2054  0.0656 -0.6539
  467TMC3    C3 7002   3.256   1.447  13.248  0.2062 -0.7946  0.1668
  467TMC3    C4 7003   3.359   1.350  13.487 -0.0117  0.0018 -0.2801
  467TMC3    C5 7004   3.225   1.360  13.464  0.0401 -0.0716 -0.0127
  467TMC3    C6 7005   3.169   1.410  13.345  0.5492 -0.4043  0.6127
  467TMC3     C 7006   3.581   1.395  13.404 -0.1122 -0.3213  0.4249
  467TMC3     O 7007   3.639   1.484  13.342  0.4219 -0.3322 -0.1067
  467TMC3     H 7008   3.456   1.474  13.186  0.3712 -1.7778 -1.2874
  467TMC3    H1 7009   3.397   1.320  13.584  1.9658  1.7299 -0.5211
  467TMC3    H2 7010   3.062   1.422  13.330  0.8720 -0.3818 -1.6456
  467TMC3    C7 7011   3.137   1.347  13.573  0.4573 -0.0849 -0.0802
  467TMC3    C8 7012   3.202   1.513  13.134  0.0254 -0.1774  0.0965
  467TMC3    O1 7013   3.026   1.395  13.557 -0.0364  0.2177 -0.1059
  467TMC3    O2 7014   3.082   1.495  13.112 -0.1493 -0.7174  0.6887
  468MPD2     C 7015   2.738   4.519   9.997 -0.3866  0.2753  0.4042
  468MPD2    C1 7016   2.672   4.545  10.117  0.0294 -0.4035 -0.4839
  468MPD2    C2 7017   2.613   4.439  10.179  0.0147  0.1920  0.0241
  468MPD2    C3 7018   2.638   4.308  10.123  0.2597 -0.8632 -0.1373
  468MPD2    C4 7019   2.704   4.288  10.007 -0.0520  0.3728  0.7196
  468MPD2    C5 7020   2.759   4.395   9.944  0.0777 -1.0650 -0.2666
  468MPD2     H 7021   2.573   4.456  10.278 -0.2302  2.3120 -0.4458
  468MPD2    H1 7022   2.734   4.190   9.971 -1.2894 -0.1114  1.0264
  468MPD2    H2 7023   2.789   4.597   9.941  0.0228 -0.5372 -0.3602
  468MPD2    H3 7024   2.818   4.385   9.854  2.6254  0.5747  1.2404
  468MPD2     N 7025   2.616   4.187  10.197 -0.2449  0.5800 -0.5584
  468MPD2    H5 7026   2.657   4.103  10.157 -0.8160  1.3140 -2.6819
  468MPD2    N1 7027   2.665   4.676  10.180 -0.1983 -0.7508 -0.3117
  468MPD2    H7 7028   2.614   4.681  10.268 -2.0730  0.7814 -1.4774
  469TMC3    C1 7029   2.712   0.168  10.205  0.1793  0.5428 -0.0374
  469TMC3    C2 7030   2.813   0.257  10.226  0.4535  0.2456  0.0813
  469TMC3    C3 7031   2.791   0.353  10.322  0.4365  0.3489 -0.2069
  469TMC3    C4 7032   2.581   0.191  10.242  0.4091 -1.0423  0.6286
  469TMC3    C5 7033   2.563   0.296  10.331 -0.0497 -0.4918 -0.4761
  469TMC3    C6 7034   2.668   0.369  10.375  0.6826 -0.1665  1.4773
  469TMC3     C 7035   2.739   0.046  10.135 -0.7015 -0.2091 -0.1792
  469TMC3     O 7036   2.840   0.054  10.063 -0.3672  0.5812 -0.0565
  469TMC3     H 7037   2.916   0.232  10.205  0.1738 -0.3890 -0.5337
  469TMC3    H1 7038   2.505   0.126  10.200  0.8172  0.6721 -2.7586
  469TMC3    H2 7039   2.650   0.460  10.431 -0.8583 -0.5384  1.5823
  469TMC3    C7 7040   2.428   0.327  10.364  0.4939  0.8585  0.0178
  469TMC3    C8 7041   2.910   0.386  10.395 -0.4558  0.3782  0.5830
  469TMC3    O1 7042   2.345   0.267  10.295  0.5362 -0.6398 -0.3454
  469TMC3    O2 7043   3.020   0.364  10.350  0.0912 -1.0522  0.0952
  470TMC3    C1 7044   0.100   0.556   0.249  0.3600 -0.5642 -0.0292
  470TMC3    C2 7045   0.128   0.618   0.366 -0.4201  0.8510 -0.0031
  470TMC3    C3 7046   0.151   0.534   0.478 -0.4492  0.3886 -0.2469
  470TMC3    C4 7047   0.095   0.419   0.232 -0.0550  0.3841  0.1577
  470TMC3    C5 7048   0.117   0.341   0.345  0.4540  0.1913  0.5569
  470TMC3    C6 7049   0.158   0.397   0.467  0.1886  0.8283 -0.1762
  470TMC3     C 7050   0.099   0.651   0.136  0.5123  0.5238 -0.1469
  470TMC3     O 7051   0.151   0.762   0.153 -0.1081 -0.5569 -0.6270
  470TMC3     H 7052   0.119   0.725   0.377 -0.2967  0.7513  1.1083
  470TMC3    H1 7053   0.075   0.377   0.134  1.2905  0.0338  0.0334
  470TMC3    H2 7054   0.178   0.341   0.558  1.2330 -3.3550 -3.0122
  470TMC3    C7 7055   0.090   0.203   0.322 -0.6142  0.0765 -0.0008
  470TMC3    C8 7056   0.167   0.609   0.605  0.0097 -0.9111  0.0478
  470TMC3    O1 7057   0.069   0.168   0.207 -0.3222  0.0184 -0.2555
  470TMC3    O2 7058   0.168   0.733   0.596 -0.3231 -0.0352  0.1378
  471MPD2     C 7059   4.622   1.709  16.177  0.3128 -0.7360  0.3311
  471MPD2    C1 7060   4.713   1.612  16.206 -0.2392 -0.3417 -0.1156
  471MPD2    C2 7061   4.723   1.561  16.333 -0.1107 -0.3675 -0.0075
  471MPD2    C3 7062   4.646   1.617  16.439  0.4826  0.2945 -0.2971
  471MPD2    C4 7063   4.563   1.723  16.407  0.4427  0.1240 -0.4401
  471MPD2    C5 7064   4.554   1.765  16.277 -0.0071 -0.0241 -0.4367
  471MPD2     H 7065   0.050   1.475  16.356 -1.1633 -1.2464 -0.4194
  471MPD2    H1 7066   4.505   1.766  16.487 -1.1254  0.2827 -1.6663
  471MPD2    H2 7067   4.610   1.754  16.078 -2.0612  0.8799  1.3430
  471MPD2    H3 7068   4.487   1.846  16.251  2.0680  0.8245 -3.0984
  471MPD2     N 7069   4.670   1.572  16.569  0.4050  0.1419 -0.5497
  471MPD2    H5 7070   4.718   1.483  16.565 -3.7032 -1.9656 -3.3475
  471MPD2    N1 7071   0.064   1.560  16.108  0.1577  0.0151 -0.5562
  471MPD2    H7 7072   0.131   1.492  16.143 -0.3991 -0.3858 -0.2498
  472TMC3    C1 7073   0.164   1.499  15.906  0.1243 -0.6296 -0.1061
  472TMC3    C2 7074   0.105   1.412  15.821  0.0709  0.1693 -0.0363
  472TMC3    C3 7075   0.140   1.278  15.802 -0.0491 -0.2239  0.8298
  472TMC3    C4 7076   0.264   1.440  15.979  0.0503 -0.4087  0.5483
  472TMC3    C5 7077   0.291   1.313  15.970 -0.5614 -0.2743 -0.6037
  472TMC3    C6 7078   0.244   1.235  15.872  0.1382 -0.2716  0.1677
  472TMC3     C 7079   0.063   1.582  15.974 -0.0036  0.5875  1.0110
  472TMC3     O 7080   0.008   1.669  15.904 -0.1253  0.3286 -0.5067
  472TMC3     H 7081   0.027   1.450  15.757  0.3365 -3.0009 -2.2306
  472TMC3    H1 7082   0.309   1.492  16.064  2.2863  1.2505 -1.6411
  472TMC3    H2 7083   0.263   1.131  15.848  1.3237 -0.0834  0.2620
  472TMC3    C7 7084   0.291   1.246  16.097  0.8055 -0.4100  0.4092
  472TMC3    C8 7085   0.032   1.185  15.791 -0.0271 -0.0198 -0.3077
  472TMC3    O1 7086   0.229   1.301  16.187 -0.1631  0.4078 -0.1219
  472TMC3    O2 7087   0.042   1.078  15.851  0.1235 -0.4726  0.3180
  473MPD2     C 7088   0.113   3.674  13.558 -0.3907  0.2070  0.4288
  473MPD2    C1 7089   0.052   3.790  13.524  0.2489 -0.2756  0.2763
  473MPD2    C2 7090   0.061   3.902  13.604 -0.3435  0.7657 -0.9229
  473MPD2    C3 7091   0.154   3.895  13.709  0.0315  0.3377 -0.9367
  473MPD2    C4 7092   0.221   3.782  13.746  0.3831  0.1222  0.2575
  473MPD2    C5 7093   0.200   3.670  13.664 -0.5707 -0.3082 -0.0603
  473MPD2     H 7094   4.735   3.991  13.600  2.0896  2.4988  0.3822
  473MPD2    H1 7095   0.292   3.782  13.828  1.0034  1.9176 -0.2787
  473MPD2    H2 7096   0.093   3.579  13.508  1.5730 -0.4292  0.8351
  473MPD2    H3 7097   0.241   3.575  13.697 -1.8480  0.7172  4.4478
  473MPD2     N 7098   0.195   4.011  13.785  0.0161 -0.5360 -0.1227
  473MPD2    H5 7099   0.257   3.998  13.864  0.4574  0.0224 -0.3737
  473MPD2    N1 7100   4.706   3.811  13.414 -0.0027  0.7322  0.3043
  473MPD2    H7 7101   4.665   3.902  13.402 -1.6653 -0.3874 -2.3745
  474TMC3    C1 7102   0.223   4.240  13.844 -0.4695  0.1050 -0.0686
  474TMC3    C2 7103   0.163   4.364  13.837  0.1371  0.8756  0.2735
  474TMC3    C3 7104   0.216   4.469  13.902 -0.2052  0.1156 -0.3253
  474TMC3    C4 7105   0.350   4.231  13.889 -0.3337 -0.9770  0.7583
  474TMC3    C5 7106   0.403   4.333  13.953 -0.1510  0.7240 -0.1383
  474TMC3    C6 7107   0.337   4.452  13.958 -0.0701  0.3483  0.4579
  474TMC3     C 7108   0.167   4.146  13.756 -0.0120  0.0607 -0.2140
  474TMC3     O 7109   0.118   4.192  13.657  0.4612  0.3557  0.0305
  474TMC3     H 7110   0.063   4.375  13.797  0.7288 -1.1889 -1.7270
  474TMC3    H1 7111   0.395   4.133  13.898  0.1067 -1.0667 -2.5114
  474TMC3    H2 7112   0.367   4.532  14.024  1.5001 -0.1280  0.3255
  474TMC3    C7 7113   0.522   4.306  14.042 -0.1471  0.0410  0.4402
  474TMC3    C8 7114   0.157   4.599  13.893  0.8994 -0.6120  0.5733
  474TMC3    O1 7115   0.604   4.222  14.010  0.2087 -0.1007 -0.3522
  474TMC3    O2 7116   0.035   4.599  13.877  0.2851 -0.7204 -0.3845
  475MPD2     C 7117   3.380   2.082  10.965  0.5075  0.1589  1.6230
  475MPD2    C1 7118   3.461   2.162  11.040  0.1356  0.8672  0.3007
  475MPD2    C2 7119   3.405   2.209  11.156  0.1893  0.0179  0.1629
  475MPD2    C3 7120   3.272   2.191  11.185 -0.2320  0.2816 -1.5853
  475MPD2    C4 7121   3.196   2.106  11.111 -1.3090 -0.8836 -0.5294
  475MPD2    C5 7122   3.252   2.043  11.000 -0.1502  0.1578 -0.4901
  475MPD2     H 7123   3.464   2.279  11.213 -1.3772  0.0692  1.7238
  475MPD2    H1 7124   3.098   2.073  11.141 -1.2634  1.7258  2.4463
  475MPD2    H2 7125   3.416   2.051  10.868  0.9552 -1.3483  2.2733
  475MPD2    H3 7126   3.187   1.994  10.929 -0.2984  0.7636 -0.7690
  475MPD2     N 7127   3.214   2.258  11.294 -0.2411  0.4903  0.0674
  475MPD2    H5 7128   3.273   2.319  11.350  0.2642 -0.2888  0.3716
  475MPD2    N1 7129   3.590   2.216  11.001  0.1191  0.3167  0.2311
  475MPD2    H7 7130   3.635   2.283  11.063 -0.4700  1.8324 -0.9818
  476TMC3    C1 7131   3.774   2.272  10.889  0.9181  0.0718 -0.1014
  476TMC3    C2 7132   3.822   2.311  10.771  0.3814  0.3451  0.1761
  476TMC3    C3 7133   3.952   2.358  10.771  0.2799 -0.4276 -0.4079
  476TMC3    C4 7134   3.840   2.296  11.007  0.4123 -0.2103 -0.0409
  476TMC3    C5 7135   3.960   2.367  10.999  0.2918  0.1558  0.1359
  476TMC3    C6 7136   4.013   2.409  10.881  0.2519  0.3476 -0.2704
  476TMC3     C 7137   3.656   2.192  10.887 -0.3952 -0.4759 -0.3467
  476TMC3     O 7138   3.632   2.135  10.785  0.4130 -0.3302  0.1937
  476TMC3     H 7139   3.751   2.308  10.690  0.8925  0.1768 -0.2662
  476TMC3    H1 7140   3.803   2.255  11.100 -1.6419  0.5193 -0.5321
  476TMC3    H2 7141   4.111   2.455  10.874 -0.6175  2.1578 -0.6328
  476TMC3    C7 7142   3.974   2.445  11.119 -0.0687 -0.3689 -0.2716
  476TMC3    C8 7143   4.013   2.388  10.640 -0.4402 -0.7873 -0.2203
  476TMC3    O1 7144   3.948   2.382  11.220 -0.2750 -0.2708 -0.2735
  476TMC3    O2 7145   4.119   2.448  10.643 -0.0766  0.1055 -0.8533
  477MPD2     C 7146   0.935   4.345  11.928  0.6891  0.1121  0.2507
  477MPD2    C1 7147   0.999   4.289  11.824  0.0482 -0.0532 -0.0287
  477MPD2    C2 7148   1.080   4.185  11.851 -0.3850 -0.1756 -0.4889
  477MPD2    C3 7149   1.098   4.134  11.981 -0.0892  0.9171  0.3720
  477MPD2    C4 7150   1.044   4.198  12.084  0.2937  0.6998  0.1567
  477MPD2    C5 7151   0.959   4.301  12.058  0.3976  0.0740  0.0949
  477MPD2     H 7152   1.141   4.139  11.775  0.9137  0.1190  0.3779
  477MPD2    H1 7153   1.075   4.181  12.186  0.2179  0.6936  0.1783
  477MPD2    H2 7154   0.855   4.418  11.920  1.2837  0.6326 -0.9555
  477MPD2    H3 7155   0.889   4.341  12.131  0.6622  0.7448 -0.0221
  477MPD2     N 7156   1.177   4.017  11.997  0.3279 -0.0908 -0.1565
  477MPD2    H5 7157   1.224   3.986  11.913  1.7897 -1.2715  1.0884
  477MPD2    N1 7158   0.957   4.329  11.696 -0.3215 -0.2581  0.3988
  477MPD2    H7 7159   0.891   4.406  11.695  1.4526  1.2635  1.1033
  478TMC3    C1 7160   0.926   4.327  11.463 -0.0739  0.4234  0.4516
  478TMC3    C2 7161   0.898   4.459  11.458  0.0203  0.1730  0.9483
  478TMC3    C3 7162   0.820   4.499  11.351  0.0399  0.0878  0.2264
  478TMC3    C4 7163   0.875   4.238  11.377  0.2945 -0.1610 -0.0399
  478TMC3    C5 7164   0.800   4.278  11.276  0.2437 -0.0790  0.1620
  478TMC3    C6 7165   0.765   4.413  11.266  0.0464  0.0497  0.0990
  478TMC3     C 7166   0.986   4.266  11.579 -0.2457  0.0047  0.1665
  478TMC3     O 7167   1.059   4.169  11.567 -0.2938 -0.3884  0.9680
  478TMC3     H 7168   0.950   4.522  11.528  2.3409  0.8802 -1.4452
  478TMC3    H1 7169   0.900   4.134  11.395  1.5165 -0.4718 -3.5249
  478TMC3    H2 7170   0.699   4.450  11.188  0.3718 -0.5671 -0.4706
  478TMC3    C7 7171   0.712   4.182  11.225 -0.1596  0.4177 -0.2147
  478TMC3    C8 7172   0.763   4.634  11.377  0.4051 -0.2107  0.7383
  478TMC3    O1 7173   0.696   4.087  11.299  0.8057  0.3165 -0.7687
  478TMC3    O2 7174   0.760   4.668  11.497 -0.5719  0.7109  0.1847
  479MPD2     C 7175   0.085   1.080  14.898 -0.2888  0.7826  0.6918
  479MPD2    C1 7176   0.020   0.994  14.987 -0.2843  0.2757 -0.1960
  479MPD2    C2 7177   0.062   0.975  15.117  0.0697  0.0870  0.0008
  479MPD2    C3 7178   0.172   1.043  15.152 -0.6075 -0.6785 -0.0971
  479MPD2    C4 7179   0.249   1.113  15.067 -0.3518 -0.3924  0.4640
  479MPD2    C5 7180   0.203   1.132  14.939  0.4794 -0.4861  0.2960
  479MPD2     H 7181   0.023   0.910  15.195  0.4801  1.7260  1.5761
  479MPD2    H1 7182   0.331   1.173  15.106 -0.0991  1.0087 -2.1491
  479MPD2    H2 7183   0.052   1.116  14.801  0.0166 -0.2180  0.2212
  479MPD2    H3 7184   0.251   1.188  14.859  1.2565 -0.3344  0.8692
  479MPD2     N 7185   0.231   1.052  15.287  0.6376  0.6721  1.1177
  479MPD2    H5 7186   0.322   1.095  15.297  1.1523 -0.3279  0.7220
  479MPD2    N1 7187   4.639   0.934  14.937  0.3715 -0.5685  0.0527
  479MPD2    H7 7188   4.621   0.940  14.837 -1.6069 -0.8544  0.3911
  480TMC3    C1 7189   4.598   0.918  15.569  0.2953 -0.0675 -0.5088
  480TMC3    C2 7190   4.505   0.991  15.503 -1.1808 -0.0600 -0.0627
  480TMC3    C3 7191   4.543   1.069  15.398 -0.7940  0.6493  0.2905
  480TMC3    C4 7192   4.724   0.910  15.522 -0.0567 -0.4491 -0.2205
  480TMC3    C5 7193   0.031   1.004  15.430 -0.4284 -0.0770 -0.4832
  480TMC3    C6 7194   4.680   1.087  15.365  0.1499 -0.0815 -0.5740
  480TMC3     C 7195   4.570   0.805  15.655 -0.1726 -0.8901  0.0241
  480TMC3     O 7196   4.452   0.767  15.645 -0.2041  0.0225  0.2694
  480TMC3     H 7197   4.403   0.983  15.538 -0.9967  0.8133  0.6363
  480TMC3    H1 7198   0.059   0.842  15.568 -0.6350 -0.4205  0.7157
  480TMC3    H2 7199   4.712   1.151  15.283  1.0480 -0.1894 -0.3039
  480TMC3    C7 7200   0.176   1.009  15.407  0.3442  0.1785  0.6092
  480TMC3    C8 7201   4.439   1.114  15.309  0.2713 -0.2938  0.0208
  480TMC3    O1 7202   0.243   0.998  15.509  0.4286 -0.3349  0.0905
  480TMC3    O2 7203   4.327   1.065  15.319  0.1502  0.4387  0.2437
  481MPD2     C 7204   1.844   0.664  14.205 -0.5007 -0.3184  0.0440
  481MPD2    C1 7205   1.734   0.587  14.181  0.3324 -0.3765 -0.1608
  481MPD2    C2 7206   1.689   0.507  14.283  0.0705 -0.5392 -0.4304
  481MPD2    C3 7207   1.755   0.495  14.397 -0.2487 -0.1358 -0.4201
  481MPD2    C4 7208   1.871   0.560  14.416 -0.2899 -0.3097  0.3054
  481MPD2    C5 7209   1.917   0.645  14.325  0.4680  0.3165  0.3678
  481MPD2     H 7210   1.606   0.441  14.263  0.7417 -1.4940 -0.0422
  481MPD2    H1 7211   1.931   0.557  14.506 -0.7670  0.1449  0.6345
  481MPD2    H2 7212   1.860   0.749  14.139  1.2524 -0.5896  0.1127
  481MPD2    H3 7213   2.001   0.710  14.346  1.3683 -0.7218 -0.0580
  481MPD2     N 7214   1.715   0.402  14.496 -0.9779 -0.0233 -0.2122
  481MPD2    H5 7215   1.770   0.413  14.580 -1.3123  2.0089 -0.2484
  481MPD2    N1 7216   1.672   0.608  14.057 -0.3136  0.8787  0.3102
  481MPD2    H7 7217   1.716   0.674  13.993 -0.3520  1.3356  0.7604
  482TMC3    C1 7218   1.500   0.587  13.890 -0.2035  0.7237  0.8893
  482TMC3    C2 7219   1.388   0.522  13.849 -0.3546  0.2016  0.4698
  482TMC3    C3 7220   1.305   0.580  13.758 -0.6376 -0.0508 -0.6647
  482TMC3    C4 7221   1.526   0.709  13.833 -1.1062 -0.1084 -0.3814
  482TMC3    C5 7222   1.454   0.754  13.726  0.7481 -0.2583  0.0497
  482TMC3    C6 7223   1.346   0.686  13.679 -0.6318  0.6244  1.0991
  482TMC3     C 7224   1.548   0.550  14.020  0.2203  0.3911  0.2197
  482TMC3     O 7225   1.473   0.478  14.084  0.3652 -0.4137 -0.6288
  482TMC3     H 7226   1.348   0.432  13.895  0.3115 -0.9375 -1.1882
  482TMC3    H1 7227   1.618   0.750  13.872 -1.0120  2.5719 -3.4574
  482TMC3    H2 7228   1.292   0.714  13.590 -0.8885 -0.4790  0.9082
  482TMC3    C7 7229   1.484   0.882  13.664  1.1755  0.3701 -0.6121
  482TMC3    C8 7230   1.196   0.497  13.709  0.0187 -0.7015 -0.2944
  482TMC3    O1 7231   1.539   0.968  13.734  0.4839  0.0644  0.1825
  482TMC3    O2 7232   1.213   0.377  13.720  0.3198 -0.0523 -0.3158
  483TMC3    C1 7233   4.527   3.907   1.208 -0.0277  0.1409 -0.1842
  483TMC3    C2 7234   4.572   4.030   1.164 -0.3693  0.5662  0.4745
  483TMC3    C3 7235   4.675   4.035   1.070 -0.6470  0.3972 -0.2530
  483TMC3    C4 7236   4.583   3.782   1.165 -0.7570 -0.4399 -0.2506
  483TMC3    C5 7237   4.681   3.800   1.066 -0.1482 -0.7554  0.2623
  483TMC3    C6 7238   4.734   3.926   1.019  0.4684  0.3588  0.3212
  483TMC3     C 7239   4.395   3.901   1.275  0.3468 -0.1338  0.1379
  483TMC3     O 7240   4.374   3.992   1.356 -0.4588  0.4782 -0.4717
  483TMC3     H 7241   4.510   4.113   1.193 -1.4719 -0.2621  0.4868
  483TMC3    H1 7242   4.536   3.686   1.184 -2.5294  0.3677 -0.5912
  483TMC3    H2 7243   0.088   3.937   0.960  1.8062 -2.6270  1.7853
  483TMC3    C7 7244   4.718   3.675   1.000  0.6503  0.6048  0.3578
  483TMC3    C8 7245   4.709   4.152   0.998 -0.1698  0.3831  1.0350
  483TMC3    O1 7246   4.659   3.573   1.032 -0.3180  0.2431 -0.6122
  483TMC3    O2 7247   4.710   4.141   0.877  0.0795  0.2382 -0.2242
  484MPD2     C 7248   1.793   3.030  12.655  0.6247  0.3813  0.1440
  484MPD2    C1 7249   1.817   2.894  12.656  0.0415  0.4284  0.2235
  484MPD2    C2 7250   1.942   2.857  12.599 -0.0414 -0.8981  0.5695
  484MPD2    C3 7251   2.047   2.945  12.568  0.1575  0.1151 -0.5959
  484MPD2    C4 7252   2.013   3.080  12.576 -1.1318  0.6316  0.1340
  484MPD2    C5 7253   1.886   3.123  12.608 -0.0482 -0.1039  0.2608
  484MPD2     H 7254   1.942   2.750  12.584 -2.3847 -0.7980 -0.0478
  484MPD2    H1 7255   2.089   3.153  12.549 -0.8771  0.3311  0.0337
  484MPD2    H2 7256   1.703   3.069  12.700  0.3775  2.7433 -2.4015
  484MPD2    H3 7257   1.873   3.230  12.615 -1.4660 -0.1794 -1.1734
  484MPD2     N 7258   2.175   2.903  12.516 -0.0750  0.0056 -0.8675
  484MPD2    H5 7259   2.236   2.979  12.486  0.2185  0.2688  0.4034
  484MPD2    N1 7260   1.723   2.805  12.709  0.1240 -1.0096  0.3058
  484MPD2    H7 7261   1.646   2.855  12.752  0.7459  2.6867 -2.8720
  485TMC3    C1 7262   2.369   2.763  12.496  0.5331  0.7814  0.5447
  485TMC3    C2 7263   2.433   2.653  12.556 -0.4623 -0.1975  0.3993
  485TMC3    C3 7264   2.560   2.665  12.589  0.0771 -0.0462  1.3487
  485TMC3    C4 7265   2.437   2.875  12.453 -0.6614 -0.6804 -0.1996
  485TMC3    C5 7266   2.571   2.882  12.493 -0.9035  0.5308 -0.6366
  485TMC3    C6 7267   2.631   2.781  12.559 -0.4674  0.7570 -0.8335
  485TMC3     C 7268   2.221   2.770  12.514 -0.0758 -0.0667  0.0524
  485TMC3     O 7269   2.168   2.664  12.539 -0.3280  0.1664 -0.1176
  485TMC3     H 7270   2.372   2.572  12.593 -0.5896 -1.1388 -1.8999
  485TMC3    H1 7271   2.406   2.944  12.376 -1.3462 -2.4802 -1.5479
  485TMC3    H2 7272   2.735   2.787  12.590 -0.3897 -0.4767 -0.8406
  485TMC3    C7 7273   2.647   2.935  12.381  0.1122 -0.1338 -0.5351
  485TMC3    C8 7274   2.642   2.553  12.542 -0.4525 -0.3616 -0.4055
  485TMC3    O1 7275   2.598   3.024  12.310 -0.4291 -0.2336  0.2848
  485TMC3    O2 7276   2.739   2.592  12.482 -0.5293 -0.5230  0.2133
  486MPD2     C 7277   4.052   0.995  12.772  0.4329  0.0030 -0.3343
  486MPD2    C1 7278   4.081   0.984  12.636 -0.3783 -0.2056 -0.8967
  486MPD2    C2 7279   4.048   1.090  12.555 -0.1503  0.4016  0.4921
  486MPD2    C3 7280   4.000   1.207  12.616 -0.0653  0.0090  0.3457
  486MPD2    C4 7281   3.969   1.216  12.750  0.2863  0.3534  0.4660
  486MPD2    C5 7282   3.999   1.106  12.828  0.6115 -0.4062  0.6397
  486MPD2     H 7283   4.059   1.070  12.449  0.4463 -0.0148  0.6319
  486MPD2    H1 7284   3.932   1.305  12.799 -1.1123  0.0153  0.0108
  486MPD2    H2 7285   4.074   0.909  12.834  1.2378  0.2195 -0.3099
  486MPD2    H3 7286   3.982   1.101  12.935 -0.6867 -2.3734  0.3347
  486MPD2     N 7287   3.960   1.316  12.539 -0.1996 -0.2406  0.5140
  486MPD2    H5 7288   3.951   1.399  12.596  1.3224  0.5063 -0.3236
  486MPD2    N1 7289   4.145   0.866  12.601  1.1499  0.0058  0.3431
  486MPD2    H7 7290   4.154   0.799  12.676  0.1619 -1.0673 -0.4906
  487TMC3    C1 7291   4.199   0.689  12.462  0.3740  0.2033 -0.0858
  487TMC3    C2 7292   4.089   0.629  12.411 -0.6328 -0.1434  0.3605
  487TMC3    C3 7293   4.041   0.517  12.468  0.2632  0.1366  0.1679
  487TMC3    C4 7294   4.247   0.639  12.576  0.2134 -0.4389  0.5127
  487TMC3    C5 7295   4.187   0.536  12.649 -0.5067  0.0746  0.7952
  487TMC3    C6 7296   4.079   0.476  12.593 -0.1205  0.0128 -0.1518
  487TMC3     C 7297   4.190   0.831  12.470  0.1214  0.3316  0.3162
  487TMC3     O 7298   4.180   0.895  12.367 -0.1428 -0.0742  0.1878
  487TMC3     H 7299   4.039   0.679  12.329  0.8345  0.8294  0.0535
  487TMC3    H1 7300   4.331   0.695  12.614 -0.9025  1.4939  0.1112
  487TMC3    H2 7301   4.044   0.382  12.634  0.6231 -1.0897 -2.0253
  487TMC3    C7 7302   4.173   0.576  12.790  0.0118  0.8665 -0.3644
  487TMC3    C8 7303   3.900   0.494  12.454 -0.7744 -0.3565 -0.1022
  487TMC3    O1 7304   4.180   0.694  12.807  0.1642 -0.1902  0.3269
  487TMC3    O2 7305   3.841   0.527  12.349 -0.4185 -0.4631 -0.4153
  488MPD2     C 7306   4.161   2.819  16.299  0.4174 -0.7641  0.6345
  488MPD2    C1 7307   4.184   2.934  16.365 -0.5646 -0.1915 -0.8064
  488MPD2    C2 7308   4.153   2.938  16.501  0.2347 -0.0998  0.6583
  488MPD2    C3 7309   4.092   2.829  16.564 -0.0036  0.6123  0.8219
  488MPD2    C4 7310   4.046   2.725  16.488  0.4161 -0.2379 -0.0574
  488MPD2    C5 7311   4.080   2.720  16.354 -0.4594  0.2582  0.0472
  488MPD2     H 7312   4.188   3.031  16.545 -0.4907  0.6327 -0.2897
  488MPD2    H1 7313   3.987   2.641  16.521  2.3443 -0.5801  2.4856
  488MPD2    H2 7314   4.196   2.810  16.197  0.4604 -0.7344  0.6465
  488MPD2    H3 7315   4.054   2.637  16.289  1.6240  0.0539 -0.5413
  488MPD2     N 7316   4.063   2.839  16.699 -0.2556  0.3090 -0.1562
  488MPD2    H5 7317   4.110   2.917  16.744 -2.7100  0.7929  1.5593
  488MPD2    N1 7318   4.258   3.043  16.318 -0.0392 -0.3333 -0.7562
  488MPD2    H7 7319   4.288   3.111  16.388 -2.0482  0.9552 -1.1574
  489TMC3    C1 7320   3.998   2.800  16.923 -0.3165  0.0060  0.4033
  489TMC3    C2 7321   4.054   2.921  16.955 -0.0234 -0.0073 -0.0584
  489TMC3    C3 7322   4.097   2.943  17.087 -0.3631  0.3219  0.1248
  489TMC3    C4 7323   3.987   2.704  17.023  0.0393  0.1050 -0.1739
  489TMC3    C5 7324   4.038   2.727  17.150  0.0148  0.6050 -0.4558
  489TMC3    C6 7325   4.090   2.845  17.191  0.1981 -0.2941 -0.4902
  489TMC3     C 7326   3.996   2.747  16.781  0.6616  0.5098 -0.3917
  489TMC3     O 7327   3.945   2.642  16.760  0.1715  0.2360  0.4640
  489TMC3     H 7328   4.056   3.006  16.889  3.2963  0.3573  0.5196
  489TMC3    H1 7329   3.943   2.607  17.003  0.4942 -0.2293  0.4035
  489TMC3    H2 7330   4.127   2.871  17.290 -2.2835  2.0013 -0.1473
  489TMC3    C7 7331   4.020   2.623  17.249 -0.0158 -0.0558 -0.2653
  489TMC3    C8 7332   4.169   3.075  17.111  0.0411  0.1639 -0.1971
  489TMC3    O1 7333   4.043   2.502  17.221  0.8170  0.3861  0.0633
  489TMC3    O2 7334   4.257   3.112  17.040  1.0326  0.1246  0.2989
  490MPD2     C 7335   0.302   1.963  16.991 -0.0023  0.8016 -0.5783
  490MPD2    C1 7336   0.228   1.917  17.093  0.3371 -0.4309  0.2278
  490MPD2    C2 7337   0.287   1.865  17.199  0.1330  0.6717 -0.2188
  490MPD2    C3 7338   0.427   1.856  17.211 -0.4610 -0.0324 -0.2719
  490MPD2    C4 7339   0.503   1.898  17.104  0.2288 -0.6054 -0.3196
  490MPD2    C5 7340   0.441   1.944  16.989 -0.0502 -0.9976  0.1967
  490MPD2     H 7341   0.225   1.823  17.277 -0.3655  0.4439 -0.7424
  490MPD2    H1 7342   0.611   1.896  17.102  0.2730 -0.8779  2.5782
  490MPD2    H2 7343   0.263   2.000  16.897 -0.5371 -1.5998 -1.3150
  490MPD2    H3 7344   0.498   1.954  16.897 -0.9063  0.3042 -0.1898
  490MPD2     N 7345   0.500   1.812  17.323 -0.1551 -0.4318 -0.0153
  490MPD2    H5 7346   0.599   1.834  17.313 -0.2221  0.0289  0.3201
  490MPD2    N1 7347   0.084   1.921  17.100  0.8798  0.4604 -0.4098
  490MPD2    H7 7348   0.041   1.896  17.188 -1.1205  1.9206 -0.9672
  491TMC3    C1 7349   4.599   1.916  17.048 -0.3342  0.4058 -0.1582
  491TMC3    C2 7350   4.591   1.837  17.164  0.0593 -0.0161  0.5649
  491TMC3    C3 7351   4.478   1.762  17.184 -0.6247  0.0638 -0.5795
  491TMC3    C4 7352   4.492   1.928  16.964 -0.0964  0.2689  0.5525
  491TMC3    C5 7353   4.378   1.857  16.991  0.1650  0.7974  0.2269
  491TMC3    C6 7354   4.370   1.768  17.094 -0.4351  0.4518  0.2449
  491TMC3     C 7355   4.730   1.948  17.005  0.4334 -0.3403  0.5047
  491TMC3     O 7356   0.009   1.982  16.885  0.0066 -0.1051 -0.2853
  491TMC3     H 7357   4.661   1.841  17.247 -0.9293  2.6496  1.2907
  491TMC3    H1 7358   4.502   1.973  16.866 -3.3621  1.9063  0.9874
  491TMC3    H2 7359   4.290   1.696  17.103 -1.5978  1.4623 -1.9056
  491TMC3    C7 7360   4.304   1.812  16.870 -0.4508 -0.1567 -0.5045
  491TMC3    C8 7361   4.454   1.700  17.321  0.4870  0.5184  0.3589
  491TMC3    O1 7362   4.259   1.698  16.863  0.0367 -0.1708 -0.0873
  491TMC3    O2 7363   4.538   1.723  17.406  0.4407 -0.2140  0.4871
  492MPD2     C 7364   0.981   2.702  11.136  0.0010  0.3386 -0.5937
  492MPD2    C1 7365   0.892   2.618  11.079  0.2403  0.0335  0.4389
  492MPD2    C2 7366   0.842   2.519  11.157 -0.6995 -0.0952 -0.2909
  492MPD2    C3 7367   0.880   2.498  11.284  0.5514  0.5205 -0.5148
  492MPD2    C4 7368   0.976   2.580  11.335 -0.3658  0.0682 -0.0274
  492MPD2    C5 7369   1.023   2.689  11.266  0.2362  0.4856  0.1494
  492MPD2     H 7370   0.768   2.452  11.113 -0.7189 -0.8652  0.9089
  492MPD2    H1 7371   1.012   2.559  11.435  0.9913 -1.3204 -0.7999
  492MPD2    H2 7372   1.013   2.777  11.065 -0.9301  0.3812 -0.9726
  492MPD2    H3 7373   1.112   2.744  11.293  0.0307  0.2134  1.4109
  492MPD2     N 7374   0.830   2.398  11.366  0.1990  0.3345 -0.4958
  492MPD2    H5 7375   0.860   2.404  11.463 -0.9559 -0.8032 -0.0708
  492MPD2    N1 7376   0.845   2.645  10.947 -0.6541  0.0005  0.8757
  492MPD2    H7 7377   0.871   2.736  10.911 -3.0436  0.3009 -0.0616
  493TMC3    C1 7378   0.739   2.600  10.746 -0.0803  0.0617  0.1549
  493TMC3    C2 7379   0.740   2.740  10.734 -0.3344 -0.1608 -0.8550
  493TMC3    C3 7380   0.638   2.794  10.655 -0.5345  0.4569  0.7819
  493TMC3    C4 7381   0.635   2.530  10.686  0.1438  0.6183 -0.3791
  493TMC3    C5 7382   0.532   2.584  10.619 -0.1493  0.1011  0.1374
  493TMC3    C6 7383   0.530   2.722  10.602 -0.2851 -0.0250  0.6227
  493TMC3     C 7384   0.779   2.551  10.877 -0.0102  0.6391  0.1561
  493TMC3     O 7385   0.783   2.431  10.883 -0.0578 -0.0860  0.4700
  493TMC3     H 7386   0.823   2.801  10.769 -0.6448  0.6920 -1.5856
  493TMC3    H1 7387   0.628   2.428  10.722 -3.5769  0.8888 -0.3173
  493TMC3    H2 7388   0.454   2.769  10.540  0.9318 -0.9609 -1.5981
  493TMC3    C7 7389   0.428   2.495  10.566 -0.6413  0.6556  0.1476
  493TMC3    C8 7390   0.627   2.941  10.638  0.1886  0.6998  0.8117
  493TMC3    O1 7391   0.325   2.549  10.526 -0.7191  0.0617  0.2875
  493TMC3    O2 7392   0.514   2.987  10.635 -0.3288 -0.1817 -0.7961
  494TMC3    C1 7393   0.798   4.055   0.337 -0.7018  0.1610 -0.2498
  494TMC3    C2 7394   0.785   3.921   0.310 -0.4306 -0.4224 -0.6716
  494TMC3    C3 7395   0.803   3.876   0.188  0.3228  0.3251  0.8369
  494TMC3    C4 7396   0.824   4.142   0.240 -0.6345 -0.2863 -0.7003
  494TMC3    C5 7397   0.847   4.087   0.116 -0.0802  0.1506  0.2487
  494TMC3    C6 7398   0.836   3.954   0.084 -0.1215 -0.0332  0.4589
  494TMC3     C 7399   0.765   4.083   0.475 -0.7023 -0.1949  0.4056
  494TMC3     O 7400   0.708   3.999   0.546 -0.3844  0.4232 -0.1257
  494TMC3     H 7401   0.773   3.848   0.389  0.1721  0.9569  0.7086
  494TMC3    H1 7402   0.831   4.248   0.263  1.2988 -0.9035  1.5819
  494TMC3    H2 7403   0.842   3.920  17.723 -2.2625 -3.6360  1.5040
  494TMC3    C7 7404   0.875   4.183   0.008 -0.8611  0.5864 -0.0626
  494TMC3    C8 7405   0.790   3.726   0.166  0.1417 -0.0189 -0.4903
  494TMC3    O1 7406   0.861   4.142  17.635  0.7467  0.5440  0.4621
  494TMC3    O2 7407   0.783   3.657   0.274  0.2679  0.3546 -0.5295
  495TMC3    C1 7408   0.212   1.509  14.572 -0.4005  0.0658 -0.0979
  495TMC3    C2 7409   0.148   1.536  14.455 -0.2512  0.3995  0.3871
  495TMC3    C3 7410   0.010   1.543  14.466  0.4712  0.2293  0.2937
  495TMC3    C4 7411   0.158   1.482  14.692 -0.4702  0.8575 -0.0661
  495TMC3    C5 7412   0.024   1.495  14.697 -0.0245  0.5406  0.5705
  495TMC3    C6 7413   4.685   1.518  14.583 -0.0271  0.1719 -0.1460
  495TMC3     C 7414   0.348   1.475  14.552 -0.0580 -0.1178  0.0436
  495TMC3     O 7415   0.436   1.559  14.540 -0.6274 -0.3122  0.7157
  495TMC3     H 7416   0.198   1.547  14.359 -1.3945  1.0980 -0.1321
  495TMC3    H1 7417   0.222   1.467  14.777  1.1558  1.3966 -1.1929
  495TMC3    H2 7418   4.581   1.546  14.597  0.1574  0.9335 -0.2862
  495TMC3    C7 7419   4.695   1.425  14.807  0.7897  0.2650  0.4176
  495TMC3    C8 7420   4.659   1.524  14.340  0.2082 -0.1204 -0.1853
  495TMC3    O1 7421   0.032   1.408  14.906 -0.0462  0.2714  0.0315
  495TMC3    O2 7422   4.540   1.559  14.351  0.5541 -0.6662 -0.0215
  496MPD2     C 7423   1.779   1.994  14.790  0.1085 -0.0974  0.5343
  496MPD2    C1 7424   1.834   1.916  14.892  0.6724 -0.9934  0.4768
  496MPD2    C2 7425   1.758   1.816  14.954  0.0073  0.1057  0.7546
  496MPD2    C3 7426   1.631   1.788  14.904 -0.1916  0.1637  0.2333
  496MPD2    C4 7427   1.571   1.866  14.807  0.1804 -0.4276 -0.9478
  496MPD2    C5 7428   1.645   1.972  14.760 -0.0734 -0.0779 -0.1471
  496MPD2     H 7429   1.798   1.764  15.041 -1.0979  0.5765  1.5551
  496MPD2    H1 7430   1.467   1.847  14.783  0.3097 -0.8089 -1.2232
  496MPD2    H2 7431   1.834   2.074  14.742 -0.0268 -0.9416 -1.0136
  496MPD2    H3 7432   1.602   2.044  14.691  1.2110  1.3587  0.5586
  496MPD2     N 7433   1.551   1.687  14.958  0.4687  0.2519  0.1107
  496MPD2    H5 7434   1.456   1.666  14.930  1.5042  0.4515 -3.5263
  496MPD2    N1 7435   1.961   1.954  14.934  0.2424  0.2120 -0.2085
  496MPD2    H7 7436   2.006   2.020  14.872  2.1698  0.0713  1.0135
  497TMC3    C1 7437   1.486   1.515  15.102  0.2111 -0.7691  0.5441
  497TMC3    C2 7438   1.370   1.574  15.130 -0.1459 -0.1216 -0.0525
  497TMC3    C3 7439   1.287   1.516  15.219 -0.4804 -0.0476 -0.4812
  497TMC3    C4 7440   1.519   1.403  15.161 -0.4071  0.5135  0.0590
  497TMC3    C5 7441   1.426   1.339  15.235 -0.3395  0.1375 -0.0551
  497TMC3    C6 7442   1.318   1.399  15.281 -1.1862 -0.0099 -0.0539
  497TMC3     C 7443   1.598   1.596  15.057  0.1601 -0.1004  0.0641
  497TMC3     O 7444   1.710   1.562  15.091 -0.0059 -0.3600 -0.0699
  497TMC3     H 7445   1.345   1.672  15.092  1.0910  0.6399  1.0863
  497TMC3    H1 7446   1.616   1.357  15.144  0.3062  2.2891 -0.6150
  497TMC3    H2 7447   1.244   1.340  15.334  0.9091 -1.8265  0.8266
  497TMC3    C7 7448   1.491   1.254  15.332 -0.3280  0.4087  0.3858
  497TMC3    C8 7449   1.174   1.597  15.277  0.2603  0.0591  0.3295
  497TMC3    O1 7450   1.422   1.165  15.383 -0.1275  0.1958 -0.6549
  497TMC3    O2 7451   1.200   1.710  15.311 -0.1816  0.0224  0.6576
  498MPD2     C 7452   3.060   2.410   9.521 -0.0696  0.4228  0.5284
  498MPD2    C1 7453   3.087   2.468   9.638 -0.9036  0.2302  0.0735
  498MPD2    C2 7454   3.036   2.411   9.753 -0.1533  0.2385  0.1614
  498MPD2    C3 7455   2.952   2.306   9.745  0.7982 -0.2451  0.5536
  498MPD2    C4 7456   2.918   2.251   9.631 -0.2017  0.6910  0.7915
  498MPD2    C5 7457   2.981   2.296   9.520 -0.2541 -0.2453  0.2068
  498MPD2     H 7458   3.054   2.467   9.844 -0.5347  2.8399 -1.3698
  498MPD2    H1 7459   2.851   2.166   9.621  0.5420  0.1807  0.1032
  498MPD2    H2 7460   3.108   2.441   9.429 -1.7498  0.7319 -0.2379
  498MPD2    H3 7461   2.968   2.257   9.420 -1.4141 -1.1109  0.7000
  498MPD2     N 7462   2.898   2.270   9.871 -0.2565 -0.0307 -0.2828
  498MPD2    H5 7463   2.924   2.324   9.953 -0.2517  0.8472 -0.8640
  498MPD2    N1 7464   3.155   2.591   9.652 -0.0662 -0.2478 -0.7205
  498MPD2    H7 7465   3.155   2.627   9.747 -2.5860  0.6414 -1.0828
  499TMC3    C1 7466   3.261   2.781   9.605  0.0692  0.2829  0.1276
  499TMC3    C2 7467   3.304   2.789   9.734  0.7713 -0.4689  0.3481
  499TMC3    C3 7468   3.342   2.914   9.774 -0.3351 -0.0844  0.4652
  499TMC3    C4 7469   3.268   2.883   9.517 -0.0072 -0.0735  0.1514
  499TMC3    C5 7470   3.314   3.003   9.558  0.6332  0.0342 -0.0763
  499TMC3    C6 7471   3.346   3.020   9.688  0.5040 -0.0923 -0.4932
  499TMC3     C 7472   3.200   2.665   9.549  0.3155  0.1626  0.5405
  499TMC3     O 7473   3.189   2.663   9.430 -0.3425 -0.7957  0.4073
  499TMC3     H 7474   3.318   2.696   9.789  0.2921  0.0482  1.3348
  499TMC3    H1 7475   3.221   2.873   9.420 -1.0285  0.5168  0.5820
  499TMC3    H2 7476   3.365   3.121   9.722 -0.2694 -0.1220  0.0207
  499TMC3    C7 7477   3.326   3.121   9.477  0.2536 -0.2580 -0.6500
  499TMC3    C8 7478   3.365   2.946   9.914  0.2297 -0.6888 -0.9747
  499TMC3    O1 7479   3.414   3.201   9.509 -0.5292 -0.1954 -0.7824
  499TMC3    O2 7480   3.394   3.057   9.944  0.5646  0.2201  0.3024
  500MPD2     C 7481   4.222   2.979  10.612  0.0352 -0.6529  0.3033
  500MPD2    C1 7482   4.251   3.097  10.553 -0.0723 -0.6919  0.5002
  500MPD2    C2 7483   4.217   3.123  10.422 -0.6153 -0.3564 -0.4169
  500MPD2    C3 7484   4.139   3.032  10.352 -0.0459 -0.0739 -0.6366
  500MPD2    C4 7485   4.092   2.919  10.409  0.1972 -0.2832  0.0862
  500MPD2    C5 7486   4.143   2.890  10.536  0.5654 -0.1904  0.3851
  500MPD2     H 7487   4.257   3.216  10.384 -1.9633  0.5044  0.2608
  500MPD2    H1 7488   4.042   2.841  10.353 -1.6229  1.4048 -0.6633
  500MPD2    H2 7489   4.240   2.958  10.717  1.4960 -1.8044 -0.1707
  500MPD2    H3 7490   4.110   2.804  10.593 -0.1451  0.0944  0.3983
  500MPD2     N 7491   4.104   3.063  10.215  0.0333 -0.3646  0.3505
  500MPD2    H5 7492   4.044   2.991  10.177  0.6636  0.0175 -1.3258
  500MPD2    N1 7493   4.312   3.201  10.623 -0.3034  0.6044  0.0960
  500MPD2    H7 7494   4.340   3.287  10.576  1.7402  0.3346  0.7766
  501TMC3    C1 7495   4.440   3.308  10.794  0.3196  1.0245  0.4438
  501TMC3    C2 7496   4.475   3.410  10.707  0.4944  0.3479  0.2793
  501TMC3    C3 7497   4.607   3.461  10.719  0.5313  0.0291  0.0778
  501TMC3    C4 7498   4.523   3.270  10.901 -0.4558 -0.8910  0.3725
  501TMC3    C5 7499   4.636   3.345  10.927 -0.0849  0.0419  0.6874
  501TMC3    C6 7500   4.691   3.423  10.830 -0.1481  0.3967 -0.6696
  501TMC3     C 7501   4.353   3.199  10.757  0.0908 -0.4790  0.3461
  501TMC3     O 7502   4.346   3.103  10.830  0.3493 -0.0057 -0.0835
  501TMC3     H 7503   4.411   3.440  10.626  1.1344  2.1454  0.4358
  501TMC3    H1 7504   4.490   3.189  10.965  1.5710 -1.4550  0.7110
  501TMC3    H2 7505   0.051   3.473  10.826  0.2070 -0.4187 -2.0501
  501TMC3    C7 7506   4.727   3.316  11.035 -0.3610  0.5458  0.1576
  501TMC3    C8 7507   4.650   3.576  10.636 -0.0012  0.4615 -0.1725
  501TMC3    O1 7508   0.112   3.326  11.014  0.0368 -0.0401  0.0625
  501TMC3    O2 7509   4.702   3.660  10.706  0.3273 -0.5074 -0.7634
  502TMC3    C1 7510   4.062   2.354  14.507  0.2249  0.6138  0.4848
  502TMC3    C2 7511   4.046   2.490  14.511 -0.5931  0.3484  0.4087
  502TMC3    C3 7512   3.919   2.540  14.511 -0.1778 -0.7593 -0.1231
  502TMC3    C4 7513   3.959   2.268  14.504 -0.4976  0.0366  0.2212
  502TMC3    C5 7514   3.830   2.318  14.517 -0.2154  0.2350 -0.2953
  502TMC3    C6 7515   3.806   2.455  14.518  1.0400  0.4317  0.0989
  502TMC3     C 7516   4.159   2.306  14.601  0.1096 -0.7646  0.9566
  502TMC3     O 7517   4.246   2.385  14.633 -0.5767  0.3460 -0.3347
  502TMC3     H 7518   4.132   2.555  14.499 -0.8831  0.2328 -2.3000
  502TMC3    H1 7519   3.969   2.160  14.493  1.8660  0.0494  2.1182
  502TMC3    H2 7520   3.707   2.490  14.545  0.0299 -2.0057 -0.4061
  502TMC3    C7 7521   3.762   2.234  14.623 -0.1296 -0.3738  0.3012
  502TMC3    C8 7522   3.901   2.680  14.536  0.0898  1.2847 -0.1275
  502TMC3    O1 7523   3.836   2.151  14.677  0.2892  0.5472  0.2243
  502TMC3    O2 7524   4.000   2.744  14.571 -0.1154 -0.5865  0.1600
  503MPD2     C 7525   1.182   2.844  16.989  0.0524 -0.4467  0.1043
  503MPD2    C1 7526   1.246   2.918  17.085  0.6219  0.1852  0.2988
  503MPD2    C2 7527   1.335   2.843  17.165  0.4393 -1.1507  0.2640
  503MPD2    C3 7528   1.354   2.705  17.155 -0.0025  0.8601  0.0798
  503MPD2    C4 7529   1.286   2.635  17.059 -0.2844  0.3018 -0.9075
  503MPD2    C5 7530   1.206   2.709  16.981  0.5502  0.1718 -0.3231
  503MPD2     H 7531   1.394   2.902  17.235 -2.4272  1.9716  0.0481
  503MPD2    H1 7532   1.286   2.527  17.051  0.3252  0.5375 -3.9675
  503MPD2    H2 7533   1.096   2.877  16.931  1.2429 -0.6704 -1.7894
  503MPD2    H3 7534   1.147   2.648  16.913  0.4924 -1.3455  1.0847
  503MPD2     N 7535   1.436   2.646  17.243  0.6584  0.1017 -0.3796
  503MPD2    H5 7536   1.492   2.702  17.306  0.1681  0.5996 -0.3881
  503MPD2    N1 7537   1.226   3.056  17.105  0.5157 -0.4753  0.2010
  503MPD2    H7 7538   1.261   3.096  17.191 -0.4921 -0.2340  0.4997
  504TMC3    C1 7539   1.530   2.472  17.355  0.3602  0.5098  0.3700
  504TMC3    C2 7540   1.525   2.334  17.394 -0.4644 -0.6356 -0.0156
  504TMC3    C3 7541   1.638   2.269  17.415  0.5487  0.2227 -0.4524
  504TMC3    C4 7542   1.649   2.523  17.319  0.0418 -0.2707 -0.0249
  504TMC3    C5 7543   1.764   2.456  17.344  0.2125 -0.3468  0.1457
  504TMC3    C6 7544   1.762   2.329  17.408  0.2363  0.1676  0.4405
  504TMC3     C 7545   1.418   2.518  17.284  0.0237  0.1594  0.5275
  504TMC3     O 7546   1.324   2.439  17.264  0.6058  0.5443  0.1124
  504TMC3     H 7547   1.428   2.286  17.393  1.3972 -4.3639 -2.3385
  504TMC3    H1 7548   1.652   2.622  17.276  1.1895 -0.0017  0.6848
  504TMC3    H2 7549   1.855   2.283  17.440 -0.7371 -2.3293 -0.3147
  504TMC3    C7 7550   1.882   2.507  17.273  0.1532  0.1028 -0.2541
  504TMC3    C8 7551   1.623   2.126  17.443 -0.1728 -0.3978 -0.1433
  504TMC3    O1 7552   1.863   2.597  17.187 -0.0167  0.9280 -0.3520
  504TMC3    O2 7553   1.551   2.056  17.376 -0.4709 -0.5469 -0.4811
  505MPD2     C 7554   2.074   2.397  10.894  0.2871 -0.8019  0.7039
  505MPD2    C1 7555   2.148   2.299  10.956 -0.3701 -0.0949  0.6077
  505MPD2    C2 7556   2.273   2.334  11.000 -0.3189 -0.3263  0.8292
  505MPD2    C3 7557   2.314   2.465  11.000 -0.2285  0.1772 -0.3289
  505MPD2    C4 7558   2.236   2.565  10.951  0.4260 -0.2967  0.4486
  505MPD2    C5 7559   2.121   2.526  10.891 -0.1888 -0.1778 -0.3686
  505MPD2     H 7560   2.343   2.259  11.034 -0.7483 -1.1780 -0.1620
  505MPD2    H1 7561   2.258   2.669  10.973  1.1775 -0.1851 -0.8525
  505MPD2    H2 7562   1.984   2.376  10.838  1.5107  0.1222 -1.6021
  505MPD2    H3 7563   2.064   2.608  10.849 -0.7543 -0.5053 -0.2353
  505MPD2     N 7564   2.448   2.480  11.043  0.1129 -0.0022  0.0162
  505MPD2    H5 7565   2.487   2.393  11.078 -1.3042 -0.7420 -0.2390
  505MPD2    N1 7566   2.103   2.163  10.964 -0.4198 -0.0054 -0.5744
  505MPD2    H7 7567   2.020   2.133  10.913 -0.8558 -0.7304  0.5742
  506TMC3    C1 7568   2.097   1.937  11.029  0.0346 -0.0514  0.2747
  506TMC3    C2 7569   2.102   1.884  10.901  0.2174  0.7086 -0.0394
  506TMC3    C3 7570   2.133   1.750  10.906 -0.0601  0.3378  0.3766
  506TMC3    C4 7571   2.125   1.863  11.140 -0.2147 -0.4545  0.5686
  506TMC3    C5 7572   2.158   1.729  11.132  0.6155  0.6326  0.1561
  506TMC3    C6 7573   2.147   1.670  11.011  0.2449  0.3310  0.2974
  506TMC3     C 7574   2.154   2.064  11.044 -0.2833  0.1802 -0.0391
  506TMC3     O 7575   2.227   2.084  11.138 -0.3593 -0.0679  0.1680
  506TMC3     H 7576   2.081   1.943  10.812 -3.1728 -0.3547  0.0632
  506TMC3    H1 7577   2.141   1.908  11.237 -0.3416  1.4478 -0.2858
  506TMC3    H2 7578   2.180   1.568  10.995 -2.0910 -0.2711 -0.7473
  506TMC3    C7 7579   2.284   1.694  11.195 -0.7031 -0.6606 -0.4273
  506TMC3    C8 7580   2.154   1.693  10.782  0.0503 -0.8800  0.0357
  506TMC3    O1 7581   2.323   1.582  11.213  0.2639 -0.4737 -0.4427
  506TMC3    O2 7582   2.119   1.575  10.765  0.2925  0.5548 -0.4300
  507TMC3    C1 7583   2.674   3.027  14.828  0.7773  0.4335 -0.3709
  507TMC3    C2 7584   2.661   2.895  14.790 -0.0854  0.1243  0.6134
  507TMC3    C3 7585   2.655   2.872  14.655 -0.4597 -0.3390 -0.1616
  507TMC3    C4 7586   2.668   3.131  14.744  0.3677  0.4280 -0.4691
  507TMC3    C5 7587   2.654   3.105  14.609  0.0583 -0.1533 -0.6989
  507TMC3    C6 7588   2.675   2.974  14.567 -0.4188 -0.0186 -0.0024
  507TMC3     C 7589   2.661   3.062  14.964  0.4560 -0.1828 -0.0726
  507TMC3     O 7590   2.597   3.166  14.982 -0.0349  0.0049  0.0464
  507TMC3     H 7591   2.660   2.807  14.854 -1.6789  0.3094  0.8354
  507TMC3    H1 7592   2.674   3.231  14.785 -1.2017  0.5341 -0.4881
  507TMC3    H2 7593   2.677   2.957  14.460  0.1289  0.6979 -0.1042
  507TMC3    C7 7594   2.538   3.160  14.553 -0.3169  0.2323 -0.2859
  507TMC3    C8 7595   2.574   2.764  14.605 -0.0787 -0.2902  0.3681
  507TMC3    O1 7596   2.476   3.090  14.474  0.1474 -0.0068  0.1018
  507TMC3    O2 7597   2.551   2.666  14.675 -0.6432 -0.4318  0.0401
  508MPD2     C 7598   3.108   0.120  15.471 -0.2411  0.4306  0.1383
  508MPD2    C1 7599   3.054   0.207  15.561  0.2953  0.6512 -0.3092
  508MPD2    C2 7600   2.944   0.283  15.525  0.2354  0.5618 -0.6917
  508MPD2    C3 7601   2.897   0.287  15.393  0.5872 -0.4183 -0.0533
  508MPD2    C4 7602   2.938   0.186  15.314  0.2199 -0.2943  0.1392
  508MPD2    C5 7603   3.037   0.105  15.352 -0.2660  0.2208  0.2404
  508MPD2     H 7604   2.903   0.359  15.591 -0.4231  1.5831 -2.2712
  508MPD2    H1 7605   2.900   0.171  15.214  1.7045  0.1222 -0.4920
  508MPD2    H2 7606   3.190   0.055  15.497 -0.6748  0.7412  2.3134
  508MPD2    H3 7607   3.072   0.026  15.287 -4.2638 -1.4648  0.1162
  508MPD2     N 7608   2.804   0.385  15.349  0.4183 -0.3764  0.6474
  508MPD2    H5 7609   2.774   0.448  15.422  1.0552  0.4535  0.1919
  508MPD2    N1 7610   3.114   0.219  15.693 -0.2784 -0.3996  0.4205
  508MPD2    H7 7611   3.204   0.180  15.720 -0.1362  0.0410  0.5867
  509TMC3    C1 7612   2.736   0.722  15.082  0.0205  0.2547  0.1246
  509TMC3    C2 7613   2.729   0.793  15.201 -0.8551  0.1170 -0.1425
  509TMC3    C3 7614   2.697   0.725  15.318  0.1659 -0.5629 -0.0383
  509TMC3    C4 7615   2.715   0.592  15.076 -0.3993  0.4689  0.3833
  509TMC3    C5 7616   2.687   0.525  15.191  0.7191  0.7078 -0.0907
  509TMC3    C6 7617   2.665   0.587  15.312 -0.1908 -0.8288 -0.7435
  509TMC3     C 7618   2.791   0.789  14.968 -0.4315 -0.1590 -0.1889
  509TMC3     O 7619   2.877   0.874  14.995 -0.3686 -0.2356 -0.1108
  509TMC3     H 7620   2.758   0.897  15.208 -0.3203 -0.0599  0.2392
  509TMC3    H1 7621   2.729   0.540  14.982 -0.4991 -0.6265  0.9757
  509TMC3    H2 7622   2.618   0.537  15.396 -1.0063  0.0253 -0.6834
  509TMC3    C7 7623   2.758   0.397  15.216 -0.5516 -0.1922 -0.4272
  509TMC3    C8 7624   2.817   0.723  15.410 -0.1750 -0.3769  0.1124
  509TMC3    O1 7625   2.800   0.354  15.109  0.6325 -0.1152 -0.1959
  509TMC3    O2 7626   2.815   0.637  15.498  0.0814 -0.3633  0.0554
  510MPD2     C 7627   1.215   1.845  14.515 -0.3550 -0.4348  0.0755
  510MPD2    C1 7628   1.256   1.739  14.602  0.4086  0.0053 -0.0866
  510MPD2    C2 7629   1.388   1.690  14.584 -0.8008  0.0130  0.4090
  510MPD2    C3 7630   1.477   1.740  14.497 -0.8110  0.2107  0.3927
  510MPD2    C4 7631   1.437   1.839  14.412  0.2455 -0.6013 -0.1536
  510MPD2    C5 7632   1.307   1.896  14.428  0.4199 -0.8486 -0.4534
  510MPD2     H 7633   1.418   1.612  14.653 -0.6250  0.6141  1.0065
  510MPD2    H1 7634   1.504   1.887  14.342 -0.9894  0.3799 -0.6631
  510MPD2    H2 7635   1.112   1.878  14.513 -0.9984 -2.4531 -0.0594
  510MPD2    H3 7636   1.275   1.958  14.345  2.5284  0.8902  0.0151
  510MPD2     N 7637   1.609   1.691  14.497  0.4649 -0.0009 -0.1267
  510MPD2    H5 7638   1.633   1.615  14.560  0.5348  0.6170  0.6091
  510MPD2    N1 7639   1.153   1.686  14.686 -0.0274  0.4833  0.0573
  510MPD2    H7 7640   1.058   1.721  14.676  1.0655  2.5495 -2.9583
  511TMC3    C1 7641   1.076   1.535  14.857 -0.0671  0.9695 -0.0157
  511TMC3    C2 7642   0.971   1.618  14.894  0.6599  0.4585 -0.1930
  511TMC3    C3 7643   0.877   1.557  14.971 -0.0882  0.6190  0.3159
  511TMC3    C4 7644   1.075   1.404  14.894  0.0711  0.6673 -0.2247
  511TMC3    C5 7645   0.979   1.351  14.967  0.3281  0.2492  0.6394
  511TMC3    C6 7646   0.879   1.425  15.009 -0.3199 -0.1390  0.1298
  511TMC3     C 7647   1.187   1.586  14.783 -0.1402  0.0882  0.0717
  511TMC3     O 7648   1.295   1.542  14.821 -0.6670  0.4935  0.0938
  511TMC3     H 7649   0.959   1.722  14.864 -0.0830  0.4978  0.2460
  511TMC3    H1 7650   1.162   1.344  14.871  1.0047  1.7806  0.4311
  511TMC3    H2 7651   0.838   1.390  15.104 -0.9172  0.0072 -0.0746
  511TMC3    C7 7652   1.004   1.219  15.015 -0.8018 -0.3743  0.9042
  511TMC3    C8 7653   0.765   1.639  15.008 -0.6711  0.0356  0.0998
  511TMC3    O1 7654   1.118   1.190  15.042 -0.0379 -0.0055  0.0784
  511TMC3    O2 7655   0.769   1.761  15.005 -0.5863  0.5542  0.4742
  512TMC3    C1 7656   0.486   1.474  12.626 -0.0722  0.6028 -0.2338
  512TMC3    C2 7657   0.446   1.444  12.751 -0.0750  0.6307 -0.1549
  512TMC3    C3 7658   0.490   1.331  12.809  0.5827  0.1645  0.0487
  512TMC3    C4 7659   0.556   1.386  12.549 -0.1636 -0.2803  0.1920
  512TMC3    C5 7660   0.606   1.279  12.615 -0.7926 -0.1324 -0.5201
  512TMC3    C6 7661   0.581   1.252  12.750 -0.3363 -0.7007  0.4681
  512TMC3     C 7662   0.479   1.609  12.571  0.5325  0.3476 -0.7199
  512TMC3     O 7663   0.564   1.643  12.492 -0.1585 -0.3983  0.1313
  512TMC3     H 7664   0.396   1.519  12.811 -0.4636  0.4083 -0.2042
  512TMC3    H1 7665   0.568   1.403  12.443  0.9547  1.2038  0.5513
  512TMC3    H2 7666   0.618   1.161  12.796 -0.9286 -1.3896 -0.4163
  512TMC3    C7 7667   0.661   1.178  12.527 -0.1032 -0.2097  0.1092
  512TMC3    C8 7668   0.469   1.313  12.949 -0.0028 -0.3313 -0.1545
  512TMC3    O1 7669   0.705   1.213  12.416  0.0503 -0.5517  0.1713
  512TMC3    O2 7670   0.467   1.198  12.994 -0.7729  0.1403 -0.3946
  513MPD2     C 7671   1.833   1.068  13.111 -0.0538 -0.1156  0.3207
  513MPD2    C1 7672   1.917   1.106  13.007  0.5957 -0.2478 -0.4374
  513MPD2    C2 7673   1.998   1.214  13.020 -0.4140 -0.7117 -0.5517
  513MPD2    C3 7674   1.994   1.300  13.128 -0.4148 -0.2721 -1.0249
  513MPD2    C4 7675   1.907   1.270  13.231  0.2236 -0.4525  0.0662
  513MPD2    C5 7676   1.828   1.156  13.215  0.0637  0.5285  0.2126
  513MPD2     H 7677   2.073   1.241  12.947 -2.4246  1.1788 -1.9350
  513MPD2    H1 7678   1.907   1.340  13.313 -1.0134 -1.3263  0.8104
  513MPD2    H2 7679   1.769   0.980  13.109 -0.4347  0.2052 -1.5893
  513MPD2    H3 7680   1.762   1.132  13.297 -0.3786 -0.8910 -0.5629
  513MPD2     N 7681   2.079   1.410  13.123  0.3088  0.3298 -0.3807
  513MPD2    H5 7682   2.124   1.437  13.036 -2.0153 -0.1166 -1.7221
  513MPD2    N1 7683   1.945   1.024  12.899  0.2551  0.1392 -0.5593
  513MPD2    H7 7684   2.028   1.048  12.846  0.0455 -1.6447 -1.6679
  514TMC3    C1 7685   1.952   0.838  12.763  0.4299 -0.1732 -0.8182
  514TMC3    C2 7686   1.899   0.842  12.644 -0.4571 -0.6219  0.0728
  514TMC3    C3 7687   1.987   0.841  12.538 -0.0051 -0.1800 -0.4060
  514TMC3    C4 7688   2.089   0.853  12.789  0.4976 -0.1346  0.3699
  514TMC3    C5 7689   2.171   0.866  12.689  0.3739  0.5713  0.3307
  514TMC3    C6 7690   2.123   0.852  12.560  0.2186 -0.8230  0.2318
  514TMC3     C 7691   1.877   0.909  12.861  0.2117 -0.5896 -0.3156
  514TMC3     O 7692   1.758   0.898  12.877  0.4023  0.6821 -0.2693
  514TMC3     H 7693   1.794   0.860  12.628 -0.7973 -0.6309  2.3843
  514TMC3    H1 7694   2.130   0.850  12.889 -0.0199 -1.3079  0.5423
  514TMC3    H2 7695   2.188   0.850  12.473 -0.5106  0.6745 -0.3538
  514TMC3    C7 7696   2.240   1.000  12.705  0.2787  0.0031  0.0220
  514TMC3    C8 7697   1.938   0.837  12.402 -0.1330  0.2349  0.3830
  514TMC3    O1 7698   2.213   1.060  12.803  0.1790 -0.6678  0.2164
  514TMC3    O2 7699   1.821   0.813  12.397  0.0322 -0.1110  0.3666
  515MPD2     C 7700   0.392   2.742  14.506  0.1880 -0.0637  0.3116
  515MPD2    C1 7701   0.268   2.789  14.554  0.0985 -0.1401 -0.4608
  515MPD2    C2 7702   0.263   2.871  14.665 -0.4351 -0.9291 -0.6557
  515MPD2    C3 7703   0.388   2.915  14.720  0.4579 -0.0137 -0.1867
  515MPD2    C4 7704   0.508   2.879  14.659  0.0585 -0.1593 -0.3194
  515MPD2    C5 7705   0.509   2.792  14.559 -0.5942 -0.4174 -0.0681
  515MPD2     H 7706   0.164   2.892  14.705  0.3081 -2.0836  1.7748
  515MPD2    H1 7707   0.606   2.902  14.700 -0.3996  1.1065  0.0453
  515MPD2    H2 7708   0.400   2.668  14.427 -2.0625 -0.6477  0.6292
  515MPD2    H3 7709   0.606   2.767  14.518 -0.3014 -2.1405  1.6328
  515MPD2     N 7710   0.402   2.987  14.840 -0.3104 -0.3708 -0.1360
  515MPD2    H5 7711   0.493   3.014  14.875  0.2582 -0.1738 -1.7716
  515MPD2    N1 7712   0.152   2.755  14.484  0.0211  0.0787 -0.1178
  515MPD2    H7 7713   0.063   2.782  14.524  1.1510  3.3773  0.1660
  516TMC3    C1 7714   0.011   2.658  14.328 -0.2051 -0.1135  0.3041
  516TMC3    C2 7715   4.669   2.769  14.311  0.1089  0.1353  0.4831
  516TMC3    C3 7716   4.533   2.751  14.290 -0.0213 -0.3425  0.4166
  516TMC3    C4 7717   4.692   2.527  14.328  0.3381  0.5604  0.0178
  516TMC3    C5 7718   4.562   2.517  14.287 -0.0903 -0.9069  0.5025
  516TMC3    C6 7719   4.477   2.625  14.275  0.7798  0.5259  0.7212
  516TMC3     C 7720   0.149   2.662  14.382  0.2224 -0.7974  0.0920
  516TMC3     O 7721   0.227   2.575  14.338 -0.2778 -0.5622 -0.0768
  516TMC3     H 7722   4.713   2.868  14.324 -1.6417  0.9634  0.1392
  516TMC3    H1 7723   0.021   2.440  14.333  1.3543  1.3912  1.2489
  516TMC3    H2 7724   4.377   2.612  14.234 -0.1190  2.9148  2.1500
  516TMC3    C7 7725   4.520   2.379  14.283 -0.2012  0.2537  0.3282
  516TMC3    C8 7726   4.460   2.862  14.233  0.8621  0.1950  0.2583
  516TMC3    O1 7727   4.605   2.293  14.279 -0.2599 -0.0647  0.0078
  516TMC3    O2 7728   4.340   2.852  14.244  0.4463  0.1028 -0.2755
  517MPD2     C 7729   4.624   4.214  17.644  0.1840 -0.5974  0.1988
  517MPD2    C1 7730   4.726   4.156  17.708  0.6652  0.1254  0.1697
  517MPD2    C2 7731   0.082   4.230   0.039  0.4516  0.3262  0.0926
  517MPD2    C3 7732   0.070   4.367   0.047  0.2584 -0.4524 -0.0630
  517MPD2    C4 7733   4.720   4.426  17.701  0.1007  0.7118  0.3763
  517MPD2    C5 7734   4.618   4.353  17.637  0.4365  0.3726 -0.3484
  517MPD2     H 7735   0.148   4.172   0.102  0.4395  0.5763  0.3342
  517MPD2    H1 7736   4.698   4.532  17.700  0.8466  0.8284 -1.9647
  517MPD2    H2 7737   4.542   4.157  17.601  0.9180 -1.5704  0.1054
  517MPD2    H3 7738   4.539   4.396  17.578 -0.6969 -0.0440  0.8749
  517MPD2     N 7739   0.143   4.455   0.136  0.6117  1.4461  0.3114
  517MPD2    H5 7740   0.134   4.555   0.121 -0.3889  1.4728  1.0884
  517MPD2    N1 7741   0.004   4.016  17.715  0.6960 -0.9737  0.0876
  517MPD2    H7 7742   0.085   3.980   0.023  1.6685 -0.2914 -0.9959
  518TMC3    C1 7743   4.716   3.797  17.684  0.4056 -0.1442 -0.7598
  518TMC3    C2 7744   4.641   3.690  17.733  0.2813  0.3873  0.2797
  518TMC3    C3 7745   4.706   3.571  17.737 -0.2196  0.8932 -0.7078
  518TMC3    C4 7746   0.109   3.783  17.645  0.5016 -0.2210  0.4731
  518TMC3    C5 7747   0.171   3.666  17.639 -0.2716 -0.6360  0.2433
  518TMC3    C6 7748   0.101   3.559  17.687 -0.3293 -0.0576 -0.0402
  518TMC3     C 7749   4.650   3.922  17.678 -0.0966  0.4311  0.3242
  518TMC3     O 7750   4.533   3.928  17.643  0.5939  0.0968 -0.2237
  518TMC3     H 7751   4.546   3.717   0.036 -0.9765  1.9790 -3.3226
  518TMC3    H1 7752   0.152   3.858  17.579 -0.8538  2.4269  2.5792
  518TMC3    H2 7753   0.138   3.457  17.678 -0.6110 -0.0310 -1.5044
  518TMC3    C7 7754   0.288   3.657  17.550  0.0506 -0.0935  0.1347
  518TMC3    C8 7755   4.647   3.452   0.066  0.9941 -0.7373 -0.0626
  518TMC3    O1 7756   0.367   3.748  17.550 -0.6780  0.2082 -0.0330
  518TMC3    O2 7757   4.722   3.358   0.081  0.1252  0.4623  0.0179
  519MPD2     C 7758   1.476   2.220  14.139 -0.9418  1.0172 -0.5830
  519MPD2    C1 7759   1.457   2.342  14.075 -0.0939  0.0721  0.7048
  519MPD2    C2 7760   1.558   2.398  14.007  0.3834  0.1828 -0.3632
  519MPD2    C3 7761   1.678   2.336  13.994  0.1302 -0.5431 -0.7167
  519MPD2    C4 7762   1.700   2.221  14.059  0.3494 -0.6752  0.2335
  519MPD2    C5 7763   1.598   2.159  14.124  0.2582 -0.4102 -0.1620
  519MPD2     H 7764   1.541   2.490  13.952  3.9526 -0.1068 -1.9133
  519MPD2    H1 7765   1.791   2.162  14.060  2.0322  1.9259 -0.9589
  519MPD2    H2 7766   1.395   2.170  14.191 -1.1710  0.9664 -0.9845
  519MPD2    H3 7767   1.608   2.060  14.168 -0.1555 -0.8255 -0.9905
  519MPD2     N 7768   1.780   2.390  13.913  0.2240 -0.7002  0.1536
  519MPD2    H5 7769   1.866   2.337  13.919  1.2669  0.9748 -0.0764
  519MPD2    N1 7770   1.327   2.409  14.081  0.1424 -0.2996  0.4757
  519MPD2    H7 7771   1.251   2.357  14.125 -0.9864  0.9537  0.0045
  520TMC3    C1 7772   1.889   2.538  13.752 -0.2482  0.1827 -0.5986
  520TMC3    C2 7773   1.870   2.641  13.655 -0.0433 -0.6876  0.4718
  520TMC3    C3 7774   1.943   2.645  13.545  0.4534  0.4663  0.2229
  520TMC3    C4 7775   1.978   2.430  13.733 -0.3068  0.4150 -0.0805
  520TMC3    C5 7776   2.061   2.443  13.617  0.9323  0.2327 -0.0629
  520TMC3    C6 7777   2.040   2.549  13.527 -0.1229 -0.4318 -0.0083
  520TMC3     C 7778   1.789   2.513  13.851 -0.4667  0.1406 -0.2734
  520TMC3     O 7779   1.713   2.606  13.874 -0.1334 -0.0519  0.2536
  520TMC3     H 7780   1.798   2.717  13.684 -0.4099 -0.9321  0.2067
  520TMC3    H1 7781   2.002   2.353  13.805 -1.0186  1.6179  1.4499
  520TMC3    H2 7782   2.102   2.559  13.439 -2.0081  3.7375 -0.8558
  520TMC3    C7 7783   2.189   2.380  13.617 -0.2601  0.0044  0.4565
  520TMC3    C8 7784   1.889   2.708  13.428  0.2464  1.0908 -0.2301
  520TMC3    O1 7785   2.191   2.278  13.684  0.0067  0.0872  0.5556
  520TMC3    O2 7786   1.956   2.698  13.325  0.3401 -0.4109  0.2522
  521MPD2     C 7787   2.418   0.778  17.451 -0.0313 -0.1602 -0.2686
  521MPD2    C1 7788   2.359   0.767  17.327 -0.5359 -0.2875  0.1586
  521MPD2    C2 7789   2.418   0.824  17.215 -0.5396  0.0595 -0.0666
  521MPD2    C3 7790   2.548   0.870  17.223  0.3522  0.2543 -0.9447
  521MPD2    C4 7791   2.605   0.883  17.345  0.3397 -0.3373 -0.6288
  521MPD2    C5 7792   2.540   0.838  17.457 -0.0149 -0.3326 -0.0603
  521MPD2     H 7793   2.362   0.830  17.123 -1.0881  3.2384  0.4663
  521MPD2    H1 7794   2.706   0.923  17.348 -0.8241  2.3447  2.3537
  521MPD2    H2 7795   2.381   0.743  17.547 -0.9350 -3.2738 -1.7328
  521MPD2    H3 7796   2.577   0.869  17.554  0.4704  0.6375 -0.5606
  521MPD2     N 7797   2.615   0.909  17.104  0.7692 -0.9022 -0.3581
  521MPD2    H5 7798   2.561   0.925  17.020 -0.7693  1.6944  1.1273
  521MPD2    N1 7799   2.250   0.678  17.322 -0.0298 -0.2288 -0.6524
  521MPD2    H7 7800   2.209   0.639  17.406  1.1960 -1.0614 -0.4362
  522TMC3    C1 7801   2.782   0.923  16.953 -0.3950  0.1691  0.2843
  522TMC3    C2 7802   2.847   0.828  16.876  0.0109 -0.3154 -0.9163
  522TMC3    C3 7803   2.836   0.831  16.740  0.5354 -0.5494  0.8263
  522TMC3    C4 7804   2.698   1.013  16.889 -0.1280  0.3228 -0.0200
  522TMC3    C5 7805   2.703   1.022  16.751 -0.4377 -0.3059 -0.5393
  522TMC3    C6 7806   2.762   0.924  16.674 -0.4165 -0.2876 -0.4407
  522TMC3     C 7807   2.747   0.882  17.085 -0.2739  0.6955 -0.3070
  522TMC3     O 7808   2.812   0.795  17.137  0.3831  0.2119  0.3718
  522TMC3     H 7809   2.920   0.770  16.931  2.2974  2.0140 -1.5006
  522TMC3    H1 7810   2.650   1.092  16.945  1.0740  0.2814  1.0834
  522TMC3    H2 7811   2.783   0.945  16.570  2.3250 -1.0583 -0.0191
  522TMC3    C7 7812   2.623   1.118  16.678  0.5237  1.1749  0.2331
  522TMC3    C8 7813   2.892   0.727  16.657  0.1372  0.8262 -1.0894
  522TMC3    O1 7814   2.589   1.223  16.719 -0.0221  0.1500  0.2219
  522TMC3    O2 7815   2.849   0.718  16.542  0.6946  0.1474 -0.4143
  523MPD2     C 7816   4.121   0.460   9.880  0.5176  0.0079 -0.1484
  523MPD2    C1 7817   4.212   0.554   9.914  0.4805  0.0681  0.3154
  523MPD2    C2 7818   4.181   0.686   9.899 -0.5896 -0.0655 -0.5682
  523MPD2    C3 7819   4.054   0.731   9.858  0.5463  0.3721 -0.2334
  523MPD2    C4 7820   3.958   0.640   9.825  0.6531 -0.3172 -0.5446
  523MPD2    C5 7821   3.999   0.504   9.833  0.1599  0.0485 -0.5456
  523MPD2     H 7822   4.258   0.761   9.912 -0.7897 -0.4814  2.9568
  523MPD2    H1 7823   3.863   0.663   9.778  1.1253  3.0473  0.1953
  523MPD2    H2 7824   4.134   0.353   9.894 -0.1989 -0.0628  0.0077
  523MPD2    H3 7825   3.931   0.423   9.808 -1.9500  1.4142  0.7853
  523MPD2     N 7826   4.022   0.866   9.848  0.8903 -0.5897 -0.2587
  523MPD2    H5 7827   3.927   0.893   9.827  1.5030 -0.2702 -2.6201
  523MPD2    N1 7828   4.337   0.504   9.964  0.3235 -0.1766  0.1256
  523MPD2    H7 7829   4.339   0.403   9.968 -0.6321 -0.0953  2.2948
  524TMC3    C1 7830   4.035   1.097   9.832  0.1471  0.5614 -0.2469
  524TMC3    C2 7831   4.115   1.208   9.831 -0.2674  0.2036 -0.3234
  524TMC3    C3 7832   4.064   1.329   9.800 -0.1835 -0.0769 -0.2124
  524TMC3    C4 7833   3.900   1.099   9.804  0.3902 -0.3997 -0.6548
  524TMC3    C5 7834   3.851   1.223   9.775  0.5087  0.3656 -0.0701
  524TMC3    C6 7835   3.931   1.341   9.772  0.1238 -0.1707 -0.3585
  524TMC3     C 7836   4.099   0.973   9.877 -0.7873  0.3044 -0.1730
  524TMC3     O 7837   4.212   0.982   9.925 -0.0965 -0.5429 -0.4445
  524TMC3     H 7838   4.222   1.187   9.829 -0.4321 -0.6720  0.3852
  524TMC3    H1 7839   3.837   1.012   9.816 -0.2463 -0.0304 -1.3654
  524TMC3    H2 7840   3.897   1.440   9.741 -3.0475 -0.9889  0.4871
  524TMC3    C7 7841   3.721   1.235   9.708 -0.3510 -0.8385  0.1003
  524TMC3    C8 7842   4.156   1.435   9.766 -0.5529 -0.8522 -0.0072
  524TMC3    O1 7843   3.690   1.127   9.656 -0.0037  0.8093 -0.0374
  524TMC3    O2 7844   4.106   1.537   9.725 -0.4392 -0.4310 -0.0787
  525MPD2     C 7845   3.112   2.050  14.009 -0.4897  0.8094  0.0301
  525MPD2    C1 7846   3.081   2.071  14.142  0.7115 -0.3230 -0.5473
  525MPD2    C2 7847   3.084   2.208  14.184 -0.1601  0.1835 -0.0835
  525MPD2    C3 7848   3.138   2.306  14.101  0.3134  0.1079 -0.8666
  525MPD2    C4 7849   3.173   2.279  13.970 -0.2282 -0.2316 -0.5980
  525MPD2    C5 7850   3.157   2.150  13.931  0.3273  0.5457  0.3008
  525MPD2     H 7851   3.054   2.246  14.281 -0.4063  1.6897 -0.7581
  525MPD2    H1 7852   3.212   2.359  13.909  1.4366  1.0876  2.2031
  525MPD2    H2 7853   3.112   1.952  13.962  2.3676  0.7798  0.1075
  525MPD2    H3 7854   3.174   2.129  13.826 -0.0368 -1.9890  0.7482
  525MPD2     N 7855   3.157   2.431  14.166  0.0774  0.2309 -0.4179
  525MPD2    H5 7856   3.120   2.451  14.258  2.9780  1.8492  0.3936
  525MPD2    N1 7857   3.031   1.976  14.228  0.1446 -0.4389 -0.3379
  525MPD2    H7 7858   3.001   2.013  14.318 -0.6076 -1.5747 -0.1152
  526TMC3    C1 7859   2.992   1.757  14.316  0.1233  0.5423  0.0531
  526TMC3    C2 7860   2.898   1.799  14.409  0.3054  0.0050 -0.4215
  526TMC3    C3 7861   2.899   1.727  14.519  0.0682 -0.1676  0.3625
  526TMC3    C4 7862   3.094   1.662  14.348 -0.0913 -0.1036  0.0188
  526TMC3    C5 7863   3.100   1.607  14.473  0.3645 -0.0153 -0.5523
  526TMC3    C6 7864   2.999   1.641  14.555  0.2026 -0.3407  0.2949
  526TMC3     C 7865   3.032   1.840  14.207 -0.0598  0.5084 -0.6447
  526TMC3     O 7866   3.079   1.786  14.107  0.0359 -0.1460  0.4989
  526TMC3     H 7867   2.828   1.878  14.383 -1.1492 -0.8778  0.7991
  526TMC3    H1 7868   3.167   1.634  14.273  0.3317  3.9924 -1.1113
  526TMC3    H2 7869   2.995   1.597  14.654 -0.0870  4.1350  2.2543
  526TMC3    C7 7870   3.213   1.537  14.529  0.0469 -0.6855 -0.3336
  526TMC3    C8 7871   2.851   1.798  14.644  0.0679  0.8044  0.3579
  526TMC3    O1 7872   3.204   1.487  14.641  0.2680 -0.0730 -0.3794
  526TMC3    O2 7873   2.926   1.805  14.737  0.4413 -0.5794  0.5080
  527MPD2     C 7874   0.744   0.096   1.124 -0.3907  0.0979 -0.7311
  527MPD2    C1 7875   0.749   0.042   0.998 -0.0054 -0.9831 -0.4502
  527MPD2    C2 7876   0.855   0.063   0.922  0.3285  0.4560 -0.0891
  527MPD2    C3 7877   0.950   0.152   0.964 -0.2537  0.3139  0.4699
  527MPD2    C4 7878   0.938   0.222   1.081 -0.0960 -0.1544 -1.2621
  527MPD2    C5 7879   0.834   0.195   1.165 -0.2006 -0.0199 -0.2121
  527MPD2     H 7880   0.871   0.006   0.832 -3.8019  0.2977 -0.7252
  527MPD2    H1 7881   1.020   0.285   1.115 -0.4686 -0.1682 -0.3334
  527MPD2    H2 7882   0.668   0.071   1.197 -0.6140  2.5247 -0.1315
  527MPD2    H3 7883   0.832   0.258   1.253 -1.1007 -2.2784  1.3520
  527MPD2     N 7884   1.076   0.132   0.900  0.0571 -0.3435  0.2806
  527MPD2    H5 7885   1.083   0.050   0.841  1.3748  1.1424 -1.6305
  527MPD2    N1 7886   0.673   4.666   0.947  0.2919 -0.2587 -0.1197
  527MPD2    H7 7887   0.693   4.627   0.856  1.2605 -0.0618  0.0097
  528TMC3    C1 7888   0.528   4.492   0.930  0.1308  0.2646 -0.0898
  528TMC3    C2 7889   0.540   4.492   0.796 -0.6314 -0.4056 -0.5287
  528TMC3    C3 7890   0.497   4.383   0.723 -0.9005 -0.1877 -0.8135
  528TMC3    C4 7891   0.472   4.379   0.994 -0.5637 -0.2435  0.3340
  528TMC3    C5 7892   0.446   4.270   0.915 -0.1236  0.1135  0.4643
  528TMC3    C6 7893   0.451   4.272   0.779 -0.2989  0.5861 -0.6600
  528TMC3     C 7894   0.564   4.615   1.003  0.4395 -0.1367 -0.4818
  528TMC3     O 7895   0.507   4.648   1.111  0.5769 -0.4142 -0.0511
  528TMC3     H 7896   0.550   4.589   0.748  1.7912 -0.6381 -0.4904
  528TMC3    H1 7897   0.479   4.379   1.102  0.3268  1.1040  0.2803
  528TMC3    H2 7898   0.434   4.179   0.726  2.7608 -0.5034  0.2473
  528TMC3    C7 7899   0.402   4.143   0.974  0.6055  0.6530  0.4193
  528TMC3    C8 7900   0.534   4.392   0.585 -0.3562  0.2862  0.0763
  528TMC3    O1 7901   0.421   4.042   0.912  0.1909 -0.8272  0.1867
  528TMC3    O2 7902   0.610   4.487   0.563 -0.1501  0.1027 -0.4672
  529MPD2     C 7903   3.905   2.862   0.423 -0.4503 -0.1395 -1.0818
  529MPD2    C1 7904   3.770   2.868   0.437  0.3319 -0.4916  0.3215
  529MPD2    C2 7905   3.691   2.919   0.337 -0.1969  0.1375 -0.1024
  529MPD2    C3 7906   3.742   2.946   0.214 -0.2820 -0.0730 -0.5831
  529MPD2    C4 7907   3.880   2.924   0.198  1.1006 -0.3381 -0.3692
  529MPD2    C5 7908   3.961   2.894   0.307 -0.8676  0.1989  0.0885
  529MPD2     H 7909   3.585   2.931   0.356 -0.4144 -1.7409 -0.1281
  529MPD2    H1 7910   3.937   2.958   0.113  0.5403 -0.7375 -0.9055
  529MPD2    H2 7911   3.980   2.842   0.499 -2.0191 -0.6431  0.3240
  529MPD2    H3 7912   4.067   2.901   0.286 -0.4375 -2.0436  1.5957
  529MPD2     N 7913   3.670   3.010   0.105  0.1801 -0.0226 -0.0599
  529MPD2    H5 7914   3.728   3.020   0.022 -0.7894 -2.2781 -1.0134
  529MPD2    N1 7915   3.711   2.855   0.567  0.4532 -0.0325  0.1605
  529MPD2    H7 7916   3.612   2.874   0.568 -0.0256 -2.7715  1.5801
  530TMC3    C1 7917   3.693   2.814   0.802 -0.2506  0.4057  0.9053
  530TMC3    C2 7918   3.744   2.753   0.913  0.0991 -0.1281 -0.2013
  530TMC3    C3 7919   3.661   2.742   1.026  0.4688  0.1922 -0.4666
  530TMC3    C4 7920   3.567   2.875   0.795 -0.3543 -0.3131  0.0558
  530TMC3    C5 7921   3.496   2.862   0.913  0.8032  0.3270  0.3384
  530TMC3    C6 7922   3.540   2.791   1.026  0.0075 -0.3092 -0.1882
  530TMC3     C 7923   3.769   2.806   0.679  0.5504  0.7158 -0.4522
  530TMC3     O 7924   3.884   2.772   0.695 -0.3589  0.0750 -0.2435
  530TMC3     H 7925   3.842   2.711   0.896 -0.1732 -1.1191  0.6549
  530TMC3    H1 7926   3.525   2.942   0.721 -2.2509 -0.1963  1.2280
  530TMC3    H2 7927   3.462   2.770   1.099 -1.0278  0.6207 -1.0205
  530TMC3    C7 7928   3.410   2.980   0.939 -1.3066  0.1022  0.3696
  530TMC3    C8 7929   3.711   2.697   1.154  0.2627  0.0567 -0.7548
  530TMC3    O1 7930   3.455   3.085   0.911  0.6010  0.4449 -0.3925
  530TMC3    O2 7931   3.658   2.742   1.256  0.0413 -0.6965  0.1888
  531MPD2     C 7932   2.508   1.408  12.575 -0.3071  0.4676 -0.8224
  531MPD2    C1 7933   2.402   1.397  12.658 -0.0150  0.8493  0.0015
  531MPD2    C2 7934   2.334   1.275  12.669 -0.0939  0.0785 -0.2459
  531MPD2    C3 7935   2.372   1.167  12.589 -0.2927 -0.4012 -0.3384
  531MPD2    C4 7936   2.476   1.179  12.500 -0.1128 -0.3795  0.5228
  531MPD2    C5 7937   2.549   1.293  12.505 -0.0652 -0.1654 -0.0387
  531MPD2     H 7938   2.245   1.270  12.730 -0.6243  2.2066 -0.8622
  531MPD2    H1 7939   2.489   1.095  12.432 -2.4991 -1.2603  1.1331
  531MPD2    H2 7940   2.563   1.502  12.574  0.2957  0.1621  1.7262
  531MPD2    H3 7941   2.630   1.315  12.437 -0.1876  0.4809  0.0215
  531MPD2     N 7942   2.306   1.038  12.593  0.7489 -0.2790  0.5542
  531MPD2    H5 7943   2.342   0.977  12.521  1.4348 -1.3854  1.8368
  531MPD2    N1 7944   2.391   1.502  12.749  0.7105  0.1309  0.1959
  531MPD2    H7 7945   2.471   1.562  12.763  1.1712 -0.6149  0.7612
  532TMC3    C1 7946   2.317   1.570  12.957  0.1211 -0.4034 -0.5125
  532TMC3    C2 7947   2.211   1.596  13.042  0.1811 -0.4605  0.4728
  532TMC3    C3 7948   2.229   1.567  13.173  0.3196 -0.2110 -0.4413
  532TMC3    C4 7949   2.438   1.544  13.013 -0.4208 -0.2893 -0.2761
  532TMC3    C5 7950   2.458   1.525  13.146 -0.1614  0.3547 -0.4526
  532TMC3    C6 7951   2.350   1.527  13.234 -0.2881 -0.5576  0.5335
  532TMC3     C 7952   2.283   1.511  12.833 -0.2200  0.3559 -0.3736
  532TMC3     O 7953   2.171   1.462  12.822  0.7800  0.4891  0.8433
  532TMC3     H 7954   2.116   1.639  13.013  0.1727 -0.4133  0.5714
  532TMC3    H1 7955   2.524   1.539  12.947 -0.7779 -2.7077 -0.5365
  532TMC3    H2 7956   2.356   1.481  13.333  1.8330 -0.2134  0.5639
  532TMC3    C7 7957   2.563   1.425  13.185  0.1235  0.5209  0.2797
  532TMC3    C8 7958   2.113   1.492  13.225  0.4848  0.6132 -0.3368
  532TMC3    O1 7959   2.596   1.426  13.302 -0.0167  0.0538 -0.3013
  532TMC3    O2 7960   2.114   1.464  13.347  0.2937  0.4894 -0.5597
  533TMC3    C1 7961   3.246   2.652  14.168  0.0988  0.6043 -0.0306
  533TMC3    C2 7962   3.352   2.735  14.142 -0.0259  0.1461  0.0609
  533TMC3    C3 7963   3.356   2.852  14.214  0.6314 -0.6580 -0.1946
  533TMC3    C4 7964   3.140   2.689  14.246  0.4426 -0.2453  0.1346
  533TMC3    C5 7965   3.149   2.807  14.312  0.0412 -0.1216  0.4695
  533TMC3    C6 7966   3.257   2.891  14.303  0.5049 -0.0794 -0.3365
  533TMC3     C 7967   3.250   2.517  14.114 -0.2255  0.5707 -0.0855
  533TMC3     O 7968   3.342   2.500  14.037 -0.5765 -0.2717 -0.0128
  533TMC3     H 7969   3.433   2.718  14.072  0.9643 -0.6394  1.4044
  533TMC3    H1 7970   3.056   2.622  14.261 -0.0352  0.9575  2.8459
  533TMC3    H2 7971   3.276   2.975  14.369 -1.1337 -0.3122  0.4312
  533TMC3    C7 7972   3.065   2.824  14.423  0.1801 -0.3884 -0.2396
  533TMC3    C8 7973   3.459   2.947  14.199 -1.0374 -0.1027 -0.3148
  533TMC3    O1 7974   2.970   2.748  14.411  0.2339  0.0861  0.1423
  533TMC3    O2 7975   3.438   3.064  14.220 -0.0773 -0.2402  0.1954
  534MPD2     C 7976   1.310   2.771   0.717  0.3405  0.7229  0.0534
  534MPD2    C1 7977   1.230   2.857   0.788  0.1792  0.4256 -0.5280
  534MPD2    C2 7978   1.094   2.842   0.787  0.3415  0.3798  0.1280
  534MPD2    C3 7979   1.037   2.733   0.731 -0.2787  0.1009 -0.3356
  534MPD2    C4 7980   1.111   2.638   0.667  0.2213 -0.6038 -0.8914
  534MPD2    C5 7981   1.251   2.656   0.660  0.1277 -0.3787  0.3556
  534MPD2     H 7982   1.039   2.924   0.833 -2.0082 -0.2629 -1.5665
  534MPD2    H1 7983   1.063   2.548   0.630 -1.3807  0.0111 -0.2718
  534MPD2    H2 7984   1.418   2.772   0.708  0.2909 -0.9629 -0.8319
  534MPD2    H3 7985   1.307   2.578   0.610  0.6563 -1.0508  2.0074
  534MPD2     N 7986   0.895   2.717   0.729 -0.3269  0.3299  0.3831
  534MPD2    H5 7987   0.853   2.647   0.668  0.0621 -0.0568  0.5572
  534MPD2    N1 7988   1.278   2.983   0.834 -0.4098 -0.3482 -0.7899
  534MPD2    H7 7989   1.205   3.037   0.881 -0.7186  0.1560 -1.8604
  535TMC3    C1 7990   0.670   2.785   0.754 -0.0630  0.6553 -0.0246
  535TMC3    C2 7991   0.577   2.820   0.846 -1.1476  0.1779  0.1267
  535TMC3    C3 7992   0.462   2.876   0.799 -0.4080  0.3488 -0.8917
  535TMC3    C4 7993   0.654   2.800   0.619 -0.3972 -0.0938  1.1124
  535TMC3    C5 7994   0.542   2.870   0.580 -0.2653  0.2298 -0.5945
  535TMC3    C6 7995   0.444   2.907   0.664 -0.7436 -0.7067  0.2270
  535TMC3     C 7996   0.807   2.788   0.807  0.2776 -0.0701 -0.2035
  535TMC3     O 7997   0.833   2.844   0.908  0.1803  0.0245  0.1914
  535TMC3     H 7998   0.595   2.817   0.953 -0.2349 -2.1688 -0.0904
  535TMC3    H1 7999   0.713   2.763   0.537 -0.2907  1.7634  0.3596
  535TMC3    H2 8000   0.354   2.954   0.626  0.2882  0.8327 -0.2940
  535TMC3    C7 8001   0.530   2.911   0.439 -0.2280 -0.1789  0.1594
  535TMC3    C8 8002   0.355   2.907   0.895 -0.0313  0.5441 -0.5464
  535TMC3    O1 8003   0.590   2.848   0.355 -0.3825  0.5950  0.5759
  535TMC3    O2 8004   0.236   2.883   0.865  0.2267 -0.1090  0.0153
  536MPD2     C 8005   4.456   1.579  15.753 -0.5413  0.5115 -0.2983
  536MPD2    C1 8006   4.326   1.551  15.787  0.0363 -0.6005 -0.2322
  536MPD2    C2 8007   4.224   1.608  15.711 -0.0929 -0.2744  0.3536
  536MPD2    C3 8008   4.252   1.679  15.595 -0.1258 -0.3008  0.0773
  536MPD2    C4 8009   4.385   1.696  15.564 -1.2062  0.2895  0.6635
  536MPD2    C5 8010   4.483   1.640  15.635  0.0262 -0.5575  0.1017
  536MPD2     H 8011   4.125   1.617  15.755 -0.2854  0.8645 -0.3118
  536MPD2    H1 8012   4.412   1.744  15.470 -1.1351  0.8331  0.9597
  536MPD2    H2 8013   4.546   1.541  15.801 -1.1391 -0.7581 -0.1857
  536MPD2    H3 8014   4.584   1.654  15.597 -0.5408  0.5389 -1.0173
  536MPD2     N 8015   4.156   1.757  15.531  0.6465 -0.1902  0.5148
  536MPD2    H5 8016   4.195   1.816  15.458  1.6408 -2.2340 -0.5807
  536MPD2    N1 8017   4.301   1.488  15.908 -0.4644  0.0653  0.1534
  536MPD2    H7 8018   4.380   1.449  15.959  0.4867  2.4524  0.5233
  537TMC3    C1 8019   4.177   1.405  16.094  0.1289  0.3868  0.2150
  537TMC3    C2 8020   4.183   1.500  16.191 -0.2651  0.1415 -0.4570
  537TMC3    C3 8021   4.132   1.466  16.313  0.1055  0.2575  0.3041
  537TMC3    C4 8022   4.123   1.283  16.112 -0.5252  0.3303  0.1346
  537TMC3    C5 8023   4.065   1.248  16.232 -0.1698 -0.5500  0.4732
  537TMC3    C6 8024   4.068   1.341  16.331  0.0512 -0.2589  0.4763
  537TMC3     C 8025   4.175   1.461  15.962 -0.3097 -0.4601  0.0073
  537TMC3     O 8026   4.061   1.477  15.915 -1.0434 -0.2064 -0.2350
  537TMC3     H 8027   4.225   1.595  16.161 -0.3761 -0.3548 -2.1690
  537TMC3    H1 8028   4.113   1.211  16.032 -2.6911 -0.6374  1.2530
  537TMC3    H2 8029   4.038   1.316  16.432 -0.0665  1.2723  0.8162
  537TMC3    C7 8030   4.022   1.115  16.250 -0.6366 -0.3550  0.3282
  537TMC3    C8 8031   4.131   1.558  16.424  0.6059  0.1536  0.0859
  537TMC3    O1 8032   3.978   1.058  16.147 -0.1693  0.2721 -0.1710
  537TMC3    O2 8033   4.110   1.515  16.538  0.1320  0.0519 -0.5680
  538TMC3    C1 8034   0.764   0.736  10.746 -0.3704 -0.2530 -0.1210
  538TMC3    C2 8035   0.857   0.766  10.648  0.3503  0.0262 -0.2414
  538TMC3    C3 8036   0.825   0.833  10.536  0.0918 -0.0837  0.0201
  538TMC3    C4 8037   0.635   0.764  10.727 -0.0340  0.4052 -0.0644
  538TMC3    C5 8038   0.608   0.843  10.618  0.0530 -0.6325 -0.7105
  538TMC3    C6 8039   0.694   0.874  10.523 -0.3106  0.5149 -0.3124
  538TMC3     C 8040   0.786   0.642  10.856 -0.3219 -0.5496 -0.2123
  538TMC3     O 8041   0.695   0.618  10.937  0.3751  0.2890  0.2078
  538TMC3     H 8042   0.960   0.734  10.648  1.2261  2.8552  1.3851
  538TMC3    H1 8043   0.564   0.747  10.808  3.5395 -0.5952  2.8493
  538TMC3    H2 8044   0.647   0.903  10.430 -0.2819  3.7008  0.6723
  538TMC3    C7 8045   0.464   0.835  10.583  0.0954  0.8438  0.6602
  538TMC3    C8 8046   0.880   0.791  10.414  0.0763 -0.0852 -0.7242
  538TMC3    O1 8047   0.405   0.738  10.629  0.1803  0.8276 -0.0082
  538TMC3    O2 8048   0.960   0.696  10.423 -0.0442 -0.1547 -0.0212
  539MPD2     C 8049   0.728   0.192  11.373  0.1239 -0.3193 -0.3162
  539MPD2    C1 8050   0.667   0.104  11.284 -0.6316 -0.2859 -0.7580
  539MPD2    C2 8051   0.581   0.159  11.191  0.5286 -0.3377 -0.2649
  539MPD2    C3 8052   0.552   0.293  11.197  0.7481  0.9271 -0.1626
  539MPD2    C4 8053   0.606   0.373  11.290  0.1239 -0.6380  0.2366
  539MPD2    C5 8054   0.697   0.323  11.375  0.0931 -0.5350  0.3781
  539MPD2     H 8055   0.551   0.089  11.115  0.6697 -0.3700 -0.2914
  539MPD2    H1 8056   0.576   0.477  11.296  1.3007 -0.1650 -2.3878
  539MPD2    H2 8057   0.804   0.155  11.440 -1.4606 -1.4290  0.8767
  539MPD2    H3 8058   0.741   0.391  11.448  2.6449  0.0273 -1.6617
  539MPD2     N 8059   0.481   0.369  11.098 -0.5042 -0.1332  0.3100
  539MPD2    H5 8060   0.473   0.470  11.104 -1.8355 -0.0570 -2.3016
  539MPD2    N1 8061   0.701   4.699  11.271 -0.4814 -0.3724  0.4964
  539MPD2    H7 8062   0.697   4.659  11.178  0.6519  0.9181 -0.1134
  540TMC3    C1 8063   0.348   0.423  10.910  0.5888  0.5202 -0.7462
  540TMC3    C2 8064   0.319   0.406  10.777 -0.6969  0.7640 -0.2839
  540TMC3    C3 8065   0.244   0.499  10.716  0.1446  0.2838 -0.7347
  540TMC3    C4 8066   0.290   0.521  10.984 -0.1014 -0.0148 -0.5197
  540TMC3    C5 8067   0.207   0.608  10.919  0.0118  0.5636  0.1827
  540TMC3    C6 8068   0.174   0.590  10.790  0.2266  0.2227 -0.2679
  540TMC3     C 8069   0.429   0.324  10.977  0.3746 -0.5761  0.1294
  540TMC3     O 8070   0.434   0.213  10.924  0.5917 -0.2647  0.0486
  540TMC3     H 8071   0.363   0.321  10.726 -1.8632  0.2288 -0.4063
  540TMC3    H1 8072   0.309   0.542  11.088 -0.9124 -2.2810  0.0730
  540TMC3    H2 8073   0.096   0.651  10.746  0.0847  0.2225 -0.0133
  540TMC3    C7 8074   0.099   0.639  11.011 -0.5958  0.0373  0.6414
  540TMC3    C8 8075   0.184   0.465  10.585  0.7707 -0.4686 -0.4326
  540TMC3    O1 8076   0.138   0.695  11.112  0.2001  0.4016 -0.0926
  540TMC3    O2 8077   0.125   0.548  10.516 -0.9022  0.5649 -0.4166
  541MPD2     C 8078   3.653   1.146  13.158  0.5005 -0.5172  0.1811
  541MPD2    C1 8079   3.590   1.058  13.075 -0.2299 -0.9374 -0.1485
  541MPD2    C2 8080   3.586   1.098  12.945  0.0153  0.4047  0.2211
  541MPD2    C3 8081   3.641   1.226  12.905  0.0320 -0.8861 -0.0747
  541MPD2    C4 8082   3.715   1.301  12.993  0.0905  0.4092  0.3485
  541MPD2    C5 8083   3.720   1.256  13.121 -0.7312  0.3518  0.0477
  541MPD2     H 8084   3.536   1.036  12.871 -0.2934  1.9012 -0.8107
  541MPD2    H1 8085   3.779   1.380  12.957  1.7049 -1.5523 -1.1083
  541MPD2    H2 8086   3.658   1.127  13.265  0.3076  0.1475  0.3061
  541MPD2    H3 8087   3.777   1.313  13.194  1.9984 -0.8741 -1.1618
  541MPD2     N 8088   3.646   1.276  12.770  0.2478  0.7569 -0.3446
  541MPD2    H5 8089   3.678   1.372  12.757 -0.6295  0.9736 -0.8961
  541MPD2    N1 8090   3.529   0.941  13.117  1.1974 -0.5077 -0.1059
  541MPD2    H7 8091   3.472   0.897  13.045 -1.1546 -0.4118  1.6745
  542TMC3    C1 8092   3.609   1.274  12.539 -0.1888 -0.1565  0.4038
  542TMC3    C2 8093   3.632   1.197  12.426 -0.2321  0.1046 -0.2154
  542TMC3    C3 8094   3.643   1.257  12.307 -0.3721 -0.0927  0.1958
  542TMC3    C4 8095   3.574   1.407  12.522  0.7618 -0.1455  0.3425
  542TMC3    C5 8096   3.579   1.467  12.395  0.4975  0.1083 -0.0631
  542TMC3    C6 8097   3.624   1.393  12.289  0.5431 -0.1906 -0.6153
  542TMC3     C 8098   3.594   1.205  12.662 -0.4963  0.1024 -0.5370
  542TMC3     O 8099   3.547   1.091  12.652  0.0515 -0.2304  0.0078
  542TMC3     H 8100   3.673   1.099  12.445  0.7869  0.6031  0.1267
  542TMC3    H1 8101   3.544   1.475  12.600  1.6927  0.8883 -0.1834
  542TMC3    H2 8102   3.633   1.434  12.189 -0.9931  0.4258 -0.5084
  542TMC3    C7 8103   3.537   1.607  12.383  0.4109  0.7794 -0.1348
  542TMC3    C8 8104   3.646   1.169  12.184  0.6818  0.4237  0.6613
  542TMC3    O1 8105   3.546   1.678  12.483 -0.2333  0.2242 -0.1477
  542TMC3    O2 8106   3.641   1.225  12.077  0.4770  0.0079 -0.4059
  543TMC3    C1 8107   3.035   2.523  17.084 -0.1097  0.0855  0.6873
  543TMC3    C2 8108   3.042   2.407  17.142  1.0499 -0.0595  0.4336
  543TMC3    C3 8109   2.990   2.395  17.264  0.9133  0.4233  0.2276
  543TMC3    C4 8110   2.968   2.635  17.131  0.3956  0.9579 -0.0102
  543TMC3    C5 8111   2.914   2.616  17.258 -0.3895  0.7919  0.2331
  543TMC3    C6 8112   2.922   2.495  17.321  0.2569  0.7572  0.2145
  543TMC3     C 8113   3.060   2.513  16.942 -0.1562  0.4593  0.5888
  543TMC3     O 8114   3.129   2.420  16.907 -0.0854 -0.2376 -0.0565
  543TMC3     H 8115   3.101   2.323  17.106  0.4644  0.1536 -1.0249
  543TMC3    H1 8116   2.996   2.732  17.090  2.2511  0.2672 -0.4046
  543TMC3    H2 8117   2.866   2.476  17.413  0.0129  0.9586  0.1083
  543TMC3    C7 8118   2.834   2.718  17.321 -0.1505 -0.0289  0.6193
  543TMC3    C8 8119   3.004   2.266  17.331  0.1374 -0.3084 -0.5628
  543TMC3    O1 8120   2.784   2.684  17.427 -0.1460 -0.2912  0.9158
  543TMC3    O2 8121   3.058   2.175  17.271  0.1750 -0.0645 -0.6939
  544MPD2     C 8122   3.134   2.005   0.022 -0.5291 -0.1109 -0.5254
  544MPD2    C1 8123   3.151   1.964  17.627  0.4988  0.0149  0.1365
  544MPD2    C2 8124   3.113   2.057  17.522 -1.4134  0.3022 -0.2286
  544MPD2    C3 8125   3.057   2.179  17.557 -0.3267  0.0397  0.4085
  544MPD2    C4 8126   3.037   2.208  17.688  0.6921 -0.0308 -0.4632
  544MPD2    C5 8127   3.070   2.120   0.051 -0.1743  0.2596  0.0293
  544MPD2     H 8128   3.126   2.034  17.417  0.5472 -0.3232  0.1462
  544MPD2    H1 8129   2.990   2.302  17.717 -1.7147 -0.6078 -2.4387
  544MPD2    H2 8130   3.140   1.940   0.109  0.0850 -1.3771 -1.5226
  544MPD2    H3 8131   3.055   2.149   0.154  2.0540 -0.9128  0.6617
  544MPD2     N 8132   2.993   2.275  17.468  0.2913  0.2603 -0.3765
  544MPD2    H5 8133   2.955   2.360  17.509  0.8225  0.0115  0.6293
  544MPD2    N1 8134   3.212   1.837  17.604  0.5859  0.0250  0.5159
  544MPD2    H7 8135   3.222   1.785  17.690 -1.4785 -2.1130 -0.5505
  545TMC3    C1 8136   3.328   1.662  17.498  0.7240 -0.0474 -0.6533
  545TMC3    C2 8137   3.394   1.621  17.613  0.3697 -0.1467  0.3237
  545TMC3    C3 8138   3.430   1.488  17.625  1.1612 -0.2510  0.0467
  545TMC3    C4 8139   3.338   1.574  17.389 -0.3827 -0.4566  0.1881
  545TMC3    C5 8140   3.390   1.450  17.397  0.4347 -0.5874 -0.4041
  545TMC3    C6 8141   3.433   1.401  17.517 -0.3722 -0.3152  0.3745
  545TMC3     C 8142   3.255   1.789  17.485  0.0611 -0.2784 -0.0141
  545TMC3     O 8143   3.215   1.823  17.375 -0.2182  0.2950 -0.2576
  545TMC3     H 8144   3.406   1.683  17.701  0.3384  0.2270  0.0649
  545TMC3    H1 8145   3.290   1.597  17.295  0.4450 -0.5607 -0.2590
  545TMC3    H2 8146   3.451   1.298  17.548  0.0705 -0.2655  0.2912
  545TMC3    C7 8147   3.410   1.376  17.274 -0.6606  0.0941  0.5555
  545TMC3    C8 8148   3.473   1.429   0.013 -0.0101  0.2174  0.1097
  545TMC3    O1 8149   3.399   1.429  17.162  0.2866  0.3938  0.3161
  545TMC3    O2 8150   3.534   1.325   0.009 -1.1164 -0.0031  0.4402
  546MPD2     C 8151   4.323   2.088  17.477 -0.4884 -0.6109  0.0041
  546MPD2    C1 8152   4.263   2.145  17.369  0.1865 -0.6921  0.1657
  546MPD2    C2 8153   4.301   2.274  17.330  0.2961 -0.0562  0.1273
  546MPD2    C3 8154   4.387   2.347  17.416  0.2073  0.3835  0.1299
  546MPD2    C4 8155   4.444   2.287  17.528 -0.2563  0.1055  1.2223
  546MPD2    C5 8156   4.413   2.152  17.551 -0.2652 -0.5267 -0.0437
  546MPD2     H 8157   4.270   2.319  17.236 -1.1260  2.0413  1.5942
  546MPD2    H1 8158   4.510   2.339  17.596  0.0543  1.6266 -0.2527
  546MPD2    H2 8159   4.307   1.986  17.511 -2.8576 -0.1930  0.1318
  546MPD2    H3 8160   4.456   2.112  17.642  0.0447 -0.7168 -0.2749
  546MPD2     N 8161   4.412   2.490  17.403  0.2129  0.8484 -0.3722
  546MPD2    H5 8162   4.461   2.539  17.477 -0.4625 -1.4208  1.5503
  546MPD2    N1 8163   4.177   2.069  17.286 -0.4811 -0.5979 -0.1015
  546MPD2    H7 8164   4.165   1.974  17.318 -0.2866 -1.0232 -1.2980
  547TMC3    C1 8165   4.055   1.992  17.101  0.2461  0.3616  0.3863
  547TMC3    C2 8166   4.010   2.008  16.975  0.0864  0.2131  0.5138
  547TMC3    C3 8167   3.937   1.903  16.926 -0.4506 -0.2353 -0.2345
  547TMC3    C4 8168   4.064   1.873  17.163 -0.3901 -0.6130  0.4311
  547TMC3    C5 8169   4.007   1.764  17.106  0.1452  0.1701 -0.1339
  547TMC3    C6 8170   3.939   1.782  16.992  0.3735  0.5220  0.4090
  547TMC3     C 8171   4.118   2.107  17.172 -0.5034 -0.1972 -0.2000
  547TMC3     O 8172   4.119   2.217  17.118 -0.0706  0.7269  0.8699
  547TMC3     H 8173   4.009   2.103  16.923 -0.5114  0.1579  0.4346
  547TMC3    H1 8174   4.121   1.840  17.249 -0.0002  0.8906  0.7408
  547TMC3    H2 8175   3.877   1.703  16.952  2.0212 -1.0717  1.0103
  547TMC3    C7 8176   3.999   1.636  17.177  0.5018 -0.0076 -0.0263
  547TMC3    C8 8177   3.860   1.926  16.808 -0.0962 -0.2507  0.4057
  547TMC3    O1 8178   4.045   1.637  17.289 -0.4350 -0.2599 -0.6722
  547TMC3    O2 8179   3.823   2.043  16.793 -0.1492 -0.2458  0.3937
  548MPD2     C 8180   4.582   2.645  12.690  0.6629 -0.2364 -0.0397
  548MPD2    C1 8181   4.510   2.584  12.593 -0.0715  0.1183 -0.1874
  548MPD2    C2 8182   4.573   2.514  12.490 -0.0938 -0.0526  0.2462
  548MPD2    C3 8183   4.711   2.495  12.498 -0.1966 -0.3421  0.9818
  548MPD2    C4 8184   0.041   2.546  12.609  1.3081 -0.1544 -1.0971
  548MPD2    C5 8185   4.713   2.624  12.699  0.4444 -0.1038 -0.1785
  548MPD2     H 8186   4.519   2.479  12.403  1.1450 -0.0245 -0.5450
  548MPD2    H1 8187   0.145   2.519  12.622  0.5980 -1.7868  1.1264
  548MPD2    H2 8188   4.535   2.721  12.752  1.4870  0.7164 -0.5822
  548MPD2    H3 8189   0.022   2.664  12.790  0.8406 -1.9821  0.4726
  548MPD2     N 8190   0.043   2.409  12.406  0.1518  0.1628  0.2821
  548MPD2    H5 8191   4.712   2.366  12.343  0.7091  0.1915 -0.3141
  548MPD2    N1 8192   4.366   2.588  12.602  0.3260  0.2716  1.1198
  548MPD2    H7 8193   4.323   2.646  12.673  2.5696  1.3375  1.6388
  549TMC3    C1 8194   4.147   2.561  12.538 -0.0045  0.1013  0.6337
  549TMC3    C2 8195   4.132   2.699  12.519 -0.2270 -0.6238  0.2106
  549TMC3    C3 8196   3.999   2.744  12.506 -0.6654  0.3216  0.4482
  549TMC3    C4 8197   4.042   2.475  12.518 -0.5398 -0.5246  0.1799
  549TMC3    C5 8198   3.921   2.527  12.504  0.4609  0.2366 -0.0110
  549TMC3    C6 8199   3.895   2.663  12.512  0.2928 -0.0537 -0.0843
  549TMC3     C 8200   4.281   2.508  12.525  0.1893 -0.2065 -0.9920
  549TMC3     O 8201   4.298   2.426  12.432 -0.2164 -0.7119  0.0627
  549TMC3     H 8202   4.219   2.763  12.528  0.8780 -2.3536  1.7461
  549TMC3    H1 8203   4.062   2.369  12.529 -0.0579 -0.4878 -0.3463
  549TMC3    H2 8204   3.795   2.701  12.523  1.1285  2.3282 -0.8176
  549TMC3    C7 8205   3.798   2.439  12.496  0.1729  0.5055  0.1134
  549TMC3    C8 8206   3.971   2.882  12.451  0.0599 -0.7473 -0.3748
  549TMC3    O1 8207   3.685   2.487  12.504 -0.3339  0.5103  0.2911
  549TMC3    O2 8208   3.853   2.913  12.457 -0.0383 -0.0726  0.2210
  550TMC3    C1 8209   2.832   1.723  12.442 -0.0555  0.1282  0.5730
  550TMC3    C2 8210   2.716   1.755  12.520 -0.2695  0.8106 -0.2253
  550TMC3    C3 8211   2.594   1.711  12.476 -0.2608 -0.5773 -0.6635
  550TMC3    C4 8212   2.821   1.670  12.315  0.2857 -0.2595 -0.2825
  550TMC3    C5 8213   2.692   1.646  12.266 -0.1767 -0.8080 -0.4596
  550TMC3    C6 8214   2.576   1.668  12.341  0.7935  0.0475 -0.1275
  550TMC3     C 8215   2.955   1.722  12.521 -0.0395 -0.1672  0.4571
  550TMC3     O 8216   2.967   1.796  12.620 -0.0342 -0.5589 -0.2893
  550TMC3     H 8217   2.725   1.802  12.617 -1.8339  2.0753 -0.6910
  550TMC3    H1 8218   2.909   1.646  12.257  1.9793 -0.6956  2.4685
  550TMC3    H2 8219   2.478   1.634  12.311  1.3415 -2.1040  0.4727
  550TMC3    C7 8220   2.674   1.557  12.146  0.5383 -0.4135 -0.5036
  550TMC3    C8 8221   2.481   1.750  12.558 -0.0921  0.1476 -0.7968
  550TMC3    O1 8222   2.560   1.505  12.127 -0.2875  0.7733 -0.0206
  550TMC3    O2 8223   2.508   1.784  12.669 -0.3428  0.6596 -0.4455
  551TMC3    C1 8224   0.464   4.000  13.416 -0.3448 -0.4762  0.1819
  551TMC3    C2 8225   0.539   4.118  13.387  0.9338  0.2694  0.4409
  551TMC3    C3 8226   0.607   4.178  13.485  0.4025  0.2167  0.1538
  551TMC3    C4 8227   0.463   3.945  13.540  0.3829  0.0119  0.0993
  551TMC3    C5 8228   0.526   4.017  13.639 -0.4762 -0.3859  0.0559
  551TMC3    C6 8229   0.604   4.123  13.615 -0.2542  0.9765 -0.4100
  551TMC3     C 8230   0.372   3.948  13.317  0.4022 -0.2240  0.5624
  551TMC3     O 8231   0.324   3.834  13.327 -0.0697 -0.0149  0.0728
  551TMC3     H 8232   0.556   4.152  13.286  1.2601  0.4888  0.5721
  551TMC3    H1 8233   0.417   3.851  13.568  0.8164 -0.0529  0.5930
  551TMC3    H2 8234   0.649   4.172  13.701  1.5773 -1.1925 -0.1416
  551TMC3    C7 8235   0.591   3.927  13.734 -0.6861  0.1112  0.4753
  551TMC3    C8 8236   0.746   4.219  13.468  0.4422 -0.5010 -0.2808
  551TMC3    O1 8237   0.530   3.849  13.804  0.7380  0.3199  0.5712
  551TMC3    O2 8238   0.827   4.181  13.550 -1.1480 -0.2837 -0.2817
  552MPD2     C 8239   2.603   1.162  13.602 -0.0383  0.2913  0.3872
  552MPD2    C1 8240   2.563   1.058  13.676  0.1024  0.1257 -0.7054
  552MPD2    C2 8241   2.650   0.958  13.714  0.5336  0.0987 -0.2981
  552MPD2    C3 8242   2.782   0.957  13.670 -0.0146  0.4233 -0.0546
  552MPD2    C4 8243   2.818   1.053  13.580 -0.0455  0.1718 -0.4232
  552MPD2    C5 8244   2.729   1.155  13.549 -0.2052 -0.4471 -0.4960
  552MPD2     H 8245   2.621   0.891  13.795  1.1387  1.1174  0.7545
  552MPD2    H1 8246   2.920   1.067  13.546 -0.0474 -0.5209 -0.7054
  552MPD2    H2 8247   2.535   1.241  13.573 -0.3093  0.1336  0.5904
  552MPD2    H3 8248   2.762   1.234  13.483 -0.9813 -1.8840 -2.6119
  552MPD2     N 8249   2.882   0.873  13.710 -0.3543 -0.4096 -0.5172
  552MPD2    H5 8250   2.975   0.872  13.669 -0.4142 -1.2468 -0.6449
  552MPD2    N1 8251   2.424   1.054  13.711 -0.0134 -0.3642 -0.3729
  552MPD2    H7 8252   2.365   1.124  13.667 -0.2024 -0.4309 -0.2233
  553TMC3    C1 8253   2.219   0.987  13.792  0.0043  0.0837 -0.8709
  553TMC3    C2 8254   2.164   1.029  13.678 -0.4143  0.1029  0.5023
  553TMC3    C3 8255   2.041   0.988  13.645 -0.0346  0.0032  0.2483
  553TMC3    C4 8256   2.146   0.901  13.872 -0.4566 -0.0453 -0.0463
  553TMC3    C5 8257   2.027   0.862  13.827 -0.7109  0.2591 -0.4924
  553TMC3    C6 8258   1.964   0.905  13.719 -0.1190  0.5705  0.0815
  553TMC3     C 8259   2.365   0.962  13.789 -0.2015  0.4366  0.1697
  553TMC3     O 8260   2.413   0.879  13.863  0.0264  0.0389  0.0828
  553TMC3     H 8261   2.207   1.110  13.620  2.0176 -0.6593  1.2350
  553TMC3    H1 8262   2.174   0.855  13.966 -1.6641  0.5160  0.5811
  553TMC3    H2 8263   1.860   0.879  13.700  0.7360 -1.1537 -2.2039
  553TMC3    C7 8264   1.981   0.735  13.872  0.3860  0.3210  0.0481
  553TMC3    C8 8265   2.050   0.944  13.505 -0.2450  0.5903 -0.2011
  553TMC3    O1 8266   1.860   0.725  13.884 -0.8789 -0.0774 -0.0981
  553TMC3    O2 8267   2.161   0.950  13.450 -0.0425 -0.0076  0.4219
  554TMC3    C1 8268   4.050   4.322  10.911 -0.1976  0.3653 -0.6471
  554TMC3    C2 8269   3.965   4.293  10.801  0.2807 -0.1749 -0.0599
  554TMC3    C3 8270   4.007   4.341  10.678  0.3244 -0.4266 -0.4707
  554TMC3    C4 8271   4.168   4.390  10.904 -1.5141  0.0773 -0.3746
  554TMC3    C5 8272   4.211   4.424  10.776  0.0869  0.5693  0.8101
  554TMC3    C6 8273   4.132   4.400  10.666  0.3294  0.1561  0.1019
  554TMC3     C 8274   4.008   4.262  11.032  0.1544  0.6235 -0.2768
  554TMC3     O 8275   3.908   4.197  11.018  0.3194  0.0555 -0.3484
  554TMC3     H 8276   3.865   4.255  10.818  0.6319 -0.1102  2.1700
  554TMC3    H1 8277   4.237   4.392  10.987 -1.2779 -2.4550 -0.5031
  554TMC3    H2 8278   4.162   4.442  10.571 -1.2416  0.3351 -0.3154
  554TMC3    C7 8279   4.338   4.497  10.749  0.0057  0.1218 -0.4837
  554TMC3    C8 8280   3.911   4.372  10.571  0.6266 -0.7425  0.1069
  554TMC3    O1 8281   4.366   4.523  10.629 -0.0178 -0.5018 -0.2629
  554TMC3    O2 8282   3.955   4.458  10.498  0.3466  0.3181 -0.3338
  555TMC3    C1 8283   3.420   4.294  15.008 -0.2342  0.1547  0.0285
  555TMC3    C2 8284   3.409   4.365  15.122  0.2127 -0.2902 -0.0367
  555TMC3    C3 8285   3.338   4.312  15.227  0.0419  0.2370 -0.8735
  555TMC3    C4 8286   3.375   4.164  14.991 -0.9695  0.7415 -0.3965
  555TMC3    C5 8287   3.320   4.107  15.106  0.0189 -0.8540 -0.2727
  555TMC3    C6 8288   3.288   4.186  15.213 -0.2144 -0.4693  0.3436
  555TMC3     C 8289   3.470   4.356  14.892  0.2441 -0.8275 -0.1088
  555TMC3     O 8290   3.534   4.460  14.917 -0.0233  0.7116  0.0252
  555TMC3     H 8291   3.441   4.469  15.132 -0.0700 -0.1356 -0.7474
  555TMC3    H1 8292   3.388   4.106  14.901 -1.4806  0.6234 -0.3942
  555TMC3    H2 8293   3.246   4.127  15.295 -0.2932 -1.4636 -0.4061
  555TMC3    C7 8294   3.319   3.965  15.129  0.1084 -0.1268  0.0601
  555TMC3    C8 8295   3.335   4.384  15.355 -0.2790  0.2104  0.0267
  555TMC3    O1 8296   3.240   3.917  15.205 -0.3446 -0.2294 -0.5589
  555TMC3    O2 8297   3.378   4.499  15.361  0.5962 -0.0178  0.2277
  556MPD2     C 8298   1.312   2.046  10.159  0.6455 -0.0872  0.2908
  556MPD2    C1 8299   1.380   1.926  10.189 -0.2664 -0.0002  0.3358
  556MPD2    C2 8300   1.357   1.815  10.109 -0.1610 -0.1276 -0.5503
  556MPD2    C3 8301   1.258   1.821  10.007 -0.2429  0.1944 -0.4628
  556MPD2    C4 8302   1.200   1.944   9.973  0.2861 -0.2056  0.1784
  556MPD2    C5 8303   1.239   2.056  10.043  0.3525  0.1890  0.2430
  556MPD2     H 8304   1.413   1.723  10.126 -0.2396  0.2832  1.8878
  556MPD2    H1 8305   1.143   1.957   9.881  0.7895 -1.4151 -0.3145
  556MPD2    H2 8306   1.334   2.140  10.210  1.7486  0.1939 -0.7125
  556MPD2    H3 8307   1.210   2.155  10.009  0.4528  0.5772  1.2957
  556MPD2     N 8308   1.232   1.700   9.936  0.5751  0.2771  0.4138
  556MPD2    H5 8309   1.282   1.618   9.968 -0.6673 -1.2117 -1.4926
  556MPD2    N1 8310   1.477   1.908  10.284 -0.6340  0.3798  0.0865
  556MPD2    H7 8311   1.530   1.823  10.273 -0.3985  0.5042  0.2556
  557TMC3    C1 8312   1.115   1.551   9.809 -0.0275 -0.0115 -0.2022
  557TMC3    C2 8313   1.089   1.519   9.677 -1.2561  0.1968  0.0224
  557TMC3    C3 8314   1.047   1.393   9.648  0.3076 -0.1469  0.2068
  557TMC3    C4 8315   1.093   1.471   9.911 -0.1006 -0.5367  0.8371
  557TMC3    C5 8316   1.053   1.343   9.884 -0.1817  0.6295 -0.5070
  557TMC3    C6 8317   1.035   1.302   9.752 -0.3544  0.4328  0.2210
  557TMC3     C 8318   1.148   1.686   9.833  0.0221 -1.0093  0.0164
  557TMC3     O 8319   1.116   1.767   9.740 -0.1904  0.4846 -0.7587
  557TMC3     H 8320   1.114   1.577   9.589 -0.3506  0.7030  0.6159
  557TMC3    H1 8321   1.094   1.498  10.016 -1.1293  0.2289  0.6417
  557TMC3    H2 8322   0.983   1.208   9.740  1.4829 -0.6308  0.5829
  557TMC3    C7 8323   1.053   1.244   9.991  0.4390  0.1233  0.1860
  557TMC3    C8 8324   0.994   1.382   9.513 -0.7414 -0.3590 -0.6214
  557TMC3    O1 8325   1.069   1.285  10.103  0.6626  0.6585 -0.2670
  557TMC3    O2 8326   0.989   1.485   9.449 -0.2782 -0.1731  0.5124
  558TMC3    C1 8327   4.039   3.214  10.058 -0.4238 -0.0777  0.1474
  558TMC3    C2 8328   3.908   3.188  10.087  0.3795  0.2853  0.1933
  558TMC3    C3 8329   3.806   3.246  10.019 -0.4033 -0.9300 -0.4378
  558TMC3    C4 8330   4.064   3.302   9.959 -0.0118  0.6111 -0.5757
  558TMC3    C5 8331   3.961   3.364   9.891 -0.1259 -0.9254  0.0656
  558TMC3    C6 8332   3.830   3.337   9.923  0.1889 -0.1590 -0.0505
  558TMC3     C 8333   4.140   3.168  10.138  0.5551  0.0877 -0.6108
  558TMC3     O 8334   4.241   3.236  10.142 -0.0879 -0.2358  0.1392
  558TMC3     H 8335   3.876   3.110  10.156 -0.5312  0.1505 -0.3846
  558TMC3    H1 8336   4.167   3.315   9.929  0.4469 -1.2351  0.1573
  558TMC3    H2 8337   3.753   3.387   9.866  0.8121  1.3048  0.3962
  558TMC3    C7 8338   3.996   3.495   9.838 -0.5449 -0.6887 -0.1515
  558TMC3    C8 8339   3.690   3.284  10.097  0.4370  0.2646  0.3305
  558TMC3    O1 8340   4.103   3.549   9.870 -0.0885  0.0156  0.3407
  558TMC3    O2 8341   3.597   3.347  10.044 -0.3037 -0.4275 -0.9451
  559MPD2     C 8342   4.126   4.243  10.182 -0.1289 -0.1112 -0.2498
  559MPD2    C1 8343   4.060   4.169  10.276 -0.1999 -0.0530  0.0154
  559MPD2    C2 8344   4.132   4.140  10.388  0.6948  0.9782  0.0056
  559MPD2    C3 8345   4.261   4.166  10.413  0.7233  0.2723 -0.2923
  559MPD2    C4 8346   4.330   4.233  10.303 -0.5744  0.5257  0.0970
  559MPD2    C5 8347   4.255   4.268  10.196 -0.1231 -0.2048 -0.0361
  559MPD2     H 8348   4.075   4.087  10.463  0.9053 -0.1379 -0.6262
  559MPD2    H1 8349   4.434   4.263  10.297 -0.6502  0.7246 -0.2075
  559MPD2    H2 8350   4.069   4.271  10.094  1.6163 -0.3244 -1.4417
  559MPD2    H3 8351   4.307   4.326  10.121  0.8516 -1.1187 -0.0715
  559MPD2     N 8352   4.328   4.114  10.525  0.0064 -0.6577  0.6021
  559MPD2    H5 8353   4.279   4.055  10.591  1.8918 -1.9274  0.8671
  559MPD2    N1 8354   3.921   4.148  10.245  0.5142 -0.0971  0.1729
  559MPD2    H7 8355   3.889   4.174  10.152 -2.8058 -1.2451  1.0009
  560TMC3    C1 8356   4.514   4.071  10.672 -0.1725 -0.7218 -0.5255
  560TMC3    C2 8357   4.458   3.947  10.701 -0.1857 -0.0067 -0.2343
  560TMC3    C3 8358   4.517   3.878  10.795 -0.1868 -0.3380  0.1532
  560TMC3    C4 8359   4.632   4.114  10.727  0.4328  0.3395 -0.1222
  560TMC3    C5 8360   4.692   4.038  10.824 -0.5402  0.1359  0.2896
  560TMC3    C6 8361   4.630   3.922  10.859  0.0410  1.0550 -0.2738
  560TMC3     C 8362   4.462   4.140  10.559 -0.4673  0.1843  0.4424
  560TMC3     O 8363   4.540   4.206  10.493 -0.4254  0.1774  0.3660
  560TMC3     H 8364   4.365   3.920  10.652 -0.8107  0.5439  0.6623
  560TMC3    H1 8365   4.674   4.204  10.683 -0.8884  0.3944 -1.2423
  560TMC3    H2 8366   4.681   3.860  10.932  2.1740  2.3438 -0.6716
  560TMC3    C7 8367   0.062   4.090  10.915  0.1548  0.5718 -0.4440
  560TMC3    C8 8368   4.434   3.766  10.850  0.4545 -0.0584  0.5257
  560TMC3    O1 8369   0.081   4.019  11.015  0.0953 -0.3655 -0.2665
  560TMC3    O2 8370   4.332   3.733  10.785  0.2455  0.1206 -0.5713
  561TMC3    C1 8371   1.807   3.355  11.005  0.2791  0.2099  0.1917
  561TMC3    C2 8372   1.714   3.330  11.106  0.5614  0.1824  0.9890
  561TMC3    C3 8373   1.665   3.437  11.168 -0.0643  0.1041  0.1595
  561TMC3    C4 8374   1.844   3.480  10.960  0.0916  0.3075 -0.2886
  561TMC3    C5 8375   1.793   3.586  11.034  0.5179  0.3602  0.1701
  561TMC3    C6 8376   1.698   3.566  11.125 -0.1305  0.3579  0.4759
  561TMC3     C 8377   1.882   3.240  10.964 -0.8388 -0.4715 -0.6436
  561TMC3     O 8378   1.819   3.132  10.963  0.3482  0.1784 -0.1075
  561TMC3     H 8379   1.684   3.231  11.136 -0.6166 -0.1750 -1.3865
  561TMC3    H1 8380   1.914   3.500  10.880 -2.6827  0.2271 -2.7734
  561TMC3    H2 8381   1.651   3.657  11.163  3.1001  0.7062  3.6528
  561TMC3    C7 8382   1.830   3.725  11.019  0.5906  0.3627  0.2488
  561TMC3    C8 8383   1.536   3.429  11.231  0.4809 -0.0668  0.6762
  561TMC3    O1 8384   1.809   3.799  11.112 -0.0851 -0.7743  0.4890
  561TMC3    O2 8385   1.456   3.361  11.173 -0.2563 -0.0049  0.2836
  562TMC3    C1 8386   2.896   4.628  15.746 -0.3946 -0.5400  0.2884
  562TMC3    C2 8387   2.826   4.704  15.663 -0.0056  0.2840 -0.2712
  562TMC3    C3 8388   2.796   4.657  15.540 -0.6909  0.0793  0.3592
  562TMC3    C4 8389   2.940   4.506  15.704 -0.4946 -0.2238  0.1653
  562TMC3    C5 8390   2.895   4.455  15.585 -0.4218 -0.4660  0.0358
  562TMC3    C6 8391   2.824   4.528  15.492  0.2537 -0.1372  0.1002
  562TMC3     C 8392   2.905   4.654  15.890 -0.3191 -0.0002  0.5239
  562TMC3     O 8393   2.993   4.593  15.950  0.5732 -0.5436 -0.0402
  562TMC3     H 8394   2.811   0.073  15.689  1.0245  0.1110  1.0578
  562TMC3    H1 8395   2.988   4.443  15.778 -0.1835 -1.6142 -1.2157
  562TMC3    H2 8396   2.795   4.496  15.393 -1.7558  3.1335 -0.3507
  562TMC3    C7 8397   2.943   4.327  15.534  0.2767 -0.1440 -0.1568
  562TMC3    C8 8398   2.696   0.005  15.469 -0.4633  1.1836 -0.8706
  562TMC3    O1 8399   2.945   4.326  15.412  0.2762 -0.4347 -0.0119
  562TMC3    O2 8400   2.638   0.096  15.536  0.0128 -0.0340  0.5939
  563MPD2     C 8401   0.751   0.408  15.415 -0.7583  0.3935 -0.7698
  563MPD2    C1 8402   0.748   0.548  15.412  0.0225  0.7036 -0.0460
  563MPD2    C2 8403   0.866   0.613  15.363 -0.0900  0.0109  0.0365
  563MPD2    C3 8404   0.972   0.548  15.298 -0.5370  0.0136  0.5718
  563MPD2    C4 8405   0.966   0.410  15.283 -0.6841 -1.5766 -0.4260
  563MPD2    C5 8406   0.862   0.352  15.355  0.5266 -0.0884 -0.9406
  563MPD2     H 8407   0.875   0.721  15.365  1.8445 -0.1013 -2.3445
  563MPD2    H1 8408   1.042   0.339  15.253  0.1622 -1.3344  1.1653
  563MPD2    H2 8409   0.674   0.343  15.454 -0.0976 -0.2438 -0.5368
  563MPD2    H3 8410   0.879   0.245  15.356 -0.0060 -0.1500  0.4871
  563MPD2     N 8411   1.086   0.623  15.267 -0.1773  0.1422 -0.1837
  563MPD2    H5 8412   1.076   0.721  15.291  0.2180 -0.0959  0.9761
  563MPD2    N1 8413   0.634   0.615  15.459  0.6657 -0.4696 -0.2384
  563MPD2    H7 8414   0.550   0.558  15.471  1.7708 -2.2752 -1.1521
  564TMC3    C1 8415   0.520   0.764  15.604 -1.1436  0.2070  0.4215
  564TMC3    C2 8416   0.394   0.717  15.570 -0.1219 -0.3564 -0.5421
  564TMC3    C3 8417   0.314   0.682  15.672  0.1342 -0.3065 -0.1535
  564TMC3    C4 8418   0.565   0.776  15.730 -0.3441 -0.2223  0.7149
  564TMC3    C5 8419   0.478   0.738  15.828  0.6610  0.0330  0.1898
  564TMC3    C6 8420   0.349   0.703  15.808  0.0713  0.1750  0.5702
  564TMC3     C 8421   0.627   0.745  15.503 -0.0828 -0.0425 -0.1599
  564TMC3     O 8422   0.718   0.824  15.521  0.0996 -0.4107  0.3052
  564TMC3     H 8423   0.355   0.706  15.469  0.3455 -3.4735 -0.3868
  564TMC3    H1 8424   0.668   0.799  15.753 -1.0581  4.9007 -1.0319
  564TMC3    H2 8425   0.284   0.676  15.890  0.9664  2.3256  2.0052
  564TMC3    C7 8426   0.545   0.648  15.928  0.0594  0.4750  0.3494
  564TMC3    C8 8427   0.225   0.563  15.675  0.0426 -0.0600 -0.0124
  564TMC3    O1 8428   0.647   0.694  15.979 -0.2695 -0.4047  0.4029
  564TMC3    O2 8429   0.252   0.478  15.761 -0.7159  0.0091  0.1732
  565TMC3    C1 8430   1.025   2.978  10.070 -1.2338 -0.8482 -0.4603
  565TMC3    C2 8431   1.040   2.956  10.208  1.0069 -0.1679  0.2611
  565TMC3    C3 8432   1.019   2.830  10.252 -0.0041  0.3508 -0.1087
  565TMC3    C4 8433   0.992   2.871   9.987  0.8195 -0.5419  0.0544
  565TMC3    C5 8434   0.977   2.745  10.035  0.0346 -0.0025  0.2840
  565TMC3    C6 8435   1.000   2.724  10.166  0.1558  0.0474  0.0796
  565TMC3     C 8436   1.096   3.089  10.007 -0.8687 -0.3061 -0.2513
  565TMC3     O 8437   1.055   3.116   9.892  0.4485 -0.2968  0.1005
  565TMC3     H 8438   1.056   3.032  10.284  0.4991 -0.0131  0.2118
  565TMC3    H1 8439   0.971   2.885   9.882  1.7416  0.1576 -0.0283
  565TMC3    H2 8440   0.967   2.638  10.222  1.8092  0.5919  1.8862
  565TMC3    C7 8441   0.953   2.640   9.941  0.2643 -0.1027  0.2357
  565TMC3    C8 8442   1.021   2.811  10.392 -0.1147 -0.3826  0.1126
  565TMC3    O1 8443   0.902   2.667   9.833  0.1167 -0.2157 -0.2470
  565TMC3    O2 8444   0.982   2.909  10.453 -0.1911  0.3639  0.6163
  566MPD2     C 8445   2.730   3.656  14.036  0.6904  0.3325  0.1399
  566MPD2    C1 8446   2.782   3.772  13.986  0.1120 -0.1313 -0.2817
  566MPD2    C2 8447   2.705   3.852  13.903 -0.4253  0.0996  0.4749
  566MPD2    C3 8448   2.576   3.814  13.869  0.6373  0.6867  0.1432
  566MPD2    C4 8449   2.525   3.703  13.930 -0.0775  0.4821  0.0383
  566MPD2    C5 8450   2.598   3.624  14.016 -0.6033  0.6554 -0.0335
  566MPD2     H 8451   2.742   3.947  13.864 -0.0176 -0.5029 -0.6125
  566MPD2    H1 8452   2.424   3.673  13.904  0.5290  0.1621 -1.9230
  566MPD2    H2 8453   2.793   3.596  14.101  0.4776 -0.4802 -0.3980
  566MPD2    H3 8454   2.550   3.552  14.081  0.6560 -1.3110 -1.2885
  566MPD2     N 8455   2.490   3.868  13.765  0.0325 -0.4597 -0.5849
  566MPD2    H5 8456   2.397   3.831  13.747 -0.0262  0.4670 -2.1827
  566MPD2    N1 8457   2.920   3.791  14.010 -0.7010  0.3671  0.3846
  566MPD2    H7 8458   2.965   3.738  14.084  0.0797 -2.0276 -1.8070
  567TMC3    C1 8459   3.121   3.903  14.037  0.2925 -0.2261  0.2009
  567TMC3    C2 8460   3.215   3.978  13.972  0.3930 -1.0782  0.6829
  567TMC3    C3 8461   3.321   4.027  14.046  0.8737  0.5169 -0.0455
  567TMC3    C4 8462   3.126   3.869  14.172  0.2609  0.5772 -0.5879
  567TMC3    C5 8463   3.234   3.918  14.240 -0.0393  0.9857  0.3148
  567TMC3    C6 8464   3.326   3.998  14.179 -0.0447 -0.1608  0.3629
  567TMC3     C 8465   2.994   3.897  13.966 -0.5154 -0.8324 -0.8518
  567TMC3     O 8466   2.962   3.976  13.877  0.0246 -0.1546 -0.2941
  567TMC3     H 8467   3.204   4.014  13.870  3.4184  3.7965  2.0888
  567TMC3    H1 8468   3.041   3.826  14.224  0.3550 -0.8182 -1.6029
  567TMC3    H2 8469   3.413   4.028  14.235  0.6305 -0.3390 -0.6089
  567TMC3    C7 8470   3.258   3.892  14.382 -0.1998  0.2323 -0.1790
  567TMC3    C8 8471   3.399   4.129  13.987 -0.2862  0.6826  0.0743
  567TMC3    O1 8472   3.362   3.931  14.436 -0.2854  0.0959 -0.0797
  567TMC3    O2 8473   3.392   4.155  13.866 -0.3141 -0.0641  0.5972
  568MPD2     C 8474   4.600   3.905  16.237  0.0233  0.4895 -0.1213
  568MPD2    C1 8475   4.615   4.006  16.334  0.5406 -0.4120 -0.0855
  568MPD2    C2 8476   4.602   4.141  16.299 -0.0257  0.3767 -0.4142
  568MPD2    C3 8477   4.552   4.176  16.175  0.4657  0.2697  0.0792
  568MPD2    C4 8478   4.539   4.074  16.080  0.1835  0.0000  0.1884
  568MPD2    C5 8479   4.571   3.945  16.109 -0.6979 -0.0649  0.1804
  568MPD2     H 8480   4.619   4.212  16.378 -0.6149  0.5354 -0.4307
  568MPD2    H1 8481   4.509   4.084  15.977 -0.7917 -2.2584  0.2489
  568MPD2    H2 8482   4.623   3.801  16.257  0.5566  0.7374  0.5416
  568MPD2    H3 8483   4.577   3.868  16.033 -2.6976 -0.9407  0.8910
  568MPD2     N 8484   4.539   4.312  16.147  0.3641 -0.5160  0.7544
  568MPD2    H5 8485   4.546   4.381  16.221  2.9427 -1.2639  1.2200
  568MPD2    N1 8486   4.669   3.970  16.457  0.6635  0.0414 -0.2657
  568MPD2    H7 8487   4.680   3.870  16.464  1.3555  0.0573 -1.0909
  569TMC3    C1 8488   4.535   4.505  16.012 -0.0888 -0.0114  0.4104
  569TMC3    C2 8489   4.535   4.582  16.125  0.4857 -0.0627 -0.0464
  569TMC3    C3 8490   4.566   4.710  16.115  0.3014  0.8189  0.8316
  569TMC3    C4 8491   4.567   4.563  15.892 -0.2029  0.0003 -0.3535
  569TMC3    C5 8492   4.601   4.692  15.882 -0.0751  0.0731  0.1623
  569TMC3    C6 8493   4.601   0.039  15.995 -0.7894  0.1282  0.0200
  569TMC3     C 8494   4.513   4.362  16.019 -0.5360  0.1873  0.0333
  569TMC3     O 8495   4.496   4.309  15.909 -0.5162  0.1402 -0.2470
  569TMC3     H 8496   4.513   4.549  16.225 -0.5577  0.7894  0.0015
  569TMC3    H1 8497   4.583   4.502  15.803  0.1116 -1.0328  0.4104
  569TMC3    H2 8498   4.623   0.145  15.996  1.0236 -0.2541  0.7072
  569TMC3    C7 8499   4.599   0.014  15.747 -0.3586 -0.3420  0.4460
  569TMC3    C8 8500   4.553   0.043  16.246  0.0503 -0.3675 -0.1726
  569TMC3    O1 8501   4.551   4.680  15.660 -0.3284 -0.5693  0.2643
  569TMC3    O2 8502   4.471   0.002  16.324  0.0372 -0.6905  0.4117
  570TMC3    C1 8503   4.372   3.200  16.196 -0.2335 -0.4447  0.1264
  570TMC3    C2 8504   4.459   3.230  16.089 -0.1561 -0.1133  0.3125
  570TMC3    C3 8505   4.485   3.356  16.066 -0.0650 -0.4487 -0.3748
  570TMC3    C4 8506   4.309   3.304  16.265  0.6141 -0.2483 -0.5060
  570TMC3    C5 8507   4.345   3.436  16.242  0.0672  0.9255 -0.0650
  570TMC3    C6 8508   4.432   3.463  16.142  0.2034 -0.2725  0.9783
  570TMC3     C 8509   4.314   3.070  16.200 -0.1657 -0.2397 -0.3115
  570TMC3     O 8510   4.340   2.988  16.116  1.3556  0.4595  0.6921
  570TMC3     H 8511   4.500   3.144  16.036  1.5250  0.3763  0.8224
  570TMC3    H1 8512   4.241   3.280  16.347  0.8996  2.7177  0.5803
  570TMC3    H2 8513   4.472   3.563  16.133 -2.3182  0.8011  1.7739
  570TMC3    C7 8514   4.310   3.528  16.345 -0.6458  0.5902  0.2245
  570TMC3    C8 8515   4.580   3.390  15.961  0.2617  0.6635 -0.2771
  570TMC3    O1 8516   4.285   3.474  16.454  0.6138 -0.0781 -0.2741
  570TMC3    O2 8517   4.593   3.508  15.934  0.0249  0.0961 -0.1961
  571MPD2     C 8518   1.816   4.632   0.560  0.2467  0.0268  0.4028
  571MPD2    C1 8519   1.797   4.668   0.428 -0.3403  0.8683 -0.3359
  571MPD2    C2 8520   1.796   0.074   0.397  0.4329  0.6983 -0.7199
  571MPD2    C3 8521   1.817   0.166   0.496  0.0782  0.0856  0.0864
  571MPD2    C4 8522   1.833   0.119   0.625 -0.5342  0.3586  0.5600
  571MPD2    C5 8523   1.840   4.720   0.659 -0.3455  0.0310  0.5497
  571MPD2     H 8524   1.783   0.109   0.296 -1.4792 -1.4368 -1.2090
  571MPD2    H1 8525   1.843   0.189   0.707  0.3633 -0.9731  1.5945
  571MPD2    H2 8526   1.804   4.526   0.582  2.1951 -0.4807 -0.9341
  571MPD2    H3 8527   1.838   4.697   0.765 -1.6477  0.2740  0.5713
  571MPD2     N 8528   1.842   0.305   0.478  0.5222  0.3894  0.7521
  571MPD2    H5 8529   1.864   0.353   0.564 -0.7683 -0.0812  1.3406
  571MPD2    N1 8530   1.757   4.562   0.342 -0.0627 -0.2298 -0.5559
  571MPD2    H7 8531   1.754   4.469   0.383 -0.1259  0.8170  1.8216
  572TMC3    C1 8532   1.877   0.508   0.381 -0.1426  0.1342 -0.3692
  572TMC3    C2 8533   1.884   0.557   0.508 -0.3815  0.2568  0.0185
  572TMC3    C3 8534   1.958   0.666   0.535 -0.7291 -0.0845 -0.0712
  572TMC3    C4 8535   1.931   0.565   0.273 -0.9919  0.5482  0.8776
  572TMC3    C5 8536   2.023   0.665   0.306  0.7780 -0.2057 -0.3532
  572TMC3    C6 8537   2.035   0.718   0.434  0.0804 -0.8109  0.0947
  572TMC3     C 8538   1.833   0.372   0.361 -0.8116  0.0835  0.2026
  572TMC3     O 8539   1.826   0.335   0.247 -0.2537 -0.4675  0.2039
  572TMC3     H 8540   1.838   0.502   0.589  0.1691 -2.2131 -1.3439
  572TMC3    H1 8541   1.915   0.537   0.170 -0.0723  0.1399  0.8436
  572TMC3    H2 8542   2.094   0.806   0.456 -0.3696 -0.1144 -1.4447
  572TMC3    C7 8543   2.088   0.742   0.193 -0.4651  0.5588  0.1288
  572TMC3    C8 8544   1.993   0.707   0.668 -0.0301 -0.0573  0.4678
  572TMC3    O1 8545   2.028   0.763   0.089  0.0101  0.4240 -0.0810
  572TMC3    O2 8546   2.094   0.772   0.693 -0.2612  0.1854 -0.3506
  573MPD2     C 8547   3.720   0.258   0.267  0.6828  0.4492  0.1829
  573MPD2    C1 8548   3.725   0.393   0.243 -0.3417 -0.1552  0.2686
  573MPD2    C2 8549   3.728   0.432   0.106 -0.1918  0.4993  0.1376
  573MPD2    C3 8550   3.700   0.339   0.005  0.5580  0.8370 -0.2407
  573MPD2    C4 8551   3.688   0.208   0.035  0.0497  0.1591  0.5790
  573MPD2    C5 8552   3.702   0.167   0.164  0.2262  0.3188  0.5132
  573MPD2     H 8553   3.739   0.535   0.075  3.3338  0.1041  0.0756
  573MPD2    H1 8554   3.667   0.128  17.707  1.2139  0.2070  0.1791
  573MPD2    H2 8555   3.711   0.226   0.371  0.7748 -0.3130 -0.0461
  573MPD2    H3 8556   3.693   0.061   0.187  1.9517 -0.0617 -0.5406
  573MPD2     N 8557   3.682   0.369  17.605 -0.0611  0.2554 -0.2152
  573MPD2    H5 8558   3.675   0.287  17.546 -0.7504 -0.5925  1.0490
  573MPD2    N1 8559   3.732   0.478   0.356  0.2324 -0.5364 -0.3701
  573MPD2    H7 8560   3.723   0.431   0.446  2.7739  0.0676  0.1862
  574TMC3    C1 8561   3.673   0.478  17.411 -0.0390 -0.1649 -0.3793
  574TMC3    C2 8562   3.693   0.592  17.332 -0.0612  0.5579  0.1744
  574TMC3    C3 8563   3.702   0.581  17.192  0.4519  0.4486 -0.1971
  574TMC3    C4 8564   3.624   0.362  17.353 -0.2156  0.3855 -0.7633
  574TMC3    C5 8565   3.614   0.361  17.215 -0.4732 -0.1068 -0.3198
  574TMC3    C6 8566   3.655   0.463  17.127 -0.5852 -1.0312 -0.3711
  574TMC3     C 8567   3.680   0.492  17.554  0.4909  0.0197 -0.5431
  574TMC3     O 8568   3.692   0.599  17.610  0.4140 -0.5191  0.1182
  574TMC3     H 8569   3.745   0.675  17.379  0.9973  0.4748 -0.8614
  574TMC3    H1 8570   3.602   0.267  17.399  0.4434  0.6302  0.0643
  574TMC3    H2 8571   3.627   0.464  17.023 -0.3164 -1.0771 -0.4441
  574TMC3    C7 8572   3.509   0.276  17.165 -0.1275 -0.2970 -1.2938
  574TMC3    C8 8573   3.667   0.697  17.114  0.1345 -0.0116  0.1405
  574TMC3    O1 8574   3.418   0.241  17.238 -0.3707  0.1711  0.0350
  574TMC3    O2 8575   3.687   0.691  16.992 -0.2854  0.3367  0.5108
  575TMC3    C1 8576   1.421   2.100  11.005 -0.3155 -0.5756 -0.1731
  575TMC3    C2 8577   1.429   1.975  10.948  0.0384 -0.5201 -0.0279
  575TMC3    C3 8578   1.379   1.955  10.825 -0.6334  0.9088  0.0490
  575TMC3    C4 8579   1.377   2.208  10.932 -0.2753  0.8123  0.0992
  575TMC3    C5 8580   1.339   2.178  10.801 -0.2170  0.0134 -0.5129
  575TMC3    C6 8581   1.344   2.058  10.743 -0.9325 -0.0094  0.0488
  575TMC3     C 8582   1.453   2.110  11.145 -0.4913 -0.2757  0.4565
  575TMC3     O 8583   1.513   2.014  11.187 -0.1921  0.6470  0.1488
  575TMC3     H 8584   1.459   1.894  11.013 -1.8166 -1.1483  0.0499
  575TMC3    H1 8585   1.393   2.308  10.968 -3.1529  1.6051 -0.7698
  575TMC3    H2 8586   1.317   2.047  10.638  2.2734  2.1325 -0.9821
  575TMC3    C7 8587   1.265   2.273  10.726 -0.1537 -0.3696  0.1320
  575TMC3    C8 8588   1.384   1.818  10.771  0.4155  0.4466  0.0044
  575TMC3    O1 8589   1.216   2.245  10.619  0.2866 -0.0480 -0.7176
  575TMC3    O2 8590   1.406   1.730  10.852 -0.4175  0.1314 -0.3311
  576MPD2     C 8591   1.367   3.499  12.629  0.3214 -0.0914 -0.0191
  576MPD2    C1 8592   1.280   3.599  12.575 -0.8930  0.6802  0.1997
  576MPD2    C2 8593   1.189   3.656  12.654 -0.4443 -0.1690  0.5394
  576MPD2    C3 8594   1.180   3.645  12.789 -0.1384  0.7661 -0.0021
  576MPD2    C4 8595   1.271   3.550  12.839  0.0791 -0.3087 -0.8793
  576MPD2    C5 8596   1.361   3.479  12.760  0.0444  0.5011 -0.1999
  576MPD2     H 8597   1.129   3.726  12.597 -0.7042 -1.4376 -0.7461
  576MPD2    H1 8598   1.283   3.523  12.944  2.8611  0.7906 -0.9245
  576MPD2    H2 8599   1.432   3.441  12.564 -1.2897 -0.1102 -1.6332
  576MPD2    H3 8600   1.427   3.403  12.799  1.9629  1.0482 -2.3477
  576MPD2     N 8601   1.080   3.716  12.866 -0.1886  0.0210 -0.6163
  576MPD2    H5 8602   1.032   3.791  12.816 -0.6838 -0.1184 -0.3504
  576MPD2    N1 8603   1.277   3.633  12.438 -0.3037  0.2410 -0.5048
  576MPD2    H7 8604   1.201   3.692  12.406 -1.4535 -1.1687 -0.3575
  577TMC3    C1 8605   1.332   3.631  12.219 -0.0617 -0.3658  0.2609
  577TMC3    C2 8606   1.326   3.552  12.106  0.5672  0.3485  0.7343
  577TMC3    C3 8607   1.295   3.614  11.985 -0.7397  0.2424  0.3287
  577TMC3    C4 8608   1.300   3.763  12.212  0.2249  0.2267 -0.0596
  577TMC3    C5 8609   1.264   3.826  12.093  0.3191 -0.2445  0.2348
  577TMC3    C6 8610   1.264   3.749  11.977 -0.0727  0.5814 -0.1504
  577TMC3     C 8611   1.355   3.570  12.348 -0.2671 -0.5807  0.0487
  577TMC3     O 8612   1.415   3.464  12.350  0.1115  0.5162 -0.3253
  577TMC3     H 8613   1.342   3.445  12.113 -1.8865 -0.0357  0.3770
  577TMC3    H1 8614   1.293   3.826  12.300  2.5482 -0.7960  0.8522
  577TMC3    H2 8615   1.228   3.790  11.883  2.3508  0.8560 -0.9457
  577TMC3    C7 8616   1.173   3.935  12.107 -0.1590  0.5940 -0.1907
  577TMC3    C8 8617   1.269   3.539  11.872 -0.4334 -0.5565 -0.3153
  577TMC3    O1 8618   1.102   3.939  12.207 -0.6143  0.1391  0.5692
  577TMC3    O2 8619   1.224   3.426  11.890  0.9867 -0.4414  0.1928
  578MPD2     C 8620   3.820   3.056   1.478 -0.3916 -0.0798  0.6479
  578MPD2    C1 8621   3.874   3.020   1.357  0.1582 -0.8984 -0.2703
  578MPD2    C2 8622   3.996   2.952   1.352 -0.0100 -0.2604  1.0740
  578MPD2    C3 8623   4.063   2.917   1.467 -0.5782  0.1436 -0.4775
  578MPD2    C4 8624   4.010   2.958   1.589  0.5696  0.9025  0.2704
  578MPD2    C5 8625   3.891   3.032   1.592 -0.0143  0.0293  0.1483
  578MPD2     H 8626   4.041   2.912   1.262  2.0519  3.0474  0.6659
  578MPD2    H1 8627   4.058   2.933   1.683  0.4777 -1.5381 -0.3372
  578MPD2    H2 8628   3.731   3.118   1.484 -0.7724 -0.6830  1.3953
  578MPD2    H3 8629   3.851   3.054   1.691  0.2604  1.6809 -0.1048
  578MPD2     N 8630   4.183   2.844   1.452  0.4032  0.1025 -0.0420
  578MPD2    H5 8631   4.209   2.819   1.358 -0.6638 -1.2180  0.0180
  578MPD2    N1 8632   3.811   3.054   1.241  0.2986 -0.0221 -0.5823
  578MPD2    H7 8633   3.726   3.108   1.253  0.1893 -0.0730 -1.1420
  579TMC3    C1 8634   4.398   2.778   1.497 -0.5026  0.0908  0.0557
  579TMC3    C2 8635   4.518   2.844   1.526  1.0104 -0.5114 -0.3672
  579TMC3    C3 8636   4.627   2.825   1.443  0.4809 -0.3519  0.4090
  579TMC3    C4 8637   4.388   2.693   1.390  0.1998 -0.5766  0.4758
  579TMC3    C5 8638   4.502   2.667   1.325  0.6238 -0.1235  0.2418
  579TMC3    C6 8639   4.626   2.732   1.350 -0.3002  0.6227  0.5009
  579TMC3     C 8640   4.273   2.824   1.553  0.5867 -0.1099 -0.0350
  579TMC3     O 8641   4.274   2.865   1.669 -0.0311 -0.4910 -0.2337
  579TMC3     H 8642   4.520   2.905   1.616 -1.1871 -0.6422 -0.2103
  579TMC3    H1 8643   4.299   2.632   1.384  1.5069 -2.4458 -0.1825
  579TMC3    H2 8644   4.720   2.698   1.309 -0.3758  0.8596  0.1309
  579TMC3    C7 8645   4.514   2.560   1.226 -0.0967  0.3513  0.4823
  579TMC3    C8 8646   0.002   2.922   1.452  1.0389  0.5853  0.6772
  579TMC3    O1 8647   4.628   2.523   1.204 -0.1540  0.6087 -0.6162
  579TMC3    O2 8648   0.036   2.957   1.568 -0.0624  0.3225  0.9981
  580TMC3    C1 8649   3.586   2.617  12.200  0.4385 -0.1022 -0.1410
  580TMC3    C2 8650   3.687   2.709  12.199 -0.0356 -0.7057 -0.5261
  580TMC3    C3 8651   3.814   2.668  12.167  0.8677  0.0553  0.1400
  580TMC3    C4 8652   3.605   2.490  12.162 -0.1595 -0.3432 -0.2937
  580TMC3    C5 8653   3.732   2.458  12.123  0.4970 -0.7326  0.0364
  580TMC3    C6 8654   3.838   2.535  12.135  0.7242 -0.3980 -0.4148
  580TMC3     C 8655   3.476   2.674  12.128 -0.1521  0.3430  0.1440
  580TMC3     O 8656   3.434   2.622  12.029 -0.1667  0.2184 -0.4440
  580TMC3     H 8657   3.675   2.815  12.214  2.5213 -0.7302  1.7572
  580TMC3    H1 8658   3.529   2.413  12.158 -1.3208  0.8312 -0.8352
  580TMC3    H2 8659   3.927   2.498  12.086  0.5732  2.7674 -3.0777
  580TMC3    C7 8660   3.770   2.323  12.085  0.5605  0.4998  0.4087
  580TMC3    C8 8661   3.907   2.773  12.121 -0.3781  0.0772 -0.8172
  580TMC3    O1 8662   3.888   2.293  12.110 -0.2125  0.3044 -0.2106
  580TMC3    O2 8663   3.863   2.884  12.101  0.6449  0.1889 -0.0829
  581MPD2     C 8664   1.367   2.134  14.880  0.0987 -0.6498  0.4965
  581MPD2    C1 8665   1.240   2.082  14.863 -0.3252 -0.4252  0.8936
  581MPD2    C2 8666   1.163   2.114  14.752 -1.1163 -0.2863 -0.5597
  581MPD2    C3 8667   1.222   2.183  14.650 -0.1305 -0.2218  0.3479
  581MPD2    C4 8668   1.354   2.223  14.653 -0.2964  0.8498  0.0848
  581MPD2    C5 8669   1.420   2.201  14.772 -0.4594 -0.3912  0.6362
  581MPD2     H 8670   1.055   2.105  14.757 -0.8535 -3.7894 -1.2626
  581MPD2    H1 8671   1.412   2.266  14.571 -3.4855  1.6044 -1.8033
  581MPD2    H2 8672   1.423   2.133  14.972 -0.7979 -0.0067  1.0545
  581MPD2    H3 8673   1.522   2.237  14.770 -0.7884  0.3638 -3.1213
  581MPD2     N 8674   1.142   2.219  14.539  0.3497  0.0147 -0.0115
  581MPD2    H5 8675   1.043   2.200  14.550  0.1507  1.6706  1.1379
  581MPD2    N1 8676   1.183   2.021  14.984  0.0421 -0.5524  0.1841
  581MPD2    H7 8677   1.245   2.011  15.063  1.6347 -1.3224 -1.1431
  582TMC3    C1 8678   1.003   1.978  15.122  0.5934 -0.6606  0.3157
  582TMC3    C2 8679   1.091   2.015  15.218  0.0077  0.2345 -0.2093
  582TMC3    C3 8680   1.030   2.050  15.334  0.8582  0.1258 -0.1642
  582TMC3    C4 8681   0.868   1.996  15.128  0.2908 -0.2140 -0.1873
  582TMC3    C5 8682   0.806   2.038  15.244 -0.2570 -0.5291  0.3867
  582TMC3    C6 8683   0.896   2.063  15.347 -0.6785 -0.5129 -0.7226
  582TMC3     C 8684   1.056   1.966  14.990 -0.4593  0.1866 -0.0028
  582TMC3     O 8685   0.971   1.958  14.901  0.3660  0.4730 -0.0330
  582TMC3     H 8686   1.199   2.012  15.215  0.0763  0.8282  1.6658
  582TMC3    H1 8687   0.799   1.975  15.047  3.0311 -0.2025 -2.5255
  582TMC3    H2 8688   0.846   2.100  15.436 -1.1356 -2.0069 -0.3551
  582TMC3    C7 8689   0.710   2.148  15.226  0.3279 -0.6809 -0.1862
  582TMC3    C8 8690   1.100   2.077  15.457 -0.2612  0.2851  0.4649
  582TMC3    O1 8691   0.591   2.130  15.246  0.5678 -0.3562 -0.8754
  582TMC3    O2 8692   1.033   2.126  15.547 -0.5684  0.1152 -0.2290
  583MPD2     C 8693   0.941   4.170  16.336  0.2276 -0.4106  0.3166
  583MPD2    C1 8694   1.060   4.241  16.349  0.1126  0.1956  0.0469
  583MPD2    C2 8695   1.091   4.307  16.469 -0.0778 -0.2554  0.5253
  583MPD2    C3 8696   1.011   4.293  16.582  0.7473 -0.9055 -0.9787
  583MPD2    C4 8697   0.907   4.204  16.568 -0.1039  0.1060 -0.1495
  583MPD2    C5 8698   0.871   4.151  16.446 -0.8184 -0.8522 -0.2562
  583MPD2     H 8699   1.185   4.359  16.478 -0.1160  0.0844 -1.0609
  583MPD2    H1 8700   0.844   4.176  16.651  0.6652 -1.8024 -0.2088
  583MPD2    H2 8701   0.908   4.129  16.241 -2.7644 -0.2523  1.2600
  583MPD2    H3 8702   0.798   4.073  16.430 -0.2410 -1.6898  1.1876
  583MPD2     N 8703   1.038   4.364  16.700 -0.5200  0.1728  0.2225
  583MPD2    H5 8704   1.104   4.441  16.699 -0.7281  0.4370  4.5294
  583MPD2    N1 8705   1.146   4.247  16.238 -0.5090  0.0787 -0.0268
  583MPD2    H7 8706   1.237   4.291  16.247 -0.7286  0.7304 -0.8927
  584TMC3    C1 8707   1.015   4.437  16.926  0.3519 -0.1552  0.2318
  584TMC3    C2 8708   1.074   4.558  16.901 -0.2285  0.3199  0.6000
  584TMC3    C3 8709   1.126   4.629  17.008 -0.1242 -0.1326 -0.4266
  584TMC3    C4 8710   0.993   4.395  17.052  0.1734 -0.1813 -0.5923
  584TMC3    C5 8711   1.045   4.468  17.157 -0.2424 -0.6590 -0.0887
  584TMC3    C6 8712   1.114   4.584  17.138 -0.4570 -0.1578 -0.1775
  584TMC3     C 8713   0.985   4.336  16.819 -0.0473  0.8709  0.0630
  584TMC3     O 8714   0.942   4.222  16.850 -0.4626 -0.0271 -0.6401
  584TMC3     H 8715   1.094   4.589  16.799  0.5840  1.4681  1.1100
  584TMC3    H1 8716   0.947   4.298  17.066  2.7845 -1.1882  1.1138
  584TMC3    H2 8717   1.153   4.643  17.220  0.0460 -1.7272  0.7256
  584TMC3    C7 8718   1.001   4.429  17.291  0.4141 -0.3547 -0.2234
  584TMC3    C8 8719   1.179   0.015  16.979 -0.2030 -0.2536  0.0772
  584TMC3    O1 8720   0.991   4.311  17.317 -0.6250 -0.3967  0.0367
  584TMC3    O2 8721   1.136   0.060  16.875  0.4771 -0.1846 -0.2555
  585MPD2     C 8722   0.429   2.588   0.078  1.0924  0.5650 -0.2556
  585MPD2    C1 8723   0.451   2.569  17.685  0.0424  1.2367 -0.3458
  585MPD2    C2 8724   0.497   2.449  17.638 -0.5805  0.8866 -0.2441
  585MPD2    C3 8725   0.503   2.346  17.727 -0.1520  0.3653  0.5953
  585MPD2    C4 8726   0.489   2.367   0.125 -0.2764  0.0768  0.2022
  585MPD2    C5 8727   0.446   2.490   0.173  0.5493  0.2406 -0.9349
  585MPD2     H 8728   0.514   2.430  17.533 -1.2678 -1.7742  0.1242
  585MPD2    H1 8729   0.510   2.291   0.199  1.1722  0.5038  0.2266
  585MPD2    H2 8730   0.397   2.686   0.111  1.1113 -0.7268  3.7014
  585MPD2    H3 8731   0.430   2.515   0.277  1.5384 -0.0232 -0.7279
  585MPD2     N 8732   0.532   2.216  17.678 -0.0474 -0.3006 -0.2780
  585MPD2    H5 8733   0.571   2.217  17.584  1.3292 -0.7330  0.3008
  585MPD2    N1 8734   0.416   2.676  17.593 -0.1345  0.0485  0.3713
  585MPD2    H7 8735   0.357   2.747  17.634  1.4523  0.7153  1.4935
  586TMC3    C1 8736   0.544   1.989  17.649  0.5152 -0.2277  0.2133
  586TMC3    C2 8737   0.676   1.989  17.620  0.6892 -0.1350 -0.0192
  586TMC3    C3 8738   0.731   1.872  17.577  0.3210 -0.2303  0.0718
  586TMC3    C4 8739   0.461   1.881  17.622  0.6387 -0.1190  0.1652
  586TMC3    C5 8740   0.523   1.783  17.548  0.1986  0.8106 -0.1783
  586TMC3    C6 8741   0.654   1.771  17.527  0.1434 -0.4110 -0.4563
  586TMC3     C 8742   0.499   2.096  17.738 -0.1498 -0.5127 -0.3477
  586TMC3     O 8743   0.414   2.071   0.081 -0.2781  0.2240  0.4617
  586TMC3     H 8744   0.734   2.073  17.657 -0.2356  0.6731 -0.4121
  586TMC3    H1 8745   0.355   1.884  17.642  0.5702 -0.4021 -0.1489
  586TMC3    H2 8746   0.708   1.679  17.504  4.2996  1.8454  0.1564
  586TMC3    C7 8747   0.440   1.759  17.437  0.1355  0.5799 -0.3419
  586TMC3    C8 8748   0.870   1.863  17.546 -0.0044  0.2339 -0.3538
  586TMC3    O1 8749   0.329   1.735  17.469 -0.6839  0.6914  0.5283
  586TMC3    O2 8750   0.922   1.753  17.550 -0.0960  0.4056  0.4216
  587TMC3    C1 8751   2.754   2.371  15.655 -1.3556 -0.1028 -0.0602
  587TMC3    C2 8752   2.755   2.508  15.683 -0.0736  0.1842 -0.5184
  587TMC3    C3 8753   2.846   2.549  15.777  0.1597  0.1783 -1.7822
  587TMC3    C4 8754   2.844   2.279  15.706  0.3076 -0.5334 -0.7773
  587TMC3    C5 8755   2.936   2.331  15.795 -0.4428 -0.1566 -0.1779
  587TMC3    C6 8756   2.934   2.464  15.829  0.1426  0.3446 -0.1368
  587TMC3     C 8757   2.642   2.321  15.582 -0.1327  0.6725  0.1189
  587TMC3     O 8758   2.572   2.408  15.529  0.2147  0.7380  0.4074
  587TMC3     H 8759   2.674   2.575  15.658  1.2147  1.5368 -1.0436
  587TMC3    H1 8760   2.857   2.176  15.675  1.4444 -1.1232  1.7364
  587TMC3    H2 8761   3.000   2.493  15.909 -0.5095  2.3294 -0.2993
  587TMC3    C7 8762   3.035   2.242  15.850 -0.2482 -0.3095  0.0309
  587TMC3    C8 8763   2.811   2.675  15.842 -0.7374 -0.4368  0.2677
  587TMC3    O1 8764   3.079   2.150  15.779 -0.4645 -0.2824 -0.0568
  587TMC3    O2 8765   2.805   2.769  15.764  0.4164  0.3803  0.3647
  588TMC3    C1 8766   0.454   4.501   9.882 -0.3952 -0.5367  0.1267
  588TMC3    C2 8767   0.450   4.380   9.823  0.2562 -0.8359 -0.4691
  588TMC3    C3 8768   0.562   4.299   9.811 -0.4708  0.4780  0.6164
  588TMC3    C4 8769   0.580   4.544   9.913  0.0159  0.7175 -0.3929
  588TMC3    C5 8770   0.697   4.465   9.904 -0.4196  0.5966 -0.5230
  588TMC3    C6 8771   0.682   4.340   9.855  0.3103  0.7189 -0.7666
  588TMC3     C 8772   0.355   4.600   9.824 -0.8614 -0.3571 -0.0337
  588TMC3     O 8773   0.274   4.564   9.738  0.0997 -0.5477 -0.2128
  588TMC3     H 8774   0.351   4.354   9.787 -1.2558  4.2497  0.0680
  588TMC3    H1 8775   0.595   4.648   9.940  3.1198 -0.2709  1.7052
  588TMC3    H2 8776   0.769   4.277   9.841 -0.5545 -0.5287 -0.5650
  588TMC3    C7 8777   0.829   4.529   9.911  0.3618  0.2818 -0.0080
  588TMC3    C8 8778   0.542   4.162   9.792  0.0810  0.2274  0.5244
  588TMC3    O1 8779   0.921   4.463   9.862 -0.2984  0.0032 -0.5805
  588TMC3    O2 8780   0.434   4.119   9.765  0.7227  0.5885 -0.1683
  589TMC3    C1 8781   4.465   1.141   1.149  0.3122  0.1134 -0.1906
  589TMC3    C2 8782   4.520   1.181   1.264  0.5699 -0.6373  0.2928
  589TMC3    C3 8783   4.642   1.129   1.303 -0.6038  0.2088 -0.5807
  589TMC3    C4 8784   4.528   1.039   1.074 -0.3949 -0.2928 -0.1090
  589TMC3    C5 8785   4.650   0.992   1.112  0.8056 -0.6928  0.4532
  589TMC3    C6 8786   4.716   1.044   1.221  0.2040  0.0663 -0.3208
  589TMC3     C 8787   4.332   1.190   1.110 -0.3530 -0.4437 -0.1526
  589TMC3     O 8788   4.287   1.152   1.002  0.0955  0.6597 -0.0813
  589TMC3     H 8789   4.482   1.255   1.333 -0.5117 -0.5464 -0.4005
  589TMC3    H1 8790   4.473   0.999   0.988  1.8965  1.9227 -2.5956
  589TMC3    H2 8791   0.066   0.998   1.270  0.9412  0.7083 -0.9974
  589TMC3    C7 8792   4.712   0.888   1.032 -0.8547  0.3887  0.5489
  589TMC3    C8 8793   4.717   1.202   1.399 -0.3292 -0.3165  0.2602
  589TMC3    O1 8794   4.664   0.872   0.920 -0.7111 -0.0100  0.6152
  589TMC3    O2 8795   4.656   1.269   1.483  0.3572  0.3535 -0.2353
  590MPD2     C 8796   3.580   4.664  16.347 -0.0994  0.5638  0.3351
  590MPD2    C1 8797   3.564   4.731  16.231 -0.1563 -0.0817  0.2423
  590MPD2    C2 8798   3.675   0.008  16.145 -0.0204  0.2298  0.5734
  590MPD2    C3 8799   3.801   4.709  16.185 -0.1986  0.1788 -0.3026
  590MPD2    C4 8800   3.816   4.628  16.299 -0.0768 -0.5145  0.4279
  590MPD2    C5 8801   3.705   4.614  16.375  0.8807 -0.2289 -0.3154
  590MPD2     H 8802   3.674   0.061  16.051  2.9088 -3.5515 -1.6054
  590MPD2    H1 8803   3.905   4.572  16.327  1.3109  0.8335 -1.1874
  590MPD2    H2 8804   3.493   4.641  16.408 -0.5839  1.2715 -0.0844
  590MPD2    H3 8805   3.715   4.550  16.462  0.4210  0.7067  0.4200
  590MPD2     N 8806   3.910   0.020  16.108 -0.2962 -0.1931 -0.4645
  590MPD2    H5 8807   3.886   0.080  16.030  0.5747  1.2168  0.3395
  590MPD2    N1 8808   3.436   0.043  16.196  0.1826  0.3831 -0.0706
  590MPD2    H7 8809   3.371   0.043  16.275  0.2472 -0.3641 -0.0152
  591TMC3    C1 8810   4.128   0.074  16.037 -0.3703 -0.1311  0.2414
  591TMC3    C2 8811   4.097   0.071  15.905  0.2948 -0.5256 -0.6924
  591TMC3    C3 8812   4.166   0.161  15.822  0.0549  0.3955 -0.2648
  591TMC3    C4 8813   4.232   0.148  16.082  0.6140 -0.0552  0.4482
  591TMC3    C5 8814   4.307   0.223  15.993  0.1215 -0.1073 -0.3086
  591TMC3    C6 8815   4.284   0.224  15.859 -0.1940 -0.3048 -0.3040
  591TMC3     C 8816   4.045   0.001  16.133 -0.1755 -0.4651 -0.4295
  591TMC3     O 8817   4.097   4.679  16.227 -0.6845  0.1401 -0.4316
  591TMC3     H 8818   4.023   4.735  15.871 -0.0254 -1.6386  2.2809
  591TMC3    H1 8819   4.248   0.158  16.189 -0.6350  0.0482  0.6309
  591TMC3    H2 8820   4.344   0.274  15.785  2.0521 -2.7736 -0.1595
  591TMC3    C7 8821   4.397   0.315  16.053 -0.4864  0.0938  0.1120
  591TMC3    C8 8822   4.152   0.129  15.683  0.0343  0.0438  0.3725
  591TMC3    O1 8823   4.431   0.304  16.169 -0.1896 -0.2430  0.5409
  591TMC3    O2 8824   4.126   0.012  15.649  0.2100  0.1011  0.4853
  592MPD2     C 8825   0.259   1.897  11.225  0.5012 -0.4280 -0.0513
  592MPD2    C1 8826   0.248   1.930  11.357 -0.2470 -1.2538  0.4658
  592MPD2    C2 8827   0.200   1.827  11.436  0.3724  0.3064  0.8006
  592MPD2    C3 8828   0.181   1.700  11.392 -0.0553  0.6484  0.1355
  592MPD2    C4 8829   0.213   1.673  11.261  0.0966  0.2431  0.6554
  592MPD2    C5 8830   0.246   1.775  11.177 -0.0498  0.8211  1.3866
  592MPD2     H 8831   0.176   1.850  11.539  0.2136 -0.2550  0.8889
  592MPD2    H1 8832   0.205   1.575  11.215  0.4351  0.4651  0.1259
  592MPD2    H2 8833   0.274   1.985  11.163  3.3125 -2.6192 -2.4954
  592MPD2    H3 8834   0.274   1.750  11.075 -0.0776  2.9252  0.8783
  592MPD2     N 8835   0.120   1.612  11.483  0.2846 -0.1283 -0.3387
  592MPD2    H5 8836   0.101   1.648  11.576  1.0504  0.1496 -0.2938
  592MPD2    N1 8837   0.275   2.062  11.404 -0.1774  0.3961 -0.3428
  592MPD2    H7 8838   0.288   2.128  11.327  0.3897  2.0243  1.1581
  593TMC3    C1 8839   0.255   2.257  11.549  0.0270 -0.0662  0.3384
  593TMC3    C2 8840   0.204   2.302  11.670 -0.4062  0.2774 -0.2691
  593TMC3    C3 8841   0.214   2.434  11.704  0.1971 -0.1761  0.3069
  593TMC3    C4 8842   0.317   2.345  11.461 -0.4971 -0.0042  0.5150
  593TMC3    C5 8843   0.334   2.473  11.516 -0.8219 -0.8288 -0.8228
  593TMC3    C6 8844   0.275   2.527  11.625 -0.7023  0.5661  0.1726
  593TMC3     C 8845   0.254   2.112  11.531 -0.4105 -0.2614  0.4443
  593TMC3     O 8846   0.253   2.051  11.637 -0.2195 -0.1843  0.3658
  593TMC3     H 8847   0.159   2.232  11.740  1.4110 -0.9578 -0.3290
  593TMC3    H1 8848   0.375   2.305  11.378 -3.5313 -0.1760 -1.5386
  593TMC3    H2 8849   0.283   2.634  11.642  2.5184  0.3981 -0.3407
  593TMC3    C7 8850   0.401   2.579  11.443  0.5260 -0.1593  0.1090
  593TMC3    C8 8851   0.136   2.471  11.817 -0.0081 -0.3286  0.7940
  593TMC3    O1 8852   0.448   2.673  11.505  0.3963 -0.0610  0.4434
  593TMC3    O2 8853   0.038   2.403  11.851 -0.0869  0.4419 -0.8328
  594MPD2     C 8854   3.670   0.582  13.721  0.7003  0.1322 -0.1778
  594MPD2    C1 8855   3.572   0.676  13.763  0.1450 -0.3713 -0.1630
  594MPD2    C2 8856   3.612   0.800  13.808  0.2115 -0.3830 -0.3668
  594MPD2    C3 8857   3.751   0.834  13.807  0.1312 -0.2280 -0.2625
  594MPD2    C4 8858   3.837   0.748  13.742  0.8886  0.3127  0.7001
  594MPD2    C5 8859   3.795   0.626  13.702 -0.1091  1.0090  0.3660
  594MPD2     H 8860   3.537   0.870  13.843  0.0737 -0.3755 -0.6823
  594MPD2    H1 8861   3.939   0.769  13.711  0.2476  2.6551  0.1965
  594MPD2    H2 8862   3.648   0.482  13.687  2.1925 -0.0890 -0.5056
  594MPD2    H3 8863   3.873   0.559  13.667  0.1294  2.7330 -2.3532
  594MPD2     N 8864   3.792   0.955  13.869 -0.6008  0.1751 -0.0742
  594MPD2    H5 8865   3.722   1.018  13.905  1.0310  2.5624 -1.1107
  594MPD2    N1 8866   3.438   0.639  13.751  0.3541 -0.0280  0.1316
  594MPD2    H7 8867   3.420   0.539  13.744 -0.2932  0.1188 -0.3346
  595TMC3    C1 8868   4.077   1.301  14.044 -0.1561  0.3125 -0.8059
  595TMC3    C2 8869   4.058   1.186  13.967 -0.4297  0.2491  0.8199
  595TMC3    C3 8870   3.935   1.134  13.943 -0.7421 -0.1985  0.0806
  595TMC3    C4 8871   3.969   1.358  14.112  0.0214 -0.1265 -0.1260
  595TMC3    C5 8872   3.847   1.302  14.093 -0.7088  0.3372 -0.6079
  595TMC3    C6 8873   3.828   1.198  14.012 -0.3206  0.1127  0.2096
  595TMC3     C 8874   4.212   1.330  14.088  0.9637  0.1059  0.8489
  595TMC3     O 8875   4.215   1.382  14.200 -0.4162 -0.4387  0.0211
  595TMC3     H 8876   4.145   1.131  13.933 -1.1397 -2.1678  2.8595
  595TMC3    H1 8877   3.987   1.448  14.170  0.0509 -0.9076  1.0974
  595TMC3    H2 8878   3.730   1.151  14.008 -0.7221  0.9788 -0.0733
  595TMC3    C7 8879   3.732   1.329  14.175 -0.5238  0.4920 -0.3051
  595TMC3    C8 8880   3.923   1.002  13.878  0.4253  0.0519 -0.6738
  595TMC3    O1 8881   3.619   1.309  14.136 -0.7369  0.5672 -0.4184
  595TMC3    O2 8882   4.028   0.956  13.837 -0.6827  0.2523  0.4467
  596MPD2     C 8883   1.591   3.674  16.364  0.1748  0.6496 -0.9182
  596MPD2    C1 8884   1.712   3.649  16.429  0.0375 -0.1507  0.5492
  596MPD2    C2 8885   1.823   3.659  16.350  0.4888 -0.6287 -0.3911
  596MPD2    C3 8886   1.822   3.710  16.222  0.0178 -0.2610  0.4752
  596MPD2    C4 8887   1.704   3.735  16.161 -0.1944  0.2172 -0.4967
  596MPD2    C5 8888   1.593   3.723  16.236 -0.5074  0.0261 -0.3295
  596MPD2     H 8889   1.921   3.645  16.394  0.3196  0.2303  0.2650
  596MPD2    H1 8890   1.692   3.759  16.056  0.5602 -0.0105 -0.6322
  596MPD2    H2 8891   1.495   3.660  16.412 -0.3423 -0.7694 -2.3459
  596MPD2    H3 8892   1.503   3.739  16.177 -0.6497  0.6658  0.0652
  596MPD2     N 8893   1.934   3.723  16.133 -0.2333  0.2890  0.0685
  596MPD2    H5 8894   1.919   3.764  16.041 -1.7904 -0.2089  0.1111
  596MPD2    N1 8895   1.725   3.608  16.563 -0.0713  0.2018  1.0264
  596MPD2    H7 8896   1.815   3.576  16.597 -0.3744 -1.6685  0.0811
  597TMC3    C1 8897   1.677   3.605  16.795  0.1208  0.3525 -0.0724
  597TMC3    C2 8898   1.806   3.561  16.817 -0.1824  0.1237 -0.4369
  597TMC3    C3 8899   1.865   3.606  16.932 -0.0463 -0.5684  0.3884
  597TMC3    C4 8900   1.610   3.681  16.882 -0.1756  0.0361  0.2972
  597TMC3    C5 8901   1.669   3.716  16.996  0.0545 -0.1043 -0.5124
  597TMC3    C6 8902   1.798   3.683  17.022  0.0150  0.6688  0.5374
  597TMC3     C 8903   1.627   3.625  16.657 -0.0984  0.1961 -0.1348
  597TMC3     O 8904   1.514   3.659  16.629  0.5083 -0.3148 -0.4200
  597TMC3     H 8905   1.862   3.502  16.746 -0.2831 -0.2986 -0.1677
  597TMC3    H1 8906   1.507   3.707  16.860  0.1973  0.9173 -0.4155
  597TMC3    H2 8907   1.846   3.717  17.113  2.2806  0.5871 -0.6257
  597TMC3    C7 8908   1.603   3.811  17.079  0.3455  0.0886 -0.2573
  597TMC3    C8 8909   2.009   3.605  16.939 -0.2851 -0.0805  0.4588
  597TMC3    O1 8910   1.626   3.804  17.198  0.4810  0.3411 -0.2491
  597TMC3    O2 8911   2.047   3.689  17.021  0.3065 -0.6507  0.4732
  598TMC3    C1 8912   0.369   0.459  15.181 -0.4254  0.1364  0.1869
  598TMC3    C2 8913   0.307   0.393  15.081  0.6777  0.1132 -0.4896
  598TMC3    C3 8914   0.350   0.407  14.947  0.2274  0.3385  0.1431
  598TMC3    C4 8915   0.471   0.544  15.162  0.6047  0.6015  0.5771
  598TMC3    C5 8916   0.504   0.560  15.030  0.0652 -0.2162 -0.1789
  598TMC3    C6 8917   0.454   0.484  14.923 -0.0412 -0.4037 -0.0760
  598TMC3     C 8918   0.362   0.398  15.317  0.1595 -0.0764 -0.3408
  598TMC3     O 8919   0.420   0.453  15.408 -0.3838  0.1663 -0.5222
  598TMC3     H 8920   0.225   0.324  15.098 -0.3029  1.0962 -1.2566
  598TMC3    H1 8921   0.503   0.602  15.247 -0.2427  1.7234  0.1259
  598TMC3    H2 8922   0.501   0.484  14.826  1.4547  0.2115  0.6472
  598TMC3    C7 8923   0.640   0.600  15.003 -0.4734 -0.4349  0.6259
  598TMC3    C8 8924   0.303   0.336  14.833  0.4048  0.1130  0.5110
  598TMC3    O1 8925   0.702   0.532  14.920 -0.0905 -1.1159  0.1879
  598TMC3    O2 8926   0.377   0.331  14.735  0.2419 -0.0655 -0.3334
  599MPD2     C 8927   0.772   3.018  15.853 -0.0251  0.3392  0.3424
  599MPD2    C1 8928   0.658   2.966  15.799  0.0681 -0.3876 -0.1093
  599MPD2    C2 8929   0.541   2.978  15.881  0.7548 -0.2715  0.2460
  599MPD2    C3 8930   0.542   3.047  16.005  0.0842 -0.0757 -0.1758
  599MPD2    C4 8931   0.659   3.103  16.047  0.0971  0.0078  0.6189
  599MPD2    C5 8932   0.771   3.084  15.975 -0.4453  0.0105 -0.0103
  599MPD2     H 8933   0.454   2.918  15.860 -0.5000  0.7918  2.4356
  599MPD2    H1 8934   0.671   3.158  16.139 -0.4095 -0.0068  0.6927
  599MPD2    H2 8935   0.870   3.014  15.806 -0.6836 -1.3058 -0.8724
  599MPD2    H3 8936   0.865   3.120  16.015  0.2615 -2.3857  0.4789
  599MPD2     N 8937   0.431   3.069  16.079  0.6261  0.0197 -0.2237
  599MPD2    H5 8938   0.451   3.131  16.157 -0.2011  0.9861 -0.7785
  599MPD2    N1 8939   0.669   2.895  15.680  0.2489  0.6579  0.7441
  599MPD2    H7 8940   0.758   2.900  15.632 -0.0706 -0.0933  0.0666
  600TMC3    C1 8941   0.214   3.067  16.169 -0.1413  0.3481  0.4728
  600TMC3    C2 8942   0.096   2.999  16.192  0.1718  0.2357 -0.6290
  600TMC3    C3 8943   4.729   3.068  16.250  0.0808  0.7504  0.3413
  600TMC3    C4 8944   0.244   3.195  16.222 -0.5078 -0.8984 -0.2710
  600TMC3    C5 8945   0.140   3.250  16.288 -0.1703  0.5184  0.2624
  600TMC3    C6 8946   0.019   3.197  16.296 -0.4954  0.5596 -0.1400
  600TMC3     C 8947   0.308   3.012  16.071  0.2228 -0.2201 -0.2343
  600TMC3     O 8948   0.272   2.915  16.006 -0.2714 -0.2486 -0.0602
  600TMC3     H 8949   0.093   2.893  16.170  1.5786  0.4630 -1.8541
  600TMC3    H1 8950   0.336   3.250  16.205  0.8411 -2.6382  1.3457
  600TMC3    H2 8951   4.675   3.248  16.349  0.2924  2.3490 -0.6884
  600TMC3    C7 8952   0.164   3.351  16.394 -0.1023 -0.4864  0.6004
  600TMC3    C8 8953   4.638   2.997  16.340 -0.0356  0.3796  0.3594
  600TMC3    O1 8954   0.082   3.441  16.401  0.9663  0.3259 -0.4347
  600TMC3    O2 8955   4.604   3.057  16.441  0.3837  0.0110 -0.0069
  601MPD2     C 8956   2.470   1.039   0.015  0.2123  0.3637  0.4052
  601MPD2    C1 8957   2.340   1.023  17.708  0.2955 -0.4198  0.7928
  601MPD2    C2 8958   2.253   0.934   0.027  0.0179  0.0738  0.1535
  601MPD2    C3 8959   2.300   0.862   0.140 -0.1802 -0.3261 -0.3506
  601MPD2    C4 8960   2.431   0.865   0.171  0.0224  0.1543  0.3800
  601MPD2    C5 8961   2.514   0.956   0.114 -0.0875  0.1037  0.1516
  601MPD2     H 8962   2.147   0.922   0.007  0.1274 -0.9634  0.2072
  601MPD2    H1 8963   2.473   0.820   0.261  0.3601  1.5180  0.9054
  601MPD2    H2 8964   2.542   1.097  17.700  0.2882 -0.7247 -0.6054
  601MPD2    H3 8965   2.610   0.969   0.162 -0.3740 -0.4334  0.8643
  601MPD2     N 8966   2.220   0.777   0.222 -0.0471  0.0919  0.2256
  601MPD2    H5 8967   2.262   0.746   0.309 -0.1500  1.1453  0.6510
  601MPD2    N1 8968   2.288   1.105  17.601 -0.2579  0.4528 -0.5033
  601MPD2    H7 8969   2.200   1.069  17.565 -0.0150 -1.3147  0.6308
  602TMC3    C1 8970   2.305   1.266  17.420  0.5717  0.3455  0.0395
  602TMC3    C2 8971   2.359   1.387  17.391 -0.1185 -0.1899 -0.5394
  602TMC3    C3 8972   2.356   1.432  17.258  0.0181 -0.4592 -0.0662
  602TMC3    C4 8973   2.249   1.191  17.317 -1.1232  0.1781  0.3447
  602TMC3    C5 8974   2.248   1.233  17.192  0.1418  0.6677  0.4985
  602TMC3    C6 8975   2.302   1.356  17.159  0.6481  0.5508  0.5318
  602TMC3     C 8976   2.371   1.204  17.533 -0.5541  0.3951 -0.3710
  602TMC3     O 8977   2.481   1.250  17.564 -0.0087  0.0502 -0.4010
  602TMC3     H 8978   2.378   1.456  17.473 -2.4964  0.6116 -0.6492
  602TMC3    H1 8979   2.235   1.086  17.339 -0.1488 -0.2119 -0.8850
  602TMC3    H2 8980   2.304   1.377  17.052 -1.5375  0.3822  0.4624
  602TMC3    C7 8981   2.127   1.192  17.114 -0.1900 -0.5299  0.1461
  602TMC3    C8 8982   2.399   1.568  17.226 -0.2773 -0.5596 -0.2295
  602TMC3    O1 8983   2.081   1.081  17.131 -0.0049  0.3405 -0.8422
  602TMC3    O2 8984   2.464   1.638  17.305 -0.6099 -0.0581  0.0918
  603TMC3    C1 8985   0.896   1.987  10.327  0.2756 -0.4298  1.6185
  603TMC3    C2 8986   0.942   1.942  10.448  0.0656 -0.2228 -0.3349
  603TMC3    C3 8987   0.956   2.028  10.549  1.1622  0.3633  0.6906
  603TMC3    C4 8988   0.862   2.123  10.307 -0.0641 -0.1479  0.3601
  603TMC3    C5 8989   0.869   2.203  10.416 -1.0868  0.3441  0.3518
  603TMC3    C6 8990   0.917   2.160  10.540  0.3941  0.3240  0.6721
  603TMC3     C 8991   0.885   1.883  10.228 -0.4239  0.2285 -0.0126
  603TMC3     O 8992   0.943   1.778  10.240  0.5549 -0.7607 -0.2388
  603TMC3     H 8993   0.953   1.836  10.468 -0.2137  0.0669  1.2976
  603TMC3    H1 8994   0.838   2.157  10.207  0.3247 -1.3618 -0.1538
  603TMC3    H2 8995   0.943   2.236  10.612  3.2034 -1.2747  1.3658
  603TMC3    C7 8996   0.828   2.339  10.401  0.3213  0.2048 -0.7930
  603TMC3    C8 8997   0.980   1.971  10.687  0.3205 -0.4814 -0.0354
  603TMC3    O1 8998   0.886   2.407  10.484  0.0178 -0.1252  0.0773
  603TMC3    O2 8999   1.012   1.855  10.691  0.1700  0.2105 -0.3303
  604MPD2     C 9000   1.666   0.275  16.218 -0.5257 -0.3925  0.2720
  604MPD2    C1 9001   1.573   0.233  16.125  0.6860  0.0014 -0.7133
  604MPD2    C2 9002   1.588   0.258  15.989 -0.3687 -0.3727  0.6444
  604MPD2    C3 9003   1.711   0.307  15.943 -0.0370 -0.2344  0.6987
  604MPD2    C4 9004   1.803   0.347  16.035  1.0434  0.9641 -0.2245
  604MPD2    C5 9005   1.782   0.326  16.170 -0.3892  0.2118  0.1988
  604MPD2     H 9006   1.522   0.221  15.911 -0.2937 -0.5345  0.6590
  604MPD2    H1 9007   1.898   0.388  16.003  1.9568  1.1535  2.7666
  604MPD2    H2 9008   1.651   0.255  16.324  0.0757 -0.5437  0.3306
  604MPD2    H3 9009   1.852   0.375  16.236 -0.9097  0.4778  0.5519
  604MPD2     N 9010   1.734   0.309  15.811 -0.4234 -0.2092 -0.3439
  604MPD2    H5 9011   1.655   0.300  15.747 -2.1129  2.1577  1.4138
  604MPD2    N1 9012   1.453   0.184  16.188 -0.2526 -0.6049 -0.0560
  604MPD2    H7 9013   1.458   0.177  16.289 -1.8601 -3.4394 -0.1495
  605TMC3    C1 9014   1.225   0.164  16.208 -0.0729 -0.4163  0.4271
  605TMC3    C2 9015   1.255   0.178  16.342  0.2275 -0.3422  0.6601
  605TMC3    C3 9016   1.192   0.263  16.426  0.1412 -0.6743 -0.0080
  605TMC3    C4 9017   1.112   0.232  16.164  0.3998  0.4581  0.2363
  605TMC3    C5 9018   1.041   0.312  16.247  0.2449 -0.0369  0.5021
  605TMC3    C6 9019   1.085   0.331  16.379  0.0009 -0.0200  0.5758
  605TMC3     C 9020   1.337   0.160  16.118  0.3937 -0.4419 -0.6314
  605TMC3     O 9021   1.314   0.168  16.000  0.3710  0.1169  0.0058
  605TMC3     H 9022   1.330   0.109  16.380 -1.1389 -2.8543 -1.2233
  605TMC3    H1 9023   1.089   0.230  16.058 -1.8544  0.9268  0.7128
  605TMC3    H2 9024   1.034   0.406  16.439 -0.8664  0.2607 -0.4925
  605TMC3    C7 9025   0.910   0.350  16.210  0.2949 -0.0283 -0.5253
  605TMC3    C8 9026   1.285   0.350  16.499  0.1720 -1.2579 -0.0829
  605TMC3    O1 9027   0.874   0.461  16.255  0.0610  0.9020  0.2977
  605TMC3    O2 9028   1.267   0.468  16.491 -0.2936 -0.1639  0.4072
  606TMC3    C1 9029   2.363   3.216   0.196  0.8321 -0.0193  0.0118
  606TMC3    C2 9030   2.459   3.282   0.272  0.2619  0.4424  0.2930
  606TMC3    C3 9031   2.527   3.384   0.219  0.3708 -0.4114  0.2941
  606TMC3    C4 9032   2.323   3.266   0.078  0.3803 -0.1966  0.3417
  606TMC3    C5 9033   2.387   3.378   0.029  0.0058  0.8729  0.3539
  606TMC3    C6 9034   2.487   3.444   0.104 -0.0617  0.5147  0.0607
  606TMC3     C 9035   2.312   3.078   0.234 -1.6383 -0.0009 -0.4519
  606TMC3     O 9036   2.379   3.001   0.301  0.0341 -0.2559  0.0577
  606TMC3     H 9037   2.480   3.247   0.372  1.9821  2.1217  0.5073
  606TMC3    H1 9038   2.253   3.216   0.013  1.1447 -1.8688  0.8109
  606TMC3    H2 9039   2.549   3.516   0.052 -0.8899  1.1854 -0.0089
  606TMC3    C7 9040   2.385   3.402  17.621 -0.6641  0.3034  0.0608
  606TMC3    C8 9041   2.669   3.336   0.204 -0.1187 -0.2253 -0.2735
  606TMC3    O1 9042   2.491   3.443  17.577  0.3289  0.0198 -0.0421
  606TMC3    O2 9043   2.735   3.384   0.116  0.1682  0.2249  0.1137
  607MPD2     C 9044   0.476   1.584  11.502  0.0846  0.9306 -0.2278
  607MPD2    C1 9045   0.476   1.677  11.605  0.0958 -0.5342  0.0411
  607MPD2    C2 9046   0.437   1.632  11.731  0.1660 -0.9694 -0.1244
  607MPD2    C3 9047   0.431   1.495  11.766 -0.2211  0.6389  0.4136
  607MPD2    C4 9048   0.423   1.409  11.659 -0.6223 -0.2383 -0.3292
  607MPD2    C5 9049   0.426   1.461  11.533  0.3432 -0.1477 -0.3755
  607MPD2     H 9050   0.431   1.707  11.809  0.0856 -1.1191  0.0124
  607MPD2    H1 9051   0.410   1.302  11.667 -0.4594 -0.3052 -0.9340
  607MPD2    H2 9052   0.519   1.603  11.404  1.6376  0.0456  0.2836
  607MPD2    H3 9053   0.419   1.396  11.447  4.2048 -0.4581 -0.4530
  607MPD2     N 9054   0.428   1.459  11.903  0.3841 -0.1578  0.0986
  607MPD2    H5 9055   0.426   1.537  11.967  1.9608 -0.0061 -0.0214
  607MPD2    N1 9056   0.512   1.811  11.590  0.3336  0.6741 -0.1420
  607MPD2    H7 9057   0.501   1.871  11.671  1.6305 -0.0171  0.5395
  608TMC3    C1 9058   0.614   2.000  11.516 -0.0442  0.2769  0.4987
  608TMC3    C2 9059   0.636   2.034  11.646 -0.3074  0.3636 -0.4008
  608TMC3    C3 9060   0.669   2.164  11.682 -0.4156  0.1729  0.4048
  608TMC3    C4 9061   0.637   2.088  11.416  0.6608 -0.2902 -0.5869
  608TMC3    C5 9062   0.688   2.216  11.452  0.2826  0.4928 -0.1513
  608TMC3    C6 9063   0.702   2.254  11.587 -0.2627  0.0806 -0.0629
  608TMC3     C 9064   0.566   1.872  11.480  0.7832 -0.2792 -0.4578
  608TMC3     O 9065   0.587   1.821  11.372 -0.3556  0.1404  0.0672
  608TMC3     H 9066   0.667   1.955  11.713 -3.6399 -0.6454 -0.0384
  608TMC3    H1 9067   0.650   2.051  11.315  0.2521 -2.4076  0.1354
  608TMC3    H2 9068   0.739   2.353  11.613 -0.5757  0.1459  0.1316
  608TMC3    C7 9069   0.729   2.304  11.340 -0.1753 -0.5845  0.2984
  608TMC3    C8 9070   0.710   2.193  11.822  0.1588 -0.7065 -0.5141
  608TMC3    O1 9071   0.679   2.277  11.231  0.0855  0.2407 -0.0764
  608TMC3    O2 9072   0.792   2.283  11.844  0.1105 -0.2152  0.2320
  609TMC3    C1 9073   2.738   0.051   8.752 -0.4676  0.3617 -0.4954
  609TMC3    C2 9074   2.781   4.663   8.711 -0.1814  0.0391 -0.3676
  609TMC3    C3 9075   2.911   4.639   8.748  0.4641  1.5067 -0.4645
  609TMC3    C4 9076   2.808   0.134   8.838  0.3937 -0.1109  0.6294
  609TMC3    C5 9077   2.925   0.090   8.884 -0.2596 -0.0453  0.0357
  609TMC3    C6 9078   2.985   4.712   8.836  0.1150  0.0617  0.2360
  609TMC3     C 9079   2.594   0.071   8.726 -0.1695 -0.1563 -1.0459
  609TMC3     O 9080   2.536   4.724   8.656 -0.2162 -0.0452  0.1730
  609TMC3     H 9081   2.729   4.603   8.636  0.9009 -0.8878 -0.3669
  609TMC3    H1 9082   2.786   0.240   8.842 -0.8807 -0.4634  3.0578
  609TMC3    H2 9083   3.083   4.676   8.865  1.5031  2.2358 -1.7794
  609TMC3    C7 9084   3.010   0.171   8.974 -0.1944  0.4362  0.0567
  609TMC3    C8 9085   2.973   4.522   8.682  0.2762  1.0202 -0.1337
  609TMC3    O1 9086   3.115   0.116   9.011  0.6071 -0.4268 -0.9698
  609TMC3    O2 9087   2.897   4.441   8.635  0.6397 -0.4839  0.3732
  610TMC3    C1 9088   0.421   1.949  12.951 -0.2183  0.1908 -0.5282
  610TMC3    C2 9089   0.451   2.080  12.906  0.5303 -0.0680 -0.6599
  610TMC3    C3 9090   0.557   2.085  12.819 -0.5463 -0.6480 -0.8134
  610TMC3    C4 9091   0.497   1.837  12.926 -0.1297 -0.0652 -0.3785
  610TMC3    C5 9092   0.604   1.848  12.836  0.1794  0.0501  0.4909
  610TMC3    C6 9093   0.634   1.977  12.780  0.1924 -0.1267  0.1604
  610TMC3     C 9094   0.320   1.930  13.052  0.8054  0.5042  0.8221
  610TMC3     O 9095   0.283   1.813  13.069 -0.3723 -0.1549  0.2676
  610TMC3     H 9096   0.385   2.166  12.908 -0.1343 -0.5740 -0.8210
  610TMC3    H1 9097   0.481   1.742  12.976 -0.8158  0.1941 -0.0974
  610TMC3    H2 9098   0.705   1.994  12.700 -1.5471 -2.3969 -1.8522
  610TMC3    C7 9099   0.688   1.733  12.820 -1.1122  0.0281 -0.2291
  610TMC3    C8 9100   0.557   2.207  12.730 -0.3427 -0.4111 -0.2478
  610TMC3    O1 9101   0.670   1.630  12.883 -0.1078  0.2109  0.8394
  610TMC3    O2 9102   0.462   2.282  12.730 -0.7589 -0.1143 -0.0454
  611MPD2     C 9103   4.449   2.145   9.610  0.4314 -0.4629 -0.9867
  611MPD2    C1 9104   4.535   2.148   9.716  0.3081  0.0206 -0.4243
  611MPD2    C2 9105   4.641   2.241   9.714  0.0750 -0.6444  0.2264
  611MPD2    C3 9106   4.652   2.337   9.612 -0.6097  0.2337 -0.1168
  611MPD2    C4 9107   4.560   2.336   9.510 -1.0449 -0.1884 -0.3471
  611MPD2    C5 9108   4.468   2.239   9.506 -0.3764 -0.2147 -0.4239
  611MPD2     H 9109   4.693   2.248   9.808  0.7720  2.6303 -0.4224
  611MPD2    H1 9110   4.550   2.412   9.433  1.4691  1.9126  1.4001
  611MPD2    H2 9111   4.375   2.068   9.592 -1.3505  0.6070  1.8242
  611MPD2    H3 9112   4.400   2.234   9.422  1.8617  0.9904 -2.2897
  611MPD2     N 9113   0.007   2.451   9.622  0.1244  0.2703  0.3890
  611MPD2    H5 9114   4.734   2.534   9.564 -0.4352 -0.1595 -0.1381
  611MPD2    N1 9115   4.521   2.047   9.822 -0.3373  0.0169  0.2156
  611MPD2    H7 9116   4.443   1.981   9.820  1.3577 -1.9309 -1.5562
  612TMC3    C1 9117   0.175   2.592   9.727  0.1126 -0.0157  0.1168
  612TMC3    C2 9118   0.265   2.596   9.826 -0.5822 -0.3206  0.5682
  612TMC3    C3 9119   0.340   2.714   9.826 -0.1002 -0.3910 -0.2183
  612TMC3    C4 9120   0.143   2.696   9.645  0.0072 -0.7710 -0.3815
  612TMC3    C5 9121   0.214   2.814   9.651 -0.4940 -0.1954  0.5346
  612TMC3    C6 9122   0.316   2.823   9.743  0.6309  0.0246  0.0181
  612TMC3     C 9123   0.115   2.459   9.707 -0.1629 -0.4238 -0.1566
  612TMC3     O 9124   0.166   2.365   9.764  0.9668 -0.0179 -0.2212
  612TMC3     H 9125   0.280   2.522   9.904 -1.1677 -1.3467 -0.2978
  612TMC3    H1 9126   0.076   2.671   9.563 -0.7384  0.3874 -0.1203
  612TMC3    H2 9127   0.371   2.916   9.749  1.1568 -0.3380  0.8692
  612TMC3    C7 9128   0.175   2.932   9.588 -0.2383 -0.0926 -0.4165
  612TMC3    C8 9129   0.452   2.741   9.924 -0.1426  0.3110 -1.0811
  612TMC3    O1 9130   0.257   3.022   9.584 -0.2325 -0.4998 -0.1076
  612TMC3    O2 9131   0.498   2.854   9.933 -0.4388 -0.1301 -0.0798
  613MPD2     C 9132   3.281   3.704  16.691 -0.1142 -0.4331 -0.1245
  613MPD2    C1 9133   3.250   3.793  16.584  0.8543  0.1061  0.0797
  613MPD2    C2 9134   3.184   3.741  16.472 -0.3917 -0.1988 -0.4242
  613MPD2    C3 9135   3.151   3.606  16.464 -0.4081 -0.2275 -0.1640
  613MPD2    C4 9136   3.185   3.526  16.567  0.2435  0.7258 -0.6180
  613MPD2    C5 9137   3.246   3.571  16.680  0.0316 -0.0456 -0.7865
  613MPD2     H 9138   3.154   3.807  16.392  0.3555 -1.4354 -1.7275
  613MPD2    H1 9139   3.163   3.420  16.573  0.6441  0.6257 -0.9941
  613MPD2    H2 9140   3.341   3.749  16.769 -1.8553 -1.2324  1.6719
  613MPD2    H3 9141   3.283   3.502  16.755 -0.0077  0.9485  0.1379
  613MPD2     N 9142   3.076   3.546  16.359  0.4882  0.2575 -0.3908
  613MPD2    H5 9143   3.078   3.445  16.355 -0.4754  0.1681  1.4463
  613MPD2    N1 9144   3.308   3.923  16.601  0.2206 -0.5698  0.0058
  613MPD2    H7 9145   3.338   3.958  16.691  1.4421  0.0155 -0.6301
  614TMC3    C1 9146   3.322   4.001  16.366  0.5096  0.6113 -1.1638
  614TMC3    C2 9147   3.399   3.892  16.326  0.5484  0.2641 -0.2210
  614TMC3    C3 9148   3.415   3.859  16.196 -0.0030 -0.3449  0.3656
  614TMC3    C4 9149   3.283   4.093  16.270 -0.5151  0.4781  0.5031
  614TMC3    C5 9150   3.303   4.057  16.135 -0.2502  0.3078  0.1290
  614TMC3    C6 9151   3.358   3.932  16.093  0.1480  0.1689 -0.3997
  614TMC3     C 9152   3.306   4.025  16.505  0.0269  1.1610  0.2356
  614TMC3     O 9153   3.298   4.141  16.538  0.4535  0.1005  0.3989
  614TMC3     H 9154   3.454   3.843  16.406 -1.3437 -1.1457  0.2129
  614TMC3    H1 9155   3.259   4.190  16.313 -0.5934  0.7376 -0.1242
  614TMC3    H2 9156   3.371   3.902  15.990 -1.9165 -0.4518 -0.4832
  614TMC3    C7 9157   3.271   4.166  16.049  0.0221  0.6779 -0.2504
  614TMC3    C8 9158   3.454   3.722  16.158 -0.4128  0.0192  0.1978
  614TMC3    O1 9159   3.215   4.262  16.103 -0.5766 -0.1838  0.3315
  614TMC3    O2 9160   3.427   3.683  16.044 -0.2755 -0.1811 -0.1917
  615MPD2     C 9161   3.112   0.675  15.880  0.5391  0.6405  0.3945
  615MPD2    C1 9162   3.148   0.767  15.967  0.6454 -0.4068  0.0553
  615MPD2    C2 9163   3.103   0.897  15.951  0.0279 -0.8403 -0.4560
  615MPD2    C3 9164   3.016   0.926  15.844 -0.3903  0.2409 -0.1115
  615MPD2    C4 9165   2.983   0.829  15.757 -0.3711 -0.5647  0.2605
  615MPD2    C5 9166   3.024   0.705  15.783  0.3765  0.0301  1.4887
  615MPD2     H 9167   3.135   0.972  16.023 -2.8492  0.3796 -0.4592
  615MPD2    H1 9168   2.927   0.855  15.667  0.4385  1.5553  0.3745
  615MPD2    H2 9169   3.136   0.569  15.887  0.6459  0.7011  0.9645
  615MPD2    H3 9170   2.995   0.620  15.722 -2.3451  1.9862  0.0633
  615MPD2     N 9171   2.963   1.051  15.811  0.6494  0.1068 -0.5180
  615MPD2    H5 9172   2.924   1.069  15.719 -3.0987 -1.6434  0.7129
  615MPD2    N1 9173   3.238   0.746  16.075 -0.0937  0.2373  0.1054
  615MPD2    H7 9174   3.264   0.821  16.138  0.3875 -0.9389  1.3086
  616TMC3    C1 9175   3.342   0.608  16.225 -0.2207 -0.6972 -0.2657
  616TMC3    C2 9176   3.424   0.498  16.254  0.6566  0.3491  0.2576
  616TMC3    C3 9177   3.424   0.451  16.379  0.0162 -0.1951  0.7090
  616TMC3    C4 9178   3.286   0.683  16.326 -0.1725 -0.4022 -0.5829
  616TMC3    C5 9179   3.305   0.642  16.458  0.0057 -0.1121 -0.3365
  616TMC3    C6 9180   3.374   0.527  16.485 -0.3349  0.0329 -0.5142
  616TMC3     C 9181   3.308   0.629  16.086  0.1264 -0.2609  0.3139
  616TMC3     O 9182   3.314   0.525  16.019  0.1700 -0.2173  0.3310
  616TMC3     H 9183   3.466   0.430  16.180  0.2562  1.6781 -1.1898
  616TMC3    H1 9184   3.226   0.772  16.310 -0.2275 -0.4550 -0.6727
  616TMC3    H2 9185   3.374   0.485  16.585  2.3623  0.4640 -0.3472
  616TMC3    C7 9186   3.247   0.720  16.565  0.4185  0.6650  0.3202
  616TMC3    C8 9187   3.541   0.360  16.411  0.2034 -0.0395  0.3353
  616TMC3    O1 9188   3.165   0.805  16.525  0.2160 -0.3216 -0.3377
  616TMC3    O2 9189   3.525   0.271  16.493 -0.1455 -0.4016  0.0970
  617MPD2     C 9190   1.184   3.636  13.508  0.1691  0.0235  0.4404
  617MPD2    C1 9191   1.235   3.649  13.639  0.7752  0.3278 -0.1686
  617MPD2    C2 9192   1.155   3.607  13.747  0.8378 -0.3733 -0.7264
  617MPD2    C3 9193   1.022   3.565  13.717 -0.1991  0.0857 -0.4657
  617MPD2    C4 9194   0.972   3.559  13.588 -0.1034  0.6174 -0.3709
  617MPD2    C5 9195   1.060   3.600  13.489  0.2790  0.2205 -0.6385
  617MPD2     H 9196   1.192   3.619  13.848 -1.8329 -0.4908  0.2804
  617MPD2    H1 9197   0.878   3.511  13.563 -0.7112  1.0505  1.0931
  617MPD2    H2 9198   1.251   3.662  13.427  0.0267 -1.3390 -0.1128
  617MPD2    H3 9199   1.025   3.579  13.388 -1.0517 -0.2467 -0.0759
  617MPD2     N 9200   0.923   3.533  13.811  0.8378  0.0777 -0.5608
  617MPD2    H5 9201   0.829   3.513  13.778  0.5200  0.6186  0.0219
  617MPD2    N1 9202   1.369   3.693  13.658  0.0436 -0.3318 -0.8369
  617MPD2    H7 9203   1.414   3.718  13.570 -1.2536  1.1559 -1.0776
  618TMC3    C1 9204   1.571   3.764  13.751 -0.9020  0.2587 -0.1955
  618TMC3    C2 9205   1.661   3.771  13.853  0.0677 -0.4257 -0.0519
  618TMC3    C3 9206   1.794   3.803  13.832  0.3707 -0.3684  0.1842
  618TMC3    C4 9207   1.610   3.790  13.617  0.0749  0.2860  0.3655
  618TMC3    C5 9208   1.744   3.814  13.601 -0.0489 -0.1898 -0.2667
  618TMC3    C6 9209   1.838   3.822  13.703 -0.3648  0.4125 -0.0631
  618TMC3     C 9210   1.441   3.700  13.772 -0.2472 -0.4021 -0.4013
  618TMC3     O 9211   1.414   3.670  13.887  0.2814  0.8264  0.2108
  618TMC3     H 9212   1.622   3.745  13.951 -1.0667  1.3172 -0.0457
  618TMC3    H1 9213   1.550   3.783  13.528  1.4390  2.8077 -0.7434
  618TMC3    H2 9214   1.934   3.873  13.695 -1.2028  1.8389 -1.0586
  618TMC3    C7 9215   1.798   3.746  13.482  0.0587 -0.8103  0.0196
  618TMC3    C8 9216   1.893   3.735  13.916 -0.2831  0.2702 -0.8520
  618TMC3    O1 9217   1.722   3.705  13.395 -0.0985  0.0492  0.2786
  618TMC3    O2 9218   1.892   3.761  14.032  0.4166  0.5307 -0.2147
  619MPD2     C 9219   2.668   0.082  13.167 -0.1210  0.3113  0.3227
  619MPD2    C1 9220   2.566   0.153  13.222 -0.2993 -0.0337 -0.4422
  619MPD2    C2 9221   2.458   0.087  13.281  0.4461  0.1119 -0.2388
  619MPD2    C3 9222   2.459   4.686  13.287 -0.0947  0.4000  0.2837
  619MPD2    C4 9223   2.566   4.612  13.236 -0.3887 -0.2613  0.1293
  619MPD2    C5 9224   2.673   4.682  13.174  0.1251  0.3130  0.2830
  619MPD2     H 9225   2.374   0.145  13.317  1.6832  2.0395 -0.4185
  619MPD2    H1 9226   2.576   4.504  13.236  0.6646 -0.1780 -1.5836
  619MPD2    H2 9227   2.749   0.130  13.114 -1.3461  2.1962  0.1616
  619MPD2    H3 9228   2.757   4.628  13.132  0.2235 -0.4931  1.5115
  619MPD2     N 9229   2.352   4.610  13.348  0.2522  0.4394 -0.5750
  619MPD2    H5 9230   2.366   4.511  13.367 -1.4567  0.6780  2.0001
  619MPD2    N1 9231   2.542   0.290  13.198  0.4094 -0.4874 -0.0205
  619MPD2    H7 9232   2.454   0.329  13.232  1.9024  0.3184  2.8689
  620TMC3    C1 9233   2.551   0.494  13.077 -1.0094 -0.3695 -0.1507
  620TMC3    C2 9234   2.413   0.498  13.075 -0.6357 -0.0885 -0.5293
  620TMC3    C3 9235   2.347   0.605  13.018 -0.7600 -0.2303  0.0326
  620TMC3    C4 9236   2.624   0.597  13.025 -0.0879  0.0783  0.1148
  620TMC3    C5 9237   2.556   0.692  12.955 -0.1863  0.6733  0.0046
  620TMC3    C6 9238   2.422   0.697  12.947 -0.2123 -0.4303  0.4392
  620TMC3     C 9239   2.618   0.379  13.124  0.5946  0.1075  0.2065
  620TMC3     O 9240   2.727   0.355  13.071 -0.1060  0.6133 -0.0993
  620TMC3     H 9241   2.356   0.435  13.142  2.1637 -2.1519 -0.1059
  620TMC3    H1 9242   2.732   0.598  13.032 -0.1336 -1.5226  0.9375
  620TMC3    H2 9243   2.369   0.785  12.913 -0.3888  0.2225  2.3751
  620TMC3    C7 9244   2.613   0.827  12.927  0.8515  0.4230  0.3408
  620TMC3    C8 9245   2.260   0.676  13.110  0.0846 -0.6579  0.3274
  620TMC3    O1 9246   2.551   0.905  12.855  0.9087 -0.1173 -0.6225
  620TMC3    O2 9247   2.294   0.780  13.163 -0.0803 -0.1138 -0.6447
  621MPD2     C 9248   2.025   0.782   9.094 -0.1315 -0.4303  0.4009
  621MPD2    C1 9249   2.092   0.673   9.149 -0.0951 -0.0053 -0.6279
  621MPD2    C2 9250   2.187   0.704   9.245  0.0314 -0.8114  0.5124
  621MPD2    C3 9251   2.215   0.834   9.281 -0.1146 -0.0573 -0.1954
  621MPD2    C4 9252   2.154   0.940   9.213 -0.3291 -0.0273  0.7378
  621MPD2    C5 9253   2.053   0.909   9.132  0.4562  0.2262 -0.0790
  621MPD2     H 9254   2.227   0.622   9.304  1.0489 -1.4179 -1.0042
  621MPD2    H1 9255   2.175   1.046   9.222 -0.6926  0.0148  1.1136
  621MPD2    H2 9256   1.952   0.766   9.015 -1.3692  1.2361  1.2162
  621MPD2    H3 9257   2.006   0.989   9.076 -0.3270 -1.6001 -2.0430
  621MPD2     N 9258   2.309   0.847   9.388 -0.6055 -0.9931 -0.5533
  621MPD2    H5 9259   2.367   0.765   9.405 -0.2503 -0.6865 -0.2686
  621MPD2    N1 9260   2.057   0.539   9.109  0.1135  0.0267  0.3209
  621MPD2    H7 9261   1.970   0.538   9.057  0.8402  1.1992 -0.9415
  622TMC3    C1 9262   2.061   0.300   9.133  0.2715 -0.3737  0.5102
  622TMC3    C2 9263   1.930   0.297   9.166  0.3702 -0.0504  0.4643
  622TMC3    C3 9264   1.884   0.174   9.198  0.0236  0.3219 -0.3533
  622TMC3    C4 9265   2.136   0.186   9.119 -0.0986 -0.1522 -0.0169
  622TMC3    C5 9266   2.076   0.061   9.143  0.3329  0.2819 -0.3108
  622TMC3    C6 9267   1.951   0.051   9.191 -0.9186  0.5279 -0.5390
  622TMC3     C 9268   2.133   0.430   9.142 -1.0186  0.2107  0.1091
  622TMC3     O 9269   2.256   0.423   9.162 -0.4361 -0.0197 -0.3298
  622TMC3     H 9270   1.869   0.382   9.192 -1.2042 -0.0197 -3.2053
  622TMC3    H1 9271   2.233   0.194   9.072  0.5364  3.5472  1.8538
  622TMC3    H2 9272   1.903   4.691   9.213 -1.4758  1.2986  1.6064
  622TMC3    C7 9273   2.187   4.699   9.172  0.3399  0.2151 -1.0911
  622TMC3    C8 9274   1.766   0.157   9.276 -0.2252 -0.0063 -0.2143
  622TMC3    O1 9275   2.297   0.012   9.192 -0.1533  0.1719  0.0072
  622TMC3    O2 9276   1.760   0.069   9.362  0.0590  0.0579 -0.0058
  623MPD2     C 9277   1.871   0.617  15.463 -0.7708  0.1084 -0.5997
  623MPD2    C1 9278   1.758   0.646  15.535 -0.3000  0.7248  0.1236
  623MPD2    C2 9279   1.759   0.668  15.666 -0.1353 -1.1403 -0.0906
  623MPD2    C3 9280   1.872   0.660  15.742 -0.0510 -0.0907 -0.5007
  623MPD2    C4 9281   1.995   0.627  15.670  0.0139  0.3640 -0.2306
  623MPD2    C5 9282   1.989   0.602  15.534 -0.4164  0.0406 -0.3965
  623MPD2     H 9283   1.668   0.678  15.724  0.0739 -0.4588  0.1098
  623MPD2    H1 9284   2.087   0.615  15.725 -0.6025 -1.0300  0.5036
  623MPD2    H2 9285   1.888   0.613  15.356  0.7792 -0.3785 -0.3338
  623MPD2    H3 9286   2.082   0.581  15.483 -1.7496 -4.6040 -0.9558
  623MPD2     N 9287   1.863   0.679  15.880  0.7634  0.0532  0.5701
  623MPD2    H5 9288   1.773   0.705  15.919 -0.0129 -0.1620 -1.0966
  623MPD2    N1 9289   1.639   0.659  15.464 -0.5373  0.1486 -0.2624
  623MPD2    H7 9290   1.639   0.631  15.367  3.0215  1.5096 -0.6694
  624TMC3    C1 9291   2.043   0.790  16.304  0.4501  0.1120 -0.0223
  624TMC3    C2 9292   1.944   0.735  16.389 -0.5972  0.4096  0.2315
  624TMC3    C3 9293   1.836   0.676  16.320  0.2832  0.0887  0.0060
  624TMC3    C4 9294   2.051   0.768  16.170  0.5622 -0.0308 -0.0162
  624TMC3    C5 9295   1.944   0.714  16.110  0.1545 -0.4632  0.3247
  624TMC3    C6 9296   1.834   0.671  16.180 -0.0839  0.0229  0.1903
  624TMC3     C 9297   2.163   0.835  16.365 -0.2435 -0.0845  0.3942
  624TMC3     O 9298   2.201   0.796  16.472 -0.1199 -0.2142 -0.0635
  624TMC3     H 9299   1.957   0.736  16.497 -0.1251  0.1182  0.1804
  624TMC3    H1 9300   2.133   0.806  16.111  0.3277 -2.7011 -2.0482
  624TMC3    H2 9301   1.759   0.618  16.123 -1.6843 -0.5958  2.8571
  624TMC3    C7 9302   1.969   0.678  15.966  0.2755  0.4881  0.1787
  624TMC3    C8 9303   1.726   0.630  16.390  0.1167 -0.0413 -0.4824
  624TMC3    O1 9304   2.088   0.675  15.938  0.0230  0.0975 -0.0027
  624TMC3    O2 9305   1.621   0.626  16.329  0.3665  0.0781 -0.4134
  625MPD2     C 9306   2.613   1.535   0.439 -0.3123 -0.2934  0.4834
  625MPD2    C1 9307   2.556   1.644   0.506  0.5493  0.2630 -0.5580
  625MPD2    C2 9308   2.633   1.693   0.605  0.2757  0.2271  0.4499
  625MPD2    C3 9309   2.760   1.652   0.636 -0.0482 -0.0783  0.8203
  625MPD2    C4 9310   2.809   1.548   0.558  0.1416  0.3926  0.1334
  625MPD2    C5 9311   2.739   1.487   0.460  0.1905 -0.4890 -0.1647
  625MPD2     H 9312   2.592   1.770   0.669  2.0013  1.3182  0.2595
  625MPD2    H1 9313   2.908   1.509   0.578 -0.1840 -0.3006  0.3768
  625MPD2    H2 9314   2.564   1.491   0.353 -2.4428  0.8897  1.0966
  625MPD2    H3 9315   2.781   1.409   0.397  0.0176 -0.5948 -0.1488
  625MPD2     N 9316   2.842   1.745   0.702 -0.2691  0.6238  0.0812
  625MPD2    H5 9317   2.791   1.823   0.742  1.7681  0.9824  1.9453
  625MPD2    N1 9318   2.426   1.693   0.488 -0.3835 -0.2413  0.2913
  625MPD2    H7 9319   2.409   1.776   0.544 -1.2703  0.9566 -1.7903
  626TMC3    C1 9320   2.199   1.694   0.416  0.3001 -0.0640 -0.6249
  626TMC3    C2 9321   2.127   1.714   0.300 -0.3659 -0.0141  0.3344
  626TMC3    C3 9322   2.025   1.801   0.309 -0.1374 -0.0564 -0.3892
  626TMC3    C4 9323   2.177   1.771   0.523 -0.2347  0.5402 -0.4238
  626TMC3    C5 9324   2.063   1.850   0.533  1.1018 -0.0356  0.5442
  626TMC3    C6 9325   1.982   1.851   0.429 -0.9575  0.1148  0.0040
  626TMC3     C 9326   2.331   1.639   0.403  0.0658 -0.1389 -0.3330
  626TMC3     O 9327   2.348   1.554   0.318  0.0622 -0.3134 -0.2729
  626TMC3     H 9328   2.178   1.695   0.207  1.5699  1.1263  1.1680
  626TMC3    H1 9329   2.237   1.759   0.611 -0.2542 -0.8477 -0.5961
  626TMC3    H2 9330   1.897   1.917   0.444  0.8065  2.1229  1.1763
  626TMC3    C7 9331   2.030   1.896   0.671  0.3873  0.6434 -0.2221
  626TMC3    C8 9332   1.961   1.868   0.192 -0.2700  0.3418  0.5064
  626TMC3    O1 9333   2.115   1.881   0.760 -0.3312  0.3167  0.2229
  626TMC3    O2 9334   1.941   1.985   0.211  0.1794  0.1823 -0.7347
  627MPD2     C 9335   0.523   2.090  14.188 -0.0790 -0.4390 -0.1939
  627MPD2    C1 9336   0.650   2.112  14.152  0.2789 -0.1726 -0.2607
  627MPD2    C2 9337   0.702   2.054  14.036 -0.3384 -0.0071  0.0676
  627MPD2    C3 9338   0.622   1.976  13.956  0.2106 -0.0242  1.1889
  627MPD2    C4 9339   0.488   1.969  13.994 -0.2392  0.5821  0.2086
  627MPD2    C5 9340   0.442   2.025  14.105  0.5725 -0.2908  0.3081
  627MPD2     H 9341   0.804   2.077  14.008  0.2122 -0.6891  1.4819
  627MPD2    H1 9342   0.412   1.917  13.937  0.2731  2.4478 -2.1594
  627MPD2    H2 9343   0.486   2.121  14.285  1.9027 -1.9949  1.0641
  627MPD2    H3 9344   0.337   2.011  14.128  1.0200 -2.2249  1.1506
  627MPD2     N 9345   0.679   1.911  13.848  0.5055 -0.0339 -0.4006
  627MPD2    H5 9346   0.765   1.956  13.818  1.9042 -0.6011  2.8380
  627MPD2    N1 9347   0.736   2.196  14.223 -0.2792  0.6456 -0.0984
  627MPD2    H7 9348   0.833   2.192  14.195 -0.4578  0.2051 -0.6400
  628TMC3    C1 9349   0.811   2.347  14.384  0.7093 -0.1204 -0.6343
  628TMC3    C2 9350   0.935   2.286  14.376  0.5863  0.1086  0.3282
  628TMC3    C3 9351   1.053   2.365  14.381 -0.0770  0.0088  0.5489
  628TMC3    C4 9352   0.799   2.477  14.406  0.5061 -0.7648 -0.3057
  628TMC3    C5 9353   0.916   2.549  14.426 -0.1364  0.3295 -0.4926
  628TMC3    C6 9354   1.040   2.501  14.401  0.4524 -0.1859 -0.2921
  628TMC3     C 9355   0.701   2.275  14.320 -0.0603 -0.9279  0.1535
  628TMC3     O 9356   0.589   2.321  14.339  0.2851 -0.9243  0.1125
  628TMC3     H 9357   0.932   2.180  14.355 -0.1689  0.4336 -1.1398
  628TMC3    H1 9358   0.705   2.529  14.421  0.4512 -1.2426  1.0218
  628TMC3    H2 9359   1.125   2.563  14.428 -0.2121  0.0338  1.3399
  628TMC3    C7 9360   0.910   2.671  14.505  0.2451  0.0011 -0.3303
  628TMC3    C8 9361   1.173   2.312  14.444  0.4167  1.0409 -0.1317
  628TMC3    O1 9362   0.997   2.682  14.589  0.1137 -0.6506 -0.0804
  628TMC3    O2 9363   1.275   2.384  14.427  0.1705  0.2477 -0.3155
  629MPD2     C 9364   4.047   0.267  16.402  0.1551  0.2430  0.0116
  629MPD2    C1 9365   4.014   0.371  16.326  0.1787 -0.0151  0.1052
  629MPD2    C2 9366   3.887   0.402  16.301 -0.0878  0.7794 -0.5227
  629MPD2    C3 9367   3.783   0.335  16.357  0.4880 -0.5484  0.0164
  629MPD2    C4 9368   3.813   0.225  16.437 -0.4850 -0.0573 -0.0758
  629MPD2    C5 9369   3.944   0.197  16.461 -0.2791 -0.6971  0.3352
  629MPD2     H 9370   3.868   0.487  16.235 -1.9797 -0.8457 -2.0643
  629MPD2    H1 9371   3.738   0.160  16.479  0.8830 -1.5284  0.1054
  629MPD2    H2 9372   4.152   0.248  16.420 -0.4774 -2.7750  0.5656
  629MPD2    H3 9373   3.968   0.129  16.541  0.5928  0.4078  1.0147
  629MPD2     N 9374   3.654   0.388  16.331  0.0970  0.3120  0.6262
  629MPD2    H5 9375   3.649   0.456  16.256 -0.9021 -1.8826 -1.2946
  629MPD2    N1 9376   4.119   0.453  16.291  0.0272 -0.5921  0.4807
  629MPD2    H7 9377   4.207   0.436  16.339 -0.2911 -1.5089  0.7403
  630TMC3    C1 9378   4.236   0.646  16.248 -0.1684  0.1198 -0.1656
  630TMC3    C2 9379   4.275   0.740  16.155 -0.5919 -0.3760  0.0652
  630TMC3    C3 9380   4.355   0.844  16.194  0.4929 -0.0215 -0.0299
  630TMC3    C4 9381   4.267   0.664  16.381  0.1324  0.2235 -0.9580
  630TMC3    C5 9382   4.327   0.779  16.413 -0.6762  0.3489  0.2760
  630TMC3    C6 9383   4.384   0.865  16.325 -0.4236 -0.2300  0.6679
  630TMC3     C 9384   4.115   0.570  16.221  0.6192  0.5403  0.4402
  630TMC3     O 9385   4.032   0.609  16.140 -0.0470  0.1640 -0.0063
  630TMC3     H 9386   4.234   0.741  16.055  1.8595  0.7432 -0.9331
  630TMC3    H1 9387   4.223   0.598  16.454  0.1023  1.2763 -0.0336
  630TMC3    H2 9388   4.446   0.949  16.352  1.7696 -2.0537  1.2904
  630TMC3    C7 9389   4.328   0.814  16.556  0.9297  0.6522  0.5790
  630TMC3    C8 9390   4.408   0.937  16.104  0.3017 -0.0818  0.8076
  630TMC3    O1 9391   4.313   0.716  16.633 -0.2337 -0.4142 -0.0329
  630TMC3    O2 9392   4.519   0.980  16.130  0.1346  0.4734  0.1927
  631MPD2     C 9393   2.208   1.479  15.382 -0.3581  0.2780  0.8369
  631MPD2    C1 9394   2.301   1.577  15.403  0.1095  0.7916  0.1896
  631MPD2    C2 9395   2.405   1.565  15.492 -0.1224 -0.2374  0.4251
  631MPD2    C3 9396   2.423   1.444  15.555  0.4839 -0.4596  0.4377
  631MPD2    C4 9397   2.331   1.339  15.534  0.1798  0.1727 -0.1385
  631MPD2    C5 9398   2.225   1.363  15.452  0.0490 -0.5973  0.0030
  631MPD2     H 9399   2.471   1.648  15.516 -0.5371  0.7127 -1.7135
  631MPD2    H1 9400   2.331   1.245  15.588 -1.6533  0.6039  0.6093
  631MPD2    H2 9401   2.131   1.493  15.308 -0.5017 -2.4738  0.4739
  631MPD2    H3 9402   2.149   1.290  15.426 -0.4493 -0.4852  1.1389
  631MPD2     N 9403   2.530   1.430  15.641 -0.2166 -0.2904  0.5346
  631MPD2    H5 9404   2.592   1.510  15.647  0.6115 -0.9438  0.6793
  631MPD2    N1 9405   2.279   1.693  15.328 -0.0169  0.3985  0.1646
  631MPD2    H7 9406   2.200   1.691  15.264  0.1836  0.3290 -0.0774
  632TMC3    C1 9407   2.331   1.873  15.201 -0.3620  0.0138 -0.8911
  632TMC3    C2 9408   2.203   1.904  15.182 -0.1028 -0.7893  0.2349
  632TMC3    C3 9409   2.158   1.911  15.059 -0.2770  0.9561  0.6833
  632TMC3    C4 9410   2.407   1.846  15.094  0.0088 -0.5095 -0.2504
  632TMC3    C5 9411   2.354   1.852  14.972  0.2850 -0.1278 -0.3827
  632TMC3    C6 9412   2.226   1.885  14.949  0.1058  0.7736 -0.3512
  632TMC3     C 9413   2.367   1.797  15.317  0.0258 -0.0337 -1.1653
  632TMC3     O 9414   2.487   1.806  15.356 -0.3883 -0.2975 -0.5984
  632TMC3     H 9415   2.144   1.930  15.269  1.9457  3.2908  0.4363
  632TMC3    H1 9416   2.513   1.828  15.104 -0.1736 -2.1717 -1.2637
  632TMC3    H2 9417   2.172   1.885  14.855  0.5370 -1.3692 -0.5968
  632TMC3    C7 9418   2.398   1.771  14.861 -0.0769 -0.3734  0.0152
  632TMC3    C8 9419   2.016   1.912  15.049  0.3137 -0.5230 -0.1295
  632TMC3    O1 9420   2.329   1.799  14.762  0.3658  0.1563 -0.0613
  632TMC3    O2 9421   1.964   1.879  15.153  0.1281  0.7516  0.2317
  633MPD2     C 9422   1.203   3.740  17.037  0.5033 -0.0251  0.8567
  633MPD2    C1 9423   1.221   3.670  16.922  0.8626 -0.4871 -0.8742
  633MPD2    C2 9424   1.289   3.551  16.930  0.4075 -0.5195  0.1019
  633MPD2    C3 9425   1.339   3.507  17.050  0.5706  0.0578  0.2994
  633MPD2    C4 9426   1.318   3.583  17.164 -0.3070  0.6573  0.3213
  633MPD2    C5 9427   1.249   3.698  17.154 -0.3572 -0.5387 -0.0251
  633MPD2     H 9428   1.314   3.494  16.841  0.4899 -0.0847 -0.1522
  633MPD2    H1 9429   1.367   3.567  17.259  1.1809 -1.4822 -0.8206
  633MPD2    H2 9430   1.156   3.838  17.034  0.6063 -0.0831 -2.9707
  633MPD2    H3 9431   1.234   3.766  17.237  1.2519  2.1935 -1.9843
  633MPD2     N 9432   1.413   3.387  17.044 -0.0632 -1.3311  0.4734
  633MPD2    H5 9433   1.405   3.337  16.956 -1.2939  0.7613 -0.6154
  633MPD2    N1 9434   1.186   3.730  16.801  0.3293  0.4369  0.7372
  633MPD2    H7 9435   1.202   3.664  16.726 -0.7705  2.1083 -0.9739
  634TMC3    C1 9436   1.143   3.886  16.639  0.4474 -0.0253  0.7403
  634TMC3    C2 9437   1.106   3.791  16.540 -0.0811  0.4601 -0.0298
  634TMC3    C3 9438   1.129   3.825  16.408  0.0624 -1.0348 -0.0244
  634TMC3    C4 9439   1.225   3.990  16.605  0.0347 -0.2137  0.6344
  634TMC3    C5 9440   1.261   4.007  16.475 -0.8378  0.2898  0.1045
  634TMC3    C6 9441   1.216   3.926  16.378  0.7397 -0.3541 -0.1807
  634TMC3     C 9442   1.144   3.862  16.779 -0.3029  0.3691 -0.5522
  634TMC3     O 9443   1.151   3.966  16.844  0.7671  0.2088 -0.0932
  634TMC3     H 9444   1.042   3.707  16.565  1.0757 -0.4033  0.0117
  634TMC3    H1 9445   1.255   4.064  16.679  0.9797  1.0732 -1.0361
  634TMC3    H2 9446   1.237   3.934  16.272 -0.3948  0.9664 -0.3151
  634TMC3    C7 9447   1.376   4.091  16.442 -1.0046 -0.3598  0.0810
  634TMC3    C8 9448   1.134   3.714  16.313  0.2380 -0.2274 -0.0072
  634TMC3    O1 9449   1.413   4.090  16.328 -0.2609  0.2831  0.0366
  634TMC3    O2 9450   1.171   3.617  16.378 -0.5103  0.8878 -0.0837
  635TMC3    C1 9451   1.688   4.454   0.136  0.9167  0.1857  0.7985
  635TMC3    C2 9452   1.721   4.441   0.001  0.7418 -0.1377 -0.8361
  635TMC3    C3 9453   1.708   4.324  17.680  0.2516  0.4195 -0.3108
  635TMC3    C4 9454   1.645   4.346   0.209 -0.0120  0.3994 -0.3674
  635TMC3    C5 9455   1.629   4.229   0.143  0.3712  0.0076 -0.2164
  635TMC3    C6 9456   1.654   4.209   0.011  0.8451 -0.1456 -0.8530
  635TMC3     C 9457   1.735   4.580   0.205  0.3236  0.1835  0.2510
  635TMC3     O 9458   1.756   4.680   0.143 -0.4138 -0.1331 -0.2665
  635TMC3     H 9459   1.770   4.527  17.697 -0.7455  0.6865 -0.8601
  635TMC3    H1 9460   1.630   4.346   0.316  0.0614 -0.8419 -0.3562
  635TMC3    H2 9461   1.628   4.117  17.702  0.5899 -1.2006  1.2126
  635TMC3    C7 9462   1.586   4.124   0.230 -0.1610  0.5255  0.0532
  635TMC3    C8 9463   1.749   4.312  17.541 -0.0492 -0.2670 -0.0917
  635TMC3    O1 9464   1.525   4.157   0.329 -0.5429 -0.3498 -0.3041
  635TMC3    O2 9465   1.707   4.392  17.462 -0.3173  0.2056 -0.2971
  636MPD2     C 9466   3.023   4.051  15.485 -0.4220 -0.1807  0.2246
  636MPD2    C1 9467   2.990   4.094  15.611  0.2864  0.3774 -0.2008
  636MPD2    C2 9468   3.012   4.010  15.718  0.6174 -0.3662  0.2521
  636MPD2    C3 9469   3.055   3.881  15.702 -0.3621 -0.6159 -0.1224
  636MPD2    C4 9470   3.081   3.838  15.573 -0.4168 -0.1298 -0.6948
  636MPD2    C5 9471   3.071   3.920  15.472  0.1123 -0.2003 -0.2872
  636MPD2     H 9472   2.997   4.035  15.822 -2.5743 -2.8031  0.3859
  636MPD2    H1 9473   3.122   3.742  15.541  0.3184 -0.9506  2.7817
  636MPD2    H2 9474   3.026   4.111  15.395  2.3899  2.0226  1.7605
  636MPD2    H3 9475   3.105   3.880  15.377  1.3540  0.7688 -0.2521
  636MPD2     N 9476   3.072   3.794  15.816 -0.5783 -0.1498 -0.3202
  636MPD2    H5 9477   3.034   3.827  15.904  1.7507 -0.7280  0.9313
  636MPD2    N1 9478   2.964   4.231  15.635 -0.0042  0.5150  0.1442
  636MPD2    H7 9479   2.949   4.270  15.728  0.9144 -0.6787  0.7838
  637TMC3    C1 9480   3.118   3.585  15.930  0.0344 -0.0253 -0.7319
  637TMC3    C2 9481   3.031   3.624  16.031 -0.1411 -0.4019 -0.0386
  637TMC3    C3 9482   3.007   3.540  16.134  0.5087  0.7414 -0.1068
  637TMC3    C4 9483   3.172   3.464  15.927  0.5556  0.5149 -0.1640
  637TMC3    C5 9484   3.151   3.380  16.032 -0.9856  0.2708 -0.4766
  637TMC3    C6 9485   3.068   3.416  16.136 -0.3157  0.4148  0.1107
  637TMC3     C 9486   3.122   3.664  15.808 -0.3612 -0.4286  0.1356
  637TMC3     O 9487   3.161   3.604  15.713  0.5237  0.2996  0.1066
  637TMC3     H 9488   2.985   3.722  16.035  1.6121  0.4776 -1.0910
  637TMC3    H1 9489   3.246   3.440  15.852 -0.7450  0.6600 -1.4950
  637TMC3    H2 9490   3.053   3.340  16.212 -0.1713  0.5057  0.2318
  637TMC3    C7 9491   3.206   3.246  16.031  0.4108  0.4171  0.3042
  637TMC3    C8 9492   3.011   3.611  16.258  0.7125  0.1954 -0.3386
  637TMC3    O1 9493   3.175   3.169  15.942 -0.3823 -0.4486 -0.5949
  637TMC3    O2 9494   3.002   3.730  16.242  0.1491 -0.0617  0.0179
  638MPD2     C 9495   3.120   2.939  14.770 -0.3528  0.0532  0.2569
  638MPD2    C1 9496   3.072   2.864  14.666 -0.0071 -0.0690 -0.1867
  638MPD2    C2 9497   2.986   2.763  14.696 -0.1066 -0.2375  0.4923
  638MPD2    C3 9498   2.941   2.731  14.823  0.7419  0.3884  0.7210
  638MPD2    C4 9499   2.988   2.813  14.921  0.2580 -0.6078 -0.7344
  638MPD2    C5 9500   3.077   2.917  14.900 -0.7352 -0.0429 -0.2464
  638MPD2     H 9501   2.954   2.691  14.622  0.4046 -0.1715  0.2046
  638MPD2    H1 9502   2.972   2.793  15.027  0.7180 -1.2170 -0.7814
  638MPD2    H2 9503   3.192   3.018  14.751 -1.6236  0.6951 -1.8762
  638MPD2    H3 9504   3.124   2.980  14.974 -0.0113 -0.6865 -0.1566
  638MPD2     N 9505   2.874   2.610  14.854  0.3833 -0.4039 -0.4142
  638MPD2    H5 9506   2.858   2.591  14.952  1.2139 -1.8308 -0.5507
  638MPD2    N1 9507   3.123   2.882  14.538 -0.0571  0.1622  0.3471
  638MPD2    H7 9508   3.191   2.956  14.523 -0.1993  0.2373  0.0773
  639TMC3    C1 9509   2.789   2.400  14.805  0.5849 -1.0604 -0.1624
  639TMC3    C2 9510   2.745   2.335  14.690 -0.8124 -0.0133  0.0276
  639TMC3    C3 9511   2.810   2.222  14.649  0.1048 -0.2143  1.2297
  639TMC3    C4 9512   2.896   2.340  14.882  0.7318  0.1866 -0.1148
  639TMC3    C5 9513   2.954   2.233  14.823 -0.7098 -0.1333  0.4562
  639TMC3    C6 9514   2.924   2.172  14.706  0.3738 -0.1629 -0.1443
  639TMC3     C 9515   2.820   2.529  14.761 -0.3553 -0.1473 -0.2441
  639TMC3     O 9516   2.808   2.536  14.641 -1.1058  0.1976  0.2975
  639TMC3     H 9517   2.649   2.359  14.646  0.0099 -0.8620 -2.2289
  639TMC3    H1 9518   2.945   2.393  14.963 -0.3421  1.7256 -0.4743
  639TMC3    H2 9519   2.963   2.074  14.682 -1.7847 -0.7697 -1.2410
  639TMC3    C7 9520   3.080   2.191  14.881  0.2760  0.4112  0.1000
  639TMC3    C8 9521   2.809   2.204  14.510 -0.7743  0.0132 -0.3549
  639TMC3    O1 9522   3.098   2.198  15.002  0.2592  0.1397  0.1430
  639TMC3    O2 9523   2.859   2.098  14.481  0.6416  0.6053  0.1469
  640MPD2     C 9524   3.293   1.664  10.171  0.2761  0.4930 -0.1316
  640MPD2    C1 9525   3.295   1.661  10.031 -0.6576  0.0297 -0.4939
  640MPD2    C2 9526   3.380   1.747   9.963 -0.5340  0.9982 -0.5499
  640MPD2    C3 9527   3.467   1.831  10.030  0.3808 -0.3113 -0.2913
  640MPD2    C4 9528   3.452   1.845  10.166 -0.5609 -0.5459  0.8001
  640MPD2    C5 9529   3.364   1.764  10.229  0.1116  1.3169 -0.0379
  640MPD2     H 9530   3.390   1.738   9.856 -0.6876  0.9010 -0.5562
  640MPD2    H1 9531   3.507   1.913  10.230 -1.3734  1.1857 -0.3381
  640MPD2    H2 9532   3.240   1.591  10.231  2.5932 -1.3122 -0.3016
  640MPD2    H3 9533   3.352   1.771  10.337 -2.7687  1.8477 -0.3982
  640MPD2     N 9534   3.564   1.909   9.960  0.3447  0.0271  0.6149
  640MPD2    H5 9535   3.610   1.978  10.019  0.3260  0.5098  0.0632
  640MPD2    N1 9536   3.206   1.571   9.962 -0.7971  0.4111 -0.0265
  640MPD2    H7 9537   3.169   1.495  10.019  2.5182 -1.4025 -0.2799
  641TMC3    C1 9538   3.112   1.462   9.783 -0.6723  0.0792  0.2053
  641TMC3    C2 9539   3.160   1.339   9.827  0.5857  0.4954  0.7008
  641TMC3    C3 9540   3.144   1.238   9.741 -0.7303  0.6750 -0.0522
  641TMC3    C4 9541   3.042   1.474   9.670  0.3633 -0.5478  1.0752
  641TMC3    C5 9542   3.018   1.368   9.591 -0.8255  0.2381  0.4202
  641TMC3    C6 9543   3.063   1.244   9.626 -0.3590 -0.1548 -0.6685
  641TMC3     C 9544   3.177   1.580   9.826  0.1462 -0.7930  0.3655
  641TMC3     O 9545   3.182   1.677   9.749  0.0642  0.3407  0.5097
  641TMC3     H 9546   3.219   1.319   9.916  2.1983 -0.8385 -0.6660
  641TMC3    H1 9547   3.003   1.570   9.639  0.0366 -1.6317 -1.9110
  641TMC3    H2 9548   3.047   1.156   9.565 -2.9639 -0.8630  1.0501
  641TMC3    C7 9549   2.930   1.379   9.472 -0.6422 -0.0464 -0.3497
  641TMC3    C8 9550   3.207   1.105   9.765  0.1933  0.0017  0.0128
  641TMC3    O1 9551   2.878   1.275   9.437  0.0132 -0.4547 -0.2877
  641TMC3    O2 9552   3.152   1.010   9.706 -0.5240 -0.3689 -0.2220
  642TMC3    C1 9553   0.222   2.351  12.252 -0.7399  0.0312  0.3599
  642TMC3    C2 9554   0.318   2.412  12.180  0.1222  0.8013  0.5977
  642TMC3    C3 9555   0.374   2.341  12.077  0.0896  0.4152 -0.1980
  642TMC3    C4 9556   0.170   2.230  12.223 -0.5362 -0.5681 -0.2955
  642TMC3    C5 9557   0.234   2.163  12.122  0.2403  0.8565 -0.0268
  642TMC3    C6 9558   0.334   2.217  12.049 -0.1092  1.0256 -0.5878
  642TMC3     C 9559   0.178   2.426  12.371  0.4291  0.5896  0.2038
  642TMC3     O 9560   0.257   2.512  12.410 -0.1376 -0.1808 -0.3401
  642TMC3     H 9561   0.350   2.510  12.211  1.7566  0.7427 -0.9252
  642TMC3    H1 9562   0.075   2.200  12.265 -0.3386 -0.8913 -0.0754
  642TMC3    H2 9563   0.387   2.152  11.981  0.3929 -0.1093  0.8854
  642TMC3    C7 9564   0.198   2.028  12.092 -0.3731  0.4261  0.4728
  642TMC3    C8 9565   0.450   2.405  11.973 -0.1945 -0.4191  1.2297
  642TMC3    O1 9566   0.225   1.987  11.980  0.0331 -0.4239 -0.1801
  642TMC3    O2 9567   0.457   2.350  11.863  0.4577  0.0328 -0.4092
  643TMC3    C1 9568   3.866   1.578  17.695  0.1107  0.2205  0.1501
  643TMC3    C2 9569   3.790   1.652  17.613  0.4575 -0.6962 -0.6224
  643TMC3    C3 9570   3.726   1.593  17.510 -0.8928  0.7701 -0.3393
  643TMC3    C4 9571   3.903   1.448  17.670 -1.0687 -0.4035 -0.0878
  643TMC3    C5 9572   3.849   1.390  17.559 -0.2634 -0.6083 -0.1035
  643TMC3    C6 9573   3.751   1.460  17.481 -0.2434  0.3561  0.0240
  643TMC3     C 9574   3.900   1.636   0.078 -0.4035 -0.0229  0.1611
  643TMC3     O 9575   3.888   1.755   0.094  0.6315  0.9980  0.0771
  643TMC3     H 9576   3.771   1.755  17.642 -1.6665 -1.3934  0.4413
  643TMC3    H1 9577   3.981   1.393  17.721  1.6292  1.4132 -2.2851
  643TMC3    H2 9578   3.706   1.404  17.399 -1.9562 -0.6151  1.6165
  643TMC3    C7 9579   3.870   1.244  17.551 -0.1151  0.2176  0.3172
  643TMC3    C8 9580   3.721   1.667  17.384 -0.3648  0.0697  0.3637
  643TMC3    O1 9581   3.838   1.182  17.651 -0.0892 -0.5272 -0.3426
  643TMC3    O2 9582   3.679   1.617  17.283 -0.1534  0.0905 -0.1727
  644MPD2     C 9583   3.196   2.124   9.989  0.1194 -0.8384 -0.1562
  644MPD2    C1 9584   3.272   2.189   9.892 -0.5145 -0.6144  0.1597
  644MPD2    C2 9585   3.366   2.277   9.928  1.2651 -0.5737  0.5579
  644MPD2    C3 9586   3.387   2.316  10.060  0.3797 -0.1805 -0.3389
  644MPD2    C4 9587   3.317   2.246  10.156  0.0766 -0.2485 -0.0637
  644MPD2    C5 9588   3.233   2.139  10.121 -0.0520 -0.0005  0.4458
  644MPD2     H 9589   3.418   2.339   9.856  0.7418  0.3322  0.9609
  644MPD2    H1 9590   3.327   2.270  10.261  2.0870  1.0263 -0.5712
  644MPD2    H2 9591   3.132   2.041   9.963 -2.8272  1.0810  0.9707
  644MPD2    H3 9592   3.183   2.076  10.195 -0.1610  1.0473  1.2683
  644MPD2     N 9593   3.474   2.417  10.109 -0.0830  0.1547  0.5060
  644MPD2    H5 9594   3.484   2.429  10.210 -2.9602  1.5220  0.6298
  644MPD2    N1 9595   3.259   2.147   9.757  0.4187 -0.2957  0.2789
  644MPD2    H7 9596   3.205   2.064   9.735  1.1848 -0.8426  0.4793
  645TMC3    C1 9597   3.645   2.578  10.089 -0.2868 -1.0476 -0.1545
  645TMC3    C2 9598   3.713   2.672  10.010 -0.4138  0.0741  0.5714
  645TMC3    C3 9599   3.808   2.755  10.069 -0.1777 -0.6111 -0.0838
  645TMC3    C4 9600   3.663   2.573  10.226 -0.4473  0.9081  0.7223
  645TMC3    C5 9601   3.751   2.666  10.278 -0.3298  0.4591  0.1923
  645TMC3    C6 9602   3.827   2.759  10.203  0.0408  0.1971  0.7646
  645TMC3     C 9603   3.546   2.503  10.025 -0.4096 -0.1170  0.1526
  645TMC3     O 9604   3.535   2.514   9.904 -0.2668  0.3562  0.1505
  645TMC3     H 9605   3.681   2.680   9.907 -0.3774 -0.2253  0.5353
  645TMC3    H1 9606   3.623   2.495  10.290 -1.9530  0.6661 -0.5103
  645TMC3    H2 9607   3.883   2.838  10.251  0.5705 -0.2855  0.9418
  645TMC3    C7 9608   3.768   2.676  10.421  0.6250  0.0956  0.0621
  645TMC3    C8 9609   3.934   2.796  10.000  0.4997  0.8159 -0.4808
  645TMC3    O1 9610   3.864   2.733  10.465  0.1479 -0.8844 -0.3873
  645TMC3    O2 9611   3.991   2.890  10.047 -0.3227 -0.9188 -0.1020
  646MPD2     C 9612   3.417   1.460  13.962  0.2497  0.8488  0.2273
  646MPD2    C1 9613   3.307   1.420  14.033  0.1200  0.1662  0.0289
  646MPD2    C2 9614   3.184   1.479  13.996 -0.1238 -0.5359 -0.9432
  646MPD2    C3 9615   3.177   1.566  13.887  0.1669  0.2448  0.2841
  646MPD2    C4 9616   3.284   1.585  13.807  0.3171 -0.3638 -0.8314
  646MPD2    C5 9617   3.407   1.533  13.843 -0.2179  0.2576 -0.1209
  646MPD2     H 9618   3.097   1.458  14.057 -0.1003  0.2169 -0.6529
  646MPD2    H1 9619   3.285   1.649  13.719  2.4574  1.1065  0.2462
  646MPD2    H2 9620   3.516   1.425  13.990  0.4342  1.7086  0.6355
  646MPD2    H3 9621   3.495   1.553  13.785 -0.8524 -0.2810 -1.2684
  646MPD2     N 9622   3.056   1.635  13.857  0.2127  0.1992 -0.5172
  646MPD2    H5 9623   2.988   1.617  13.930  0.1182  0.4146 -0.5503
  646MPD2    N1 9624   3.327   1.330  14.146 -0.7417 -0.1716  0.3345
  646MPD2    H7 9625   3.421   1.307  14.177 -0.1998  2.7304  0.7817
  647TMC3    C1 9626   3.270   1.176  14.315 -0.6644  0.1358  0.6146
  647TMC3    C2 9627   3.168   1.127  14.392  0.3700 -0.1200  0.2768
  647TMC3    C3 9628   3.204   1.067  14.513  0.8874  0.0833 -0.3410
  647TMC3    C4 9629   3.399   1.147  14.346  0.3233 -0.7037  0.1210
  647TMC3    C5 9630   3.423   1.076  14.462  0.0728  0.2102  0.2768
  647TMC3    C6 9631   3.329   1.041  14.553 -0.1005 -0.0322  0.0195
  647TMC3     C 9632   3.222   1.263  14.212  0.6961 -0.1168  0.1710
  647TMC3     O 9633   3.105   1.284  14.206 -0.3682 -0.0854 -0.0023
  647TMC3     H 9634   3.066   1.154  14.369 -0.4656 -3.2442  0.3077
  647TMC3    H1 9635   3.481   1.164  14.278  1.9735  0.3013  2.3691
  647TMC3    H2 9636   3.357   0.997  14.649 -1.9286  0.0282  0.5877
  647TMC3    C7 9637   3.560   1.061  14.511  0.5069  0.0652  0.0229
  647TMC3    C8 9638   3.107   1.004  14.591 -0.6349 -0.4321 -0.0339
  647TMC3    O1 9639   3.579   1.066  14.629 -0.0790 -0.1941  0.1765
  647TMC3    O2 9640   3.125   1.001  14.711  0.3338 -0.2445 -0.2057
  648TMC3    C1 9641   2.160   3.699  16.061  0.2066  0.4520 -0.8716
  648TMC3    C2 9642   2.278   3.629  16.086  0.6377 -0.1250 -0.2315
  648TMC3    C3 9643   2.370   3.637  15.984  1.1243  0.5640 -0.3190
  648TMC3    C4 9644   2.135   3.778  15.946 -0.8902  0.0844 -0.0157
  648TMC3    C5 9645   2.241   3.787  15.858  0.1965  0.6643  0.3635
  648TMC3    C6 9646   2.356   3.717  15.870  0.3362 -0.3448  0.3857
  648TMC3     C 9647   2.061   3.693  16.169 -0.4078 -0.1181 -0.0338
  648TMC3     O 9648   2.103   3.654  16.274 -0.1462  0.3822 -0.1317
  648TMC3     H 9649   2.299   3.571  16.175 -1.7783  0.2092  0.5676
  648TMC3    H1 9650   2.051   3.846  15.944 -0.6972  0.2573 -2.5213
  648TMC3    H2 9651   2.426   3.717  15.788 -1.0544 -2.8102 -0.8047
  648TMC3    C7 9652   2.226   3.891  15.759  0.1710 -0.0081 -0.6152
  648TMC3    C8 9653   2.485   3.541  15.999  0.1256  0.0251 -0.0656
  648TMC3    O1 9654   2.327   3.914  15.695  0.4148 -0.6207  0.8687
  648TMC3    O2 9655   2.511   3.505  16.112  0.1929 -0.0140 -0.3621
  649TMC3    C1 9656   1.610   0.114  12.780 -0.5115 -0.8736 -0.3092
  649TMC3    C2 9657   1.748   0.090  12.801  0.6843 -0.4647  0.0019
  649TMC3    C3 9658   1.775   0.022  12.913 -0.3020 -0.4135 -0.5909
  649TMC3    C4 9659   1.522   0.100  12.882  0.4468  0.0403 -0.2210
  649TMC3    C5 9660   1.556   0.033  12.994  1.0550 -0.1995  0.2729
  649TMC3    C6 9661   1.682   4.728  13.008  0.7332 -0.2584  0.6114
  649TMC3     C 9662   1.564   0.180  12.665 -0.0050 -0.0727 -0.1991
  649TMC3     O 9663   1.445   0.156  12.634  0.0422  0.0494  0.1844
  649TMC3     H 9664   1.819   0.107  12.721  1.1745 -0.6761  0.3968
  649TMC3    H1 9665   1.422   0.136  12.862  1.0239  1.7374 -0.1126
  649TMC3    H2 9666   1.711   4.689  13.106 -0.2082 -2.1656  0.1299
  649TMC3    C7 9667   1.457   0.015  13.092  0.1807 -0.5167 -0.3071
  649TMC3    C8 9668   1.916   0.024  12.954 -0.0656  0.5434  0.0407
  649TMC3    O1 9669   1.350   0.075  13.086 -0.2798  0.3340  0.3648
  649TMC3    O2 9670   1.949   4.660  13.013 -0.0568 -0.1542 -0.0769
  650TMC3    C1 9671   3.971   1.473  12.367  0.3421 -0.2849  0.2639
  650TMC3    C2 9672   3.951   1.553  12.473 -0.2315  0.3315 -0.7093
  650TMC3    C3 9673   3.906   1.674  12.446 -0.1470 -0.1728 -0.2678
  650TMC3    C4 9674   3.928   1.502  12.237 -0.5596 -0.2415 -0.0579
  650TMC3    C5 9675   3.869   1.623  12.223 -0.1678  0.4997 -0.4357
  650TMC3    C6 9676   3.856   1.711  12.323  0.7274  0.0625  0.9919
  650TMC3     C 9677   3.966   1.332  12.404 -0.4383  0.2684 -0.7222
  650TMC3     O 9678   3.995   1.248  12.320  0.2390  0.1171  0.3997
  650TMC3     H 9679   3.979   1.538  12.576  0.1740  1.1412 -0.7079
  650TMC3    H1 9680   3.947   1.431  12.157  2.4225 -0.0082  0.4607
  650TMC3    H2 9681   3.827   1.814  12.307  0.2221 -0.7908 -3.5670
  650TMC3    C7 9682   3.796   1.673  12.102 -0.1482 -0.9000 -1.2620
  650TMC3    C8 9683   3.889   1.779  12.540  0.0760 -0.1863  0.2398
  650TMC3    O1 9684   3.738   1.600  12.024  0.6429  0.1067 -0.5867
  650TMC3    O2 9685   3.990   1.819  12.592  0.0824  0.4153 -0.5473
  651MPD2     C 9686   2.974   3.574  10.351 -0.3401  0.5925  0.6181
  651MPD2    C1 9687   2.949   3.707  10.325 -0.0263  0.5010  0.3253
  651MPD2    C2 9688   3.055   3.793  10.291  0.4793  0.7244 -0.2480
  651MPD2    C3 9689   3.185   3.755  10.287 -0.6372  0.5781  0.0472
  651MPD2    C4 9690   3.203   3.620  10.310 -0.2624 -0.3474  0.1655
  651MPD2    C5 9691   3.104   3.530  10.347  0.9111 -0.7819 -0.3060
  651MPD2     H 9692   3.038   3.899  10.276 -1.3683  0.1753 -2.0765
  651MPD2    H1 9693   3.300   3.572  10.311  0.7223  1.6791  1.8257
  651MPD2    H2 9694   2.890   3.509  10.375  0.3391  0.3548  2.2907
  651MPD2    H3 9695   3.110   3.423  10.365  0.1906 -1.3455 -3.4012
  651MPD2     N 9696   3.281   3.853  10.266 -0.3599 -0.2626  0.3899
  651MPD2    H5 9697   3.249   3.943  10.230  0.6344 -0.8135 -1.8978
  651MPD2    N1 9698   2.824   3.778  10.345 -0.6511  0.2153 -0.2425
  651MPD2    H7 9699   2.814   3.879  10.338  0.7306  0.3711  0.1772
  652TMC3    C1 9700   3.696   4.074  10.276 -0.2171 -0.3473 -0.3545
  652TMC3    C2 9701   3.618   3.964  10.310 -0.4519  0.3037 -0.1855
  652TMC3    C3 9702   3.497   3.950  10.241  0.1770 -0.6351  0.5221
  652TMC3    C4 9703   3.658   4.168  10.184  0.0264  0.2421 -0.1794
  652TMC3    C5 9704   3.534   4.150  10.126  0.5476 -0.6580  0.1556
  652TMC3    C6 9705   3.450   4.038  10.153  0.1112  0.6674  0.3023
  652TMC3     C 9706   3.830   4.076  10.328  0.1931  0.1839 -0.0123
  652TMC3     O 9707   3.858   4.035  10.438 -0.2444 -0.2417 -0.3797
  652TMC3     H 9708   3.657   3.909  10.395 -0.9780 -1.1086 -0.8580
  652TMC3    H1 9709   3.715   4.260  10.173  0.9070 -0.1030  1.4142
  652TMC3    H2 9710   3.347   4.036  10.120  1.2332 -0.9809 -3.0562
  652TMC3    C7 9711   3.471   4.245  10.042  0.2896 -0.1714  0.4608
  652TMC3    C8 9712   3.416   3.837  10.286 -0.5540 -0.3360 -0.4400
  652TMC3    O1 9713   3.353   4.223  10.020  0.4883  0.2711  0.5558
  652TMC3    O2 9714   3.468   3.763  10.370 -0.2868  0.0151  0.0609
  653MPD2     C 9715   1.126   3.754   0.062 -0.0689  0.1016 -0.2763
  653MPD2    C1 9716   1.125   3.830  17.689 -0.2650 -0.5675 -0.5269
  653MPD2    C2 9717   1.084   3.771  17.568 -0.1336 -0.0638 -0.1961
  653MPD2    C3 9718   1.056   3.637  17.557 -0.0131 -0.3571  1.0196
  653MPD2    C4 9719   1.066   3.561  17.676  0.2620 -0.1714  0.3939
  653MPD2    C5 9720   1.102   3.619   0.048 -0.3005  0.5862 -1.4708
  653MPD2     H 9721   1.081   3.843  17.486 -0.9794  0.5756  0.4025
  653MPD2    H1 9722   1.041   3.456  17.663  0.2904 -0.1219 -0.0505
  653MPD2    H2 9723   1.150   3.791   0.161  2.1173  1.5991 -1.3596
  653MPD2    H3 9724   1.102   3.556   0.136 -1.4118  0.7304 -1.3697
  653MPD2     N 9725   1.037   3.578  17.423  0.1137  0.0485 -0.0871
  653MPD2    H5 9726   1.015   3.649  17.353 -0.1085 -0.9409 -1.0296
  653MPD2    N1 9727   1.166   3.963  17.682  0.3787  0.2069 -0.6341
  653MPD2    H7 9728   1.177   4.002  17.589  0.4897  0.9845 -0.2923
  654TMC3    C1 9729   1.039   3.410  17.250  0.6277  0.9133  0.0585
  654TMC3    C2 9730   0.996   3.506  17.167  1.1212 -0.3996  1.1933
  654TMC3    C3 9731   0.985   3.470  17.031 -0.5622 -0.5735 -0.1067
  654TMC3    C4 9732   1.085   3.292  17.209  0.1104 -0.3174  0.7193
  654TMC3    C5 9733   1.086   3.260  17.073 -0.6857 -0.2169  0.2307
  654TMC3    C6 9734   1.031   3.344  16.985 -0.6927 -0.5268 -0.5255
  654TMC3     C 9735   1.061   3.444  17.388 -0.0442 -0.2707  0.5210
  654TMC3     O 9736   1.112   3.357  17.462  0.3090  0.0845  0.3433
  654TMC3     H 9737   0.943   3.593  17.204 -0.5509 -0.7962 -0.2287
  654TMC3    H1 9738   1.121   3.215  17.277 -0.7473 -1.4037 -0.0745
  654TMC3    H2 9739   1.045   3.325  16.879  0.2855 -2.3391 -0.0764
  654TMC3    C7 9740   1.143   3.129  17.016  0.4897 -0.2882 -0.2956
  654TMC3    C8 9741   0.868   3.523  16.957 -0.5358 -0.8887 -0.3084
  654TMC3    O1 9742   1.107   3.095  16.904  0.3282 -0.0195  0.2929
  654TMC3    O2 9743   0.779   3.567  17.028 -0.1026 -0.0714  0.0247
  655MPD2     C 9744   2.768   3.713  15.732  0.0540 -0.1180  0.6484
  655MPD2    C1 9745   2.692   3.819  15.697 -0.5680 -0.6109  0.5075
  655MPD2    C2 9746   2.674   3.851  15.567  0.1819 -0.2929 -0.9580
  655MPD2    C3 9747   2.714   3.773  15.468 -0.2602  0.2633  0.7417
  655MPD2    C4 9748   2.805   3.674  15.503 -0.2940  0.0324 -0.0130
  655MPD2    C5 9749   2.827   3.642  15.630  0.0094 -0.2759  0.1343
  655MPD2     H 9750   2.614   3.938  15.544  2.5762  1.3143 -0.9810
  655MPD2    H1 9751   2.858   3.619  15.427  1.9002  0.8731  0.9103
  655MPD2    H2 9752   2.781   3.684  15.836  1.7532 -0.0465  0.4563
  655MPD2    H3 9753   2.903   3.568  15.650  2.6217  1.9634 -1.5511
  655MPD2     N 9754   2.693   3.795  15.328 -0.0597  0.0840 -0.2532
  655MPD2    H5 9755   2.747   3.737  15.264 -1.0261 -0.3284 -0.6955
  655MPD2    N1 9756   2.646   3.909  15.793  0.2663  0.1751  0.0616
  655MPD2    H7 9757   2.611   3.996  15.755 -1.4575 -0.9972 -1.0482
  656TMC3    C1 9758   2.556   4.016  15.974 -0.2622 -0.4881 -0.4193
  656TMC3    C2 9759   2.457   4.003  16.066  0.6723 -0.0542  0.6284
  656TMC3    C3 9760   2.342   4.076  16.051  0.2155  0.1234 -0.1965
  656TMC3    C4 9761   2.568   4.130  15.907  0.4079 -0.3754  0.3901
  656TMC3    C5 9762   2.457   4.206  15.894  0.0100 -0.2307 -0.3389
  656TMC3    C6 9763   2.336   4.180  15.954 -0.4380  0.4676 -0.0300
  656TMC3     C 9764   2.635   3.900  15.930  0.1979  0.0745  0.1086
  656TMC3     O 9765   2.667   3.811  16.005  0.1327  0.1979 -0.2159
  656TMC3     H 9766   2.467   3.921  16.137 -1.4949 -1.2469 -0.4603
  656TMC3    H1 9767   2.664   4.156  15.865 -1.5799  1.0336 -3.3184
  656TMC3    H2 9768   2.252   4.248  15.941  0.2470  1.1422 -0.9508
  656TMC3    C7 9769   2.471   4.279  15.769  0.5475 -1.4311 -0.2954
  656TMC3    C8 9770   2.236   4.050  16.153 -0.0160  0.4056 -0.0523
  656TMC3    O1 9771   2.535   4.218  15.682  0.5291 -0.3443 -0.3270
  656TMC3    O2 9772   2.265   4.001  16.262 -0.1480  0.1805  0.7313
  657TMC3    C1 9773   1.493   3.429  14.626  0.6873  0.9443  0.6351
  657TMC3    C2 9774   1.553   3.417  14.751  0.8978 -0.1897  0.3328
  657TMC3    C3 9775   1.547   3.520  14.843  0.4512  0.3817 -0.7009
  657TMC3    C4 9776   1.431   3.546  14.591 -0.3843  0.6436  0.0189
  657TMC3    C5 9777   1.431   3.645  14.684  0.1909  0.5818 -0.4064
  657TMC3    C6 9778   1.479   3.632  14.810 -0.4767  0.0114 -0.4876
  657TMC3     C 9779   1.504   3.320  14.539  0.3150  0.5812  0.0473
  657TMC3     O 9780   1.408   3.303  14.465  0.4355 -0.4267  0.2866
  657TMC3     H 9781   1.587   3.321  14.787 -1.0215 -0.1098  2.4424
  657TMC3    H1 9782   1.380   3.548  14.496 -1.0047  2.7927  0.4001
  657TMC3    H2 9783   1.459   3.700  14.892 -0.9281 -2.1963  1.2429
  657TMC3    C7 9784   1.364   3.768  14.653 -0.5441  0.0841  0.5503
  657TMC3    C8 9785   1.580   3.504  14.982  0.3873 -0.0406 -0.2753
  657TMC3    O1 9786   1.309   3.781  14.547 -0.4720 -0.0588 -0.0920
  657TMC3    O2 9787   1.538   3.583  15.061 -0.2201 -0.0409 -0.3516
  658MPD2     C 9788   3.144   3.712  14.844 -0.3623  0.1636  0.5132
  658MPD2    C1 9789   3.034   3.764  14.784  0.1138  0.6170  0.1503
  658MPD2    C2 9790   3.043   3.806  14.654  0.5460  0.2105  0.1915
  658MPD2    C3 9791   3.158   3.800  14.579 -0.0325 -0.1754  0.0400
  658MPD2    C4 9792   3.275   3.756  14.642 -0.0678  0.2193 -0.1246
  658MPD2    C5 9793   3.261   3.712  14.770 -0.4885  0.1385  0.2093
  658MPD2     H 9794   2.964   3.862  14.605  0.1494 -0.3301  0.2087
  658MPD2    H1 9795   3.367   3.739  14.588  0.7945 -0.1843  1.4829
  658MPD2    H2 9796   3.141   3.659  14.939  0.6046 -1.2124 -0.2142
  658MPD2    H3 9797   3.345   3.672  14.825  0.2965 -0.1516 -1.2124
  658MPD2     N 9798   3.150   3.841  14.447 -0.1555  0.0331  0.2173
  658MPD2    H5 9799   3.058   3.845  14.406  0.0046 -3.4778 -0.4730
  658MPD2    N1 9800   2.928   3.777  14.870 -0.8796 -0.6600  0.1442
  658MPD2    H7 9801   2.940   3.763  14.970 -0.7226 -0.5014  0.1485
  659TMC3    C1 9802   2.686   3.817  14.908  0.3888 -0.3544 -0.5104
  659TMC3    C2 9803   2.698   3.827  15.039  0.0773  0.1858  0.1292
  659TMC3    C3 9804   2.591   3.849  15.120  0.3587  0.0814  0.7572
  659TMC3    C4 9805   2.563   3.801  14.854  0.2089 -0.2388  0.0043
  659TMC3    C5 9806   2.457   3.823  14.931  0.1813  0.6925  0.0220
  659TMC3    C6 9807   2.465   3.841  15.062 -0.1422  0.1542 -0.4204
  659TMC3     C 9808   2.801   3.801  14.817 -0.1539 -0.6005 -0.4023
  659TMC3     O 9809   2.765   3.794  14.699 -0.0908  0.1040  0.3464
  659TMC3     H 9810   2.796   3.844  15.081 -0.7671 -0.2023  2.2347
  659TMC3    H1 9811   2.543   3.757  14.757 -1.4761 -3.2871  1.7268
  659TMC3    H2 9812   2.372   3.860  15.114  0.4692  0.8227  0.4285
  659TMC3    C7 9813   2.318   3.817  14.873 -0.2243 -0.1852 -0.0636
  659TMC3    C8 9814   2.597   3.870  15.265 -0.4310  0.7785 -0.6976
  659TMC3    O1 9815   2.232   3.785  14.954  0.4688 -0.0653  0.3782
  659TMC3    O2 9816   2.504   3.927  15.323  0.1229 -0.1078 -0.1027
  660MPD2     C 9817   0.455   3.697  12.729  0.2200 -0.5837 -0.6538
  660MPD2    C1 9818   0.448   3.562  12.713 -0.1604 -0.4986  0.3367
  660MPD2    C2 9819   0.448   3.486  12.833 -0.0175 -0.3819 -0.2381
  660MPD2    C3 9820   0.473   3.536  12.955  0.2472  0.9470  0.2549
  660MPD2    C4 9821   0.485   3.670  12.964 -0.4155  0.2965  0.0031
  660MPD2    C5 9822   0.475   3.754  12.855  0.1188  0.2495 -0.2674
  660MPD2     H 9823   0.446   3.378  12.822  1.5259 -0.4192 -0.1402
  660MPD2    H1 9824   0.500   3.718  13.060  2.3844 -2.6214  1.0085
  660MPD2    H2 9825   0.442   3.770  12.649 -1.6628 -1.9369 -1.5646
  660MPD2    H3 9826   0.460   3.862  12.865 -0.1132  0.2932 -1.1516
  660MPD2     N 9827   0.478   3.456  13.067  0.0772  0.1921  0.4709
  660MPD2    H5 9828   0.439   3.505  13.147  0.8962  0.0302  0.9682
  660MPD2    N1 9829   0.423   3.507  12.583 -0.0502  0.4738  0.2513
  660MPD2    H7 9830   0.437   3.574  12.508 -0.3727 -1.5306 -1.5970
  661TMC3    C1 9831   0.348   3.339  12.427  0.1192  0.3760  0.1261
  661TMC3    C2 9832   0.372   3.427  12.322 -0.1687 -0.4391  0.3145
  661TMC3    C3 9833   0.338   3.385  12.193 -0.4797 -0.8653  0.1062
  661TMC3    C4 9834   0.316   3.210  12.408 -0.2679 -0.6883 -0.3840
  661TMC3    C5 9835   0.285   3.175  12.277 -0.7010 -0.7262  0.0524
  661TMC3    C6 9836   0.302   3.256  12.168  0.0400  0.3376 -0.3991
  661TMC3     C 9837   0.370   3.381  12.566 -0.4225  0.1168  0.1310
  661TMC3     O 9838   0.322   3.302  12.649  0.1684  0.7522  0.1176
  661TMC3     H 9839   0.402   3.529  12.339 -3.2229  0.5914 -0.5968
  661TMC3    H1 9840   0.294   3.143  12.491  0.1514 -0.4022 -0.0430
  661TMC3    H2 9841   0.248   3.234  12.076 -2.7927 -0.0604  1.3581
  661TMC3    C7 9842   0.198   3.062  12.269  0.1378  0.3889 -0.8503
  661TMC3    C8 9843   0.327   3.489  12.081  0.3555  0.0576  0.2818
  661TMC3    O1 9844   0.134   3.040  12.371  0.4344  0.3704  0.0606
  661TMC3    O2 9845   0.314   3.439  11.972  0.4551  0.2864  0.2392
  662MPD2     C 9846   1.263   2.068  17.279  0.1862  0.3927  0.4986
  662MPD2    C1 9847   1.243   1.933  17.315 -0.0668 -0.0819 -1.0291
  662MPD2    C2 9848   1.126   1.903  17.387 -0.1038  0.1190  0.9113
  662MPD2    C3 9849   1.035   2.007  17.420  0.1312  0.5389  0.3091
  662MPD2    C4 9850   1.067   2.136  17.400 -0.3741  0.1782  0.1825
  662MPD2    C5 9851   1.181   2.162  17.326  0.0665  0.2252 -0.1266
  662MPD2     H 9852   1.105   1.805  17.427  1.4551 -1.0169 -1.0348
  662MPD2    H1 9853   1.003   2.213  17.442  0.3398  0.8304  0.0620
  662MPD2    H2 9854   1.353   2.096  17.226 -0.5796  2.8338  0.5068
  662MPD2    H3 9855   1.207   2.266  17.306  1.6774 -0.5046 -1.7871
  662MPD2     N 9856   0.914   1.982  17.493  0.4389 -0.0726 -0.6992
  662MPD2    H5 9857   0.847   2.058  17.500  1.3562  0.7691 -1.1037
  662MPD2    N1 9858   1.328   1.826  17.269  0.1498  0.2181 -0.1441
  662MPD2    H7 9859   1.314   1.732  17.304 -0.1501  0.7151  1.0913
  663TMC3    C1 9860   1.486   1.713  17.137 -0.0405  0.6774 -0.4709
  663TMC3    C2 9861   1.504   1.628  17.246  0.2047  0.0571 -0.4285
  663TMC3    C3 9862   1.560   1.511  17.216  0.3088  0.4771 -0.4227
  663TMC3    C4 9863   1.482   1.667  17.004 -0.5551  0.0901 -0.4619
  663TMC3    C5 9864   1.508   1.534  16.983 -0.2171 -0.3432  0.3992
  663TMC3    C6 9865   1.562   1.455  17.086  0.4938  0.5131  0.0024
  663TMC3     C 9866   1.401   1.828  17.157 -0.6161 -0.2023 -0.2392
  663TMC3     O 9867   1.397   1.913  17.069  0.1707  0.2540 -0.3939
  663TMC3     H 9868   1.533   1.674  17.340  0.7081  0.7601 -0.9299
  663TMC3    H1 9869   1.445   1.729  16.923 -1.0595  0.5512  0.1221
  663TMC3    H2 9870   1.584   1.350  17.077 -1.3304  0.0547  0.8219
  663TMC3    C7 9871   1.435   1.471  16.877 -0.3682 -0.3014 -0.9893
  663TMC3    C8 9872   1.565   1.414  17.316 -0.1347  0.0748  0.1412
  663TMC3    O1 9873   1.400   1.543  16.787  0.4511 -0.3025 -0.1170
  663TMC3    O2 9874   1.668   1.345  17.322  0.9441 -0.3642 -0.3592
  664MPD2     C 9875   3.979   0.261  17.258  0.8666 -0.1127 -0.0666
  664MPD2    C1 9876   4.054   0.364  17.305 -0.0955  0.2981 -0.3681
  664MPD2    C2 9877   4.099   0.360  17.434 -0.5904  0.1026 -0.1907
  664MPD2    C3 9878   4.071   0.254  17.517  0.1885  0.2934  0.0044
  664MPD2    C4 9879   4.001   0.144  17.470  0.0964 -0.6379  0.6676
  664MPD2    C5 9880   3.953   0.156  17.340  0.1577 -0.1925  0.1416
  664MPD2     H 9881   4.160   0.443  17.469  0.2602  0.3210 -2.1718
  664MPD2    H1 9882   3.992   0.052  17.527  0.7187 -0.3794  1.1819
  664MPD2    H2 9883   3.933   0.250  17.160  0.5440  0.1360  0.0572
  664MPD2    H3 9884   3.909   0.068  17.294 -1.2099 -0.4431  1.9041
  664MPD2     N 9885   4.111   0.263  17.649  0.2597  0.5400 -0.4022
  664MPD2    H5 9886   4.167   0.344  17.674  3.1481 -0.8210 -2.5485
  664MPD2    N1 9887   4.099   0.468  17.221  0.3261  0.8507 -0.2838
  664MPD2    H7 9888   4.163   0.531  17.268  1.1826 -0.2482  0.0246
  665TMC3    C1 9889   4.073   0.260   0.136 -0.7632 -0.0434 -0.0395
  665TMC3    C2 9890   4.058   0.178   0.247  0.3418 -0.9853 -0.0954
  665TMC3    C3 9891   4.067   0.238   0.370  0.8231 -0.0361 -0.3638
  665TMC3    C4 9892   4.114   0.390   0.140 -0.9810 -0.2503 -0.0240
  665TMC3    C5 9893   4.131   0.446   0.265  0.2013  0.2578 -0.2888
  665TMC3    C6 9894   4.111   0.371   0.374 -0.1788  0.2323 -0.7141
  665TMC3     C 9895   4.037   0.199   0.008  0.6452  0.6638 -0.6318
  665TMC3     O 9896   3.990   0.087   0.010  0.1206 -0.5322 -0.1407
  665TMC3     H 9897   4.021   0.076   0.239  0.6024 -0.9859 -1.2292
  665TMC3    H1 9898   4.129   0.454   0.054 -1.8118 -2.4756 -1.8435
  665TMC3    H2 9899   4.109   0.417   0.472 -1.4602  0.1164 -0.6919
  665TMC3    C7 9900   4.110   0.591   0.275  0.2415  0.1500  0.4464
  665TMC3    C8 9901   3.975   0.198   0.476 -0.2460 -0.0815 -0.0830
  665TMC3    O1 9902   4.081   0.644   0.172  0.1237  0.3374 -0.0420
  665TMC3    O2 9903   3.954   0.287   0.556  0.1285 -0.0558  0.0234
  666TMC3    C1 9904   2.431   0.950   9.556 -0.0194 -0.2000 -0.2143
  666TMC3    C2 9905   2.436   0.837   9.636  0.2143  0.1075  0.2328
  666TMC3    C3 9906   2.528   0.843   9.735  0.4147  0.6130  0.0858
  666TMC3    C4 9907   2.496   1.069   9.580  0.3261 -0.0386  0.4139
  666TMC3    C5 9908   2.572   1.071   9.695 -0.0693 -0.2559 -0.0363
  666TMC3    C6 9909   2.593   0.959   9.767  0.0123 -1.1063  0.2998
  666TMC3     C 9910   2.334   0.963   9.446  0.2800 -0.5552 -0.7230
  666TMC3     O 9911   2.288   1.072   9.420 -0.2077 -0.5569  0.6443
  666TMC3     H 9912   2.377   0.749   9.614  1.7375 -0.8494  0.0123
  666TMC3    H1 9913   2.477   1.155   9.518 -2.3480 -1.4440 -0.7499
  666TMC3    H2 9914   2.659   0.970   9.853  0.4876 -1.2371 -0.0478
  666TMC3    C7 9915   2.646   1.188   9.732 -1.1738 -0.0428  0.2464
  666TMC3    C8 9916   2.582   0.713   9.779 -0.0456  1.0547  0.1603
  666TMC3    O1 9917   2.753   1.176   9.785 -0.2276 -0.8392  0.0072
  666TMC3    O2 9918   2.513   0.610   9.765 -0.1850  0.1754 -0.0442
  667MPD2     C 9919   0.506   0.425  14.285 -0.3354  0.2637 -0.1398
  667MPD2    C1 9920   0.389   0.485  14.348  0.4111  0.5468  0.1565
  667MPD2    C2 9921   0.267   0.430  14.315  0.4291 -0.9578 -0.2334
  667MPD2    C3 9922   0.252   0.326  14.230 -0.1517  0.3114  0.0394
  667MPD2    C4 9923   0.364   0.270  14.182  0.2225  0.2707  0.4096
  667MPD2    C5 9924   0.488   0.321  14.203  0.3252  0.1742 -0.3847
  667MPD2     H 9925   0.181   0.473  14.364 -0.6918 -1.1629 -1.9957
  667MPD2    H1 9926   0.358   0.176  14.129  0.9372  0.1671  0.5185
  667MPD2    H2 9927   0.604   0.473  14.290 -0.2425 -0.0655  1.2396
  667MPD2    H3 9928   0.577   0.282  14.155  0.1997  0.1789 -0.6228
  667MPD2     N 9929   0.132   0.268  14.192  0.2637 -0.4086 -1.0199
  667MPD2    H5 9930   0.147   0.183  14.138 -0.3803 -1.8071  1.0281
  667MPD2    N1 9931   0.386   0.583  14.449  0.7466 -0.4231  0.1503
  667MPD2    H7 9932   0.298   0.607  14.493  0.6018 -0.7712  0.0472
  668TMC3    C1 9933   0.465   0.730  14.610  0.2331  0.1418 -0.0845
  668TMC3    C2 9934   0.553   0.834  14.646 -0.0368  0.8633 -0.2654
  668TMC3    C3 9935   0.520   0.908  14.750  0.5160  0.0827  0.0120
  668TMC3    C4 9936   0.351   0.695  14.674  0.2591 -0.1239  0.3856
  668TMC3    C5 9937   0.324   0.763  14.792 -0.1347 -0.3577  0.5908
  668TMC3    C6 9938   0.410   0.868  14.828  0.1548 -0.0550  0.1421
  668TMC3     C 9939   0.499   0.645  14.499  0.0232 -0.3502 -0.2673
  668TMC3     O 9940   0.614   0.649  14.457 -0.8148 -0.1437 -0.0086
  668TMC3     H 9941   0.646   0.847  14.592  1.1862  0.5336  1.7856
  668TMC3    H1 9942   0.289   0.609  14.653 -1.0856  0.7134  0.8973
  668TMC3    H2 9943   0.382   0.937  14.907 -1.4387 -2.2927  1.5465
  668TMC3    C7 9944   0.212   0.727  14.880  0.4764 -0.6385 -0.2973
  668TMC3    C8 9945   0.575   1.042  14.782  0.0779 -0.3844 -0.3808
  668TMC3    O1 9946   0.241   0.730  14.998  0.3755 -0.3161  0.2394
  668TMC3    O2 9947   0.535   1.098  14.884 -0.3077  0.1276 -0.1881
  669TMC3    C1 9948   3.088   0.513  13.920  0.3606 -0.0023  0.0782
  669TMC3    C2 9949   2.971   0.577  13.886 -0.2155  1.0838 -0.6125
  669TMC3    C3 9950   2.980   0.684  13.803  0.0345  0.2584  0.1859
  669TMC3    C4 9951   3.208   0.540  13.856  1.0146  0.0996 -0.6355
  669TMC3    C5 9952   3.205   0.652  13.774 -0.5285  0.1674 -0.1693
  669TMC3    C6 9953   3.096   0.730  13.749  0.0520 -0.0607  0.4628
  669TMC3     C 9954   3.083   0.400  14.024  0.9185  0.1988 -1.0505
  669TMC3     O 9955   2.979   0.337  14.023 -0.2869 -0.9634 -0.3267
  669TMC3     H 9956   2.886   0.555  13.949 -0.4119  1.3385 -0.7928
  669TMC3    H1 9957   3.294   0.480  13.884  3.2838  2.9153 -1.5171
  669TMC3    H2 9958   3.101   0.812  13.678  0.3324  0.1741  0.7505
  669TMC3    C7 9959   3.334   0.723  13.745  0.2625 -0.8162 -0.3407
  669TMC3    C8 9960   2.858   0.761  13.784 -0.4820  0.0583 -0.5343
  669TMC3    O1 9961   3.338   0.843  13.716  0.3052  0.0974  0.3190
  669TMC3    O2 9962   2.764   0.731  13.856 -0.0425  0.0445 -0.1798
  670MPD2     C 9963   1.072   3.230  13.651 -0.3458 -0.0884  0.0953
  670MPD2    C1 9964   1.174   3.144  13.655  0.5386  0.9343 -0.4722
  670MPD2    C2 9965   1.180   3.045  13.753  0.0182  0.1292  0.8217
  670MPD2    C3 9966   1.074   3.019  13.830  1.1303  0.3358  0.1839
  670MPD2    C4 9967   0.963   3.110  13.824  0.7394  0.8229 -0.2868
  670MPD2    C5 9968   0.968   3.209  13.734 -0.7939 -0.4397 -0.0968
  670MPD2     H 9969   1.259   2.971  13.743 -0.5809 -0.6198  1.6977
  670MPD2    H1 9970   0.872   3.086  13.877 -0.2446 -0.6098 -2.5914
  670MPD2    H2 9971   1.065   3.311  13.579 -0.4675 -0.6443 -0.5142
  670MPD2    H3 9972   0.877   3.261  13.709 -0.9787 -0.2653  0.9511
  670MPD2     N 9973   1.072   2.905  13.921  0.2149 -0.2950 -0.1143
  670MPD2    H5 9974   1.155   2.846  13.915 -1.1070 -2.2842  1.4006
  670MPD2    N1 9975   1.288   3.149  13.567  0.2009 -0.3457 -0.3144
  670MPD2    H7 9976   1.366   3.087  13.584 -0.0013 -0.4902  0.1110
  671TMC3    C1 9977   0.994   2.740  14.054 -0.1901 -0.3630  0.1450
  671TMC3    C2 9978   1.125   2.706  14.046 -0.0545  0.1598  0.3853
  671TMC3    C3 9979   1.161   2.573  14.040 -1.0835  0.3120  0.1527
  671TMC3    C4 9980   0.902   2.655  14.009 -0.0573 -0.4881  0.5248
  671TMC3    C5 9981   0.939   2.526  13.988  0.1948  0.2868 -0.1237
  671TMC3    C6 9982   1.062   2.479  14.022  0.2307 -1.0053 -0.2304
  671TMC3     C 9983   0.974   2.876  14.011 -0.6046 -0.0051  0.1494
  671TMC3     O 9984   0.875   2.938  14.043 -0.0087 -0.7743 -0.4389
  671TMC3     H 9985   1.200   2.775  14.086 -0.6626 -0.2652  2.2642
  671TMC3    H1 9986   0.800   2.690  14.010  0.4962  1.1196 -0.5373
  671TMC3    H2 9987   1.079   2.372  14.010  0.2617 -1.0423  0.1312
  671TMC3    C7 9988   0.844   2.420  13.958  0.0075  0.1209  0.3126
  671TMC3    C8 9989   1.303   2.544  14.042 -1.3509 -0.1126  0.6743
  671TMC3    O1 9990   0.872   2.315  14.012  0.3944  0.3068 -0.6657
  671TMC3    O2 9991   1.382   2.641  14.025 -0.6630 -0.0822  0.1974
  672MPD2     C 9992   0.972   3.245   0.788  0.1956 -0.5327 -0.8573
  672MPD2    C1 9993   1.059   3.232   0.677 -0.7553 -0.0188  0.3139
  672MPD2    C2 9994   1.164   3.324   0.660  0.5802 -0.4178 -0.0674
  672MPD2    C3 9995   1.180   3.434   0.748 -1.3110 -0.4510  0.4132
  672MPD2    C4 9996   1.086   3.449   0.852 -0.0068 -0.3711  0.0210
  672MPD2    C5 9997   0.989   3.355   0.870 -0.0209 -0.4103  0.2112
  672MPD2     H 9998   1.222   3.304   0.571 -0.0972  0.8202 -0.7925
  672MPD2    H1 9999   1.088   3.535   0.918  0.9530 -0.0883 -0.3740
  672MPD2    H210000   0.893   3.174   0.808  0.7848  0.5664  5.4242
  672MPD2    H310001   0.920   3.358   0.954  1.4530  1.4681  1.3619
  672MPD2     N10002   1.279   3.534   0.748  0.3993  0.2476  0.2296
  672MPD2    H510003   1.280   3.610   0.815  2.9550  0.1302  0.3070
  672MPD2    N110004   1.053   3.130   0.584 -0.7722 -0.1612  0.2584
  672MPD2    H710005   1.122   3.133   0.509  1.6335  1.2329  2.5239
  673TMC3    C110006   0.963   2.994   0.421  0.0216  0.1008  0.1695
  673TMC3    C210007   1.088   2.944   0.391  0.0679  0.7535  0.4273
  673TMC3    C310008   1.115   2.911   0.266  0.3877  0.1014  0.3193
  673TMC3    C410009   0.872   3.012   0.328 -0.6434 -0.7099  0.8870
  673TMC3    C510010   0.906   2.981   0.194  0.6088 -0.6374  0.4506
  673TMC3    C610011   1.024   2.922   0.171 -0.1284 -0.2535 -1.1732
  673TMC3     C10012   0.946   3.055   0.549  0.1219 -0.3080 -0.9722
  673TMC3     O10013   0.845   3.030   0.611  0.2004  0.1148 -0.3662
  673TMC3     H10014   1.149   2.923   0.478  3.5386  2.9177 -1.4716
  673TMC3    H110015   0.791   3.080   0.351 -0.8012 -1.0098  1.2330
  673TMC3    H210016   1.050   2.894   0.070 -0.1394 -1.6875 -0.7819
  673TMC3    C710017   0.851   3.066   0.091  0.0768  0.0038  0.5257
  673TMC3    C810018   1.206   2.796   0.256  0.2443  0.2083  0.2822
  673TMC3    O110019   0.876   3.029  17.720 -0.1209  0.4708 -0.3783
  673TMC3    O210020   1.179   2.708   0.174  0.1409  0.3082  0.4589
  674MPD2     C10021   1.144   2.774  17.497 -0.5335 -0.1887  0.1079
  674MPD2    C110022   1.044   2.678  17.501  0.4513  0.3346  0.1203
  674MPD2    C210023   0.916   2.718  17.460  0.5764 -0.1727  0.0274
  674MPD2    C310024   0.890   2.848  17.415 -0.1178  0.3647 -0.5906
  674MPD2    C410025   0.995   2.935  17.405 -0.6578 -0.2637  0.4161
  674MPD2    C510026   1.118   2.900  17.446  0.1625  0.4221  0.4645
  674MPD2     H10027   0.827   2.656  17.459  0.7752 -0.4788  1.9041
  674MPD2    H110028   0.972   3.029  17.357 -1.1108 -0.8416 -0.4931
  674MPD2    H210029   1.247   2.752  17.521  0.3173  2.5859 -0.9723
  674MPD2    H310030   1.194   2.975  17.459  1.4927 -0.5173 -1.9716
  674MPD2     N10031   0.753   2.873  17.372 -0.2354  0.0560  0.3918
  674MPD2    H510032   0.693   2.796  17.400  1.2436 -0.7266  1.3622
  674MPD2    N110033   1.081   2.551  17.554  0.1076 -0.1395  0.1123
  674MPD2    H710034   1.180   2.539  17.572  0.3053  1.3967  0.0651
  675TMC3    C110035   1.048   2.337  17.653  0.3358 -0.4830 -0.2269
  675TMC3    C210036   0.957   2.251  17.717  0.5040  0.3140  0.0565
  675TMC3    C310037   1.003   2.154   0.054 -1.1743  0.8000  0.1972
  675TMC3    C410038   1.183   2.317  17.654  0.1124  0.3553  0.3691
  675TMC3    C510039   1.228   2.214  17.734  0.0217  0.7118  0.7941
  675TMC3    C610040   1.142   2.142   0.079 -0.2908 -0.1390 -0.3053
  675TMC3     C10041   0.993   2.452  17.588 -0.6576  0.1498  0.8563
  675TMC3     O10042   0.871   2.457  17.580 -0.1520  0.4121 -0.0122
  675TMC3     H10043   0.858   2.290  17.741 -0.2813 -0.3927 -2.0672
  675TMC3    H110044   1.256   2.377  17.600  1.2002 -1.4556 -0.1692
  675TMC3    H210045   1.183   2.066   0.144 -1.6078 -0.3278  0.3064
  675TMC3    C710046   1.372   2.204   0.031  0.7464 -0.3629 -0.2365
  675TMC3    C810047   0.914   2.134   0.167 -0.5707  0.5680  0.1905
  675TMC3    O110048   1.417   2.102   0.082  0.4183  0.0815 -0.4399
  675TMC3    O210049   0.807   2.083   0.152 -0.1098  0.3764  0.6616
  676MPD2     C10050   4.373   1.463  10.960  0.4122 -0.8327  1.2197
  676MPD2    C110051   4.245   1.447  11.010  0.4223  0.4265 -0.1324
  676MPD2    C210052   4.139   1.392  10.930 -0.3256 -1.3528 -0.0764
  676MPD2    C310053   4.165   1.362  10.798  0.3015  0.6408  0.3757
  676MPD2    C410054   4.287   1.397  10.744 -0.2082  0.1877 -0.2662
  676MPD2    C510055   4.389   1.450  10.819 -0.3020 -0.8076 -0.4356
  676MPD2     H10056   4.046   1.367  10.980  0.9086 -1.2025  2.2693
  676MPD2    H110057   4.306   1.381  10.638 -1.2202 -2.7486 -0.0089
  676MPD2    H210058   4.449   1.520  11.012 -2.8724  1.9708  2.9182
  676MPD2    H310059   4.479   1.490  10.773  0.0763  1.4435  2.2699
  676MPD2     N10060   4.068   1.308  10.711  0.2294 -0.0986  0.3594
  676MPD2    H510061   4.100   1.278  10.619 -4.3320 -0.0453 -1.2341
  676MPD2    N110062   4.205   1.479  11.145  0.3347  0.4973 -0.0402
  676MPD2    H710063   4.110   1.460  11.177  0.7946 -2.5810 -0.4900
  677TMC3    C110064   4.222   1.541  11.367  0.3977  0.1100  0.6102
  677TMC3    C210065   4.097   1.485  11.388 -1.1378 -0.2034  0.4683
  677TMC3    C310066   4.044   1.495  11.517 -0.4744  0.1795  0.1779
  677TMC3    C410067   4.298   1.591  11.465  0.3900 -0.5845 -0.3910
  677TMC3    C510068   4.241   1.617  11.587  0.2192  0.7994  1.0805
  677TMC3    C610069   4.113   1.573  11.612  0.6666 -0.2463  0.2247
  677TMC3     C10070   4.290   1.523  11.242 -0.9993  0.3400  0.3326
  677TMC3     O10071   4.406   1.566  11.230  0.1202  0.4922  0.1263
  677TMC3     H10072   4.044   1.418  11.321 -2.4645 -1.0692  2.3568
  677TMC3    H110073   4.404   1.612  11.458  0.3659  0.8985  3.2865
  677TMC3    H210074   4.081   1.586  11.714  0.4047 -2.8750  0.4774
  677TMC3    C710075   4.313   1.684  11.699  0.3876 -0.9181  0.2982
  677TMC3    C810076   3.917   1.428  11.552 -0.8128 -0.1214  0.2108
  677TMC3    O110077   4.295   1.635  11.810 -0.5341  0.0203  0.1688
  677TMC3    O210078   3.818   1.445  11.483  0.0788 -0.7375 -0.0204
  678MPD2     C10079   0.432   1.390   1.564 -0.4812  0.9003 -0.1755
  678MPD2    C110080   0.449   1.334   1.435  0.5361  0.0017 -0.4155
  678MPD2    C210081   0.337   1.284   1.366 -0.2187 -0.6250 -0.5390
  678MPD2    C310082   0.213   1.260   1.434 -0.2890  0.2911  0.4978
  678MPD2    C410083   0.202   1.312   1.565 -0.6024 -0.3620  0.0308
  678MPD2    C510084   0.308   1.375   1.622 -0.1926 -0.8070 -1.2803
  678MPD2     H10085   0.350   1.244   1.266  2.4163  0.3822 -0.6049
  678MPD2    H110086   0.114   1.287   1.622 -1.1987  0.2578 -0.6037
  678MPD2    H210087   0.508   1.445   1.617 -0.5827  0.4563  0.4286
  678MPD2    H310088   0.298   1.404   1.726 -3.9180  0.6385 -2.0576
  678MPD2     N10089   0.112   1.207   1.356 -0.6049 -0.4246 -0.4690
  678MPD2    H510090   0.143   1.176   1.264 -1.1972  1.4382 -1.3131
  678MPD2    N110091   0.571   1.337   1.371  0.1499  0.4290  0.4444
  678MPD2    H710092   0.573   1.292   1.280  2.2783 -1.1904  1.2968
  679TMC3    C110093   0.910   1.240   1.173  0.1377  0.0292  0.1310
  679TMC3    C210094   0.820   1.246   1.283  0.5543  0.0073  0.1198
  679TMC3    C310095   0.796   1.370   1.331 -0.0795  0.2092 -0.1004
  679TMC3    C410096   0.979   1.346   1.120  0.1596 -0.5286 -0.1691
  679TMC3    C510097   0.947   1.472   1.172  0.1473  0.2593 -0.5864
  679TMC3    C610098   0.858   1.485   1.286 -0.1930 -0.2667 -0.1515
  679TMC3     C10099   0.964   1.113   1.145 -0.3854  0.0399 -0.4670
  679TMC3     O10100   1.049   1.110   1.052  0.0998  0.2807  0.2524
  679TMC3     H10101   0.760   1.159   1.307 -1.0232  0.5931 -1.7153
  679TMC3    H110102   1.060   1.334   1.050  0.6108  3.9207 -0.4326
  679TMC3    H210103   0.828   1.585   1.316  1.3184  0.5726 -1.4405
  679TMC3    C710104   0.959   1.594   1.094  0.1116  0.7505  0.4669
  679TMC3    C810105   0.686   1.390   1.424  0.0678 -0.1718  0.1306
  679TMC3    O110106   0.926   1.703   1.142  0.7517  0.1550 -0.5809
  679TMC3    O210107   0.722   1.460   1.519  0.1182 -0.0796  0.6584
  680MPD2     C10108   0.820   0.414  13.368  0.1845 -0.2253  0.1163
  680MPD2    C110109   0.869   0.321  13.457 -0.5476  0.2701  0.2762
  680MPD2    C210110   0.974   0.371  13.535 -0.6876  0.1646 -0.4267
  680MPD2    C310111   1.017   0.509  13.530 -0.5703  0.4979  0.0408
  680MPD2    C410112   0.959   0.593  13.445 -0.5310  0.4820 -0.9396
  680MPD2    C510113   0.866   0.545  13.358 -1.1209  0.2403  0.3071
  680MPD2     H10114   1.012   0.310  13.616 -1.2198  1.5535  0.8591
  680MPD2    H110115   0.996   0.695  13.439  1.2123  0.0512  2.3760
  680MPD2    H210116   0.733   0.391  13.307 -0.6820  1.8594  0.5773
  680MPD2    H310117   0.827   0.610  13.281 -2.2805 -0.4111  0.3361
  680MPD2     N10118   1.104   0.564  13.630 -0.0134  0.4447 -0.2849
  680MPD2    H510119   1.117   0.664  13.623  0.7909  0.2294 -1.9766
  680MPD2    N110120   0.819   0.192  13.476  0.5520  0.0138  0.4268
  680MPD2    H710121   0.882   0.133  13.530 -0.5150 -2.7994 -1.3543
  681TMC3    C110122   0.700   4.726  13.451  0.1919 -0.4210 -0.6042
  681TMC3    C210123   0.608   4.678  13.548 -0.2465  0.2465 -0.2446
  681TMC3    C310124   0.650   4.584  13.637  0.2628 -0.5111  0.5435
  681TMC3    C410125   0.819   4.670  13.440 -0.4875  0.2696 -0.5402
  681TMC3    C510126   0.862   4.575  13.525 -0.3493 -0.6686  0.5219
  681TMC3    C610127   0.782   4.528  13.628  1.1401 -0.6796  0.7867
  681TMC3     C10128   0.701   0.129  13.433 -0.3651 -0.3793  0.1492
  681TMC3     O10129   0.596   0.181  13.392 -0.1928 -0.1420  0.4478
  681TMC3     H10130   0.523   0.008  13.565 -1.1985 -0.8667 -0.6774
  681TMC3    H110131   0.884   4.709  13.362 -5.0972  2.5838 -3.1820
  681TMC3    H210132   0.821   4.455  13.698  0.3638 -0.5331  1.3758
  681TMC3    C710133   0.993   4.519  13.517 -0.1522 -0.2381 -0.1035
  681TMC3    C810134   0.609   4.604  13.771  0.1025  1.0181 -0.3523
  681TMC3    O110135   1.027   4.444  13.606 -0.2607 -0.1390 -0.5238
  681TMC3    O210136   0.494   4.635  13.771  0.3540 -0.0694  0.3168
  682MPD2     C10137   3.295   1.827  10.614 -0.4834 -0.1414  0.0663
  682MPD2    C110138   3.178   1.764  10.632 -0.1229 -0.2819  0.5666
  682MPD2    C210139   3.146   1.698  10.749  0.3476  0.3117 -0.5677
  682MPD2    C310140   3.230   1.694  10.859  0.3735  1.3557  0.7695
  682MPD2    C410141   3.353   1.753  10.841 -0.9227 -0.4407  0.1240
  682MPD2    C510142   3.383   1.819  10.723 -0.0048 -0.0994 -0.0232
  682MPD2     H10143   3.054   1.640  10.745  1.4927 -1.6164  1.2344
  682MPD2    H110144   3.429   1.742  10.918  0.9852  1.7882 -1.4564
  682MPD2    H210145   3.320   1.883  10.525  1.1742 -0.6021  0.2478
  682MPD2    H310146   3.482   1.864  10.727  0.0888 -0.4396  1.4699
  682MPD2     N10147   3.211   1.622  10.977  0.4044  0.2244 -0.4899
  682MPD2    H510148   3.275   1.632  11.056 -0.4919 -2.4929  0.5486
  682MPD2    N110149   3.087   1.754  10.526 -0.6430 -0.2029 -0.4325
  682MPD2    H710150   3.014   1.685  10.543  0.9679 -1.4041  1.6655
  683TMC3    C110151   3.119   1.599  11.366  0.8559  0.2418  0.0318
  683TMC3    C210152   3.086   1.473  11.414 -0.0358 -0.4508  1.1391
  683TMC3    C310153   3.058   1.379  11.319  0.0002 -0.0696 -0.1479
  683TMC3    C410154   3.120   1.641  11.239 -0.6477  0.1871  0.0442
  683TMC3    C510155   3.086   1.541  11.154  0.5293 -0.5013 -0.4915
  683TMC3    C610156   3.050   1.415  11.190 -0.0079  0.0448 -0.2229
  683TMC3     C10157   3.130   1.711  11.459 -0.6316  0.1142 -0.1939
  683TMC3     O10158   3.095   1.701  11.575  0.0871 -0.1118 -0.1775
  683TMC3     H10159   3.084   1.448  11.520  3.4430  2.3682  1.8622
  683TMC3    H110160   3.141   1.745  11.216  0.0626 -0.0863 -0.5220
  683TMC3    H210161   3.038   1.343  11.109 -0.4263 -0.0303 -0.0963
  683TMC3    C710162   3.094   1.567  11.012 -0.3324  0.0526 -0.8011
  683TMC3    C810163   3.073   1.240  11.356 -0.5623  0.7189  0.1094
  683TMC3    O110164   2.991   1.573  10.949 -0.4448  0.1620 -0.7362
  683TMC3    O210165   3.036   1.166  11.268  0.3570 -0.0785  0.4721
  684MPD2     C10166   0.971   1.098  15.603  0.3112  0.3222 -0.7805
  684MPD2    C110167   1.092   1.147  15.558  0.2423  0.4532  0.9495
  684MPD2    C210168   1.131   1.271  15.606  0.0332 -0.3374  0.0054
  684MPD2    C310169   1.050   1.346  15.684 -0.3113  0.5546  0.7263
  684MPD2    C410170   0.933   1.298  15.742 -0.4738 -0.0498 -0.0108
  684MPD2    C510171   0.902   1.171  15.697 -0.2798  0.0223  0.2994
  684MPD2     H10172   1.227   1.309  15.571  0.0719  0.5354  1.0445
  684MPD2    H110173   0.870   1.360  15.805 -1.0866 -0.3488 -0.3367
  684MPD2    H210174   0.942   0.996  15.581 -0.9095  0.6602 -0.7282
  684MPD2    H310175   0.818   1.128  15.749 -1.2091  1.4584 -0.0026
  684MPD2     N10176   1.080   1.485  15.702 -0.0686  0.8363  0.2463
  684MPD2    H510177   1.002   1.524  15.754 -1.4581 -0.3089 -0.9925
  684MPD2    N110178   1.177   1.074  15.472 -0.0625 -0.5088  0.1508
  684MPD2    H710179   1.274   1.100  15.459 -0.8229  2.1589 -0.3303
  685TMC3    C110180   1.256   0.899  15.338  0.9784  0.0343 -0.4265
  685TMC3    C210181   1.224   0.811  15.238  0.5604  0.3644  0.0930
  685TMC3    C310182   1.298   0.698  15.239 -0.4560  0.7176  0.3669
  685TMC3    C410183   1.355   0.873  15.431  0.2281 -0.5480  0.3886
  685TMC3    C510184   1.431   0.763  15.416 -0.3165  0.0396  0.5968
  685TMC3    C610185   1.401   0.672  15.322  0.5197  0.4188  1.0370
  685TMC3     C10186   1.137   0.968  15.395  0.5416  0.5065 -0.3083
  685TMC3     O10187   1.025   0.928  15.359  0.2640  0.5465  0.6159
  685TMC3     H10188   1.143   0.836  15.170 -0.7262  1.8148  2.1808
  685TMC3    H110189   1.383   0.942  15.510 -0.4060  1.7578 -1.4149
  685TMC3    H210190   1.447   0.574  15.314  0.1223  0.4350 -1.5114
  685TMC3    C710191   1.531   0.732  15.519 -0.4678  0.2714 -0.6270
  685TMC3    C810192   1.213   0.583  15.236 -0.6643 -0.1455 -0.7447
  685TMC3    O110193   1.515   0.798  15.622 -0.4377 -0.2675 -0.0840
  685TMC3    O210194   1.249   0.472  15.200 -0.4203 -0.4656  0.2065
  686MPD2     C10195   2.783   1.172  16.338 -1.0603  0.0654 -0.1287
  686MPD2    C110196   2.698   1.200  16.229 -0.5453 -0.3595  0.0919
  686MPD2    C210197   2.722   1.322  16.173 -0.3856  0.2783  0.3541
  686MPD2    C310198   2.805   1.425  16.223  0.5932  0.4611 -0.2087
  686MPD2    C410199   2.870   1.399  16.339  0.4227 -0.4379  0.0682
  686MPD2    C510200   2.863   1.271  16.393 -0.0021 -1.1716 -0.4155
  686MPD2     H10201   2.684   1.340  16.073 -2.3844 -0.6368  0.9486
  686MPD2    H110202   2.939   1.470  16.383  1.9956 -2.0645  0.2244
  686MPD2    H210203   2.775   1.083  16.398  0.9412 -0.7046 -1.0201
  686MPD2    H310204   2.920   1.254  16.484 -2.0288 -1.1731  0.8463
  686MPD2     N10205   2.830   1.548  16.158  0.2584 -0.1764  0.5382
  686MPD2    H510206   2.860   1.620  16.223  0.9961  0.7705 -0.8725
  686MPD2    N110207   2.611   1.103  16.179  0.4721 -0.1121 -0.0887
  686MPD2    H710208   2.623   1.012  16.223  1.1022  0.6760  1.3807
  687TMC3    C110209   2.804   1.472  15.926  0.5359  0.5223 -0.0417
  687TMC3    C210210   2.698   1.463  15.842 -0.0811 -0.1726 -0.0104
  687TMC3    C310211   2.693   1.348  15.776  0.3348 -0.1478  0.7633
  687TMC3    C410212   2.905   1.385  15.932  0.2472 -1.4199 -0.3494
  687TMC3    C510213   2.906   1.274  15.854 -0.6684 -0.3795 -0.6383
  687TMC3    C610214   2.791   1.252  15.783  0.2862  0.1485  0.0608
  687TMC3     C10215   2.800   1.579  16.025 -0.4611 -0.4026  0.5468
  687TMC3     O10216   2.794   1.689  15.973  0.6764 -0.3658 -0.6193
  687TMC3     H10217   2.615   1.532  15.840  0.4591  0.5055  0.9348
  687TMC3    H110218   2.988   1.391  16.002 -0.9668 -2.1983  1.1545
  687TMC3    H210219   2.776   1.158  15.731 -2.9805  1.5299 -1.4880
  687TMC3    C710220   2.960   1.152  15.909 -0.3548 -0.0164  0.0650
  687TMC3    C810221   2.571   1.318  15.704  0.2186  0.0072  0.3296
  687TMC3    O110222   2.979   1.141  16.031 -0.2132  0.4645 -0.6362
  687TMC3    O210223   2.550   1.202  15.669  0.7924 -1.0466  0.3000
  688MPD2     C10224   1.366   4.268  17.142 -0.3015  0.4839 -1.1169
  688MPD2    C110225   1.425   4.181  17.235 -0.2611 -0.4370  0.3418
  688MPD2    C210226   1.479   4.061  17.189  0.9304  0.9273 -0.5862
  688MPD2    C310227   1.478   4.027  17.056  0.5842  0.0569  0.7388
  688MPD2    C410228   1.419   4.111  16.963  0.7126 -0.3971  0.5437
  688MPD2    C510229   1.364   4.234  17.009  0.0357 -0.5473  0.1212
  688MPD2     H10230   1.544   4.007  17.258  0.2108 -0.7803 -1.2471
  688MPD2    H110231   1.417   4.089  16.857 -1.5276  1.2565  0.2482
  688MPD2    H210232   1.313   4.352  17.185  2.2491  0.9083  1.1952
  688MPD2    H310233   1.328   4.312  16.943 -1.2397 -0.1656  1.2568
  688MPD2     N10234   1.542   3.912  17.008 -0.5534 -0.2045  0.2813
  688MPD2    H510235   1.544   3.903  16.907  0.4537  1.6933  0.1305
  688MPD2    N110236   1.440   4.203  17.373 -0.1659 -0.0387 -0.3694
  688MPD2    H710237   1.471   4.137  17.443 -2.8390 -0.8307  0.0652
  689TMC3    C110238   1.365   4.295  17.577  0.5882 -0.2650 -0.6925
  689TMC3    C210239   1.358   4.402  17.656 -0.1739  0.1340  0.4459
  689TMC3    C310240   1.302   4.383   0.042  0.1165 -0.2622  0.9758
  689TMC3    C410241   1.311   4.173  17.624  0.0353 -0.1081  0.2587
  689TMC3    C510242   1.266   4.159   0.010  0.3711  0.8875  0.5414
  689TMC3    C610243   1.254   4.269   0.093  0.6853 -0.2619  0.2192
  689TMC3     C10244   1.407   4.319  17.438  0.2192  0.5208  0.2610
  689TMC3     O10245   1.383   4.431  17.401  0.1915  0.3757 -0.3405
  689TMC3     H10246   1.409   4.492  17.627  0.4438 -0.0387  1.0017
  689TMC3    H110247   1.303   4.097  17.548 -2.2872 -1.4394  1.8269
  689TMC3    H210248   1.199   4.268   0.186  2.2193 -0.5006  1.1294
  689TMC3    C710249   1.201   4.035   0.051  0.1403  0.3965  0.1233
  689TMC3    C810250   1.316   4.481   0.150 -0.0840  0.8469  0.6784
  689TMC3    O110251   1.161   4.023   0.168  0.0180  0.0332  0.4165
  689TMC3    O210252   1.284   4.446   0.262 -0.2891  0.1429 -0.3896
  690MPD2     C10253   4.132   1.421  15.390  0.0421 -0.2974  0.3945
  690MPD2    C110254   4.043   1.479  15.300  0.5108  0.2981 -0.1813
  690MPD2    C210255   4.100   1.568  15.210  0.1401  0.4690  0.0082
  690MPD2    C310256   4.234   1.580  15.191 -0.4410 -0.1326 -0.2690
  690MPD2    C410257   4.319   1.502  15.271 -0.4358  0.0284  0.6405
  690MPD2    C510258   4.261   1.417  15.355 -0.4263  0.7036  0.1768
  690MPD2     H10259   4.030   1.618  15.144  0.7712  1.3797  0.0215
  690MPD2    H110260   4.425   1.490  15.252 -0.4209  0.3814  0.5149
  690MPD2    H210261   4.106   1.359  15.476 -0.1890  1.4526  1.5828
  690MPD2    H310262   4.327   1.344  15.400 -0.7763  0.4769  0.3229
  690MPD2     N10263   4.286   1.660  15.086  0.4102  0.5180  0.5605
  690MPD2    H510264   4.219   1.683  15.013 -0.0045 -1.1417  0.4154
  690MPD2    N110265   3.901   1.453  15.309 -0.3042 -0.9239  0.1962
  690MPD2    H710266   3.849   1.515  15.248 -0.2655  0.3320  1.4203
  691TMC3    C110267   3.699   1.327  15.343  0.3929 -0.5805  0.3660
  691TMC3    C210268   3.613   1.439  15.344  0.2361 -1.0993  0.4429
  691TMC3    C310269   3.479   1.410  15.355 -0.2627  0.0660 -1.1471
  691TMC3    C410270   3.650   1.197  15.348  0.0826  0.9817 -0.3780
  691TMC3    C510271   3.520   1.182  15.358  0.2824  0.1720 -0.2459
  691TMC3    C610272   3.429   1.286  15.364 -0.1861  0.6331  0.4193
  691TMC3     C10273   3.842   1.343  15.368 -0.3212 -0.0577  0.0140
  691TMC3     O10274   3.902   1.249  15.414 -0.4041 -0.2086 -0.8698
  691TMC3     H10275   3.648   1.542  15.339  0.9085 -1.4098 -1.3839
  691TMC3    H110276   3.717   1.112  15.349 -0.2977  0.6859  0.2410
  691TMC3    H210277   3.325   1.269  15.387 -0.3481  2.4651  0.9970
  691TMC3    C710278   3.472   1.048  15.382  0.1697 -0.3735  0.4435
  691TMC3    C810279   3.391   1.515  15.402 -0.0444 -0.0288 -0.0379
  691TMC3    O110280   3.551   0.977  15.442  0.1942 -0.5098  0.3611
  691TMC3    O210281   3.273   1.497  15.387 -0.7741 -0.2685 -0.3230
  692TMC3    C110282   0.590   2.727  15.533  0.1380  0.0433  0.6740
  692TMC3    C210283   0.696   2.728  15.449 -0.0735 -0.2629  0.2891
  692TMC3    C310284   0.768   2.615  15.421  0.6588  0.5136  0.3569
  692TMC3    C410285   0.538   2.608  15.573 -0.6303 -0.3370  0.3721
  692TMC3    C510286   0.600   2.490  15.537  0.1414 -0.5105  0.3313
  692TMC3    C610287   0.724   2.499  15.477 -0.3273  0.5326  0.4110
  692TMC3     C10288   0.558   2.846  15.612  0.0551 -0.5552  0.2151
  692TMC3     O10289   0.443   2.851  15.648  0.0476 -0.6385  0.5574
  692TMC3     H10290   0.750   2.822  15.441  0.5942 -0.4197  2.9587
  692TMC3    H110291   0.446   2.613  15.631 -1.4827  1.0439 -1.0951
  692TMC3    H210292   0.782   2.415  15.441 -0.0645  1.1500 -0.6203
  692TMC3    C710293   0.552   2.363  15.592  0.1154 -0.0218  0.6839
  692TMC3    C810294   0.908   2.647  15.416  0.1101  0.5701 -0.1685
  692TMC3    O110295   0.436   2.367  15.632  0.4718  0.1687  0.5204
  692TMC3    O210296   0.949   2.750  15.362  0.0627  0.0267  0.0256
  693MPD2     C10297   0.016   1.019  10.427  0.3825  0.2652 -0.0461
  693MPD2    C110298   0.063   0.890  10.453 -0.9480 -0.3234  0.2492
  693MPD2    C210299   0.192   0.866  10.488 -1.0026  0.1924  0.7869
  693MPD2    C310300   0.281   0.972  10.492  0.6114  0.2796 -0.2867
  693MPD2    C410301   0.237   1.100  10.469  0.0579 -0.3034  0.1502
  693MPD2    C510302   0.105   1.119  10.436 -0.7778 -0.3808  0.2373
  693MPD2     H10303   0.221   0.763  10.505  1.6249  1.0212  1.2785
  693MPD2    H110304   0.304   1.186  10.465  0.8996 -1.0801 -2.0323
  693MPD2    H210305   4.647   1.040  10.413  1.1104  1.8330 -3.0154
  693MPD2    H310306   0.067   1.219  10.417  1.2039  0.0685 -1.3918
  693MPD2     N10307   0.416   0.952  10.529 -0.3833 -0.7134 -0.5351
  693MPD2    H510308   0.486   1.025  10.532 -0.4332 -0.6701 -0.4407
  693MPD2    N110309   4.712   0.783  10.465  0.4793  0.4640  0.0601
  693MPD2    H710310   0.018   0.696  10.494  0.3481  0.3088 -0.2160
  694TMC3    C110311   4.535   0.642  10.430  0.5124  0.6846 -0.7293
  694TMC3    C210312   4.434   0.597  10.351  0.2667 -0.5407 -0.5216
  694TMC3    C310313   4.373   0.475  10.378 -0.0275  0.1672 -0.2875
  694TMC3    C410314   4.566   0.567  10.538 -1.0534  0.1662  1.0269
  694TMC3    C510315   4.497   0.454  10.571 -0.0445  0.4930 -0.3818
  694TMC3    C610316   4.413   0.393  10.480 -0.0041  0.2500 -0.1857
  694TMC3     C10317   4.589   0.776  10.420  0.0856  0.2956  0.3192
  694TMC3     O10318   4.524   0.859  10.360  0.7022  0.2869 -0.1933
  694TMC3     H10319   4.413   0.643  10.255 -5.0493 -1.6540  0.1174
  694TMC3    H110320   4.623   0.604  10.623 -1.2193  1.0622  0.7475
  694TMC3    H210321   4.356   0.303  10.501  1.2764 -0.2964  0.9769
  694TMC3    C710322   4.568   0.372  10.673 -0.0389 -0.3930 -0.3783
  694TMC3    C810323   4.246   0.451  10.312  0.6008  0.2968  0.6718
  694TMC3    O110324   4.645   0.427  10.748 -0.1876 -0.2036  0.0627
  694TMC3    O210325   4.203   0.335  10.319  0.3748  0.4004 -0.0468
  695MPD2     C10326   1.717   2.828  13.204 -0.2070 -0.1220 -0.1934
  695MPD2    C110327   1.672   2.796  13.331 -0.4586 -0.1840  0.2122
  695MPD2    C210328   1.538   2.823  13.354 -1.4209 -0.2855 -0.3664
  695MPD2    C310329   1.461   2.867  13.251 -0.5738 -0.0814 -0.3804
  695MPD2    C410330   1.505   2.891  13.124  0.3766 -0.4685  0.7117
  695MPD2    C510331   1.638   2.878  13.099 -0.3104  0.5579 -0.3529
  695MPD2     H10332   1.486   2.811  13.448  1.0329  1.3045  1.1968
  695MPD2    H110333   1.435   2.918  13.046  1.1106  0.0941  0.2464
  695MPD2    H210334   1.822   2.824  13.175 -0.5396  0.5984 -1.5282
  695MPD2    H310335   1.682   2.888  13.000  0.4893  0.8109  0.0279
  695MPD2     N10336   1.321   2.882  13.285 -0.1010 -0.1993 -0.2748
  695MPD2    H510337   1.294   2.845  13.375  0.7619 -0.9375 -0.3293
  695MPD2    N110338   1.759   2.749  13.440 -0.5261 -0.5481  0.8267
  695MPD2    H710339   1.707   2.737  13.526 -1.4193 -0.4811  0.2879
  696TMC3    C110340   1.096   2.941  13.289  0.3544  0.3635  0.7431
  696TMC3    C210341   1.087   2.867  13.404  0.2504 -0.9859  0.3018
  696TMC3    C310342   0.985   2.906  13.498  0.0515  0.5435 -0.1222
  696TMC3    C410343   1.005   3.034  13.252 -0.2218  0.1380 -0.0023
  696TMC3    C510344   0.914   3.078  13.345  0.2871  0.2673  0.1038
  696TMC3    C610345   0.904   3.020  13.473  0.3998 -0.2196  0.2632
  696TMC3     C10346   1.225   2.946  13.217  0.5865 -0.6859 -0.0480
  696TMC3     O10347   1.244   3.024  13.126  0.0490  0.2394 -0.1597
  696TMC3     H10348   1.154   2.785  13.426 -1.0687 -2.4405 -1.1960
  696TMC3    H110349   1.024   3.085  13.158 -0.7356 -1.9256 -1.2255
  696TMC3    H210350   0.851   3.063  13.557  2.9999  0.0684  1.7534
  696TMC3    C710351   0.833   3.194  13.313 -0.5665  0.0645  0.0118
  696TMC3    C810352   0.932   2.809  13.591 -0.0806 -0.8598 -0.2462
  696TMC3    O110353   0.839   3.242  13.199  0.4567 -0.3759 -0.9375
  696TMC3    O210354   1.003   2.717  13.610  0.6856  0.1527  0.7604
  697MPD2     C10355   0.029   4.415  15.365  0.2073 -0.5296 -1.0421
  697MPD2    C110356   0.098   4.335  15.275  0.0465 -0.4459 -0.5465
  697MPD2    C210357   0.144   4.393  15.157 -0.0562  0.2118 -0.4572
  697MPD2    C310358   0.144   4.534  15.140 -0.2402  0.1958  0.2782
  697MPD2    C410359   0.066   4.606  15.228 -0.2467  0.8502  0.0657
  697MPD2    C510360   0.008   4.550  15.344 -0.3827  0.1939  0.5837
  697MPD2     H10361   0.204   4.335  15.087 -0.2117 -0.0447 -0.3788
  697MPD2    H110362   0.061   4.714  15.223 -1.2723  0.8485  1.0766
  697MPD2    H210363   4.717   4.383  15.457 -3.2866 -0.0520 -2.6794
  697MPD2    H310364   4.692   4.611  15.417 -1.8199 -0.0964 -0.1986
  697MPD2     N10365   0.213   4.594  15.034  0.5277  0.5619  0.1963
  697MPD2    H510366   0.256   4.536  14.962 -2.5777  0.5836 -1.6825
  697MPD2    N110367   0.117   4.199  15.301  0.3191  0.7966  0.1847
  697MPD2    H710368   0.158   4.152  15.221 -2.0928 -1.4662  0.2764
  698TMC3    C110369   0.365   0.009  14.944  0.8755 -0.4791  0.2122
  698TMC3    C210370   0.481   0.030  15.017 -0.2035 -0.1725 -0.3304
  698TMC3    C310371   0.607   4.734  14.962 -0.5038  0.0121 -0.1427
  698TMC3    C410372   0.374   4.688  14.826 -0.0761 -0.4549 -0.0088
  698TMC3    C510373   0.497   4.651  14.772 -0.4859  0.3353  0.7410
  698TMC3    C610374   0.619   4.675  14.840  0.4866 -0.3734 -0.0326
  698TMC3     C10375   0.253   4.726  15.024  0.9175  0.2194  0.0425
  698TMC3     O10376   0.230   0.087  15.101  0.4598  0.1760 -0.1971
  698TMC3     H10377   0.486   0.064  15.119  0.3324 -0.2171 -0.3415
  698TMC3    H110378   0.285   4.675  14.765  0.6697  1.1970 -1.4553
  698TMC3    H210379   0.714   4.642  14.799  1.7522  0.6215  2.1274
  698TMC3    C710380   0.495   4.588  14.640 -0.1572  0.2369  0.4651
  698TMC3    C810381   0.714   0.005  15.059 -0.2560 -0.5729  0.1316
  698TMC3    O110382   0.400   4.610  14.572 -0.4037  0.5175  0.3024
  698TMC3    O210383   0.690   4.721  15.179 -0.7586 -0.3210 -0.0840
  699TMC3    C110384   0.460   3.252  13.187  0.1716 -0.8482 -0.1423
  699TMC3    C210385   0.518   3.133  13.206 -0.5368 -0.3022 -0.3016
  699TMC3    C310386   0.455   3.043  13.286 -0.7044 -0.2954 -0.2121
  699TMC3    C410387   0.342   3.291  13.242 -0.1157 -1.1117  0.2573
  699TMC3    C510388   0.281   3.207  13.328 -0.7064 -0.6765  0.1113
  699TMC3    C610389   0.346   3.085  13.364 -0.1836 -0.0596  0.2156
  699TMC3     C10390   0.489   3.320  13.057 -0.2893 -0.6701  0.5213
  699TMC3     O10391   0.569   3.260  12.988  0.1737 -0.3741  0.4625
  699TMC3     H10392   0.603   3.108  13.145 -1.5564 -1.8491 -1.1005
  699TMC3    H110393   0.284   3.374  13.204 -0.0281 -0.6646  1.0980
  699TMC3    H210394   0.298   3.033  13.446  0.2127  1.8193  1.6521
  699TMC3    C710395   0.168   3.245  13.400  0.1100 -0.9196  0.1932
  699TMC3    C810396   0.515   2.925  13.338 -0.3470 -0.2459  0.0893
  699TMC3    O110397   0.177   3.220  13.521 -0.6131  0.1534 -0.1500
  699TMC3    O210398   0.437   2.858  13.399 -0.2980  0.6228 -0.2993
  700TMC3    C110399   4.292   0.004  17.221  0.3474  0.3125 -0.3865
  700TMC3    C210400   4.333   4.613  17.211  0.9238 -0.1462 -0.4200
  700TMC3    C310401   4.415   4.567  17.306  0.5643  0.5644 -0.3503
  700TMC3    C410402   4.345   0.086  17.318 -0.3586 -0.1733 -0.1849
  700TMC3    C510403   4.430   0.037  17.410  0.2898 -0.1230 -0.4710
  700TMC3    C610404   4.460   4.642  17.409 -0.6005 -0.2705 -0.2059
  700TMC3     C10405   4.247   0.060  17.098  0.2303  0.2225  0.4889
  700TMC3     O10406   4.167   4.731  17.037  0.6105 -0.0204  0.4908
  700TMC3     H10407   4.303   4.550  17.129  0.5406 -1.7179  0.9405
  700TMC3    H110408   4.302   0.185  17.319  1.4929  0.6235  0.7243
  700TMC3    H210409   4.506   4.588  17.491  2.4634  0.3026 -1.5680
  700TMC3    C710410   4.458   0.124  17.516  0.3931  0.7109 -0.8904
  700TMC3    C810411   4.517   4.477  17.252 -0.0058 -0.1649  0.1169
  700TMC3    O110412   4.476   0.237  17.477 -0.1848 -0.1737 -0.5027
  700TMC3    O210413   4.464   4.394  17.186  0.4707 -0.0366  0.2176
  701TMC3    C110414   4.461   3.382  15.587  0.6057  0.3962 -0.4208
  701TMC3    C210415   4.546   3.301  15.516  0.2924  0.4822 -0.6987
  701TMC3    C310416   4.619   3.361  15.420 -0.5341  0.7076 -0.0673
  701TMC3    C410417   4.451   3.521  15.568  0.4113  0.1670 -0.0643
  701TMC3    C510418   4.535   3.569  15.475  0.5988 -0.0841 -0.4599
  701TMC3    C610419   4.614   3.493  15.394 -0.6170  0.3161  0.6212
  701TMC3     C10420   4.342   3.318  15.641  0.1478  0.3793 -0.0567
  701TMC3     O10421   4.274   3.395  15.705 -0.7620  0.6754 -1.0708
  701TMC3     H10422   4.551   3.193  15.507  2.3423  0.5118  0.0495
  701TMC3    H110423   4.382   3.585  15.621 -0.2849  0.1426 -0.9253
  701TMC3    H210424   4.700   3.533  15.341 -0.6276 -0.2253  0.1958
  701TMC3    C710425   4.540   3.714  15.453 -0.0161 -0.3047 -0.3230
  701TMC3    C810426   4.653   3.269  15.317 -0.3067  1.1044  0.1685
  701TMC3    O110427   4.595   3.751  15.352 -0.0705  0.7324 -0.3014
  701TMC3    O210428   4.707   3.161  15.340 -0.5208  0.1203  0.4666
  702MPD2     C10429   3.827   1.623  10.110 -0.0392  0.0696  0.6241
  702MPD2    C110430   3.924   1.538  10.172  0.1866 -0.5595 -0.1528
  702MPD2    C210431   4.053   1.550  10.132 -0.2911 -0.0350 -0.1254
  702MPD2    C310432   4.093   1.656  10.044  0.1501 -0.4984  0.4441
  702MPD2    C410433   4.000   1.728   9.974  0.1509 -0.3216 -0.7514
  702MPD2    C510434   3.870   1.721  10.017  0.1904 -0.0351  0.5503
  702MPD2     H10435   4.126   1.488  10.181  0.3892  0.9661  0.1377
  702MPD2    H110436   4.032   1.806   9.905  1.1602 -0.4156 -0.3842
  702MPD2    H210437   3.722   1.607  10.131  0.7323 -1.0458  3.5917
  702MPD2    H310438   3.792   1.785   9.976  2.3580  1.6512 -0.8927
  702MPD2     N10439   4.230   1.688  10.019 -0.0171  0.0843  0.0551
  702MPD2    H510440   4.237   1.742   9.934 -0.3893  1.6258  0.9940
  702MPD2    N110441   3.896   1.442  10.271  0.3343 -0.3969  0.0360
  702MPD2    H710442   3.980   1.397  10.306  2.4053  2.8324 -0.7822
  703TMC3    C110443   4.466   1.704  10.051 -0.3125 -0.6925  0.6891
  703TMC3    C210444   4.570   1.655  10.123  0.2919 -0.4016 -0.2333
  703TMC3    C310445   4.672   1.739  10.152 -0.0665 -0.3767  0.1846
  703TMC3    C410446   4.474   1.819   9.977 -0.0645  0.3045 -0.4182
  703TMC3    C510447   4.592   1.882   9.983  0.1365  0.9944 -0.5172
  703TMC3    C610448   4.689   1.848  10.071 -0.8022 -0.1785 -0.8171
  703TMC3     C10449   4.340   1.646  10.091  0.3748  0.5745 -0.7723
  703TMC3     O10450   4.341   1.586  10.197  0.1438 -0.2752 -0.4486
  703TMC3     H10451   4.556   1.563  10.177  0.6749 -0.8008 -0.8126
  703TMC3    H110452   4.415   1.830   9.887 -0.5473  1.9511  0.1024
  703TMC3    H210453   0.046   1.905  10.076 -0.4555 -0.7384 -0.9514
  703TMC3    C710454   4.623   1.998   9.901 -0.6760  0.4385 -0.1337
  703TMC3    C810455   4.675   1.772  10.295  0.2844 -0.1091 -0.3531
  703TMC3    O110456   4.722   2.062   9.938 -0.2901  0.6969 -0.1346
  703TMC3    O210457   0.019   1.861  10.322 -0.7462 -0.2831 -0.0563
  704TMC3    C110458   2.161   4.296  12.199  0.5013 -0.0984 -0.7145
  704TMC3    C210459   2.264   4.319  12.114 -0.3057  0.5283  0.6318
  704TMC3    C310460   2.391   4.325  12.173 -0.3616  0.3670  0.8444
  704TMC3    C410461   2.179   4.302  12.333 -0.6377 -0.1961  0.7145
  704TMC3    C510462   2.305   4.316  12.386  0.6732  0.6192  0.4194
  704TMC3    C610463   2.412   4.339  12.305 -0.6855 -0.5386  0.1972
  704TMC3     C10464   2.031   4.263  12.152 -0.2798 -0.7706  0.6862
  704TMC3     O10465   1.950   4.239  12.239 -0.2084 -0.0687  0.5201
  704TMC3     H10466   2.259   4.312  12.006  0.8384  0.1414  0.6012
  704TMC3    H110467   2.093   4.292  12.399 -1.6310  0.3376 -0.4971
  704TMC3    H210468   2.513   4.338  12.344 -0.8199  0.2205  0.5821
  704TMC3    C710469   2.323   4.234  12.509  0.0716 -0.3274  0.1812
  704TMC3    C810470   2.505   4.280  12.101  0.5236 -0.2802  0.4392
  704TMC3    O110471   2.225   4.169  12.554  0.5075  0.7902  0.0145
  704TMC3    O210472   2.551   4.357  12.018 -0.3192 -0.7543 -0.2953
  705MPD2     C10473   0.870   2.172  16.450  0.0999  0.2866  0.4419
  705MPD2    C110474   0.887   2.301  16.410  0.1898  0.6040  0.1722
  705MPD2    C210475   0.777   2.393  16.408  0.1882  0.0486  0.2482
  705MPD2    C310476   0.652   2.352  16.441 -0.0940 -0.4683  0.0251
  705MPD2    C410477   0.636   2.215  16.483  0.0917 -0.0279  0.5012
  705MPD2    C510478   0.749   2.133  16.493  0.1618  0.9836  1.0766
  705MPD2     H10479   0.790   2.489  16.360 -0.0624  1.7560  3.6259
  705MPD2    H110480   0.543   2.163  16.495 -1.0161  1.5578 -1.2907
  705MPD2    H210481   0.951   2.100  16.454 -0.8446 -0.7038  2.2955
  705MPD2    H310482   0.722   2.033  16.525 -0.1172  0.1144 -1.9273
  705MPD2     N10483   0.532   2.429  16.423  0.0255 -1.2644 -0.0396
  705MPD2    H510484   0.446   2.379  16.444 -2.3645  3.1855  0.6835
  705MPD2    N110485   1.012   2.348  16.367 -0.3179  0.1398 -0.2693
  705MPD2    H710486   1.024   2.449  16.360  0.3582  0.1787  1.4056
  706TMC3    C110487   1.368   2.374  16.080  0.5504 -0.3127 -0.1337
  706TMC3    C210488   1.414   2.490  16.138 -0.0935 -0.0998  0.2308
  706TMC3    C310489   1.363   2.531  16.259  0.0270 -0.3196  0.4707
  706TMC3    C410490   1.275   2.300  16.142 -0.5818  0.2872 -0.4996
  706TMC3    C510491   1.222   2.347  16.266 -0.5218 -0.8643  0.1255
  706TMC3    C610492   1.273   2.453  16.330 -0.4281  0.7811 -0.1921
  706TMC3     C10493   1.434   2.318  15.965  0.3812  0.5945  0.1749
  706TMC3     O10494   1.554   2.349  15.952 -0.4074 -0.1313  0.0444
  706TMC3     H10495   1.479   2.556  16.081  2.1285 -1.8827  0.7246
  706TMC3    H110496   1.255   2.199  16.108  2.3878 -0.6519  0.5216
  706TMC3    H210497   1.226   2.489  16.420  0.6272  0.0968  0.6347
  706TMC3    C710498   1.117   2.269  16.316  0.2851  0.2795 -0.5682
  706TMC3    C810499   1.348   2.675  16.270 -0.7840  0.3456 -0.8414
  706TMC3    O110500   1.112   2.151  16.292 -0.3747  0.4803 -0.2911
  706TMC3    O210501   1.356   2.730  16.160  0.5230 -0.2698 -0.5755
  707TMC3    C110502   3.121   1.151   1.048  0.5550 -0.5353  0.3476
  707TMC3    C210503   3.183   1.131   1.172  0.2682  0.0781  0.3123
  707TMC3    C310504   3.109   1.121   1.283 -0.4206 -0.4562 -0.4424
  707TMC3    C410505   2.990   1.178   1.038  0.0886  0.5165 -0.6614
  707TMC3    C510506   2.921   1.178   1.162 -0.4473  0.2440 -0.1438
  707TMC3    C610507   2.980   1.160   1.280 -0.0119 -0.0929  0.6355
  707TMC3     C10508   3.210   1.156   0.934 -0.8586 -0.4871 -0.3460
  707TMC3     O10509   3.328   1.144   0.961  0.5765  0.1301  0.0919
  707TMC3     H10510   3.288   1.102   1.173  0.6076  1.1576 -2.0124
  707TMC3    H110511   2.928   1.177   0.949 -3.0585 -2.1343  1.5477
  707TMC3    H210512   2.917   1.155   1.369 -2.4998 -2.0985 -1.2386
  707TMC3    C710513   2.779   1.138   1.167 -0.1006 -0.5002  0.0995
  707TMC3    C810514   3.159   1.045   1.401  0.0675 -0.0656  0.2309
  707TMC3    O110515   2.723   1.146   1.277 -0.1259 -0.0857 -0.2957
  707TMC3    O210516   3.096   1.057   1.506  0.3342 -0.4362 -0.2017
  708MPD2     C10517   0.118   0.983  13.403  0.4851  0.2335  0.3269
  708MPD2    C110518   0.028   0.941  13.494  0.1881 -0.0329  0.1713
  708MPD2    C210519   0.074   0.902  13.617  0.1762 -0.0203  0.5796
  708MPD2    C310520   0.214   0.891  13.648  0.0323  0.2420 -0.0778
  708MPD2    C410521   0.301   0.937  13.555  0.4843  0.2079 -0.0673
  708MPD2    C510522   0.251   0.989  13.435  0.1979 -0.3560  0.1538
  708MPD2     H10523   4.734   0.855  13.679 -0.0474 -0.0831  0.2614
  708MPD2    H110524   0.407   0.944  13.576  0.7521  0.5722 -1.4939
  708MPD2    H210525   0.085   1.029  13.310 -1.6359  1.9485  1.9245
  708MPD2    H310526   0.319   1.038  13.367  0.8317 -1.6937 -0.1760
  708MPD2     N10527   0.248   0.815  13.761 -0.0417 -0.4744 -0.5285
  708MPD2    H510528   0.172   0.772  13.813  1.4027  0.9079  2.6875
  708MPD2    N110529   4.620   0.940  13.478  0.1954  0.1255  0.1064
  708MPD2    H710530   4.566   0.930  13.564  0.3810 -1.0043  0.0828
  709TMC3    C110531   4.412   0.987  13.405  0.4496 -0.7752  0.0223
  709TMC3    C210532   4.335   0.878  13.364 -0.0514  0.1496  0.3961
  709TMC3    C310533   4.247   0.821  13.455  0.1273 -0.1647 -0.4754
  709TMC3    C410534   4.393   1.038  13.535 -0.8360  0.0125 -0.0720
  709TMC3    C510535   4.323   0.963  13.620  0.1490  0.2641  0.6288
  709TMC3    C610536   4.237   0.863  13.585  0.0738  0.2303 -0.2630
  709TMC3     C10537   4.548   0.968  13.366  0.3129  0.3012  0.3269
  709TMC3     O10538   4.575   0.934  13.253  0.0311  0.7641  0.4065
  709TMC3     H10539   4.366   0.822  13.276 -0.2331  1.8495 -0.7653
  709TMC3    H110540   4.443   1.129  13.566 -0.1794  0.2131 -1.7362
  709TMC3    H210541   4.172   0.811  13.654 -2.5590  3.9392  0.0822
  709TMC3    C710542   4.394   0.931  13.747 -0.1692 -0.0572 -0.8508
  709TMC3    C810543   4.166   0.702  13.426  0.4882  0.2677  0.4361
  709TMC3    O110544   4.507   0.969  13.761 -0.5301  0.4158 -0.0238
  709TMC3    O210545   4.123   0.634  13.514 -0.7924 -0.2490 -0.1522
  710TMC3    C110546   0.781   1.560   0.139 -0.7936 -0.1679 -0.9747
  710TMC3    C210547   0.864   1.514   0.042  0.3288  0.0054 -0.0244
  710TMC3    C310548   0.984   1.464   0.085  0.0829 -0.0771 -0.1090
  710TMC3    C410549   0.811   1.550   0.273  0.3485 -0.3795  0.4463
  710TMC3    C510550   0.931   1.495   0.306  0.3524  0.3187  0.1828
  710TMC3    C610551   1.018   1.444   0.221 -0.0426  0.4065 -0.3128
  710TMC3     C10552   0.643   1.563   0.092  0.3804  0.1648 -0.3079
  710TMC3     O10553   0.600   1.479   0.006  0.5077  0.5531  0.5915
  710TMC3     H10554   0.834   1.508  17.680  0.9057  2.3325 -0.3239
  710TMC3    H110555   0.738   1.571   0.351 -0.8210 -0.9592 -0.5022
  710TMC3    H210556   1.121   1.424   0.247 -0.2019  1.2739  0.9591
  710TMC3    C710557   0.976   1.508   0.444  0.6378  0.2034  0.0368
  710TMC3    C810558   1.072   1.426  17.721  0.5100 -0.0379 -0.2387
  710TMC3    O110559   1.031   1.414   0.500  0.1046 -0.0072  0.2621
  710TMC3    O210560   1.042   1.453  17.610 -0.9624 -0.7582 -0.0410
  711TMC3    C110561   0.342   3.114  15.030 -0.6067  0.4296  0.0837
  711TMC3    C210562   0.440   3.061  15.112  0.1234 -0.9961 -0.6024
  711TMC3    C310563   0.473   3.137  15.224  0.3699  0.7227  0.3895
  711TMC3    C410564   0.285   3.236  15.057 -0.5451  0.6837 -0.1094
  711TMC3    C510565   0.318   3.304  15.165  0.6296  0.4214 -0.2684
  711TMC3    C610566   0.413   3.254  15.252  0.2106 -0.6319  0.2355
  711TMC3     C10567   0.300   3.043  14.915  0.6287  0.5669  0.1382
  711TMC3     O10568   0.181   3.031  14.890 -0.1336 -0.3545 -0.4901
  711TMC3     H10569   0.489   2.968  15.085 -2.1360 -1.7556 -2.0135
  711TMC3    H110570   0.214   3.280  14.988 -0.8769 -1.0818 -0.8850
  711TMC3    H210571   0.431   3.314  15.342 -1.2919  0.7118 -0.3648
  711TMC3    C710572   0.300   3.451  15.179 -0.3306 -0.6831  0.6455
  711TMC3    C810573   0.604   3.095  15.286  0.6416 -0.0380 -0.1157
  711TMC3    O110574   0.246   3.485  15.286  0.2249  0.3247 -0.6371
  711TMC3    O210575   0.644   2.985  15.256  0.5250 -0.1245 -0.5474
  712MPD2     C10576   1.975   3.832  13.178 -0.2222  0.2503  0.3204
  712MPD2    C110577   1.894   3.930  13.124  0.2130 -0.0460 -0.8413
  712MPD2    C210578   1.923   4.064  13.126  0.3683 -0.1354  0.4232
  712MPD2    C310579   2.031   4.098  13.189  0.3325 -0.1816 -0.0759
  712MPD2    C410580   2.117   4.006  13.240  0.7675  0.6423  0.0400
  712MPD2    C510581   2.090   3.873  13.239 -0.1172  0.6830 -0.0148
  712MPD2     H10582   1.857   4.140  13.084 -0.9936 -1.2465  0.5365
  712MPD2    H110583   2.210   4.047  13.276  1.4207 -0.5089 -0.3129
  712MPD2    H210584   1.958   3.725  13.177 -1.6207  0.4429  3.0168
  712MPD2    H310585   2.158   3.799  13.281  0.3933  1.5180  0.6055
  712MPD2     N10586   2.047   4.234  13.234  0.6430 -0.1234  0.0100
  712MPD2    H510587   2.116   4.243  13.308  1.4435 -1.7476 -0.5330
  712MPD2    N110588   1.779   3.878  13.054 -0.3092  0.0892 -0.3429
  712MPD2    H710589   1.747   3.784  13.076 -2.8620  1.2071  0.7542
  713TMC3    C110590   1.990   4.453  13.305 -0.2415  0.5323  0.4999
  713TMC3    C210591   2.121   4.475  13.348  0.5282  0.0927 -0.0626
  713TMC3    C310592   2.144   4.569  13.446 -0.3730  0.4857 -0.0042
  713TMC3    C410593   1.886   4.534  13.345 -0.8319  0.1749  0.2714
  713TMC3    C510594   1.911   4.626  13.431  0.5844 -0.3120 -0.4659
  713TMC3    C610595   2.032   4.636  13.492  0.2461 -0.0800  0.2676
  713TMC3     C10596   1.958   4.337  13.224  0.5416  0.1202  0.5973
  713TMC3     O10597   1.852   4.329  13.172 -0.5625  0.1123  0.3308
  713TMC3     H10598   2.201   4.418  13.302  0.4043 -1.8226  2.0790
  713TMC3    H110599   1.783   4.509  13.318 -1.4962  2.4103  0.7239
  713TMC3    H210600   2.056   4.709  13.568  0.6001 -0.9093  0.9518
  713TMC3    C710601   1.809   4.729  13.440  0.3093  0.2589  0.1445
  713TMC3    C810602   2.239   4.666  13.408 -0.2116  0.5285 -0.1170
  713TMC3    O110603   1.716   4.712  13.362 -0.0058 -0.3581 -0.0772
  713TMC3    O210604   2.200   0.044  13.415  0.1417 -0.1867 -0.3890
  714MPD2     C10605   4.035   2.472   1.479 -0.1282  0.0958  0.0717
  714MPD2    C110606   4.034   2.400   1.361 -0.1356  0.2808 -0.1311
  714MPD2    C210607   3.955   2.438   1.256 -0.1019  0.2200  0.2639
  714MPD2    C310608   3.876   2.554   1.269 -0.3679  0.9984 -0.0402
  714MPD2    C410609   3.866   2.613   1.395 -0.6262 -0.6706  0.0464
  714MPD2    C510610   3.952   2.578   1.497  0.4741 -1.5272  0.1848
  714MPD2     H10611   3.962   2.384   1.163  0.5796 -2.5022  1.8831
  714MPD2    H110612   3.805   2.699   1.421 -1.4008 -0.7425 -1.5432
  714MPD2    H210613   4.096   2.449   1.565  0.0850  1.4459  0.2682
  714MPD2    H310614   3.954   2.636   1.588  0.6062 -1.0712 -0.1052
  714MPD2     N10615   3.809   2.600   1.155 -0.4788 -0.4406  0.0156
  714MPD2    H510616   3.851   2.569   1.068  1.3563  0.8897  0.4167
  714MPD2    N110617   4.126   2.291   1.347 -0.4616  0.0927 -0.6005
  714MPD2    H710618   4.188   2.265   1.422 -0.6719  0.7453 -0.1986
  715TMC3    C110619   4.257   2.122   1.250 -0.6581  0.5659 -0.0418
  715TMC3    C210620   4.272   2.001   1.193 -0.0906 -0.3590  0.0241
  715TMC3    C310621   4.389   1.939   1.217  0.6911 -0.7727  0.4012
  715TMC3    C410622   4.364   2.186   1.299  0.2273  0.6700 -0.3719
  715TMC3    C510623   4.484   2.130   1.316 -0.1047 -0.7750  0.2183
  715TMC3    C610624   4.503   1.997   1.280  0.5511 -0.3682  0.9727
  715TMC3     C10625   4.134   2.195   1.242  0.2153 -0.3653  0.3242
  715TMC3     O10626   4.053   2.170   1.155 -0.3300 -0.0624  0.2110
  715TMC3     H10627   4.190   1.956   1.139  0.2306 -1.4301  0.4233
  715TMC3    H110628   4.358   2.293   1.315 -1.3736  0.5683 -0.2732
  715TMC3    H210629   4.598   1.947   1.296  0.7623 -0.2209  0.1804
  715TMC3    C710630   4.591   2.205   1.378  0.2720  0.3004 -0.4138
  715TMC3    C810631   4.406   1.815   1.154  0.9399  0.2789  0.0630
  715TMC3    O110632   4.689   2.233   1.308 -0.1379  0.2677  0.6257
  715TMC3    O210633   4.349   1.797   1.049  0.2776 -0.1909 -0.5038
  716MPD2     C10634   3.523   1.019   9.935 -0.0605 -0.0964 -0.7011
  716MPD2    C110635   3.417   1.001   9.838  0.3211  0.4264 -0.2483
  716MPD2    C210636   3.427   0.899   9.753  0.2677 -0.4197  0.0180
  716MPD2    C310637   3.525   0.801   9.775 -0.0514  0.0248  0.2853
  716MPD2    C410638   3.627   0.817   9.868 -0.4533 -0.6320  0.3220
  716MPD2    C510639   3.618   0.924   9.954  0.2198 -0.3399 -0.0452
  716MPD2     H10640   3.362   0.882   9.667 -1.9379 -1.1697  1.8544
  716MPD2    H110641   3.708   0.746   9.878 -1.4551 -1.2479  4.0281
  716MPD2    H210642   3.514   1.109   9.995 -0.7784 -1.3688  1.0644
  716MPD2    H310643   3.701   0.942  10.022 -1.9172 -0.2282  2.5456
  716MPD2     N10644   3.526   0.688   9.686 -0.2527  0.2780  0.0409
  716MPD2    H510645   3.476   0.698   9.598  2.0614 -0.6841 -1.3734
  716MPD2    N110646   3.323   1.106   9.840  0.5005 -0.2778  0.0381
  716MPD2    H710647   3.344   1.188   9.896 -0.7845  1.2023 -1.6223
  717TMC3    C110648   3.596   0.485   9.587 -0.2380  0.2999 -0.4785
  717TMC3    C210649   3.472   0.461   9.523 -0.0660  0.3535 -0.1642
  717TMC3    C310650   3.451   0.338   9.474  0.2881  0.4808 -0.1810
  717TMC3    C410651   3.685   0.384   9.600  0.1164 -0.7784 -0.2767
  717TMC3    C510652   3.660   0.260   9.559 -0.2587  0.3171  0.2631
  717TMC3    C610653   3.539   0.238   9.495  0.1404 -0.3096 -0.0648
  717TMC3     C10654   3.593   0.568   9.710  0.2133  0.1108 -0.2153
  717TMC3     O10655   3.657   0.531   9.805 -0.0412 -0.2402 -0.0801
  717TMC3     H10656   3.394   0.531   9.551  1.3443  1.8097  0.1394
  717TMC3    H110657   3.780   0.408   9.646  1.0671 -0.7264 -2.2589
  717TMC3    H210658   3.519   0.137   9.460  1.8461 -0.8487  0.4953
  717TMC3    C710659   3.758   0.155   9.581 -0.5574 -0.2193  0.7023
  717TMC3    C810660   3.349   0.320   9.370  0.1223  0.3809  0.0123
  717TMC3    O110661   3.762   0.072   9.489 -0.1834 -0.3884 -0.3247
  717TMC3    O210662   3.318   0.208   9.335  0.1708 -0.0595 -0.4116
  718MPD2     C10663   3.872   4.490  12.699 -0.3619 -0.9295  0.2444
  718MPD2    C110664   3.805   4.559  12.598  1.0225  0.3914  0.6349
  718MPD2    C210665   3.667   4.572  12.600 -0.1944 -0.2849 -0.3614
  718MPD2    C310666   3.592   4.514  12.697 -0.2866 -0.1924 -0.0142
  718MPD2    C410667   3.657   4.441  12.797  0.2049 -0.5594 -0.4086
  718MPD2    C510668   3.799   4.436  12.803  0.4637 -0.6371 -0.1985
  718MPD2     H10669   3.610   4.626  12.524 -0.0687 -0.8257 -0.8355
  718MPD2    H110670   3.601   4.413  12.885  1.1446 -2.2487 -0.3504
  718MPD2    H210671   3.979   4.478  12.706 -0.3469 -0.3580  0.9799
  718MPD2    H310672   3.852   4.387  12.884  0.4443  0.0534  0.2317
  718MPD2     N10673   3.455   4.539  12.680  0.9013 -0.2224 -0.0909
  718MPD2    H510674   3.439   4.608  12.608  1.8276  0.6619  0.5552
  718MPD2    N110675   3.884   4.623  12.497 -0.1723  0.7204  0.0219
  718MPD2    H710676   3.985   4.621  12.514 -0.4707  0.6274  1.7703
  719TMC3    C110677   3.932   0.037  12.322  0.1327 -0.4498  0.0734
  719TMC3    C210678   3.873   0.164  12.310 -1.0340  0.0055 -0.3375
  719TMC3    C310679   3.878   0.236  12.188  0.1822  0.2202  0.2427
  719TMC3    C410680   3.994   4.722  12.209  0.1517  0.1233 -0.0832
  719TMC3    C510681   4.015   0.067  12.107 -0.1176 -0.3881 -0.5727
  719TMC3    C610682   3.967   0.191  12.093 -0.1235 -0.6316 -0.0421
  719TMC3     C10683   3.840   4.685  12.383 -0.0533  0.0986  0.9741
  719TMC3     O10684   3.724   4.695  12.347  0.1339 -0.3362  0.6917
  719TMC3     H10685   3.825   0.195  12.402  0.5718  1.1250  0.1365
  719TMC3    H110686   4.024   4.618  12.205 -1.3934 -0.3378  0.1058
  719TMC3    H210687   3.965   0.250  12.002  0.8210 -0.7684 -0.1505
  719TMC3    C710688   4.026   0.006  11.981 -0.7811 -0.0145 -0.5625
  719TMC3    C810689   3.755   0.289  12.136  0.9693 -0.2335  0.0333
  719TMC3    O110690   4.075   0.078  11.895 -0.1104  0.3739  0.1628
  719TMC3    O210691   3.748   0.342  12.025  0.0154 -0.1241 -0.3469
  720MPD2     C10692   1.818   1.286  13.813 -0.6466 -0.0742  0.9875
  720MPD2    C110693   1.904   1.369  13.740  0.1086  0.8285  0.2063
  720MPD2    C210694   2.032   1.380  13.789 -0.2005 -0.3466 -0.5827
  720MPD2    C310695   2.088   1.307  13.894  0.1643 -0.8355 -0.1180
  720MPD2    C410696   1.996   1.233  13.965  1.2762 -0.3527 -0.5602
  720MPD2    C510697   1.865   1.224  13.930  0.9206  0.3391  0.0479
  720MPD2     H10698   2.091   1.461  13.747  1.1996 -0.9208  0.2517
  720MPD2    H110699   2.027   1.172  14.049 -0.6487  0.6100  0.8216
  720MPD2    H210700   1.718   1.260  13.781 -0.6158 -0.6748  1.3684
  720MPD2    H310701   1.795   1.164  13.988 -0.0682  1.2179 -0.2568
  720MPD2     N10702   2.221   1.334  13.928  0.5206  0.2908  0.5511
  720MPD2    H510703   2.268   1.406  13.874  0.7930 -0.1108  0.2509
  720MPD2    N110704   1.859   1.464  13.654  0.3085  0.1334 -0.1794
  720MPD2    H710705   1.919   1.543  13.633 -0.3802  1.0609  1.3619
  721TMC3    C110706   2.407   1.336  14.081 -0.0827  0.0289  0.0107
  721TMC3    C210707   2.445   1.377  14.203 -0.3101  0.3408 -0.4943
  721TMC3    C310708   2.560   1.442  14.221  0.6831 -0.0558 -1.2707
  721TMC3    C410709   2.486   1.351  13.971  0.2140  1.0072 -0.0013
  721TMC3    C510710   2.605   1.417  13.997  0.0482  0.1929  0.5915
  721TMC3    C610711   2.639   1.474  14.114  0.0558 -0.4996  0.1475
  721TMC3     C10712   2.270   1.290  14.054 -1.2244  0.1474 -0.3776
  721TMC3     O10713   2.215   1.234  14.147  0.5297 -0.2714 -0.3029
  721TMC3     H10714   2.387   1.354  14.292  0.1185  0.6163 -0.1467
  721TMC3    H110715   2.469   1.299  13.878 -2.2347  1.4298  0.2179
  721TMC3    H210716   2.738   1.519  14.116  0.5461 -1.5252 -0.8750
  721TMC3    C710717   2.716   1.389  13.916  0.1872  0.5194 -0.6213
  721TMC3    C810718   2.626   1.457  14.347  0.0590 -0.9606 -0.0811
  721TMC3    O110719   2.766   1.493  13.869  0.5351  0.3633 -0.0795
  721TMC3    O210720   2.747   1.433  14.349  0.2416  0.2966  0.6219
  722MPD2     C10721   0.893   4.717  13.087 -0.2794 -0.2777  0.2588
  722MPD2    C110722   0.922   0.103  13.036  0.9289 -0.0422 -0.1931
  722MPD2    C210723   0.843   0.142  12.928  0.4884  0.0208 -0.1739
  722MPD2    C310724   0.734   0.072  12.881 -0.4590  0.0885 -0.6063
  722MPD2    C410725   0.717   4.685  12.929 -1.1745  0.3954 -0.1805
  722MPD2    C510726   0.800   4.641  13.027 -0.7178  0.0243 -0.5278
  722MPD2     H10727   0.854   0.238  12.877 -3.0418  0.6588  0.2340
  722MPD2    H110728   0.641   4.619  12.890 -1.1163  0.6210 -0.6729
  722MPD2    H210729   0.949   4.671  13.168 -0.1145 -1.4971 -0.5500
  722MPD2    H310730   0.793   4.534  13.044  0.1436  0.1544  0.6136
  722MPD2     N10731   0.661   0.136  12.784  0.4299  0.4489  0.5988
  722MPD2    H510732   0.694   0.228  12.756  1.3162 -0.3556 -1.0205
  722MPD2    N110733   1.025   0.195  13.084  0.0915  0.5167  0.7135
  722MPD2    H710734   1.042   0.278  13.028  0.4151 -0.4058 -0.5546
  723TMC3    C110735   0.461   0.211  12.700  0.1630 -0.6273 -0.3197
  723TMC3    C210736   0.325   0.198  12.716  0.5551  0.4066  0.4642
  723TMC3    C310737   0.260   0.302  12.755  0.3699 -0.8379 -0.2229
  723TMC3    C410738   0.518   0.333  12.689  0.2652  0.5888 -0.2064
  723TMC3    C510739   0.447   0.438  12.723  0.2685 -0.0045  0.8702
  723TMC3    C610740   0.321   0.423  12.769  0.4265 -0.4770  0.3780
  723TMC3     C10741   0.542   0.097  12.736 -0.3426 -0.0879  0.8288
  723TMC3     O10742   0.487   4.730  12.753  0.1621 -0.0342  0.6338
  723TMC3     H10743   0.276   0.102  12.730 -1.2820  1.2835  0.1103
  723TMC3    H110744   0.614   0.346  12.641  0.3636  0.1032 -0.1414
  723TMC3    H210745   0.257   0.509  12.786  1.7085  0.7376 -0.9684
  723TMC3    C710746   0.482   0.570  12.684 -0.3016 -0.0304  0.9253
  723TMC3    C810747   0.120   0.301  12.745 -0.0793 -0.4379  0.1201
  723TMC3    O110748   0.427   0.660  12.748  0.7915  0.2549 -0.3801
  723TMC3    O210749   0.049   0.380  12.801 -0.6095 -0.0302 -0.4946
  724TMC3    C110750   2.766   3.392   9.930 -0.7694 -0.4751 -0.5955
  724TMC3    C210751   2.652   3.315   9.949  0.1510  0.0087  0.2271
  724TMC3    C310752   2.556   3.336   9.855 -0.4670 -0.3056 -0.2154
  724TMC3    C410753   2.768   3.498   9.849  0.5935 -0.1500  0.2466
  724TMC3    C510754   2.669   3.520   9.771  0.2464  0.0126 -0.3109
  724TMC3    C610755   2.557   3.440   9.766  0.2685 -0.2290  0.6383
  724TMC3     C10756   2.883   3.371  10.017  0.2322 -0.3993  1.0187
  724TMC3     O10757   2.989   3.418   9.973 -0.4434 -0.9082 -0.2908
  724TMC3     H10758   2.650   3.226  10.011 -2.1249 -0.7845 -1.0081
  724TMC3    H110759   2.854   3.564   9.851  0.6536 -0.2882  2.1896
  724TMC3    H210760   2.474   3.461   9.698  0.9826 -1.3247 -0.5610
  724TMC3    C710761   2.634   3.660   9.723 -0.0793  0.9528  0.8346
  724TMC3    C810762   2.427   3.300   9.903  0.5304 -0.4107  0.3619
  724TMC3    O110763   2.521   3.665   9.682 -0.0562 -0.3018  0.0463
  724TMC3    O210764   2.432   3.207   9.985 -0.4665 -0.4768  0.5164
  725TMC3    C110765   2.279   2.315  12.874  0.1419  0.5340 -0.1090
  725TMC3    C210766   2.189   2.385  12.803 -0.9099 -0.1037  1.2511
  725TMC3    C310767   2.069   2.328  12.788 -0.2507  0.5659 -0.0941
  725TMC3    C410768   2.252   2.187  12.928 -0.7701 -0.4281  0.2259
  725TMC3    C510769   2.116   2.144  12.930 -0.3631 -0.5429 -0.4547
  725TMC3    C610770   2.034   2.211  12.852 -0.0328 -0.0152  0.7341
  725TMC3     C10771   2.422   2.361  12.866  0.1508 -0.4501 -0.7703
  725TMC3     O10772   2.441   2.471  12.813 -0.1024 -0.5273 -0.2770
  725TMC3     H10773   2.206   2.487  12.769 -2.4887  1.2918  4.6469
  725TMC3    H110774   2.326   2.138  12.990  0.8886  0.4141 -1.0687
  725TMC3    H210775   1.931   2.179  12.853  0.0379 -0.1273  3.2135
  725TMC3    C710776   2.110   1.999  12.914  0.0360  0.0301  0.6444
  725TMC3    C810777   2.006   2.327  12.664 -1.4799 -0.5199 -0.7357
  725TMC3    O110778   2.202   1.937  12.964  0.7742 -0.6463  0.0456
  725TMC3    O210779   1.927   2.229  12.642 -0.4353 -0.1692 -0.1166
  726MPD2     C10780   0.417   3.684  10.615 -0.2303 -0.2008  1.0437
  726MPD2    C110781   0.333   3.654  10.509 -0.1638  0.2614  0.1883
  726MPD2    C210782   0.263   3.533  10.506 -0.4300  0.3278  0.2015
  726MPD2    C310783   0.276   3.447  10.616 -0.0016  0.3064  0.4334
  726MPD2    C410784   0.348   3.482  10.723 -0.0917  0.1654  0.0631
  726MPD2    C510785   0.427   3.597  10.716  0.0087 -0.4277  0.0231
  726MPD2     H10786   0.214   3.505  10.414  0.3294 -1.1385  0.2448
  726MPD2    H110787   0.345   3.430  10.818  1.6372 -2.9222 -1.5714
  726MPD2    H210788   0.492   3.763  10.618  1.4515 -1.7793  0.8358
  726MPD2    H310789   0.487   3.630  10.800 -1.1427 -0.4158  0.8360
  726MPD2     N10790   0.210   3.326  10.626 -0.1752  0.5856  0.5082
  726MPD2    H510791   0.253   3.264  10.694 -1.1525 -0.1325  0.4705
  726MPD2    N110792   0.318   3.738  10.397  0.5171  0.2640  0.1796
  726MPD2    H710793   0.249   3.710  10.328  0.4404 -1.5614  1.0059
  727TMC3    C110794   0.414   3.882  10.226 -0.1191 -0.2159 -0.3342
  727TMC3    C210795   0.524   3.962  10.202  0.3429  0.4118  0.0365
  727TMC3    C310796   0.510   4.076  10.128 -0.3700 -0.4549  0.1373
  727TMC3    C410797   0.297   3.911  10.163  0.0775  0.1292  1.1677
  727TMC3    C510798   0.280   4.026  10.094 -0.3739  0.0235  0.6708
  727TMC3    C610799   0.389   4.109  10.076  0.2568 -0.0642 -0.3080
  727TMC3     C10800   0.408   3.839  10.361  0.1865 -0.1228 -0.8428
  727TMC3     O10801   0.496   3.894  10.420  0.1830 -0.3699  0.2565
  727TMC3     H10802   0.620   3.931  10.240 -0.9007 -1.1725  1.8872
  727TMC3    H110803   0.207   3.882  10.218  0.5768  1.3537  2.6334
  727TMC3    H210804   0.370   4.194  10.011  0.3150  1.0380  1.1256
  727TMC3    C710805   0.174   4.033   9.993 -0.0464  0.4091 -0.0886
  727TMC3    C810806   0.600   4.182  10.158  0.2085  0.3199 -0.2924
  727TMC3    O110807   0.135   4.145   9.958  0.5771 -0.0531  0.3673
  727TMC3    O210808   0.719   4.159  10.156 -0.2469  0.1335 -0.4482
  728TMC3    C110809   4.452   1.754  14.935  0.3600 -0.4396  0.1228
  728TMC3    C210810   4.587   1.783  14.918  0.7057 -0.0108 -0.8485
  728TMC3    C310811   4.638   1.815  14.795 -0.8850  0.1773  0.2141
  728TMC3    C410812   4.371   1.749  14.829 -0.1462 -0.4093 -0.6031
  728TMC3    C510813   4.420   1.800  14.708 -0.5041 -0.2847 -0.0424
  728TMC3    C610814   4.550   1.826  14.690  0.3922 -0.8023 -0.0849
  728TMC3     C10815   4.419   1.698  15.066 -0.6629 -0.2183  0.2998
  728TMC3     O10816   4.510   1.689  15.148 -0.2967 -0.0921  0.1540
  728TMC3     H10817   4.657   1.775  15.000 -0.4979  1.2298  0.2858
  728TMC3    H110818   4.266   1.725  14.843  0.8084 -3.8666  0.4146
  728TMC3    H210819   4.592   1.855  14.594 -1.6939 -0.4767 -0.8997
  728TMC3    C710820   4.322   1.864  14.618  0.4029  0.1704 -0.3535
  728TMC3    C810821   0.042   1.847  14.764  0.3476 -0.8145 -0.2320
  728TMC3    O110822   4.213   1.814  14.611  0.2286 -0.1883  0.7350
  728TMC3    O210823   0.077   1.844  14.648 -0.5581 -0.5468  0.7077
  729MPD2     C10824   1.684   2.698  16.408 -0.0085 -0.6966  0.2865
  729MPD2    C110825   1.660   2.833  16.416 -0.3107  0.1423  0.5357
  729MPD2    C210826   1.635   2.905  16.542  0.5599  0.6317 -0.3142
  729MPD2    C310827   1.651   2.829  16.654  0.0881  0.4696  0.1865
  729MPD2    C410828   1.671   2.690  16.641  0.1903 -0.0395  0.1831
  729MPD2    C510829   1.689   2.626  16.520  0.5069  0.4845  0.3406
  729MPD2     H10830   1.641   3.013  16.536  0.3998  0.4987 -3.1195
  729MPD2    H110831   1.697   2.626  16.724  1.6592 -0.8094 -0.8567
  729MPD2    H210832   1.694   2.648  16.312 -1.4967  2.5504 -1.5866
  729MPD2    H310833   1.713   2.521  16.512  0.9184  0.5207  1.0919
  729MPD2     N10834   1.655   2.886  16.784  0.0007  0.1520  0.5262
  729MPD2    H510835   1.659   2.825  16.865 -0.2082  0.0130  0.4322
  729MPD2    N110836   1.674   2.903  16.296  0.1169  0.3118  0.1280
  729MPD2    H710837   1.701   2.845  16.218  0.3959 -0.6110  0.8994
  730TMC3    C110838   1.631   3.052  16.952  0.3613 -0.4148 -0.4966
  730TMC3    C210839   1.760   3.051  17.006 -0.4710  0.0489  0.7257
  730TMC3    C310840   1.787   3.143  17.102 -0.1616  0.0494 -0.7845
  730TMC3    C410841   1.540   3.144  16.996 -0.1217  0.3146 -0.4166
  730TMC3    C510842   1.576   3.230  17.101 -0.4497 -0.1853 -0.0686
  730TMC3    C610843   1.698   3.225  17.159 -0.1947  0.1276 -0.4591
  730TMC3     C10844   1.622   3.020  16.815 -0.2068  0.0847  0.0537
  730TMC3     O10845   1.578   3.113  16.745 -0.4164 -0.1235 -0.0003
  730TMC3     H10846   1.830   2.984  16.957 -2.5697 -1.5523 -0.0664
  730TMC3    H110847   1.449   3.132  16.939 -0.5817  0.5882  0.2633
  730TMC3    H210848   1.741   3.304  17.219  0.9742 -0.1161 -0.9612
  730TMC3    C710849   1.496   3.340  17.143 -0.1680 -0.1189  0.3099
  730TMC3    C810850   1.925   3.191  17.098  0.3312 -0.5286  0.1234
  730TMC3    O110851   1.531   3.394  17.243  0.0602 -0.8248  1.0013
  730TMC3    O210852   1.982   3.208  16.989  0.1231  0.2172  0.4366
  731MPD2     C10853   1.933   0.806  11.881 -0.6377  0.0229 -0.2829
  731MPD2    C110854   2.052   0.869  11.917 -0.1634 -0.5863  0.0753
  731MPD2    C210855   2.079   0.884  12.056  0.4762  0.3234 -1.0725
  731MPD2    C310856   1.988   0.846  12.153  0.4210 -0.1953  0.2590
  731MPD2    C410857   1.868   0.787  12.112 -0.3091  0.5313 -0.4556
  731MPD2    C510858   1.841   0.773  11.978  0.8025  0.4538 -0.2015
  731MPD2     H10859   2.166   0.931  12.100 -1.0005  2.0622 -0.0324
  731MPD2    H110860   1.793   0.746  12.178  1.3406  1.2933  1.9013
  731MPD2    H210861   1.916   0.799  11.774 -1.3590 -0.2886 -0.1449
  731MPD2    H310862   1.744   0.738  11.946  2.1349 -2.5660 -1.0055
  731MPD2     N10863   2.025   0.864  12.292 -0.3861 -0.0823  0.2881
  731MPD2    H510864   2.121   0.891  12.313 -0.1820  0.7342 -1.6837
  731MPD2    N110865   2.139   0.918  11.817 -0.0911  0.8087  0.2085
  731MPD2    H710866   2.106   0.909  11.722 -1.1920  0.4158  0.6276
  732TMC3    C110867   2.332   1.001  11.707  0.7698 -0.7321  0.3367
  732TMC3    C210868   2.259   1.024  11.597  0.2337 -0.0345  0.3789
  732TMC3    C310869   2.319   1.086  11.491  0.3413  0.1353 -0.2314
  732TMC3    C410870   2.465   1.031  11.716  0.4423  0.2409 -0.2463
  732TMC3    C510871   2.522   1.090  11.602  0.3920 -0.1785 -0.2428
  732TMC3    C610872   2.453   1.117  11.493  0.1142  0.6288  0.5550
  732TMC3     C10873   2.265   0.978  11.831  0.0754 -0.3282 -0.2169
  732TMC3     O10874   2.319   1.022  11.936 -0.2104  0.1390 -0.2532
  732TMC3     H10875   2.156   0.993  11.582  0.2420 -1.0295  2.4584
  732TMC3    H110876   2.527   1.021  11.804  2.6798 -1.2879 -2.0148
  732TMC3    H210877   2.503   1.157  11.405 -1.1907 -0.4138 -0.6711
  732TMC3    C710878   2.649   1.155  11.614  0.0989 -0.0856  0.1381
  732TMC3    C810879   2.241   1.165  11.393  0.2272  0.0268  0.3832
  732TMC3    O110880   2.705   1.191  11.513 -0.2145  0.3044 -0.3785
  732TMC3    O210881   2.299   1.214  11.295  0.0294  0.2140 -0.0348
  733TMC3    C110882   3.005   4.615  12.704 -0.3356 -0.8722 -0.1158
  733TMC3    C210883   3.116   4.551  12.752 -0.3081  0.7400  0.0308
  733TMC3    C310884   3.234   4.553  12.684  0.4861  0.0444  0.0627
  733TMC3    C410885   3.007   4.675  12.581 -0.4644 -0.6618  0.2190
  733TMC3    C510886   3.120   4.663  12.510 -1.4089  0.3476  0.3790
  733TMC3    C610887   3.240   4.607  12.559 -0.5052 -0.2900 -0.2618
  733TMC3     C10888   2.869   4.603  12.748  0.2687 -0.1688 -0.1825
  733TMC3     O10889   2.783   4.675  12.700  0.2512 -0.2809 -0.8333
  733TMC3     H10890   3.116   4.507  12.851 -1.1785 -0.2703 -0.4116
  733TMC3    H110891   2.925   0.002  12.545  0.6856 -0.0301 -1.2885
  733TMC3    H210892   3.326   4.590  12.496 -0.5177 -0.7059 -0.1678
  733TMC3    C710893   3.135   0.007  12.389  0.2141 -0.3577  0.4411
  733TMC3    C810894   3.349   4.492  12.745  0.4062  0.0621  0.1129
  733TMC3    O110895   3.033   0.053  12.345 -0.4615  0.5159  0.2711
  733TMC3    O210896   3.338   4.415  12.835  0.0930  0.0706  0.4659
  734MPD2     C10897   0.686   1.990  12.298  0.2592 -0.3293 -0.1610
  734MPD2    C110898   0.618   1.906  12.209  0.1996  0.9817  0.0632
  734MPD2    C210899   0.600   1.951  12.081 -0.9597 -0.1083  0.2927
  734MPD2    C310900   0.657   2.071  12.043 -0.3560  0.4268 -0.3155
  734MPD2    C410901   0.723   2.157  12.132 -0.1927  0.3842 -0.5575
  734MPD2    C510902   0.729   2.118  12.262 -0.3649 -0.5040 -0.2658
  734MPD2     H10903   0.566   1.888  12.000 -2.2189  0.3368  0.4897
  734MPD2    H110904   0.758   2.254  12.100  2.9116 -0.4697  0.2749
  734MPD2    H210905   0.691   1.950  12.398  0.5659 -0.9236 -0.4150
  734MPD2    H310906   0.789   2.177  12.331 -0.2310  0.8836 -1.5645
  734MPD2     N10907   0.653   2.096  11.906  0.2757 -0.3918  0.4896
  734MPD2    H510908   0.582   2.041  11.859 -0.3283  0.5920  0.2632
  734MPD2    N110909   0.584   1.779  12.245  0.6496  0.2719 -0.1110
  734MPD2    H710910   0.607   1.742  12.337 -0.2423  1.2437  0.4928
  735TMC3    C110911   0.529   1.549  12.205 -0.5290  0.3800 -0.1696
  735TMC3    C210912   0.438   1.476  12.135  0.2711 -0.2255  0.1528
  735TMC3    C310913   0.479   1.353  12.094 -0.2606 -1.0100  0.1422
  735TMC3    C410914   0.662   1.510  12.198  0.1476 -1.1964 -0.1270
  735TMC3    C510915   0.698   1.391  12.149 -0.3283 -0.5811 -0.1369
  735TMC3    C610916   0.601   1.302  12.111 -1.0959  0.1212 -0.6319
  735TMC3     C10917   0.520   1.681  12.169  0.4399 -0.7138  0.3199
  735TMC3     O10918   0.455   1.695  12.064 -0.1102  0.2853 -0.2021
  735TMC3     H10919   0.334   1.505  12.132  0.5692  1.0610  2.3580
  735TMC3    H110920   0.725   1.596  12.218  0.1460 -1.6693  1.9897
  735TMC3    H210921   0.631   1.213  12.057  0.5258 -0.5005  1.2796
  735TMC3    C710922   0.826   1.383  12.077 -0.2546 -0.0215 -0.5865
  735TMC3    C810923   0.436   1.334  11.959 -1.1829 -0.1614  0.3706
  735TMC3    O110924   0.876   1.492  12.050 -0.0259 -0.2014  0.2345
  735TMC3    O210925   0.446   1.229  11.898 -0.2506  0.2789  0.1108
  736MPD2     C10926   1.016   1.090  11.974  0.0509 -0.9016 -0.4071
  736MPD2    C110927   0.973   1.218  11.969  0.2711  0.4894 -0.1091
  736MPD2    C210928   1.021   1.307  11.868 -0.2794 -0.0505  0.0643
  736MPD2    C310929   1.129   1.266  11.793  0.2882  0.2863  1.1171
  736MPD2    C410930   1.189   1.139  11.816 -0.3634  0.6106  0.2239
  736MPD2    C510931   1.132   1.054  11.907  0.0825 -0.2610  0.3438
  736MPD2     H10932   0.971   1.402  11.855  3.1591  1.2132 -3.6699
  736MPD2    H110933   1.278   1.100  11.768  0.1245  2.4460 -0.3722
  736MPD2    H210934   0.979   1.019  12.046  0.9394 -0.8496  0.0966
  736MPD2    H310935   1.184   0.961  11.928  1.1670  0.4267  0.7454
  736MPD2     N10936   1.183   1.339  11.688  0.0043  0.5845  0.0440
  736MPD2    H510937   1.249   1.299  11.622 -0.8878  1.2459 -1.2691
  736MPD2    N110938   0.867   1.255  12.059 -0.1052  0.2469 -0.3211
  736MPD2    H710939   0.839   1.178  12.119 -0.8701  0.0428 -0.9386
  737TMC3    C110940   1.204   1.515  11.537 -0.1203 -0.3667 -0.1511
  737TMC3    C210941   1.167   1.641  11.496  0.7303  0.3524  0.1420
  737TMC3    C310942   1.199   1.681  11.372 -0.3311  0.3374 -0.0280
  737TMC3    C410943   1.289   1.446  11.457 -0.2653  0.3149  0.0106
  737TMC3    C510944   1.325   1.486  11.330  0.0548  1.0218  0.0166
  737TMC3    C610945   1.274   1.600  11.283  0.1727 -0.2511  0.4624
  737TMC3     C10946   1.149   1.465  11.659 -0.0139 -0.2318 -0.2417
  737TMC3     O10947   1.087   1.548  11.722  0.6899  0.2814  0.0342
  737TMC3     H10948   1.093   1.692  11.557 -0.2731  0.8192 -1.4472
  737TMC3    H110949   1.315   1.344  11.484 -3.2551 -0.5999 -0.6165
  737TMC3    H210950   1.300   1.635  11.184 -0.0599 -0.5995  0.2788
  737TMC3    C710951   1.407   1.413  11.235  0.1824 -0.0150 -0.3855
  737TMC3    C810952   1.152   1.813  11.318 -0.9330 -0.3594  0.6751
  737TMC3    O110953   1.383   1.294  11.241  0.1251 -0.5296 -0.1606
  737TMC3    O210954   1.103   1.881  11.407  0.2280 -0.0103 -0.1715
  738MPD2     C10955   0.982   0.026  15.195  0.0284 -0.3590 -0.4592
  738MPD2    C110956   0.962   0.060  15.065  0.4287  0.1146 -0.0670
  738MPD2    C210957   1.069   0.103  14.994 -0.9449  0.6296  0.7456
  738MPD2    C310958   1.193   0.114  15.052  0.4208 -0.2967 -0.4197
  738MPD2    C410959   1.212   0.082  15.181 -0.7228 -0.1406  0.4873
  738MPD2    C510960   1.100   0.045  15.252 -0.8519 -0.8787  0.0142
  738MPD2     H10961   1.051   0.129  14.891  0.6443 -2.0494 -0.1959
  738MPD2    H110962   1.304   0.093  15.237 -0.8984 -1.3481  1.0036
  738MPD2    H210963   0.902   4.729  15.261  0.0191 -0.1991 -0.3930
  738MPD2    H310964   1.111   0.027  15.359  0.4696 -1.3650 -0.2040
  738MPD2     N10965   1.309   0.140  14.978  0.3816  0.6339 -0.0327
  738MPD2    H510966   1.394   0.158  15.031 -0.1574  2.1654  0.3285
  738MPD2    N110967   0.836   0.054  14.998  0.1099  0.2224 -0.1104
  738MPD2    H710968   0.831   0.087  14.902  0.7832  0.2502 -0.1334
  739TMC3    C110969   1.453   0.186  14.800  0.3690  0.3290  0.2957
  739TMC3    C210970   1.473   0.263  14.691 -0.1857  0.1618 -0.5642
  739TMC3    C310971   1.600   0.271  14.637 -0.6011 -0.5657  0.7086
  739TMC3    C410972   1.562   0.122  14.861  0.5391  1.0982  0.5146
  739TMC3    C510973   1.681   0.136  14.796  0.5067 -0.5286 -0.7103
  739TMC3    C610974   1.702   0.204  14.686  0.1364 -0.1563  1.0784
  739TMC3     C10975   1.319   0.157  14.839 -0.3092 -0.0305  0.6852
  739TMC3     O10976   1.235   0.150  14.751  0.4385  0.2184  0.4586
  739TMC3     H10977   1.391   0.315  14.643 -1.2430 -0.5519  0.4874
  739TMC3    H110978   1.551   0.055  14.946  0.3547  0.4052 -0.0597
  739TMC3    H210979   1.798   0.201  14.636 -0.3754  0.2983  0.0674
  739TMC3    C710980   1.801   0.093  14.867  0.2084 -0.5072 -0.5046
  739TMC3    C810981   1.598   0.330  14.500  0.1132  0.8142 -0.5913
  739TMC3    O110982   1.800   0.107  14.992  0.4967 -0.5041 -0.5618
  739TMC3    O210983   1.506   0.335  14.416 -0.3389 -0.8231  0.2510
  740TMC3    C110984   1.838   1.669  14.444  0.5231  0.2094 -0.4721
  740TMC3    C210985   1.864   1.635  14.575 -0.3054 -0.5560 -0.1312
  740TMC3    C310986   1.989   1.604  14.610  1.0995 -0.0638 -0.1418
  740TMC3    C410987   1.940   1.662  14.349 -0.2990  0.4297  0.8194
  740TMC3    C510988   2.060   1.617  14.397  0.0644 -0.0710 -0.1533
  740TMC3    C610989   2.096   1.599  14.524  0.1556  0.0796 -1.4344
  740TMC3     C10990   1.709   1.714  14.408 -0.1895  0.0824 -0.2577
  740TMC3     O10991   1.695   1.766  14.298  0.2916  0.2734 -0.2598
  740TMC3     H10992   1.782   1.636  14.646  0.0703 -2.0914  0.3416
  740TMC3    H110993   1.923   1.682  14.244  1.3583  0.4992  0.5733
  740TMC3    H210994   2.190   1.566  14.567 -0.6760  0.3598  0.6089
  740TMC3    C710995   2.171   1.628  14.299  0.4197 -0.2231 -0.4661
  740TMC3    C810996   2.011   1.515  14.724  0.8083  0.3083  1.1452
  740TMC3    O110997   2.281   1.622  14.351 -0.4808 -0.1579 -0.5953
  740TMC3    O210998   2.125   1.490  14.759  0.2540 -0.4118  0.2128
  741TMC3    C110999   1.470   1.131  14.013  0.6264 -0.4750  0.1134
  741TMC3    C211000   1.348   1.072  13.997 -0.7082  0.3169 -0.5195
  741TMC3    C311001   1.304   0.968  14.086  0.1631  0.0297  0.3271
  741TMC3    C411002   1.564   1.069  14.089 -0.4300 -0.0302 -0.7675
  741TMC3    C511003   1.527   0.962  14.166  0.2060 -0.0732 -0.1364
  741TMC3    C611004   1.401   0.906  14.164  0.2454 -0.0666  0.7009
  741TMC3     C11005   1.496   1.271  13.974 -0.2677 -0.3439 -1.0069
  741TMC3     O11006   1.574   1.332  14.038  0.4572 -0.0556  0.1219
  741TMC3     H11007   1.273   1.121  13.936  0.5223  0.9621 -1.5153
  741TMC3    H111008   1.664   1.108  14.106 -0.1443 -0.6914 -0.9227
  741TMC3    H211009   1.380   0.826  14.233 -0.4784  0.6345  1.2931
  741TMC3    C711010   1.613   0.941  14.281  0.2338 -0.9206  0.1645
  741TMC3    C811011   1.195   0.889  14.030 -0.0286 -0.4270 -0.1848
  741TMC3    O111012   1.731   0.951  14.265 -0.1417 -0.4429  0.2828
  741TMC3    O211013   1.118   0.937  13.949 -0.3214  0.0803  0.5289
  742TMC3    C111014   1.056   4.433  15.501  0.5117 -0.1608  0.6008
  742TMC3    C211015   0.969   4.441  15.396  0.7542  0.1815  0.5316
  742TMC3    C311016   1.007   4.378  15.280 -0.3771  0.0816  0.1959
  742TMC3    C411017   1.177   4.370  15.490  0.3007  0.3510  0.3506
  742TMC3    C511018   1.213   4.315  15.367  0.1142 -0.1766 -0.4381
  742TMC3    C611019   1.126   4.318  15.263  0.1421  0.0408 -0.0837
  742TMC3     C11020   1.009   4.444  15.638 -0.1137  0.6126  0.1682
  742TMC3     O11021   1.097   4.452  15.725 -0.3948  0.3563 -0.3191
  742TMC3     H11022   0.884   4.506  15.411 -0.8742 -1.6305 -0.7781
  742TMC3    H111023   1.241   4.367  15.578  1.1232 -2.1146 -0.3273
  742TMC3    H211024   1.146   4.264  15.171  1.8208 -0.3946  0.5410
  742TMC3    C711025   1.325   4.221  15.351 -0.6325 -0.5016 -0.2918
  742TMC3    C811026   0.930   4.377  15.160 -0.2463  0.4386 -0.3655
  742TMC3    O111027   1.323   4.155  15.244  0.0134  0.5179  0.3855
  742TMC3    O211028   0.987   4.362  15.055 -1.0262 -0.4462  0.4240
  743MPD2     C11029   4.131   0.144   1.480 -1.2431 -0.8674 -0.3008
  743MPD2    C111030   4.059   0.068   1.382  0.6959  0.3698 -0.3484
  743MPD2    C211031   4.121   4.707   1.315  0.7501  0.0282  0.7050
  743MPD2    C311032   4.259   4.689   1.336 -0.3859 -0.4548  0.0047
  743MPD2    C411033   4.327   0.029   1.434  0.1823 -0.9624  0.5415
  743MPD2    C511034   4.262   0.121   1.513 -0.1444  0.0882  0.0882
  743MPD2     H11035   4.072   4.653   1.235  0.0610  1.8137 -0.0879
  743MPD2    H111036   4.432   0.019   1.456  0.1217 -0.7183  0.9474
  743MPD2    H211037   4.092   0.220   1.546  2.6458  1.1708 -0.3139
  743MPD2    H311038   4.319   0.179   1.585  1.1743 -0.2747 -0.6574
  743MPD2     N11039   4.323   4.600   1.255 -0.0716  0.1048 -0.0309
  743MPD2    H511040   4.275   4.538   1.190 -0.2385 -0.8070  0.9571
  743MPD2    N111041   3.925   0.081   1.350 -1.1217  0.5103  0.1887
  743MPD2    H711042   3.884   0.013   1.287 -0.8980  0.4036  0.1598
  744TMC3    C111043   3.718   0.188   1.318 -0.8039  0.0472  0.1573
  744TMC3    C211044   3.650   0.306   1.357  0.1330  0.5558  0.1367
  744TMC3    C311045   3.593   0.386   1.260 -0.1816 -0.5984  0.0965
  744TMC3    C411046   3.736   0.167   1.186 -0.1088  0.1105  0.9603
  744TMC3    C511047   3.670   0.239   1.090  0.1312  0.6124 -0.3720
  744TMC3    C611048   3.604   0.353   1.127 -0.2925 -0.1367  0.0371
  744TMC3     C11049   3.837   0.172   1.396 -0.1688  0.0261  0.1325
  744TMC3     O11050   3.863   0.257   1.481  0.1191 -0.2612 -0.2668
  744TMC3     H11051   3.654   0.346   1.458 -1.1261 -0.6004  0.6529
  744TMC3    H111052   3.795   0.084   1.150 -0.6032 -0.1318  0.7060
  744TMC3    H211053   3.578   0.429   1.055  1.0487  1.1711  0.9443
  744TMC3    C711054   3.710   0.212   0.951  1.0694  0.0371 -0.5134
  744TMC3    C811055   3.520   0.503   1.293 -0.3176  0.1065  0.4015
  744TMC3    O111056   3.703   0.308   0.874 -0.2367 -0.1358 -0.0515
  744TMC3    O211057   3.498   0.579   1.200  0.3057  0.2323  0.5732
  745TMC3    C111058   1.576   3.906  12.939 -0.0533  0.7807  0.4799
  745TMC3    C211059   1.510   3.867  13.055 -0.2983  0.7039  1.1139
  745TMC3    C311060   1.376   3.904  13.073  0.2738 -1.3068 -0.1695
  745TMC3    C411061   1.515   3.981  12.840  0.1390 -0.5117  0.2367
  745TMC3    C511062   1.379   4.007  12.859 -0.0903  0.2236 -0.2023
  745TMC3    C611063   1.310   3.967  12.972 -0.3466 -0.4707  0.2497
  745TMC3     C11064   1.712   3.959  12.966 -0.3852  0.6158  0.6776
  745TMC3     O11065   1.734   4.063  12.908  0.6976  0.5698 -0.5624
  745TMC3     H11066   1.560   3.829  13.143  0.1031 -1.7170 -0.1737
  745TMC3    H111067   1.574   4.010  12.754  0.5748 -0.1539  0.6585
  745TMC3    H211068   1.207   4.000  12.979 -0.0455  1.4328 -3.9277
  745TMC3    C711069   1.336   4.129  12.798 -1.0410 -0.2943 -0.1925
  745TMC3    C811070   1.317   3.927  13.201  0.1158 -0.7207  0.4175
  745TMC3    O111071   1.216   4.161  12.786  0.9405 -0.1169 -0.2123
  745TMC3    O211072   1.200   3.922  13.231  0.7910 -0.0597 -0.6873
  746TMC3    C111073   3.866   1.236  10.633  0.7311  0.3231 -0.3064
  746TMC3    C211074   3.886   1.310  10.519  0.5602 -0.8087 -0.1088
  746TMC3    C311075   3.776   1.329  10.441  0.0283 -0.0318 -0.5455
  746TMC3    C411076   3.744   1.180  10.669  0.5358 -0.0118  0.4357
  746TMC3    C511077   3.641   1.194  10.576 -0.2765  0.1993 -0.2176
  746TMC3    C611078   3.657   1.264  10.466 -0.1386 -0.2610  0.1083
  746TMC3     C11079   3.942   1.265  10.749  0.7242  0.1674  0.6750
  746TMC3     O11080   3.888   1.276  10.858  0.0197 -0.4643 -0.1480
  746TMC3     H11081   3.972   1.374  10.500 -0.5411 -0.0090 -2.3799
  746TMC3    H111082   3.733   1.136  10.767  1.0443 -0.7905  0.1431
  746TMC3    H211083   3.576   1.269  10.394  0.9151 -0.9209 -1.1182
  746TMC3    C711084   3.527   1.112  10.593  0.2272  0.9484 -0.0182
  746TMC3    C811085   3.773   1.423  10.333 -0.2809 -0.7894 -0.0054
  746TMC3    O111086   3.436   1.147  10.517  0.2903 -0.2614  0.0176
  746TMC3    O211087   3.659   1.458  10.301 -0.0301 -0.5360 -0.6572
  747TMC3    C111088   1.618   1.961  10.465 -0.5202 -0.3573 -0.1009
  747TMC3    C211089   1.647   1.824  10.487 -0.1731 -0.4559  0.1155
  747TMC3    C311090   1.718   1.790  10.600  0.0212  0.6703  0.6441
  747TMC3    C411091   1.660   2.054  10.557  0.5497 -0.3738  0.4103
  747TMC3    C511092   1.738   2.015  10.665  0.3693  0.3525  0.3425
  747TMC3    C611093   1.759   1.884  10.691  0.3773 -0.7723  0.5694
  747TMC3     C11094   1.507   2.002  10.377 -0.3298  1.2467 -0.1162
  747TMC3     O11095   1.445   2.107  10.401  0.3807 -0.2815  0.2409
  747TMC3     H11096   1.612   1.757  10.410  0.0226  0.5819 -0.8881
  747TMC3    H111097   1.647   2.160  10.537  0.5182 -0.0741  2.0182
  747TMC3    H211098   1.822   1.864  10.777 -2.6076 -0.9398  2.7031
  747TMC3    C711099   1.765   2.102  10.778  0.4191  0.3274 -0.1033
  747TMC3    C811100   1.718   1.643  10.638  0.3762  0.1683  0.1205
  747TMC3    O111101   1.856   2.064  10.857 -0.0137  0.3022 -0.1370
  747TMC3    O211102   1.699   1.556  10.553 -0.3892 -0.2102 -0.1406
  748MPD2     C11103   2.434   1.443   1.194 -0.1531  0.7961  0.2232
  748MPD2    C111104   2.516   1.428   1.083 -0.6854 -0.2285  0.6782
  748MPD2    C211105   2.648   1.470   1.097 -0.0247  0.1370 -0.5189
  748MPD2    C311106   2.699   1.516   1.218  0.5215  0.0738  0.1134
  748MPD2    C411107   2.618   1.507   1.335 -0.1826  0.2156  0.9100
  748MPD2    C511108   2.484   1.473   1.319 -0.5856 -0.6217  0.1741
  748MPD2     H11109   2.701   1.481   1.003 -0.2380  0.7020 -0.5743
  748MPD2    H111110   2.655   1.518   1.436 -1.9902 -1.7571  1.7894
  748MPD2    H211111   2.325   1.440   1.193 -0.0194 -3.0912 -1.6973
  748MPD2    H311112   2.419   1.473   1.406  0.4910  1.3530  0.9765
  748MPD2     N11113   2.837   1.556   1.233 -0.1942  1.1293  0.1987
  748MPD2    H511114   2.879   1.556   1.325 -1.8706 -0.7361  0.9564
  748MPD2    N111115   2.457   1.410   0.957 -0.0274  0.7965  0.0552
  748MPD2    H711116   2.356   1.418   0.955 -0.0639  0.0035 -1.9850
  749TMC3    C111117   3.050   1.609   1.165  0.1260  0.1951 -0.2837
  749TMC3    C211118   3.098   1.521   1.259  0.4244  0.1590 -0.3256
  749TMC3    C311119   3.233   1.500   1.255 -0.2723 -0.0399 -0.0145
  749TMC3    C411120   3.127   1.673   1.071  0.6509  0.3758 -0.0261
  749TMC3    C511121   3.261   1.643   1.070 -0.7721 -0.2237 -0.6066
  749TMC3    C611122   3.314   1.553   1.154  0.4372  0.4838  0.0138
  749TMC3     C11123   2.908   1.611   1.134 -0.3277  0.4396  0.1393
  749TMC3     O11124   2.868   1.660   1.028 -0.4410 -0.0508  0.3152
  749TMC3     H11125   3.036   1.492   1.343  0.1977 -0.8646 -0.8471
  749TMC3    H111126   3.081   1.736   0.995 -1.2733 -0.7619  0.1868
  749TMC3    H211127   3.421   1.554   1.171  0.2392  1.4256  1.1823
  749TMC3    C711128   3.350   1.720   0.980 -0.0584  0.2728 -0.1791
  749TMC3    C811129   3.291   1.417   1.350 -0.3147 -0.4557 -0.6387
  749TMC3    O111130   3.332   1.840   0.967  0.0289  0.1045 -0.1967
  749TMC3    O211131   3.218   1.386   1.440  0.3673 -0.1493 -0.0417
  750MPD2     C11132   4.414   2.939  11.425  0.5091 -0.7227  0.1273
  750MPD2    C111133   4.310   2.872  11.485  0.4893 -0.0916 -0.1834
  750MPD2    C211134   4.280   2.746  11.443 -0.0787 -0.1638  1.1731
  750MPD2    C311135   4.344   2.691  11.337  0.4291  0.5490  0.1778
  750MPD2    C411136   4.436   2.762  11.266 -1.0270  0.1114  1.2009
  750MPD2    C511137   4.475   2.877  11.316  0.4912 -0.0558  0.5959
  750MPD2     H11138   4.199   2.693  11.492 -1.2496  0.9536  0.4325
  750MPD2    H111139   4.485   2.706  11.187 -3.0514 -0.6391  0.4718
  750MPD2    H211140   4.452   3.035  11.456  1.5203 -0.3120 -2.3538
  750MPD2    H311141   4.558   2.927  11.268  0.0960 -0.1631 -0.1992
  750MPD2     N11142   4.339   2.555  11.302  0.3242  0.1241  0.7343
  750MPD2    H511143   4.395   2.518  11.227  1.3125  2.5971  0.2476
  750MPD2    N111144   4.219   2.944  11.572 -0.9652 -0.2912  0.1729
  750MPD2    H711145   4.230   3.045  11.577  0.8593 -0.4039 -1.5346
  751TMC3    C111146   4.262   2.331  11.308  0.0833 -0.4859  0.0563
  751TMC3    C211147   4.247   2.230  11.389 -0.0592  0.0728 -0.3842
  751TMC3    C311148   4.268   2.110  11.337  0.9558 -0.2603 -0.1471
  751TMC3    C411149   4.284   2.323  11.175 -0.3156 -0.5263 -0.1039
  751TMC3    C511150   4.291   2.198  11.118  0.3791 -0.9098 -0.3059
  751TMC3    C611151   4.287   2.084  11.197  0.0903  0.1446 -0.5924
  751TMC3     C11152   4.268   2.462  11.371  0.2895  0.6726  0.4493
  751TMC3     O11153   4.223   2.461  11.482  0.2394  0.2613 -0.5962
  751TMC3     H11154   4.264   2.249  11.494  0.5735  1.2477 -0.6944
  751TMC3    H111155   4.298   2.416  11.121  0.5180 -1.6318 -1.7776
  751TMC3    H211156   4.294   1.986  11.153  0.1238  0.1206 -0.5340
  751TMC3    C711157   4.279   2.183  10.972  0.1375 -0.3129  0.1809
  751TMC3    C811158   4.268   1.999  11.431  0.2220 -0.2435  0.0243
  751TMC3    O111159   4.336   2.273  10.910  0.2853 -0.1175 -0.2208
  751TMC3    O211160   4.318   1.896  11.401 -0.6057 -0.2460  0.0346
  752TMC3    C111161   2.382   2.912  16.768  0.1404 -0.4421 -0.7513
  752TMC3    C211162   2.495   2.861  16.821  0.5191  0.1887  0.2201
  752TMC3    C311163   2.476   2.781  16.935 -0.0848  0.9558  0.9691
  752TMC3    C411164   2.258   2.905  16.833  0.2546  0.5290  0.2885
  752TMC3    C511165   2.250   2.831  16.952 -0.2288 -0.3185  0.1054
  752TMC3    C611166   2.357   2.770  17.001  0.0351 -0.3622  0.5521
  752TMC3     C11167   2.399   2.992  16.651  0.4406  0.0165  0.4569
  752TMC3     O11168   2.509   3.020  16.612  0.5401 -0.1112  0.6254
  752TMC3     H11169   2.585   2.865  16.762  0.3048 -1.8244 -0.2408
  752TMC3    H111170   2.169   2.960  16.807  0.2896  0.8524  0.8534
  752TMC3    H211171   2.355   2.719  17.096  0.4873 -1.0870  0.1723
  752TMC3    C711172   2.144   2.866  17.039  0.8029  0.8395  0.1435
  752TMC3    C811173   2.575   2.680  16.946 -0.4337  0.2139 -0.0229
  752TMC3    O111174   2.033   2.874  16.988  0.7986 -0.2939  0.7480
  752TMC3    O211175   2.662   2.672  16.861  0.1882 -0.0645  0.1637
  753TMC3    C111176   4.620   3.992  13.059  0.4857 -0.1574  0.3574
  753TMC3    C211177   4.679   3.936  13.170 -0.4609 -0.4664 -0.9902
  753TMC3    C311178   4.641   3.807  13.192 -0.1534  0.0939  0.1317
  753TMC3    C411179   4.538   3.925  12.973 -0.0342  0.3650 -0.4139
  753TMC3    C511180   4.514   3.793  12.993  0.3816  0.9481  0.3378
  753TMC3    C611181   4.566   3.734  13.099  0.6667  0.4571  0.1378
  753TMC3     C11182   4.619   4.132  13.044 -0.8513 -0.0451 -0.9536
  753TMC3     O11183   4.559   4.189  12.951  0.4156  0.1488  0.6146
  753TMC3     H11184   0.015   3.981  13.237 -1.8800 -0.2232  0.3605
  753TMC3    H111185   4.484   3.991  12.905 -1.4696  0.8416  1.1742
  753TMC3    H211186   4.565   3.626  13.110  1.0906  0.3249 -1.1551
  753TMC3    C711187   4.492   3.713  12.877 -0.8443  0.3212  0.2410
  753TMC3    C811188   4.700   3.732  13.299 -0.4001  0.1102 -0.2748
  753TMC3    O111189   4.501   3.593  12.892  0.3394 -0.3486  0.3563
  753TMC3    O211190   0.022   3.626  13.269  0.4139 -0.5420 -0.0054
  754MPD2     C11191   3.927   2.732  12.871  0.3323 -0.2108  0.6875
  754MPD2    C111192   3.862   2.609  12.856 -0.1288 -0.7928 -0.2088
  754MPD2    C211193   3.724   2.608  12.830 -0.3797  0.6939  0.7957
  754MPD2    C311194   3.653   2.729  12.827 -0.5888  0.2934 -0.4078
  754MPD2    C411195   3.723   2.848  12.850  0.5848  0.2826  0.1554
  754MPD2    C511196   3.861   2.852  12.866  0.1086  0.9545  0.2897
  754MPD2     H11197   3.679   2.514  12.800  1.1633 -0.1025  1.0085
  754MPD2    H111198   3.664   2.938  12.835 -0.3785 -0.6039 -1.4203
  754MPD2    H211199   4.031   2.742  12.899  1.2010 -1.2994 -2.1672
  754MPD2    H311200   3.910   2.948  12.879  0.6337  0.3445  2.7823
  754MPD2     N11201   3.513   2.744  12.827 -0.0379 -0.1916  0.4416
  754MPD2    H511202   3.474   2.834  12.851  0.9943  0.1187  0.9420
  754MPD2    N111203   3.946   2.497  12.875 -0.6794  0.2755 -0.0897
  754MPD2    H711204   4.045   2.514  12.889 -0.1724 -1.7229 -1.2933
  755MPD2     C11205   2.988   3.431  13.089  0.1485  0.0377 -0.4250
  755MPD2    C111206   2.928   3.312  13.138 -0.7472  0.1810 -0.1440
  755MPD2    C211207   2.983   3.189  13.106 -0.2029 -0.0088 -0.2521
  755MPD2    C311208   3.099   3.173  13.026 -0.2304 -0.1246 -0.4703
  755MPD2    C411209   3.145   3.296  12.973  0.2816 -0.8644 -0.1138
  755MPD2    C511210   3.092   3.414  13.004 -0.4984  0.3388  0.0547
  755MPD2     H11211   2.931   3.105  13.150 -0.8693 -0.0999 -1.2213
  755MPD2    H111212   3.218   3.292  12.893  1.3324  0.7599  0.7711
  755MPD2    H211213   2.952   3.531  13.110 -1.0512 -0.8201  1.6411
  755MPD2    H311214   3.146   3.495  12.956  0.6419 -0.8727 -0.7008
  755MPD2     N11215   3.156   3.043  12.996  0.3039  0.6596  0.4098
  755MPD2    H511216   3.232   3.046  12.929  2.0914  0.3490  2.4359
  755MPD2    N111217   2.823   3.320  13.234 -0.5330 -0.0637  0.1603
  755MPD2    H711218   2.792   3.233  13.277  0.9389 -0.9898 -0.6248
  756MPD2     C11219   3.977   3.768   9.740 -0.0358  0.4572  0.2505
  756MPD2    C111220   3.897   3.663   9.689  0.6950 -0.3634 -0.3651
  756MPD2    C211221   3.796   3.689   9.601  0.6566 -0.1432  0.5409
  756MPD2    C311222   3.770   3.811   9.547  0.1316  0.3470  0.1508
  756MPD2    C411223   3.843   3.916   9.598  0.0374  0.0968  0.7004
  756MPD2    C511224   3.939   3.894   9.694  0.4267  0.0287  0.1824
  756MPD2     H11225   3.731   3.606   9.574  1.9354 -0.9078 -0.2279
  756MPD2    H111226   3.825   4.019   9.570  0.6882 -0.5243 -1.9810
  756MPD2    H211227   4.053   3.769   9.817  1.1011 -0.5683 -0.8572
  756MPD2    H311228   4.002   3.979   9.715  2.9667 -1.8238  0.0351
  756MPD2     N11229   3.674   3.816   9.441 -0.5081  0.2283 -0.4905
  756MPD2    H511230   3.636   3.726   9.413  1.3289 -1.0170  1.0477
  756MPD2    N111231   3.904   3.535   9.742  0.7779  0.6629 -0.3949
  756MPD2    H711232   3.833   3.468   9.712  0.5518  1.7487 -2.3212
  757MPD2     C11233   3.085   3.259   9.231  0.0961  0.7795 -0.4693
  757MPD2    C111234   3.202   3.255   9.296  0.4720 -0.3213  0.0474
  757MPD2    C211235   3.291   3.366   9.283  0.8108  0.1356  0.1001
  757MPD2    C311236   3.259   3.475   9.198  1.0291 -0.2393  0.6008
  757MPD2    C411237   3.135   3.475   9.134  0.0886  1.0981  0.2134
  757MPD2    C511238   3.053   3.363   9.150 -0.3079  0.5737  0.9837
  757MPD2     H11239   3.384   3.372   9.338  1.0143 -2.4389  0.0388
  757MPD2    H111240   3.113   3.545   9.054 -0.8011  0.5780 -0.0040
  757MPD2    H211241   3.016   3.176   9.220  0.3260  0.2779  2.0217
  757MPD2    H311242   2.962   3.355   9.091 -0.5964 -0.5668  1.5810
  757MPD2     N11243   3.352   3.579   9.188  0.5495 -0.7876  0.3378
  757MPD2    H511244   3.435   3.559   9.242 -0.1616  0.0313  1.7392
  757MPD2    N111245   3.224   3.136   9.378 -0.1554  0.5734  0.4300
  757MPD2    H711246   3.152   3.065   9.367 -0.1540  0.6699 -0.2513
  758MPD2     C11247   3.400   2.288  15.480 -1.1189 -0.3781 -0.0785
  758MPD2    C111248   3.491   2.206  15.554  0.0296  0.0090 -0.0142
  758MPD2    C211249   3.506   2.227  15.689  0.3344 -0.3376  0.3108
  758MPD2    C311250   3.432   2.326  15.753 -0.0499 -0.2760 -0.0552
  758MPD2    C411251   3.343   2.406  15.678 -0.3431 -0.1768 -0.0098
  758MPD2    C511252   3.321   2.386  15.545 -0.3738 -0.5840 -1.3158
  758MPD2     H11253   3.572   2.161  15.745 -0.2269  0.0183  1.4116
  758MPD2    H111254   3.278   2.477  15.729 -2.1959  0.0305 -2.6664
  758MPD2    H211255   3.389   2.275  15.373  1.4494  2.7173 -0.6941
  758MPD2    H311256   3.242   2.441  15.494 -1.6615 -0.2033  1.1038
  758MPD2     N11257   3.440   2.359  15.891 -0.4133 -0.0410  0.1935
  758MPD2    H511258   3.374   2.428  15.925 -0.7707 -0.2082 -0.1641
  758MPD2    N111259   3.572   2.115  15.487  0.1019  0.3166  0.0824
  758MPD2    H711260   3.550   2.107  15.388 -1.2692  2.9813  0.1663
  759MPD2     C11261   1.103   0.115   8.557 -0.7425 -0.2816  0.1958
  759MPD2    C111262   1.169   0.154   8.673  0.4295 -0.1449  0.7318
  759MPD2    C211263   1.302   0.099   8.688  0.5306  0.1755  0.6519
  759MPD2    C311264   1.369   0.021   8.589  0.0004 -0.1671  0.6901
  759MPD2    C411265   1.288   4.725   8.481  0.1785  0.2842 -0.0784
  759MPD2    C511266   1.156   0.031   8.465 -0.2995  0.0989  0.2390
  759MPD2     H11267   1.354   0.103   8.783  1.1965  1.1792  0.2460
  759MPD2    H111268   1.320   4.652   8.407  0.1547  0.0283  0.1630
  759MPD2    H211269   1.008   0.154   8.522  0.5269  0.8302 -2.0285
  759MPD2    H311270   1.109   0.016   8.369  0.8395 -0.0592 -0.2824
  759MPD2     N11271   1.498   4.698   8.623  0.0185  0.2052 -0.0536
  759MPD2    H511272   1.541   4.718   8.712  0.7496  3.3200 -1.0800
  759MPD2    N111273   1.122   0.245   8.769  0.1265  0.2579  0.1373
  759MPD2    H711274   1.186   0.270   8.844 -0.7193  0.6912  0.7078
  760MPD2     C11275   2.141   3.208  12.153 -0.8467 -0.6011  0.2217
  760MPD2    C111276   2.275   3.211  12.108 -0.2262  0.4610  0.7218
  760MPD2    C211277   2.349   3.096  12.097  0.2727 -0.2165 -0.3463
  760MPD2    C311278   2.292   2.974  12.123  0.3558 -0.2653 -1.1071
  760MPD2    C411279   2.167   2.974  12.178  0.6845 -0.3953  0.7768
  760MPD2    C511280   2.092   3.084  12.194  0.1940  1.0488 -0.8619
  760MPD2     H11281   2.449   3.121  12.063  0.0443 -0.0040 -0.8781
  760MPD2    H111282   2.123   2.879  12.206 -0.0195 -0.4033 -0.3568
  760MPD2    H211283   2.073   3.293  12.155  1.0757  0.8309  3.2923
  760MPD2    H311284   1.987   3.086  12.221  0.1150  1.8382 -1.2081
  760MPD2     N11285   2.367   2.853  12.103  0.0927  0.0793 -0.4614
  760MPD2    H511286   2.321   2.765  12.120  0.3774  0.0639  0.2421
  760MPD2    N111287   2.342   3.326  12.076 -0.4636  0.1770 -0.3992
  760MPD2    H711288   2.434   3.320  12.034 -0.5640  1.0009 -0.7565
  761MPD2     C11289   3.823   1.767  11.450  0.0972  0.1491 -0.2740
  761MPD2    C111290   3.913   1.788  11.348  0.2791 -0.1870 -0.4664
  761MPD2    C211291   4.029   1.852  11.368  0.4252 -0.0080 -0.5139
  761MPD2    C311292   4.050   1.916  11.489 -0.1916  0.3916 -0.5033
  761MPD2    C411293   3.954   1.899  11.587 -0.6292 -0.6122 -0.1925
  761MPD2    C511294   3.846   1.816  11.571  0.0475  0.2362 -0.5250
  761MPD2     H11295   4.100   1.858  11.286  0.7389 -0.9473 -0.3115
  761MPD2    H111296   3.953   1.959  11.677 -2.4018 -1.0291  0.0759
  761MPD2    H211297   3.728   1.721  11.423 -0.6185  1.4112  0.0438
  761MPD2    H311298   3.775   1.806  11.652 -2.2249  2.0508 -2.2839
  761MPD2     N11299   4.159   2.004  11.509  0.5291  0.4319  0.0062
  761MPD2    H511300   4.141   2.089  11.562  0.3977  0.6206 -0.3434
  761MPD2    N111301   3.888   1.735  11.219  0.2385 -0.2876  0.5156
  761MPD2    H711302   3.817   1.666  11.200 -0.1775  0.3132 -0.0785
  762MPD2     C11303   4.435   1.847  10.743 -0.0861  0.3607 -0.3088
  762MPD2    C111304   4.357   1.769  10.665  0.2690  0.0460  0.6324
  762MPD2    C211305   4.392   1.740  10.536  0.2744 -0.5309  0.5058
  762MPD2    C311306   4.512   1.779  10.484 -0.2870  1.0709  1.1314
  762MPD2    C411307   4.597   1.844  10.577 -0.3688 -0.7407  0.8755
  762MPD2    C511308   4.556   1.885  10.698  0.1323 -0.1293  0.6794
  762MPD2     H11309   4.334   1.671  10.474  0.1444 -1.7073  1.9395
  762MPD2    H111310   4.697   1.873  10.545  0.2776 -3.2547  0.5855
  762MPD2    H211311   4.399   1.875  10.841 -1.4830  0.4929 -0.8696
  762MPD2    H311312   4.615   1.946  10.765  1.0507 -0.0652 -0.1856
  762MPD2     N11313   4.558   1.736  10.360 -0.1653  0.0616  0.4191
  762MPD2    H511314   4.495   1.696  10.291  2.2821 -1.2055 -1.0710
  762MPD2    N111315   4.238   1.735  10.727  0.0179  0.3124  0.0556
  762MPD2    H711316   4.231   1.757  10.826  1.1831  2.8065 -0.4158
  763MPD2     C11317   0.284   2.132  16.013  0.0226 -0.9577  0.3719
  763MPD2    C111318   0.328   2.211  15.911  0.3468 -0.0482  0.0317
  763MPD2    C211319   0.427   2.304  15.941  0.5376 -0.5378  0.9900
  763MPD2    C311320   0.508   2.296  16.056 -0.3096  0.2674  0.1223
  763MPD2    C411321   0.469   2.202  16.149  0.6817  0.0424  0.0075
  763MPD2    C511322   0.351   2.134  16.134 -0.1013 -0.2898 -0.0656
  763MPD2     H11323   0.445   2.379  15.864 -0.1702  0.8301  2.1543
  763MPD2    H111324   0.529   2.207  16.240 -0.4587 -1.7970  0.8609
  763MPD2    H211325   0.197   2.068  16.005  1.2603 -2.6389  0.3232
  763MPD2    H311326   0.319   2.066  16.211 -1.1774  0.8728  0.5252
  763MPD2     N11327   0.619   2.377  16.079 -0.0669  0.4400 -0.2927
  763MPD2    H511328   0.688   2.353  16.150  0.5939 -1.0322 -1.4350
  763MPD2    N111329   0.260   2.207  15.785 -0.3749 -1.3495 -0.1775
  763MPD2    H711330   0.301   2.277  15.724  0.5070 -1.3544  0.4177
  764MPD2     C11331   3.443   3.773  17.204 -0.2301 -0.1389 -0.4155
  764MPD2    C111332   3.323   3.710  17.210  0.0521  0.6037 -0.4209
  764MPD2    C211333   3.329   3.597  17.286 -0.0987 -0.1498 -0.3374
  764MPD2    C311334   3.437   3.543  17.349 -0.2238 -1.3428  0.0584
  764MPD2    C411335   3.555   3.617  17.351  0.0641  0.1902  0.3699
  764MPD2    C511336   3.552   3.733  17.279 -0.0883 -0.5130  0.1066
  764MPD2     H11337   3.239   3.537  17.290 -1.0759  1.1811 -2.1274
  764MPD2    H111338   3.646   3.592  17.405 -0.6442 -0.7817  1.1096
  764MPD2    H211339   3.453   3.871  17.158  0.9663  0.1915  0.5444
  764MPD2    H311340   3.645   3.786  17.261 -0.9466  1.2139  0.7398
  764MPD2     N11341   3.410   3.431  17.420 -0.4042 -0.0982 -0.2972
  764MPD2    H511342   3.321   3.383  17.409 -0.3130 -0.0260 -1.3602
  764MPD2    N111343   3.208   3.748  17.137  0.9120 -0.0669  1.1918
  764MPD2    H711344   3.126   3.688  17.143 -0.2831  1.3166 -1.2861
  765MPD2     C11345   3.309   1.937  15.672  0.4323 -0.0233  0.0674
  765MPD2    C111346   3.228   1.868  15.584 -0.4213  0.4161  0.6598
  765MPD2    C211347   3.269   1.760  15.522  0.3990  0.0670  0.1235
  765MPD2    C311348   3.396   1.709  15.554 -0.2485  0.5308 -0.2986
  765MPD2    C411349   3.472   1.775  15.654 -0.4144  0.2734  0.5404
  765MPD2    C511350   3.428   1.884  15.715  0.0669  0.1546  0.4334
  765MPD2     H11351   3.216   1.715  15.440 -0.4953 -0.7308  1.1405
  765MPD2    H111352   3.570   1.739  15.683 -0.2205 -0.7988 -1.4471
  765MPD2    H211353   3.286   2.038  15.704 -1.4643 -0.2269 -0.6773
  765MPD2    H311354   3.494   1.931  15.787 -1.4221  0.9528  1.2767
  765MPD2     N11355   3.460   1.609  15.481  0.1522  1.2244  0.2243
  765MPD2    H511356   3.554   1.586  15.513 -0.2773  0.9348  1.2561
  765MPD2    N111357   3.111   1.935  15.557 -0.1222  0.2214  0.2224
  765MPD2    H711358   3.102   2.022  15.608 -0.3589 -1.3350  2.8258
  766MPD2     C11359   2.522   2.132  14.860 -0.2187  0.0083  0.0206
  766MPD2    C111360   2.616   2.057  14.918  0.1977 -0.1628  0.5751
  766MPD2    C211361   2.682   1.962  14.843  0.0309  0.1555  0.1222
  766MPD2    C311362   2.650   1.944  14.710 -0.6058  0.0222  0.3520
  766MPD2    C411363   2.554   2.024  14.647  0.0228  0.3620 -0.2587
  766MPD2    C511364   2.492   2.118  14.726  0.1913 -0.1649  0.1573
  766MPD2     H11365   2.763   1.900  14.878  0.5799  0.4182 -0.7073
  766MPD2    H111366   2.547   2.028  14.539 -0.3111  1.4528 -0.1993
  766MPD2    H211367   2.458   2.199  14.918  0.5018 -0.7512  1.6809
  766MPD2    H311368   2.424   2.189  14.681  2.0667  1.5638  0.0854
  766MPD2     N11369   2.732   1.864  14.620 -0.0386 -0.3969 -0.1242
  766MPD2    H511370   2.693   1.869  14.527 -1.9413 -0.9664  0.6431
  766MPD2    N111371   2.646   2.091  15.053 -0.1203  0.8914 -0.2638
  766MPD2    H711372   2.612   2.171  15.105 -1.2060 -0.2301  0.7658
  767MPD2     C11373   2.751   2.440  14.240  0.4457 -0.8550  0.6259
  767MPD2    C111374   2.755   2.310  14.293 -0.1527 -0.5518  0.1566
  767MPD2    C211375   2.758   2.196  14.206 -0.1520 -0.4667  0.6606
  767MPD2    C311376   2.733   2.209  14.075  0.5293 -0.1488  0.0167
  767MPD2    C411377   2.715   2.336  14.023  0.1266 -0.0767 -0.2695
  767MPD2    C511378   2.736   2.446  14.105  0.0715  0.0848 -0.1046
  767MPD2     H11379   2.759   2.099  14.253  1.4952 -0.7240  0.1011
  767MPD2    H111380   2.698   2.345  13.916  0.3756 -2.3320 -0.5089
  767MPD2    H211381   2.745   2.529  14.301  0.5653 -0.7050  0.4211
  767MPD2    H311382   2.719   2.541  14.055 -0.6872  0.0028  0.0041
  767MPD2     N11383   2.735   2.108  13.984  0.0032 -0.3710 -0.8808
  767MPD2    H511384   2.733   2.131  13.885  0.7783 -2.0778 -1.2977
  767MPD2    N111385   2.771   2.309  14.431  0.2934 -0.0646  0.1513
  767MPD2    H711386   2.736   2.391  14.480  1.0867 -0.1701  0.8986
  768MPD2     C11387   3.166   0.920  10.233  0.2104 -1.2012 -0.5678
  768MPD2    C111388   3.166   0.834  10.337 -0.0698 -0.2149  0.0313
  768MPD2    C211389   3.280   0.780  10.390 -0.1753 -0.3693  0.0019
  768MPD2    C311390   3.400   0.839  10.351 -0.1755  0.1565 -0.0300
  768MPD2    C411391   3.409   0.936  10.253  0.2399  1.0611 -0.4729
  768MPD2    C511392   3.286   0.971  10.193  0.5121  0.0136  0.5231
  768MPD2     H11393   3.278   0.713  10.476 -0.1063  0.3941  0.6030
  768MPD2    H111394   3.504   0.983  10.228  0.5063  0.5631 -0.3947
  768MPD2    H211395   3.082   0.961  10.180  0.5335 -0.1796 -0.2801
  768MPD2    H311396   3.291   1.054  10.123 -0.3882 -1.2200 -1.0064
  768MPD2     N11397   3.522   0.794  10.402  0.1409  0.5710 -0.4934
  768MPD2    H511398   3.604   0.851  10.384  0.0920  0.2918 -1.5886
  768MPD2    N111399   3.050   0.813  10.412  0.2828  0.0322 -0.0571
  768MPD2    H711400   3.060   0.750  10.491  2.5487  0.3610 -0.0785
  769MPD2     C11401   4.505   3.102  14.845  0.7486 -0.5500 -0.2846
  769MPD2    C111402   4.421   3.203  14.882 -0.1230  0.4210  0.6016
  769MPD2    C211403   4.455   3.273  14.997  0.2300  0.1322  0.3020
  769MPD2    C311404   4.559   3.233  15.086 -0.1070 -0.6881 -0.0029
  769MPD2    C411405   4.627   3.116  15.052  0.0338 -0.1861  0.0859
  769MPD2    C511406   4.603   3.052  14.927  0.5924 -0.0690  0.4924
  769MPD2     H11407   4.406   3.367  15.020 -0.8874 -0.0220 -1.4370
  769MPD2    H111408   4.710   3.074  15.108 -0.7987 -0.5313  1.0591
  769MPD2    H211409   4.487   3.046  14.754 -0.5686  0.6386 -0.7498
  769MPD2    H311410   4.655   2.965  14.890  0.3645 -0.3014  0.7209
  769MPD2     N11411   4.578   3.314  15.205  0.3760  0.3630 -0.2668
  769MPD2    H511412   4.528   3.402  15.216  0.0442 -0.1999  2.8986
  769MPD2    N111413   4.324   3.240  14.790 -0.5491  0.3930  0.1776
  769MPD2    H711414   4.319   3.184  14.705 -0.5244 -0.7424  0.9302
  770MPD2     C11415   3.584   2.860  14.565 -0.1691 -0.4681 -0.2641
  770MPD2    C111416   3.717   2.834  14.585 -0.0528 -1.1697  0.6710
  770MPD2    C211417   3.790   2.936  14.639  0.0160  0.0519 -0.7582
  770MPD2    C311418   3.726   3.050  14.680  0.1320  0.0872  0.0320
  770MPD2    C411419   3.589   3.066  14.669 -0.4265 -0.1187  0.4225
  770MPD2    C511420   3.517   2.967  14.609  0.4811 -0.1210 -0.7498
  770MPD2     H11421   3.898   2.937  14.651 -0.2567  2.4573  1.5909
  770MPD2    H111422   3.533   3.150  14.707 -1.7692 -1.6740  1.8763
  770MPD2    H211423   3.535   2.774  14.521 -0.2076  0.1909 -1.5029
  770MPD2    H311424   3.409   2.976  14.598  0.4265  0.9144  0.6049
  770MPD2     N11425   3.808   3.157  14.715  0.2624  0.3937 -0.2403
  770MPD2    H511426   3.908   3.142  14.711  0.3665  1.4501 -1.9288
  770MPD2    N111427   3.774   2.717  14.530  0.2061 -0.2425 -0.5342
  770MPD2    H711428   3.708   2.654  14.487  2.0765 -0.2741 -3.3846
  771MPD2     C11429   0.382   1.490  13.422 -0.0435  0.5825  0.2667
  771MPD2    C111430   0.420   1.601  13.344  0.6526  0.2371 -0.6452
  771MPD2    C211431   0.464   1.579  13.211 -0.5037 -0.0221 -0.0828
  771MPD2    C311432   0.449   1.452  13.152  0.0679 -0.0218 -0.0740
  771MPD2    C411433   0.405   1.347  13.225 -0.1694 -0.0984  0.0107
  771MPD2    C511434   0.383   1.368  13.362 -0.1790  0.1865  0.0295
  771MPD2     H11435   0.480   1.673  13.159  1.0069 -0.6626 -0.7913
  771MPD2    H111436   0.383   1.250  13.182  1.0584 -0.3907  0.0584
  771MPD2    H211437   0.348   1.498  13.525 -3.0431 -1.2653 -0.5869
  771MPD2    H311438   0.339   1.287  13.420  1.9181 -0.2109  1.0408
  771MPD2     N11439   0.477   1.435  13.014  0.2259 -0.0213 -0.1922
  771MPD2    H511440   0.522   1.508  12.959 -0.8580  2.4687  2.2276
  771MPD2    N111441   0.423   1.726  13.413  0.4490 -0.0971 -0.1738
  771MPD2    H711442   0.382   1.736  13.506  0.6458 -0.3254 -0.0645
  772MPD2     C11443   0.097   2.101  13.934 -0.1309 -0.4391  0.2445
  772MPD2    C111444   0.096   2.011  13.826 -0.4345 -0.0206 -0.0763
  772MPD2    C211445   0.001   1.908  13.826 -0.1502 -0.0244  0.4155
  772MPD2    C311446   4.640   1.894  13.920 -0.0320 -0.7077 -0.0309
  772MPD2    C411447   4.633   1.990  14.021  0.2720 -0.0130  0.4430
  772MPD2    C511448   4.731   2.092  14.028  0.2575 -0.3564 -0.1967
  772MPD2     H11449   4.727   1.846  13.737 -0.9183 -1.1265  1.2621
  772MPD2    H111450   4.552   2.000  14.092 -0.1676  2.7448 -0.4228
  772MPD2    H211451   0.160   2.189  13.933 -1.5492  0.5675 -0.8366
  772MPD2    H311452   4.724   2.166  14.107  0.5164 -0.7282  0.1737
  772MPD2     N11453   4.545   1.796  13.931  0.0597 -0.4775  0.1745
  772MPD2    H511454   4.489   1.800  14.016  0.1297  0.6763  0.1722
  772MPD2    N111455   0.190   2.015  13.719  0.2744 -0.4372 -0.3446
  772MPD2    H711456   0.187   1.946  13.644 -1.0082 -2.4611  1.5348
  773MPD2     C11457   3.834   2.522   0.288 -0.0587 -0.1601 -0.4569
  773MPD2    C111458   3.841   2.423   0.190  0.1177 -0.5827 -0.4752
  773MPD2    C211459   3.920   2.306   0.211  0.6009 -0.4844 -0.6218
  773MPD2    C311460   3.989   2.286   0.319 -0.1546 -0.5567 -0.2247
  773MPD2    C411461   3.994   2.392   0.413 -0.5435  0.8297  0.6494
  773MPD2    C511462   3.924   2.509   0.390  0.4615 -0.0546  0.3296
  773MPD2     H11463   3.931   2.225   0.139  3.2482 -1.1429  0.5077
  773MPD2    H111464   4.086   2.400   0.470  0.1748  1.3778 -0.5950
  773MPD2    H211465   3.773   2.613   0.288  0.6125  0.2872 -0.7195
  773MPD2    H311466   3.937   2.596   0.454  1.6566 -0.8394  1.1649
  773MPD2     N11467   4.074   2.173   0.318 -0.0469 -0.1660 -0.2868
  773MPD2    H511468   4.069   2.113   0.237 -1.8951  0.5790 -0.7103
  773MPD2    N111469   3.768   2.421   0.072 -0.2671  0.2640 -0.1165
  773MPD2    H711470   3.798   2.354   0.002  1.0889  2.6288 -1.7984
  774MPD2     C11471   3.139   1.747  12.957 -0.4389 -0.0691  0.2800
  774MPD2    C111472   3.267   1.713  12.999  0.0059  0.1183  0.5924
  774MPD2    C211473   3.370   1.801  12.978 -0.8353 -0.1513  0.3167
  774MPD2    C311474   3.350   1.926  12.912  0.1255 -0.1756  0.2118
  774MPD2    C411475   3.226   1.952  12.870 -0.4765  0.0024  0.3285
  774MPD2    C511476   3.116   1.870  12.889 -0.0995  0.4288 -0.4325
  774MPD2     H11477   3.461   1.779  13.033 -0.9340  1.4571  1.1221
  774MPD2    H111478   3.193   2.047  12.829  0.1473  0.4227  0.8100
  774MPD2    H211479   3.053   1.688  12.986 -0.0541 -0.2688  1.0174
  774MPD2    H311480   3.016   1.888  12.852 -0.2413  1.0939  0.2921
  774MPD2     N11481   3.445   2.031  12.911 -0.0598  0.5132 -0.0112
  774MPD2    H511482   3.417   2.126  12.888 -1.0258  0.3453  0.5161
  774MPD2    N111483   3.293   1.603  13.087  0.1445 -0.2369  0.5845
  774MPD2    H711484   3.387   1.587  13.120  0.5885  0.8049 -0.1746
  775MPD2     C11485   0.053   3.185  15.735  0.0041 -0.2503 -0.6328
  775MPD2    C111486   0.005   3.300  15.790  0.4325  0.0786 -0.4666
  775MPD2    C211487   0.051   3.420  15.735  0.1775  0.2179 -0.0438
  775MPD2    C311488   0.137   3.428  15.627 -0.3782  0.2402 -0.6015
  775MPD2    C411489   0.178   3.309  15.571  0.0219  0.1082  0.2086
  775MPD2    C511490   0.136   3.188  15.630  0.4086  0.4631  0.2629
  775MPD2     H11491   0.019   3.511  15.785 -0.2872 -0.6796  1.2675
  775MPD2    H111492   0.223   3.310  15.473  1.1096 -2.5608  0.7010
  775MPD2    H211493   0.011   3.089  15.763 -0.6836  0.4947  0.8710
  775MPD2    H311494   0.160   3.092  15.584 -2.7094  0.3151 -1.0497
  775MPD2     N11495   0.171   3.546  15.556 -0.0420  0.0884  0.2660
  775MPD2    H511496   0.209   3.534  15.462 -0.4187 -0.7520  0.2299
  775MPD2    N111497   4.647   3.285  15.899 -0.6775 -0.6242  0.6289
  775MPD2    H711498   4.613   3.190  15.914  1.6274 -1.4096  0.8743
  776MPD2     C11499   3.664   3.506  11.391  0.3948 -0.1783 -0.5165
  776MPD2    C111500   3.795   3.472  11.408 -0.4898 -0.1154 -0.3103
  776MPD2    C211501   3.903   3.550  11.357  0.5287 -0.2312  0.1791
  776MPD2    C311502   3.869   3.661  11.282  0.0725  0.0114  0.1352
  776MPD2    C411503   3.733   3.691  11.268  0.5275  0.0391 -0.4412
  776MPD2    C511504   3.634   3.621  11.327 -0.2010 -0.5774  0.0171
  776MPD2     H11505   4.007   3.522  11.367  0.5452 -0.1936  0.1169
  776MPD2    H111506   3.699   3.784  11.222 -0.8498 -0.7569 -1.0233
  776MPD2    H211507   3.581   3.443  11.422 -0.0861  0.3434 -0.7427
  776MPD2    H311508   3.534   3.657  11.308 -0.6386 -1.5678  0.4342
  776MPD2     N11509   3.964   3.756  11.239 -0.6114 -0.2889  0.0817
  776MPD2    H511510   3.926   3.829  11.180 -0.5690  0.3294  0.8148
  776MPD2    N111511   3.820   3.366  11.498 -0.1893  0.0029  0.2368
  776MPD2    H711512   3.735   3.315  11.519  0.6877 -1.5709  0.0204
  777MPD2     C11513   4.016   1.011   0.550 -0.2402 -0.1145  0.1257
  777MPD2    C111514   4.060   0.914   0.634 -0.6268 -0.6202  0.0853
  777MPD2    C211515   4.100   0.793   0.575  0.5259 -0.2044 -0.3626
  777MPD2    C311516   4.076   0.770   0.442  0.6880  0.0873  0.8312
  777MPD2    C411517   4.023   0.866   0.360  0.8914 -0.3090 -0.7566
  777MPD2    C511518   3.994   0.989   0.417  0.0066 -0.7712  0.4620
  777MPD2     H11519   4.141   0.711   0.633 -2.7723 -1.4143  0.2522
  777MPD2    H111520   4.002   0.851   0.255 -0.4318 -4.3422  0.0873
  777MPD2    H211521   3.980   1.106   0.590 -1.3590 -1.2594  1.8382
  777MPD2    H311522   3.968   1.066   0.345  2.7993 -0.9461 -0.7384
  777MPD2     N11523   4.110   0.642   0.399  0.6413  0.0051  0.2733
  777MPD2    H511524   4.143   0.580   0.472  1.9185  0.2821 -0.0732
  777MPD2    N111525   4.066   0.938   0.774  0.1415  0.2625  0.2825
  777MPD2    H711526   4.026   1.024   0.811  1.3635  0.8082  0.3239
  778MPD2     C11527   0.654   1.318  14.737 -0.1575  0.0515  0.6583
  778MPD2    C111528   0.728   1.207  14.689  0.1754 -0.2050 -0.1701
  778MPD2    C211529   0.844   1.230  14.612 -0.2102 -0.4936 -0.3845
  778MPD2    C311530   0.882   1.360  14.592  0.5176 -0.4828 -0.6448
  778MPD2    C411531   0.805   1.463  14.634  0.4968 -0.0901  0.3207
  778MPD2    C511532   0.691   1.444  14.703  0.2908  0.2092  0.9620
  778MPD2     H11533   0.906   1.151  14.571 -1.0274 -0.4320 -1.7534
  778MPD2    H111534   0.815   1.570  14.619  0.2138  0.1240  1.5991
  778MPD2    H211535   0.559   1.304  14.788  0.2872  0.7843  1.6950
  778MPD2    H311536   0.624   1.525  14.728 -0.5079  0.7638 -2.9001
  778MPD2     N11537   0.998   1.390  14.503 -0.6302 -0.3879 -0.0363
  778MPD2    H511538   1.051   1.317  14.458 -3.0087 -1.2542 -1.4643
  778MPD2    N111539   0.682   1.074  14.699  0.2016 -0.3924  0.2660
  778MPD2    H711540   0.722   1.009  14.633  0.2451  0.0673 -0.1626
  779MPD2     C11541   0.078   0.149  13.872 -0.9912  0.7472 -0.1824
  779MPD2    C111542   0.207   0.099  13.853  0.7777  0.5109  0.4188
  779MPD2    C211543   0.305   0.188  13.803 -0.2688  0.0175  0.6903
  779MPD2    C311544   0.283   0.310  13.755 -0.0159  0.3906  0.1867
  779MPD2    C411545   0.151   0.350  13.759  0.6793  0.2971  0.5079
  779MPD2    C511546   0.059   0.272  13.823  0.1994 -1.2110  0.1116
  779MPD2     H11547   0.403   0.147  13.781 -1.1147 -0.1330 -2.8119
  779MPD2    H111548   0.110   0.444  13.722 -0.3254 -0.3793 -0.0966
  779MPD2    H211549   4.726   0.091  13.900 -0.5148 -0.4032 -1.0569
  779MPD2    H311550   4.700   0.324  13.832  0.4161 -0.3903 -2.5241
  779MPD2     N11551   0.387   0.381  13.696 -0.5009 -0.0884 -0.1872
  779MPD2    H511552   0.476   0.332  13.695 -1.0418 -1.0871  0.5977
  779MPD2    N111553   0.244   4.700  13.872 -0.3394 -0.3035  0.1862
  779MPD2    H711554   0.340   4.670  13.854 -0.4154 -1.3543  1.5427
  780MPD2     C11555   0.100   4.457   1.126  0.0186 -0.0788 -0.1149
  780MPD2    C111556   0.068   4.362   1.031  0.3268 -0.1968 -0.6411
  780MPD2    C211557   0.107   4.392   0.902 -0.6994 -0.1490  0.1113
  780MPD2    C311558   0.156   4.519   0.864  0.1917 -0.3101  0.9267
  780MPD2    C411559   0.165   4.613   0.958 -0.2144 -0.5232  0.1481
  780MPD2    C511560   0.146   4.582   1.091  0.4478  0.1586 -0.2211
  780MPD2     H11561   0.104   4.324   0.818  0.1710  0.6289 -0.5521
  780MPD2    H111562   0.196   4.714   0.937  0.1223 -0.9029 -1.1932
  780MPD2    H211563   0.075   4.450   1.232  1.8264  0.3694  0.3393
  780MPD2    H311564   0.159   4.660   1.165  1.5444  0.5579 -0.8372
  780MPD2     N11565   0.202   4.538   0.731 -0.2181  0.0340  0.3676
  780MPD2    H511566   0.177   4.460   0.672 -1.6513  0.9374 -0.2257
  780MPD2    N111567   4.735   4.255   1.083  0.1783  0.2734 -0.0243
  780MPD2    H711568   4.730   4.243   1.184  0.5069 -0.5777 -0.1102
  781MPD2     C11569   1.648   2.639  12.226  0.3966 -0.2872  0.4810
  781MPD2    C111570   1.618   2.505  12.195  0.2630  0.0864  0.5013
  781MPD2    C211571   1.666   2.458  12.075  0.3419  0.1890  0.0902
  781MPD2    C311572   1.721   2.548  11.982  0.3826  0.0368 -0.2010
  781MPD2    C411573   1.747   2.686  12.009 -0.2151  0.3760  0.6300
  781MPD2    C511574   1.707   2.730  12.134  0.8171  0.2502 -0.4264
  781MPD2     H11575   1.637   2.356  12.052 -1.8130  1.1840 -1.4865
  781MPD2    H111576   1.769   2.759  11.932 -0.9984 -0.2343 -0.1707
  781MPD2    H211577   1.621   2.672  12.326  0.7449  1.1046  0.1088
  781MPD2    H311578   1.707   2.836  12.158  0.6720  0.3499 -0.8698
  781MPD2     N11579   1.747   2.507  11.850 -0.3667  0.4507  0.6408
  781MPD2    H511580   1.765   2.581  11.783  1.1068 -1.2899 -0.8684
  781MPD2    N111581   1.558   2.410  12.283 -0.4326  0.5155  0.7840
  781MPD2    H711582   1.559   2.314  12.251 -1.7768  0.7113  0.1742
  782MPD2     C11583   4.378   2.669  10.074 -0.1270  0.1704  0.6434
  782MPD2    C111584   4.443   2.595  10.171  0.2282  0.3310 -0.1306
  782MPD2    C211585   4.480   2.658  10.285  0.6713 -0.6208 -0.6197
  782MPD2    C311586   4.460   2.790  10.303  0.0409 -0.1566  0.4052
  782MPD2    C411587   4.394   2.860  10.200  0.0272 -0.2391 -0.0266
  782MPD2    C511588   4.345   2.800  10.095 -0.1741  0.1328  0.8418
  782MPD2     H11589   4.539   2.604  10.357  1.7615  0.4488 -0.7029
  782MPD2    H111590   4.364   2.963  10.213 -1.0235 -0.1464 -3.1926
  782MPD2    H211591   4.347   2.626   9.980  0.8093  0.2701  0.2903
  782MPD2    H311592   4.273   2.852  10.032  1.9733  1.3766 -0.5570
  782MPD2     N11593   4.513   2.853  10.417 -0.0039  0.2015 -0.1526
  782MPD2    H511594   4.567   2.790  10.477 -0.1311  2.7312  2.6245
  782MPD2    N111595   4.476   2.460  10.155 -0.2354 -0.2174  0.2183
  782MPD2    H711596   4.533   2.414  10.225  1.5111  1.1190 -0.3254
  783MPD2     C11597   4.019   2.023  10.764 -0.4023 -0.5323 -0.5094
  783MPD2    C111598   4.144   2.077  10.790 -0.3058  0.7486  0.2251
  783MPD2    C211599   4.239   2.102  10.694  0.2601  0.3585 -0.2417
  783MPD2    C311600   4.207   2.072  10.568 -0.2309 -0.8538 -0.1285
  783MPD2    C411601   4.079   2.044  10.527 -0.0301  1.1292 -0.3095
  783MPD2    C511602   3.988   2.011  10.631  0.2750 -0.1394  0.3436
  783MPD2     H11603   4.335   2.143  10.721 -0.0800  1.0978 -0.1380
  783MPD2    H111604   4.051   2.023  10.424  1.3966 -0.6488 -0.3356
  783MPD2    H211605   3.939   2.007  10.836  0.2759 -3.4088 -0.4086
  783MPD2    H311606   3.885   1.999  10.601  0.0179  1.3196  0.6526
  783MPD2     N11607   4.309   2.081  10.473  0.1506 -0.2783 -0.2926
  783MPD2    H511608   4.391   2.125  10.513  1.2331 -1.1963 -1.5264
  783MPD2    N111609   4.181   2.099  10.929 -0.3556 -0.2624 -0.0749
  783MPD2    H711610   4.133   2.049  11.003 -0.0301 -2.6159 -1.4390
  784MPD2     C11611   1.645   2.569   0.392  0.4419 -0.2877  0.7360
  784MPD2    C111612   1.644   2.699   0.436 -0.3711  0.3070  0.6643
  784MPD2    C211613   1.535   2.777   0.414 -0.3510 -0.4913  0.1007
  784MPD2    C311614   1.422   2.731   0.346 -0.1314  0.1769  0.1234
  784MPD2    C411615   1.430   2.602   0.292 -0.3729  0.9171  0.2158
  784MPD2    C511616   1.536   2.519   0.328 -0.4370 -0.1387 -0.4573
  784MPD2     H11617   1.530   2.881   0.445 -2.3168 -0.4842 -0.1938
  784MPD2    H111618   1.349   2.559   0.236 -0.4310  2.6872 -1.0581
  784MPD2    H211619   1.720   2.494   0.413  0.9762  0.3735  1.2087
  784MPD2    H311620   1.541   2.414   0.301 -1.1514 -0.4944  0.8205
  784MPD2     N11621   1.319   2.818   0.325 -0.0194 -0.1239  0.3717
  784MPD2    H511622   1.330   2.908   0.371 -2.2692  0.1061  0.4251
  784MPD2    N111623   1.757   2.766   0.491 -0.0232  0.3346  0.2960
  784MPD2    H711624   1.740   2.865   0.501  0.3602  0.4592 -0.2843
  785MPD2     C11625   2.757   1.888  11.314 -0.2332 -0.2645 -0.5119
  785MPD2    C111626   2.678   1.980  11.250 -0.4044  0.2958 -0.2362
  785MPD2    C211627   2.555   1.940  11.201  0.8657  0.1390 -0.0626
  785MPD2    C311628   2.505   1.817  11.219  0.7795 -0.1306 -0.9924
  785MPD2    C411629   2.584   1.727  11.281 -0.7522  0.1085  0.1238
  785MPD2    C511630   2.709   1.760  11.325 -0.3357  0.0983 -0.0379
  785MPD2     H11631   2.497   2.018  11.155  1.1755  0.4859  0.1314
  785MPD2    H111632   2.543   1.628  11.293 -0.5634 -0.0617 -0.6536
  785MPD2    H211633   2.859   1.915  11.340 -0.0682 -0.5144 -0.8992
  785MPD2    H311634   2.766   1.682  11.376 -0.4749 -0.6806 -1.0769
  785MPD2     N11635   2.368   1.803  11.183 -0.3397  0.1262  0.4053
  785MPD2    H511636   2.325   1.894  11.169  2.0008  0.9723 -1.0643
  785MPD2    N111637   2.728   2.111  11.233  0.5476 -0.3856  0.3045
  785MPD2    H711638   2.828   2.126  11.247  0.6194 -0.7444  0.1848
  786MPD2     C11639   0.535   4.287  14.869 -0.9389  0.1037 -0.2457
  786MPD2    C111640   0.658   4.223  14.873  0.6520 -0.1397 -0.5029
  786MPD2    C211641   0.745   4.248  14.979 -0.0207  0.6550 -0.3290
  786MPD2    C311642   0.706   4.329  15.083  0.4204  0.0714  0.2912
  786MPD2    C411643   0.583   4.379  15.080  0.2023  0.1772 -1.0156
  786MPD2    C511644   0.497   4.357  14.977  0.3819  0.1414  0.2627
  786MPD2     H11645   0.845   4.205  14.976 -0.4638 -0.4853  1.7182
  786MPD2    H111646   0.550   4.451  15.153  1.4221 -1.7052  1.4058
  786MPD2    H211647   0.461   4.275  14.791  0.8488  1.3948 -2.1168
  786MPD2    H311648   0.400   4.405  14.981  1.6410  2.4948  2.1445
  786MPD2     N11649   0.801   4.373  15.183  0.0026  0.0859  0.7306
  786MPD2    H511650   0.769   4.412  15.272 -0.0214  0.2673  0.6441
  786MPD2    N111651   0.713   4.128  14.781  0.4539 -0.2012  0.0146
  786MPD2    H711652   0.809   4.098  14.792 -0.0984 -2.0401 -0.2783
  787MPD2     C11653   1.125   3.635  14.941 -0.8120 -0.3036  0.2006
  787MPD2    C111654   1.068   3.610  14.818  0.1136 -0.2737  0.0387
  787MPD2    C211655   1.079   3.485  14.760  0.3635  0.5811  0.1031
  787MPD2    C311656   1.160   3.393  14.820  0.1903 -0.3504  0.2611
  787MPD2    C411657   1.206   3.412  14.951 -0.1816 -0.0978 -0.2022
  787MPD2    C511658   1.192   3.533  15.007 -0.1867 -0.0703 -0.4465
  787MPD2     H11659   1.033   3.464  14.665 -4.0340  1.8350  1.9723
  787MPD2    H111660   1.278   3.356  15.010  1.2025  2.7408  0.8323
  787MPD2    H211661   1.133   3.733  14.986  1.1525 -1.2325  1.9309
  787MPD2    H311662   1.233   3.548  15.105  0.1140  0.7580 -0.7002
  787MPD2     N11663   1.179   3.263  14.758  0.4608  0.7149 -0.2373
  787MPD2    H511664   1.155   3.256  14.660 -1.3498 -1.4238  0.3588
  787MPD2    N111665   1.010   3.725  14.763  0.1574  0.2091  0.6460
  787MPD2    H711666   1.000   3.811  14.815  1.3376 -1.0998  3.0132
  788MPD2     C11667   2.790   2.483   0.806  0.3511  0.4151  0.2028
  788MPD2    C111668   2.841   2.440   0.681 -0.3620  0.1399  0.9468
  788MPD2    C211669   2.844   2.537   0.576  1.0630 -0.1837  0.2756
  788MPD2    C311670   2.770   2.653   0.586 -0.7190  0.8936 -0.0351
  788MPD2    C411671   2.712   2.683   0.704  0.2294 -0.3025 -0.2822
  788MPD2    C511672   2.725   2.602   0.814 -0.3878 -0.5217 -0.5448
  788MPD2     H11673   2.881   2.506   0.479  0.9925  1.2397 -0.2078
  788MPD2    H111674   2.660   2.776   0.724  0.0884 -0.7641  1.5811
  788MPD2    H211675   2.788   2.423   0.897  0.6563  0.4883  0.2580
  788MPD2    H311676   2.679   2.634   0.907 -2.2295 -0.6730 -1.3960
  788MPD2     N11677   2.757   2.737   0.471  0.5121 -0.1453  0.0557
  788MPD2    H511678   2.685   2.809   0.471 -1.4052 -2.0588  1.3512
  788MPD2    N111679   2.906   2.312   0.660 -0.0582  0.5013 -0.0643
  788MPD2    H711680   2.950   2.292   0.571 -1.4052 -0.8206 -0.4231
  789MPD2     C11681   2.709   2.905  15.992  0.7795 -0.2747 -0.2900
  789MPD2    C111682   2.736   2.781  16.052 -0.0150  0.6913  0.7470
  789MPD2    C211683   2.694   2.750  16.179 -0.0233  0.2720  0.5244
  789MPD2    C311684   2.620   2.841  16.252  0.2892  0.4095  0.0224
  789MPD2    C411685   2.594   2.967  16.197  0.4758 -0.1736 -0.2535
  789MPD2    C511686   2.644   2.996  16.070 -0.0316  0.6742  0.4635
  789MPD2     H11687   2.706   2.648  16.212 -0.3995 -0.7002 -2.2857
  789MPD2    H111688   2.531   3.033  16.256  0.4088 -1.8180  1.5011
  789MPD2    H211689   2.732   2.927  15.889 -0.8980  0.4486 -0.5178
  789MPD2    H311690   2.627   3.092  16.022 -0.7142  0.6298  0.6234
  789MPD2     N11691   2.568   2.821  16.384  0.3841  0.3287 -0.2440
  789MPD2    H511692   2.521   2.894  16.436 -3.1254 -1.4864 -0.8616
  789MPD2    N111693   2.782   2.670  15.977 -0.5333 -0.1861 -1.0315
  789MPD2    H711694   2.798   2.580  16.020 -1.5357  0.3295  0.4302
  790MPD2     C11695   4.339   3.999  13.309 -0.2872 -0.1043  0.1714
  790MPD2    C111696   4.294   3.869  13.285  0.1908  0.1808 -0.4051
  790MPD2    C211697   4.242   3.834  13.159 -0.0408  0.3083  0.8210
  790MPD2    C311698   4.228   3.928  13.057 -0.3919 -0.8078 -0.2956
  790MPD2    C411699   4.276   4.055  13.077 -1.5721  0.0249  0.0553
  790MPD2    C511700   4.329   4.084  13.197  0.0032  0.2108 -0.0644
  790MPD2     H11701   4.199   3.735  13.147  1.6553 -0.2936 -0.1833
  790MPD2    H111702   4.258   4.133  13.005  0.3667  0.5878  0.1737
  790MPD2    H211703   4.402   4.030  13.393 -0.2157  0.8182 -0.2251
  790MPD2    H311704   4.383   4.178  13.200 -0.2066  0.3444 -0.5017
  790MPD2     N11705   4.185   3.897  12.927 -0.6529 -0.2401  0.2558
  790MPD2    H511706   4.155   3.800  12.920  0.6999 -0.6002 -0.4937
  790MPD2    N111707   4.311   3.765  13.386  0.5849 -0.4078  0.5097
  790MPD2    H711708   4.369   3.796  13.464  2.1050  0.5621 -1.0066
  791MPD2     C11709   3.593   3.861  12.382  0.9657  0.0094 -0.5889
  791MPD2    C111710   3.644   3.790  12.485 -0.2665  0.3444  0.4289
  791MPD2    C211711   3.561   3.700  12.552 -0.4278  0.3241 -0.9385
  791MPD2    C311712   3.430   3.682  12.514  0.1684  1.3683 -0.4628
  791MPD2    C411713   3.383   3.760  12.413 -0.5727  0.4095  0.4236
  791MPD2    C511714   3.467   3.850  12.352  0.2927 -0.3675  0.5687
  791MPD2     H11715   3.590   3.640  12.637  0.1537 -0.8598 -1.9878
  791MPD2    H111716   3.281   3.756  12.377 -0.7443 -0.9613  1.0766
  791MPD2    H211717   3.655   3.925  12.321  0.6634  1.2669  0.4159
  791MPD2    H311718   3.421   3.907  12.271  1.5137 -1.0481 -0.6106
  791MPD2     N11719   3.357   3.579  12.574  0.0123  0.0089  0.2793
  791MPD2    H511720   3.405   3.528  12.648 -1.0612  0.3996  1.2467
  791MPD2    N111721   3.781   3.803  12.512 -0.4981 -0.6879 -0.1503
  791MPD2    H711722   3.831   3.865  12.448  0.1680  0.1129  1.1531
  792MPD2     C11723   4.514   3.569  11.148  0.2167  0.5448 -0.0601
  792MPD2    C111724   4.438   3.605  11.038 -0.3087 -0.3970  0.3022
  792MPD2    C211725   4.324   3.532  11.007 -0.2133 -0.2008 -0.3517
  792MPD2    C311726   4.271   3.439  11.098 -0.9004  0.3093  1.0350
  792MPD2    C411727   4.336   3.414  11.215  0.4167 -0.3636 -0.3169
  792MPD2    C511728   4.459   3.477  11.231 -0.1131 -0.2677  0.3669
  792MPD2     H11729   4.265   3.561  10.920  1.1441  1.6559 -0.6691
  792MPD2    H111730   4.301   3.336  11.282  0.3548 -0.2874 -0.2605
  792MPD2    H211731   4.613   3.608  11.166  0.6839 -1.3412  1.4684
  792MPD2    H311732   4.506   3.451  11.325  0.1720 -1.0252  0.0174
  792MPD2     N11733   4.151   3.375  11.076 -0.3068 -0.0120  0.7942
  792MPD2    H511734   4.122   3.317  11.155 -0.6834  0.6859  1.1647
  792MPD2    N111735   4.491   3.706  10.956  0.5581 -0.2253  0.0005
  792MPD2    H711736   4.581   3.745  10.984  0.2086 -0.8937  1.9698
  793MPD2     C11737   3.498   3.311  10.322  0.1372 -0.3759 -0.5839
  793MPD2    C111738   3.635   3.310  10.336  0.2259 -0.7641 -0.0637
  793MPD2    C211739   3.692   3.293  10.464 -0.5911 -0.6991  0.3081
  793MPD2    C311740   3.609   3.291  10.573  0.2495 -0.0516  0.4264
  793MPD2    C411741   3.471   3.287  10.552 -0.8380  0.2979  0.4887
  793MPD2    C511742   3.414   3.305  10.429 -0.0759 -0.1426  0.1728
  793MPD2     H11743   3.799   3.288  10.475 -0.6874  1.7437  2.1025
  793MPD2    H111744   3.415   3.264  10.642 -1.6797  1.9040  0.3864
  793MPD2    H211745   3.460   3.323  10.221 -2.0924 -0.6596  0.2131
  793MPD2    H311746   3.306   3.309  10.415 -0.1778 -1.9339  0.3778
  793MPD2     N11747   3.673   3.287  10.697  0.1181  0.2732  0.3626
  793MPD2    H511748   3.774   3.282  10.707  0.2231  1.4224 -0.0192
  793MPD2    N111749   3.724   3.301  10.228  0.0326 -0.5268  0.2303
  793MPD2    H711750   3.823   3.300  10.252  0.2268 -0.6783 -0.5889
  794MPD2     C11751   3.506   3.043  17.265 -0.9764  0.2425  0.1380
  794MPD2    C111752   3.532   2.920  17.208  0.0774 -0.2183 -0.2208
  794MPD2    C211753   3.483   2.887  17.081  0.3019 -0.4414  0.4625
  794MPD2    C311754   3.419   2.990  17.008  0.5607  0.1670 -0.2664
  794MPD2    C411755   3.388   3.108  17.066  0.7448 -0.0900 -0.3667
  794MPD2    C511756   3.433   3.132  17.192  0.3037 -0.2427  0.3071
  794MPD2     H11757   3.506   2.790  17.039  0.2139  0.5285 -1.8524
  794MPD2    H111758   3.331   3.180  17.009  1.4677  0.4195 -0.4476
  794MPD2    H211759   3.536   3.072  17.365  1.5452  1.3822 -0.9473
  794MPD2    H311760   3.420   3.231  17.234  3.4395  0.3721 -0.2149
  794MPD2     N11761   3.362   2.968  16.882  0.1618 -0.2810  0.0361
  794MPD2    H511762   3.321   3.047  16.833 -0.8236 -1.6034 -1.2678
  794MPD2    N111763   3.592   2.814  17.280  0.2773 -0.5435  0.5718
  794MPD2    H711764   3.602   2.727  17.228  1.8941 -0.8143  1.3558
  795MPD2     C11765   1.675   0.462  13.536  0.6507  0.0002  0.3619
  795MPD2    C111766   1.605   0.359  13.476  0.0147  0.1102 -0.0294
  795MPD2    C211767   1.659   0.234  13.466 -0.3106 -0.9374  0.2770
  795MPD2    C311768   1.785   0.221  13.522  0.1966 -0.5091 -0.1473
  795MPD2    C411769   1.855   0.321  13.585 -0.2954 -0.8125  0.2057
  795MPD2    C511770   1.804   0.446  13.584  0.0015  0.1860 -0.1295
  795MPD2     H11771   1.609   0.155  13.412 -0.0860  0.2617 -1.6876
  795MPD2    H111772   1.954   0.299  13.622  0.2958 -1.9578 -2.0143
  795MPD2    H211773   1.627   0.557  13.556  0.1082 -0.6744  2.2044
  795MPD2    H311774   1.857   0.531  13.625  1.1204 -0.2339 -0.6998
  795MPD2     N11775   1.851   0.097  13.512 -0.2462  0.3590  0.0275
  795MPD2    H511776   1.942   0.091  13.555  0.0078  1.4105 -0.3487
  795MPD2    N111777   1.474   0.379  13.419 -0.0980 -0.1023 -0.1734
  795MPD2    H711778   1.427   0.295  13.386 -1.4602  0.3527  0.6091
  796MPD2     C11779   0.654   1.878  15.683  0.0971 -0.5453 -0.2054
  796MPD2    C111780   0.749   1.952  15.745  0.6344  0.6272  0.1228
  796MPD2    C211781   0.745   2.083  15.729 -0.0544  0.0571  0.1937
  796MPD2    C311782   0.642   2.150  15.672  0.2718 -0.2052 -0.1887
  796MPD2    C411783   0.538   2.074  15.627  0.0638 -0.3997  0.6859
  796MPD2    C511784   0.545   1.938  15.632 -0.9235  0.1687 -0.0971
  796MPD2     H11785   0.830   2.144  15.756  0.6832 -0.5026 -0.8612
  796MPD2    H111786   0.440   2.100  15.590  0.5715  1.6325  0.7471
  796MPD2    H211787   0.651   1.770  15.699  2.0754 -0.5202  0.3521
  796MPD2    H311788   0.478   1.869  15.581 -0.8773  0.2590 -0.2789
  796MPD2     N11789   0.650   2.285  15.654 -0.5874  0.5016  0.0917
  796MPD2    H511790   0.743   2.324  15.665 -0.8653  1.4868 -1.1727
  796MPD2    N111791   0.866   1.880  15.790  0.0437 -0.1619 -0.0275
  796MPD2    H711792   0.861   1.779  15.787 -1.1341 -0.1731  1.8539
  797MPD2     C11793   1.874   1.191  16.943  0.2942  0.2338 -0.3374
  797MPD2    C111794   1.961   1.297  16.965 -0.4920 -0.0080 -0.5704
  797MPD2    C211795   1.939   1.412  16.898 -0.1542  0.2728 -0.0230
  797MPD2    C311796   1.832   1.426  16.811 -0.4634 -0.5229 -0.0515
  797MPD2    C411797   1.744   1.320  16.790  0.5275  0.6130  0.3820
  797MPD2    C511798   1.765   1.202  16.854 -0.3074 -0.2817 -0.3027
  797MPD2     H11799   2.016   1.489  16.898 -0.3643  0.4756 -1.3695
  797MPD2    H111800   1.655   1.331  16.729  1.2845 -0.1058 -0.8395
  797MPD2    H211801   1.893   1.102  17.002 -0.7219  1.1656  1.3931
  797MPD2    H311802   1.698   1.121  16.830  0.0806 -0.1002 -2.0030
  797MPD2     N11803   1.813   1.547  16.735 -0.5633  0.0387 -0.5497
  797MPD2    H511804   1.749   1.531  16.658 -1.8942  1.2789  0.3147
  797MPD2    N111805   2.081   1.293  17.032 -0.3299  0.2819 -0.0099
  797MPD2    H711806   2.131   1.380  17.042  0.5383 -0.0040 -1.9611
  798MPD2     C11807   2.309   1.998  16.947 -0.2188 -0.4335  0.1156
  798MPD2    C111808   2.206   1.906  16.939  0.0413 -0.3541  0.3384
  798MPD2    C211809   2.215   1.781  16.997 -0.7450 -0.1471  0.5062
  798MPD2    C311810   2.321   1.738  17.065 -0.3108 -0.3298  0.1838
  798MPD2    C411811   2.426   1.830  17.077  0.1751 -0.6597 -0.2601
  798MPD2    C511812   2.421   1.952  17.010  0.1093  0.7545  0.2041
  798MPD2     H11813   2.137   1.707  16.984 -0.5444 -0.2432 -0.1484
  798MPD2    H111814   2.518   1.818  17.133  0.2872 -1.4483 -0.6075
  798MPD2    H211815   2.304   2.098  16.905 -0.2732 -1.0616 -1.3902
  798MPD2    H311816   2.503   2.022  17.022 -0.1172  0.9698  0.4739
  798MPD2     N11817   2.325   1.612  17.121  0.4815  0.5334 -0.1367
  798MPD2    H511818   2.253   1.553  17.079  0.3199  0.3231  0.4331
  798MPD2    N111819   2.081   1.927  16.876  0.0561  0.2531  0.0281
  798MPD2    H711820   2.020   1.846  16.866 -1.2467  1.1349  0.9582
  799MPD2     C11821   0.870   2.943  14.592  0.4218 -0.5483 -0.0449
  799MPD2    C111822   0.832   2.901  14.466  0.3015  0.3361 -0.6882
  799MPD2    C211823   0.785   2.993  14.371  0.0592 -0.2865 -0.2113
  799MPD2    C311824   0.784   3.131  14.401 -0.2164 -0.6495 -0.2172
  799MPD2    C411825   0.837   3.175  14.522 -0.4362 -0.1723  0.4664
  799MPD2    C511826   0.878   3.081  14.614 -0.0069  0.3885 -0.0216
  799MPD2     H11827   0.766   2.962  14.268  2.1131  0.1527 -0.7242
  799MPD2    H111828   0.861   3.281  14.529 -2.4261  0.2066  1.5327
  799MPD2    H211829   0.905   2.881  14.674 -1.6231 -1.4955  0.1049
  799MPD2    H311830   0.935   3.112  14.700  1.2923  0.0417 -0.7601
  799MPD2     N11831   0.762   3.235  14.304 -0.6963  0.2016 -0.7012
  799MPD2    H511832   0.774   3.330  14.336 -1.8313 -0.8760  2.8892
  799MPD2    N111833   0.846   2.765  14.432  0.1086  0.2192 -0.0896
  799MPD2    H711834   0.811   2.734  14.341 -1.2659  0.1276  0.4695
  800MPD2     C11835   1.428   4.093  13.668  0.4435 -0.2269 -0.7520
  800MPD2    C111836   1.545   4.106  13.596  0.4177  0.2619 -0.8269
  800MPD2    C211837   1.543   4.075  13.459 -0.8815  0.3119 -0.0733
  800MPD2    C311838   1.427   4.029  13.406  0.3669 -0.4573 -0.0911
  800MPD2    C411839   1.309   4.023  13.482 -0.4157 -0.6298 -0.1703
  800MPD2    C511840   1.315   4.049  13.611 -0.0729  0.0494 -0.1161
  800MPD2     H11841   1.634   4.080  13.400 -0.9535  0.3307 -0.1819
  800MPD2    H111842   1.213   3.983  13.453 -0.8664  1.3395 -1.3406
  800MPD2    H211843   1.423   4.110  13.775  1.3271 -0.7830 -0.6199
  800MPD2    H311844   1.228   4.016  13.667 -0.3247  1.2380  0.1768
  800MPD2     N11845   1.423   3.985  13.269 -0.9217  0.4402 -0.2555
  800MPD2    H511846   1.502   4.014  13.213  0.1592 -0.0454  1.0122
  800MPD2    N111847   1.656   4.159  13.659  0.7531  0.5389 -0.9794
  800MPD2    H711848   1.639   4.187  13.754 -0.8917  0.1454 -1.1636
  801MPD2     C11849   1.694   0.055  13.947  0.1787 -0.0102 -0.3249
  801MPD2    C111850   1.678   4.665  13.984 -0.0123 -0.2555  0.0971
  801MPD2    C211851   1.587   4.635  14.078  0.3658  0.3631  0.5821
  801MPD2    C311852   1.501   4.733  14.128 -0.5479 -0.1881 -0.2801
  801MPD2    C411853   1.504   0.125  14.080 -0.5991 -0.4010 -0.2695
  801MPD2    C511854   1.610   0.155  13.997 -0.2866 -0.4875  0.2115
  801MPD2     H11855   1.586   4.532  14.113 -1.4257 -0.1342 -0.9397
  801MPD2    H111856   1.439   0.207  14.109  1.9957  0.5656  2.7061
  801MPD2    H211857   1.758   0.083  13.864 -1.0053  1.5354 -0.7306
  801MPD2    H311858   1.623   0.250  13.947  0.2128  0.0787  1.4209
  801MPD2     N11859   1.414   4.706  14.235 -0.8966 -0.5649  0.3307
  801MPD2    H511860   1.330   0.027  14.243 -0.8055  0.0339 -2.9403
  801MPD2    N111861   1.754   4.563  13.916 -0.3264 -0.0031 -0.0925
  801MPD2    H711862   1.738   4.466  13.943 -1.9317  0.0858 -0.6970
  802MPD2     C11863   4.698   0.132  17.141 -0.1901  0.1786 -0.0145
  802MPD2    C111864   0.098   0.146  17.168 -0.1735  0.4865  0.2807
  802MPD2    C211865   0.191   0.054  17.123  0.5010  0.0834 -0.0831
  802MPD2    C311866   0.152   4.697  17.026  0.9266  0.2765 -0.1162
  802MPD2    C411867   0.021   4.695  16.987  0.0013  0.5483  0.6122
  802MPD2    C511868   4.663   0.043  17.044 -0.6621  0.2257 -0.0676
  802MPD2     H11869   0.288   0.051  17.170  0.8876 -4.0068 -1.0859
  802MPD2    H111870   4.726   4.633  16.903  0.3392  2.2879 -0.7934
  802MPD2    H211871   4.631   0.210  17.177 -0.7442 -0.1357 -0.3523
  802MPD2    H311872   4.562   0.041  17.005 -1.0729  0.9381  0.9571
  802MPD2     N11873   0.260   4.619  16.971  0.1939  0.1445  0.0951
  802MPD2    H511874   0.350   4.640  17.014 -0.3094  2.1120  0.2070
  802MPD2    N111875   0.157   0.244  17.253  0.0309 -0.4391  0.7170
  802MPD2    H711876   0.257   0.238  17.272  0.0159  0.0895  0.9533
  803MPD2     C11877   1.651   3.721  12.598  0.0484  0.4287  0.9896
  803MPD2    C111878   1.778   3.734  12.554  0.2985  0.2083 -0.3908
  803MPD2    C211879   1.884   3.709  12.641 -0.0669  0.1542 -0.7041
  803MPD2    C311880   1.867   3.647  12.760 -0.3629  0.0185  0.3532
  803MPD2    C411881   1.733   3.626  12.797  0.2253  0.5061 -0.2831
  803MPD2    C511882   1.630   3.672  12.720 -0.1604  0.3195  0.2399
  803MPD2     H11883   1.982   3.747  12.616 -0.9131  2.2271 -0.9138
  803MPD2    H111884   1.705   3.566  12.883 -0.8677 -0.2607 -1.1827
  803MPD2    H211885   1.564   3.754  12.542 -0.5213 -0.8780  1.1082
  803MPD2    H311886   1.537   3.669  12.776  0.1554 -1.6091  0.6703
  803MPD2     N11887   1.983   3.634  12.839  0.5372  0.4732 -0.5706
  803MPD2    H511888   2.061   3.679  12.791  0.6414 -1.0123 -1.8007
  803MPD2    N111889   1.817   3.771  12.424  0.3238 -0.2678  0.2296
  803MPD2    H711890   1.911   3.749  12.393  0.2409 -1.3388  0.7488
  804MPD2     C11891   1.273   0.299  16.982 -0.2873  0.4774 -0.5563
  804MPD2    C111892   1.335   0.196  17.045 -0.6245 -0.0766 -0.6712
  804MPD2    C211893   1.464   0.213  17.099  0.4899  0.8269  0.1340
  804MPD2    C311894   1.538   0.327  17.075  0.2807 -0.5535 -0.3299
  804MPD2    C411895   1.479   0.419  16.995  0.3555  0.0345 -0.2336
  804MPD2    C511896   1.351   0.408  16.955  0.1372  0.0675 -0.0148
  804MPD2     H11897   1.501   0.123  17.145  0.2209 -0.2733 -1.8061
  804MPD2    H111898   1.523   0.518  16.984 -2.1231  1.0370 -1.2662
  804MPD2    H211899   1.168   0.294  16.955 -0.6614 -0.2015  1.0373
  804MPD2    H311900   1.307   0.491  16.900 -0.4945  1.1319  2.0955
  804MPD2     N11901   1.664   0.342  17.135 -0.6402  0.2784 -0.1150
  804MPD2    H511902   1.704   0.256  17.171  0.9287  1.1456  0.2292
  804MPD2    N111903   1.274   0.074  17.063  0.1898  0.3497 -0.0751
  804MPD2    H711904   1.318   0.010  17.129  1.1491  0.2780 -0.7820
  805MPD2     C11905   0.858   3.062  15.417  0.3727  0.2712 -0.2861
  805MPD2    C111906   0.770   3.157  15.454  0.5156 -0.3446  0.1307
  805MPD2    C211907   0.792   3.236  15.571  0.1336  0.3537  0.1790
  805MPD2    C311908   0.904   3.211  15.648  0.4694 -1.0297  0.5429
  805MPD2    C411909   0.988   3.105  15.604  0.8828 -0.1120 -0.2234
  805MPD2    C511910   0.964   3.029  15.492  0.1829  0.3434  0.1225
  805MPD2     H11911   0.718   3.311  15.596  1.3097  1.9691 -1.1553
  805MPD2    H111912   1.083   3.083  15.651  1.1637 -1.2094 -1.2979
  805MPD2    H211913   0.856   3.001  15.327 -0.5296  0.3400 -0.3107
  805MPD2    H311914   1.040   2.967  15.446 -0.1732  0.3028 -0.4029
  805MPD2     N11915   0.931   3.289  15.764 -0.4678 -0.1214 -0.3760
  805MPD2    H511916   0.868   3.360  15.799  1.5709  2.6754 -2.4456
  805MPD2    N111917   0.649   3.186  15.384  0.4306  0.0795  0.1270
  805MPD2    H711918   0.591   3.261  15.420  2.2234  0.7261  1.6712
  806MPD2     C11919   0.803   2.199   0.659 -0.3482  0.4140 -0.3482
  806MPD2    C111920   0.932   2.235   0.638  0.2436 -0.0590  0.6201
  806MPD2    C211921   0.968   2.258   0.508  0.4697 -0.1621 -0.2509
  806MPD2    C311922   0.901   2.202   0.408 -0.8770  0.3014 -0.1300
  806MPD2    C411923   0.769   2.165   0.424 -0.0310  0.0742 -0.4610
  806MPD2    C511924   0.716   2.179   0.550 -0.6127 -0.2759 -0.3863
  806MPD2     H11925   1.063   2.306   0.489  1.1029 -0.5453  1.9178
  806MPD2    H111926   0.705   2.139   0.340 -1.1013  1.4070 -0.0507
  806MPD2    H211927   0.756   2.202   0.756 -0.4406  0.3480 -0.3906
  806MPD2    H311928   0.612   2.156   0.570 -0.3943  0.2385  1.2956
  806MPD2     N11929   0.967   2.196   0.283  0.0306 -0.0635  0.1593
  806MPD2    H511930   1.056   2.244   0.275  0.6706 -0.9389  2.0300
  806MPD2    N111931   1.014   2.271   0.745 -0.0818 -0.5612  0.3052
  806MPD2    H711932   0.971   2.246   0.833  2.3634 -1.0073  1.3741
  807MPD2     C11933   0.917   2.523   1.412 -0.0465  0.2963 -1.1630
  807MPD2    C111934   0.882   2.431   1.319 -0.9755  0.4212 -0.5967
  807MPD2    C211935   0.746   2.380   1.325  0.6656 -0.8258 -0.1708
  807MPD2    C311936   0.660   2.410   1.425  0.8838  0.5590  0.4835
  807MPD2    C411937   0.698   2.513   1.509  0.3415  0.6611 -0.4550
  807MPD2    C511938   0.828   2.567   1.509  0.7983  0.1773 -0.3294
  807MPD2     H11939   0.719   2.316   1.241 -2.5700 -1.2824  1.2382
  807MPD2    H111940   0.634   2.541   1.592  1.5697  1.0759  0.3486
  807MPD2    H211941   1.014   2.570   1.400 -0.4090  1.1493 -0.7162
  807MPD2    H311942   0.845   2.652   1.574  0.0411  0.4916 -0.5488
  807MPD2     N11943   0.537   2.337   1.433  0.3376  0.5695  0.0724
  807MPD2    H511944   0.528   2.273   1.355  1.1277  1.0745 -0.4443
  807MPD2    N111945   0.967   2.394   1.217 -0.2703 -0.1959 -0.1487
  807MPD2    H711946   0.928   2.329   1.149 -2.8644  0.0442  1.1078
  808MPD2     C11947   1.210   3.911   9.853 -0.1849  0.5954  0.5878
  808MPD2    C111948   1.302   4.008   9.818 -0.0386  0.0842  0.0825
  808MPD2    C211949   1.261   4.126   9.748  0.2210 -0.0776 -0.4356
  808MPD2    C311950   1.122   4.146   9.720 -0.0401 -0.3855  0.9711
  808MPD2    C411951   1.037   4.043   9.762  0.1156 -0.4429  0.0831
  808MPD2    C511952   1.076   3.934   9.823 -0.2358  0.8494  0.1373
  808MPD2     H11953   1.342   4.196   9.731  0.7413 -0.0056  2.2429
  808MPD2    H111954   0.931   4.051   9.743  0.1752  0.6694  0.2129
  808MPD2    H211955   1.245   3.819   9.898 -1.4828 -0.7206 -1.0786
  808MPD2    H311956   1.002   3.859   9.851 -0.7287  1.0591 -0.5825
  808MPD2     N11957   1.079   4.258   9.650  0.1711 -0.3118 -0.4116
  808MPD2    H511958   0.987   4.255   9.607  0.1442  2.3919 -0.6026
  808MPD2    N111959   1.432   3.997   9.862 -0.4100 -0.1288 -0.4894
  808MPD2    H711960   1.492   4.078   9.853 -2.1896  1.3809  1.3846
  809MPD2     C11961   1.465   3.810   8.909 -0.8158  0.1311  0.0826
  809MPD2    C111962   1.524   3.891   8.996 -0.4928  0.2610 -0.3871
  809MPD2    C211963   1.447   3.981   9.065  0.1126  0.7154 -0.2004
  809MPD2    C311964   1.308   3.994   9.046  0.7243 -0.0917  0.1038
  809MPD2    C411965   1.255   3.910   8.949  0.2190 -0.1503 -0.2111
  809MPD2    C511966   1.331   3.821   8.882  0.1169  0.6027  0.3035
  809MPD2     H11967   1.499   4.036   9.143  0.6235 -2.0006  1.4005
  809MPD2    H111968   1.149   3.915   8.925 -0.0604  0.0027  1.0377
  809MPD2    H211969   1.522   3.728   8.865 -1.6413 -0.5978  0.3724
  809MPD2    H311970   1.291   3.751   8.809 -2.2525  0.5452  1.6542
  809MPD2     N11971   1.224   4.076   9.121 -0.0501 -0.0548  0.1484
  809MPD2    H511972   1.126   4.075   9.094 -0.2758  1.6556  0.9478
  809MPD2    N111973   1.657   3.881   9.040  0.0450 -0.4111 -0.2417
  809MPD2    H711974   1.676   3.945   9.116 -0.1956 -0.6636  0.0332
  810MPD2     C11975   1.580   3.949  10.286 -0.1042 -0.0973  0.2041
  810MPD2    C111976   1.440   3.972  10.284 -0.1262  0.3709  0.3885
  810MPD2    C211977   1.398   4.101  10.274 -0.0483 -0.6277 -0.0520
  810MPD2    C311978   1.490   4.212  10.270 -0.3168 -0.7030 -0.1510
  810MPD2    C411979   1.619   4.175  10.278 -0.3142  0.2176 -0.0735
  810MPD2    C511980   1.666   4.050  10.281 -0.5242 -0.5150  0.0400
  810MPD2     H11981   1.294   4.124  10.254 -0.0172 -0.8457 -0.4526
  810MPD2    H111982   1.692   4.253  10.262  0.0490 -0.0670  0.1916
  810MPD2    H211983   1.626   3.851  10.278  0.1297  0.2129 -2.2026
  810MPD2    H311984   1.771   4.029  10.269 -0.4582 -0.7699  1.0207
  810MPD2     N11985   1.452   4.347  10.263 -0.8323 -0.8799 -0.2222
  810MPD2    H511986   1.530   4.412  10.267 -1.1087 -0.4813 -1.4647
  810MPD2    N111987   1.346   3.869  10.280  0.0042  0.4440 -0.4591
  810MPD2    H711988   1.251   3.899  10.297 -1.3377 -4.2474  0.5355
  811MPD2     C11989   0.693   3.671   9.840  0.5122  0.0826 -0.1418
  811MPD2    C111990   0.759   3.743   9.940 -0.2947 -0.0750  0.0478
  811MPD2    C211991   0.741   3.879   9.937 -0.3634 -0.4062  0.0162
  811MPD2    C311992   0.653   3.942   9.853 -0.0098  0.5316 -0.0542
  811MPD2    C411993   0.585   3.867   9.762  0.0569  0.2251  1.2051
  811MPD2    C511994   0.605   3.731   9.759 -0.2456 -0.3164  0.2153
  811MPD2     H11995   0.798   3.942  10.005  0.3981 -0.6172 -0.4226
  811MPD2    H111996   0.519   3.901   9.684 -2.0380  0.8473  3.2571
  811MPD2    H211997   0.709   3.564   9.838  1.8735  0.2920 -1.0657
  811MPD2    H311998   0.544   3.674   9.690  1.1723 -1.1764 -0.3402
  811MPD2     N11999   0.644   4.086   9.849  0.3746  0.2245  0.8300
  811MPD2    H512000   0.718   4.142   9.890  0.5774  1.5130 -1.2874
  811MPD2    N112001   0.851   3.676  10.023  0.1399 -0.8320  0.2065
  811MPD2    H712002   0.873   3.578  10.008  1.4628 -0.5530  0.2509
  812MPD2     C12003   4.460   3.489  12.013 -0.2444 -0.1967  0.1074
  812MPD2    C112004   4.543   3.594  12.045 -0.6515 -0.1904 -0.6280
  812MPD2    C212005   4.627   3.594  12.157 -0.3904 -0.6019  0.7138
  812MPD2    C312006   4.630   3.483  12.240 -0.0228 -0.4608  0.5445
  812MPD2    C412007   4.550   3.380  12.208  0.2179  0.4298  0.4285
  812MPD2    C512008   4.466   3.380  12.101 -0.7351  0.1589 -0.3516
  812MPD2     H12009   4.672   3.682  12.202  0.2130 -0.9424  0.7684
  812MPD2    H112010   4.543   3.290  12.269  0.1893  1.0032  1.2735
  812MPD2    H212011   4.397   3.481  11.925 -1.1794  1.7031  0.6033
  812MPD2    H312012   4.402   3.294  12.090 -2.4138  1.0939  2.1423
  812MPD2     N12013   4.703   3.486  12.363  0.0999  0.5313 -0.6523
  812MPD2    H512014   0.016   3.574  12.376  0.0024  0.6051 -0.7857
  812MPD2    N112015   4.530   3.705  11.966 -0.1501  0.2883 -0.3265
  812MPD2    H712016   4.465   3.695  11.889  0.0677 -0.4145 -0.4147
  813MPD2     C12017   3.608   0.433  12.512  0.1185  0.1264 -0.0773
  813MPD2    C112018   3.697   0.480  12.606  0.5144  0.4694  0.3351
  813MPD2    C212019   3.669   0.493  12.737 -0.1516  0.2774 -0.0986
  813MPD2    C312020   3.540   0.474  12.773 -0.6587 -0.0751 -0.5194
  813MPD2    C412021   3.441   0.436  12.685 -0.0002  0.7644  0.0566
  813MPD2    C512022   3.477   0.408  12.555  0.5571  0.2992 -0.5573
  813MPD2     H12023   3.749   0.520  12.805 -0.6020 -0.8250  0.8680
  813MPD2    H112024   3.336   0.421  12.709  0.5778 -2.1685  0.6742
  813MPD2    H212025   3.636   0.414  12.409 -0.0546 -2.0053  0.2752
  813MPD2    H312026   3.404   0.377  12.481 -0.8627  2.4065 -0.0369
  813MPD2     N12027   3.514   0.502  12.915 -0.0996 -0.0046 -0.5422
  813MPD2    H512028   3.597   0.527  12.968  0.4499  0.3143 -1.5588
  813MPD2    N112029   3.835   0.487  12.575 -0.1314 -0.2942  0.1841
  813MPD2    H712030   3.885   0.502  12.662  0.2180  0.5810 -0.1653
  814MPD2     C12031   0.098   1.538  12.205 -0.1512  0.2678  0.7559
  814MPD2    C112032   0.097   1.604  12.085 -0.0476  0.1419  0.3213
  814MPD2    C212033   0.115   1.739  12.087  0.4140 -0.0867 -0.5371
  814MPD2    C312034   0.138   1.815  12.197  0.5515 -0.1331  0.8452
  814MPD2    C412035   0.141   1.739  12.319  0.1883 -0.1903  0.2955
  814MPD2    C512036   0.122   1.605  12.319 -0.4169  0.0994  0.6672
  814MPD2     H12037   0.114   1.789  11.990 -0.2341 -0.6240 -0.8112
  814MPD2    H112038   0.154   1.784  12.417  1.6878 -0.2949  0.1436
  814MPD2    H212039   0.076   1.432  12.215  1.3923 -0.0037  1.3116
  814MPD2    H312040   0.118   1.549  12.412 -2.8289 -0.4601  0.2149
  814MPD2     N12041   0.164   1.951  12.205  0.3728  0.0815  0.0478
  814MPD2    H512042   0.153   1.990  12.298 -1.0023  0.2563 -0.1782
  814MPD2    N112043   0.064   1.548  11.956 -0.1637  0.1105 -0.1637
  814MPD2    H712044   0.084   1.603  11.873  1.3315  2.0634  1.5071
  815MPD2     C12045   4.608   0.627  11.196 -0.7232 -0.1292  0.7857
  815MPD2    C112046   4.614   0.557  11.075  0.8366 -0.2239 -0.4492
  815MPD2    C212047   4.516   0.453  11.057 -0.0671  0.5056  0.3504
  815MPD2    C312048   4.431   0.402  11.155 -0.0483 -0.3167  0.2991
  815MPD2    C412049   4.435   0.478  11.269  0.6665 -0.3903 -0.4393
  815MPD2    C512050   4.516   0.588  11.293  0.4074 -0.3504  0.0021
  815MPD2     H12051   4.523   0.408  10.959  1.0924 -0.8426  1.0605
  815MPD2    H112052   4.370   0.461  11.354  0.3179 -0.7452 -0.7819
  815MPD2    H212053   4.659   0.720  11.216  1.0198 -0.9952  0.3821
  815MPD2    H312054   4.508   0.645  11.385 -1.9815  0.4004 -0.6683
  815MPD2     N12055   4.345   0.290  11.132 -0.4240 -0.2534  0.2952
  815MPD2    H512056   4.346   0.248  11.039  0.9182 -0.6443  0.4791
  815MPD2    N112057   4.720   0.575  10.982 -0.8367 -0.3828  0.5818
  815MPD2    H712058   4.712   0.524  10.894  2.3271  2.1382 -1.1436
  816MPD2     C12059   0.132   4.414  17.348 -0.1331 -0.0472  0.0940
  816MPD2    C112060   0.019   4.410  17.272 -0.8670  0.4024 -0.0576
  816MPD2    C212061   0.023   4.324  17.165  0.0019  0.2460  0.2744
  816MPD2    C312062   0.141   4.258  17.122 -0.3575 -0.1916 -0.1692
  816MPD2    C412063   0.257   4.268  17.196 -0.5278 -0.0623  0.2199
  816MPD2    C512064   0.243   4.341  17.307  0.0741  0.8943 -0.1555
  816MPD2     H12065   4.669   4.323  17.104 -0.9525  3.0581  1.6424
  816MPD2    H112066   0.353   4.223  17.176  0.3802  0.3464  3.7551
  816MPD2    H212067   0.142   4.480  17.433 -0.4712 -0.1727  0.2297
  816MPD2    H312068   0.335   4.338  17.363  1.0616  4.1662 -1.6166
  816MPD2     N12069   0.150   4.189  16.999  0.3524  0.6327  0.2221
  816MPD2    H512070   0.056   4.183  16.960  0.4265  0.2719  0.0984
  816MPD2    N112071   4.641   4.492  17.305 -0.3102  0.6104  0.3440
  816MPD2    H712072   4.654   4.556  17.383  0.2542  1.0340 -0.0995
  817MPD2     C12073   3.477   1.299   9.559 -0.1502  0.2430  0.7552
  817MPD2    C112074   3.552   1.397   9.630  0.7000 -0.1086 -0.0053
  817MPD2    C212075   3.517   1.529   9.620 -0.8050 -0.2398  0.0422
  817MPD2    C312076   3.414   1.571   9.536 -0.0011 -0.0429 -0.5577
  817MPD2    C412077   3.342   1.477   9.465 -0.2865  0.8571 -0.4689
  817MPD2    C512078   3.377   1.345   9.480 -0.4211 -0.2294  0.6454
  817MPD2     H12079   3.573   1.599   9.681  0.0156 -0.5070 -0.4172
  817MPD2    H112080   3.251   1.501   9.410 -1.2228 -2.5733 -0.3926
  817MPD2    H212081   3.499   1.193   9.563  2.2366  0.6756 -0.2094
  817MPD2    H312082   3.319   1.270   9.429  1.9528 -1.5409 -0.1462
  817MPD2     N12083   3.390   1.710   9.528  0.1573 -0.1894  0.0367
  817MPD2    H512084   3.443   1.770   9.590  1.0817 -1.0008  0.0326
  817MPD2    N112085   3.667   1.360   9.709  0.4319  0.3605  1.1500
  817MPD2    H712086   3.722   1.428   9.760  2.0296  0.4293 -0.7088
  818MPD2     C12087   2.748   1.694   9.724  0.3667  0.2696 -0.9280
  818MPD2    C112088   2.757   1.595   9.820 -0.1864 -0.6698  0.0730
  818MPD2    C212089   2.712   1.462   9.796  0.3424 -0.8225  0.1304
  818MPD2    C312090   2.644   1.433   9.683 -0.6387 -0.1812 -0.6002
  818MPD2    C412091   2.615   1.528   9.595 -0.8540  0.5448 -0.2438
  818MPD2    C512092   2.669   1.658   9.611 -0.1936  0.6844  1.0132
  818MPD2     H12093   2.712   1.381   9.868  0.3689  0.4992  1.6150
  818MPD2    H112094   2.559   1.509   9.504 -0.1724 -0.3183 -0.4799
  818MPD2    H212095   2.765   1.800   9.738 -1.5704  0.5406 -0.6160
  818MPD2    H312096   2.635   1.730   9.538 -1.6579  0.6781  1.6898
  818MPD2     N12097   2.597   1.300   9.663  0.3081  0.6891 -0.4134
  818MPD2    H512098   2.540   1.290   9.579 -0.4232  1.4843 -0.0029
  818MPD2    N112099   2.797   1.620   9.949 -0.4245 -0.9254 -0.0874
  818MPD2    H712100   2.775   1.542  10.010 -0.7233 -1.6813 -1.1559
  819MPD2     C12101   1.241   3.317  15.455  0.1777  0.7398 -0.4091
  819MPD2    C112102   1.263   3.205  15.378 -0.0930 -0.0076  0.2532
  819MPD2    C212103   1.353   3.110  15.425  0.6690  0.0867  0.2375
  819MPD2    C312104   1.413   3.120  15.550 -0.0823  0.2266 -0.5431
  819MPD2    C412105   1.394   3.231  15.622 -0.1548  0.0339 -0.0696
  819MPD2    C512106   1.304   3.333  15.580  0.3753  0.0075 -0.1808
  819MPD2     H12107   1.358   3.014  15.374 -1.7792 -0.2721  0.6576
  819MPD2    H112108   1.451   3.245  15.713  0.4567 -1.1372 -0.2671
  819MPD2    H212109   1.192   3.399  15.404 -1.2371 -0.2076 -0.5616
  819MPD2    H312110   1.291   3.421  15.641 -0.1938  1.1914 -2.0055
  819MPD2     N12111   1.494   3.011  15.598  0.3300  0.0536 -0.3361
  819MPD2    H512112   1.478   2.929  15.540  2.5334 -0.0786 -0.7265
  819MPD2    N112113   1.188   3.186  15.259  0.8314 -0.1494 -0.2495
  819MPD2    H712114   1.133   3.265  15.227  0.9126  0.3141  0.7601
  820MPD2     C12115   0.359   3.519  14.829 -0.7639  0.3039  0.2980
  820MPD2    C112116   0.403   3.489  14.953 -0.2413  0.1385 -0.5884
  820MPD2    C212117   0.521   3.421  14.971 -0.1329 -0.2823 -0.3002
  820MPD2    C312118   0.592   3.382  14.860  0.4714 -0.2271  0.0884
  820MPD2    C412119   0.539   3.403  14.731  0.4781 -0.1913  0.3807
  820MPD2    C512120   0.420   3.466  14.721  0.0719  1.1359  0.1075
  820MPD2     H12121   0.556   3.426  15.073 -1.4074  1.2814  0.0495
  820MPD2    H112122   0.589   3.376  14.639 -0.5224 -3.1779  0.7020
  820MPD2    H212123   0.262   3.566  14.817  0.6780  2.6696 -2.1546
  820MPD2    H312124   0.393   3.498  14.621 -3.3993  1.6424  1.1974
  820MPD2     N12125   0.718   3.317  14.873  0.6455  0.7847  0.4530
  820MPD2    H512126   0.752   3.259  14.797 -1.3876 -2.0987  1.7838
  820MPD2    N112127   0.317   3.529  15.067 -1.0731  0.5070 -0.1475
  820MPD2    H712128   0.266   3.615  15.052  1.1797  2.2156  1.9905
  821MPD2     C12129   1.354   4.419  12.680  0.0892 -0.7386 -0.3326
  821MPD2    C112130   1.458   4.344  12.723  0.6341 -0.0757  0.1845
  821MPD2    C212131   1.584   4.389  12.687 -0.4004 -0.1329  0.6213
  821MPD2    C312132   1.603   4.511  12.621 -0.2353 -0.2077 -0.5561
  821MPD2    C412133   1.495   4.585  12.580  0.1775  0.1617  0.3715
  821MPD2    C512134   1.369   4.538  12.607 -0.7020 -0.0867  0.9569
  821MPD2     H12135   1.669   4.324  12.705 -0.3237 -0.1636  0.1478
  821MPD2    H112136   1.500   4.673  12.516 -0.1216 -0.9213 -1.1487
  821MPD2    H212137   1.253   4.382  12.697 -0.1257  0.7535  1.7433
  821MPD2    H312138   1.282   4.591  12.571  1.5637  2.7105 -0.4918
  821MPD2     N12139   1.731   4.564  12.593  0.2334  0.5024  0.2718
  821MPD2    H512140   1.731   4.638  12.524  0.7484  0.0509 -0.2064
  821MPD2    N112141   1.446   4.212  12.782  0.0741 -0.4143 -0.3491
  821MPD2    H712142   1.532   4.184  12.828  0.5698 -1.0863 -1.6982
  822MPD2     C12143   2.161   4.136  15.596 -0.0131 -0.0594  0.1166
  822MPD2    C112144   2.090   4.098  15.707 -0.4240  0.0837  0.1003
  822MPD2    C212145   1.996   4.184  15.765 -0.6148  0.3122  0.6955
  822MPD2    C312146   1.967   4.310  15.709 -0.0663  0.2811 -0.4756
  822MPD2    C412147   2.038   4.353  15.594 -0.6295  0.1652  0.5606
  822MPD2    C512148   2.134   4.266  15.542  0.1432  0.5908  0.5309
  822MPD2     H12149   1.945   4.137  15.848 -2.0503 -0.9891 -0.9271
  822MPD2    H112150   2.019   4.450  15.551  1.4699  0.6601  0.7335
  822MPD2    H212151   2.235   4.076  15.544  0.0337 -0.4730  0.6671
  822MPD2    H312152   2.190   4.290  15.452  1.0561 -0.0417  0.9254
  822MPD2     N12153   1.886   4.389  15.790 -0.5355 -0.0816 -0.3067
  822MPD2    H512154   1.863   4.346  15.879 -0.2874  0.4397  0.0053
  822MPD2    N112155   2.110   3.972  15.768  0.0435 -0.4564  0.0361
  822MPD2    H712156   2.039   3.933  15.829  0.8980  0.0807  1.4060
  823MPD2     C12157   1.720   4.442  16.557 -0.6731  0.3715  0.2191
  823MPD2    C112158   1.648   4.421  16.446  0.0874 -0.8768  0.5354
  823MPD2    C212159   1.562   4.313  16.440 -0.1325  0.6125 -0.1023
  823MPD2    C312160   1.536   4.246  16.553  0.1160  0.2777  0.0597
  823MPD2    C412161   1.604   4.273  16.664 -0.5594  0.4007  0.1393
  823MPD2    C512162   1.701   4.367  16.667 -0.4066 -0.7168 -0.0249
  823MPD2     H12163   1.509   4.302  16.346 -0.2823 -1.8001  0.2445
  823MPD2    H112164   1.583   4.223  16.758 -0.8070  0.2899  0.0239
  823MPD2    H212165   1.793   4.522  16.566 -0.3769 -0.2031  2.8404
  823MPD2    H312166   1.757   4.380  16.759 -1.3088  0.2934  0.3812
  823MPD2     N12167   1.435   4.146  16.559  1.2649 -0.6069  0.0016
  823MPD2    H512168   1.418   4.103  16.649  1.4056  0.2632  0.4509
  823MPD2    N112169   1.687   4.495  16.330 -0.4635 -0.2913  0.6111
  823MPD2    H712170   1.762   4.564  16.335 -0.7495  0.0724 -0.0514
  824MPD2     C12171   2.706   3.354  15.971  0.8774 -0.0596  0.0887
  824MPD2    C112172   2.639   3.408  15.867 -0.2656 -0.3669  0.1342
  824MPD2    C212173   2.684   3.377  15.741  0.5793  0.1110 -0.1997
  824MPD2    C312174   2.801   3.301  15.717 -0.4302 -0.0949  0.7029
  824MPD2    C412175   2.860   3.242  15.829  0.2224 -0.6842  0.0390
  824MPD2    C512176   2.815   3.269  15.957 -0.3805  0.1410  0.6887
  824MPD2     H12177   2.634   3.417  15.653  0.3187 -1.0376 -0.5762
  824MPD2    H112178   2.946   3.178  15.816  1.1212  0.7303 -1.0372
  824MPD2    H212179   2.675   3.373  16.073 -0.1710  0.5031 -0.3303
  824MPD2    H312180   2.858   3.223  16.045  0.1472 -1.0436 -0.1807
  824MPD2     N12181   2.836   3.281  15.583 -0.2147 -0.0685  0.6351
  824MPD2    H512182   2.779   3.324  15.510 -0.6955  1.0640  1.6758
  824MPD2    N112183   2.534   3.499  15.879  0.1536  0.7550  0.0175
  824MPD2    H712184   2.500   3.537  15.792  1.4529  3.3349  0.6242
  825MPD2     C12185   3.505   3.494  15.071 -0.4021 -0.9093 -0.9624
  825MPD2    C112186   3.379   3.533  15.112 -0.2351 -0.4728 -0.6213
  825MPD2    C212187   3.353   3.674  15.117  0.2043  0.1394  0.2509
  825MPD2    C312188   3.448   3.767  15.076 -0.6169  0.4229 -0.0322
  825MPD2    C412189   3.570   3.721  15.024 -0.6498  0.2799  0.2562
  825MPD2    C512190   3.603   3.590  15.040 -0.1712  0.0331 -0.2620
  825MPD2     H12191   3.257   3.703  15.157  0.0095  2.0363 -1.6244
  825MPD2    H112192   3.653   3.787  15.002  0.2151 -0.8235  0.1974
  825MPD2    H212193   3.521   3.387  15.064 -0.4782 -0.8709 -1.7519
  825MPD2    H312194   3.702   3.563  15.006  0.2077 -0.4500  1.2121
  825MPD2     N12195   3.432   3.906  15.076  0.4730 -0.0477 -0.5227
  825MPD2    H512196   3.500   3.965  15.031  0.1652  0.9475  0.3161
  825MPD2    N112197   3.294   3.425  15.157 -0.0753  0.0252 -0.4082
  825MPD2    H712198   3.325   3.331  15.133 -1.0075  0.2709 -2.5752
  826MPD2     C12199   3.114   3.393  13.635  0.1226 -0.7325  0.1508
  826MPD2    C112200   3.147   3.478  13.532 -0.4427  0.4524  0.1036
  826MPD2    C212201   3.084   3.602  13.523  0.3379 -0.0992 -0.1845
  826MPD2    C312202   3.006   3.645  13.630  0.3929  0.2608 -0.2316
  826MPD2    C412203   2.980   3.558  13.736  0.3258 -0.0323 -0.2321
  826MPD2    C512204   3.027   3.433  13.732 -1.2673  0.4327 -0.4644
  826MPD2     H12205   3.116   3.656  13.434 -2.7340 -2.3463 -2.6205
  826MPD2    H112206   2.923   3.594  13.821  1.3467  0.0456  0.4238
  826MPD2    H212207   3.152   3.292  13.639 -0.0940 -0.8222 -0.0312
  826MPD2    H312208   2.999   3.374  13.819  1.6091  0.7146  0.6557
  826MPD2     N12209   2.946   3.771  13.629  0.3112  0.0735 -0.5727
  826MPD2    H512210   2.880   3.794  13.702  0.2316 -4.4262  0.7683
  826MPD2    N112211   3.237   3.436  13.437  0.2600  0.6296  0.1501
  826MPD2    H712212   3.270   3.344  13.462 -2.0268 -0.3387 -0.3888
  827MPD2     C12213   3.267   0.620   9.871 -0.0085 -0.0268  0.0649
  827MPD2    C112214   3.259   0.492   9.834  0.2618  0.2225  0.0780
  827MPD2    C212215   3.172   0.454   9.735  0.3408 -0.1228 -0.3210
  827MPD2    C312216   3.084   0.550   9.679  0.3402 -0.1523  0.1748
  827MPD2    C412217   3.081   0.674   9.734  0.2519  0.1059 -0.5848
  827MPD2    C512218   3.171   0.708   9.822 -0.4137 -0.1433 -0.0619
  827MPD2     H12219   3.170   0.359   9.683  2.0109 -0.7038  0.6628
  827MPD2    H112220   3.008   0.749   9.703 -0.6831 -1.3037 -1.8250
  827MPD2    H212221   3.324   0.653   9.957 -2.4240  2.8960  0.5387
  827MPD2    H312222   3.178   0.810   9.858  0.7876 -0.0004 -0.6576
  827MPD2     N12223   2.996   0.506   9.583 -0.4702 -0.6018  0.1810
  827MPD2    H512224   3.004   0.407   9.558  2.9362  0.3226 -2.3868
  827MPD2    N112225   3.349   0.401   9.891 -0.0944 -0.2160 -0.3150
  827MPD2    H712226   3.419   0.425   9.960  0.6587  0.8502 -1.4560
  828MPD2     C12227   2.258   4.682  12.095 -0.0187 -0.4985 -0.2248
  828MPD2    C112228   2.204   4.658  11.970 -0.4482  0.5621  0.0321
  828MPD2    C212229   2.293   4.659  11.864 -0.3407 -0.3639 -0.4261
  828MPD2    C312230   2.432   4.666  11.879  0.6362  0.2879 -0.3726
  828MPD2    C412231   2.474   4.694  12.002  0.2020 -0.0318  0.4253
  828MPD2    C512232   2.391   4.709  12.110  0.4237  0.1941 -0.3438
  828MPD2     H12233   2.242   4.644  11.769  1.3802 -1.4896 -1.1702
  828MPD2    H112234   2.576   4.729  12.013 -0.3812  1.4223  1.2198
  828MPD2    H212235   2.200   4.682  12.186  0.3167  1.7305  0.0102
  828MPD2    H312236   2.431   4.734  12.208  1.6900 -1.3852 -0.4621
  828MPD2     N12237   2.530   4.651  11.781  0.0373 -0.1627 -0.2342
  828MPD2    H512238   2.627   4.649  11.811  0.7891 -4.0996 -2.8583
  828MPD2    N112239   2.064   4.621  11.951 -0.4622  0.0898  0.1612
  828MPD2    H712240   2.039   4.600  11.856 -0.1528  1.5302 -0.2448
  829MPD2     C12241   1.314   4.459  11.296 -0.1556  0.0272  0.1645
  829MPD2    C112242   1.428   4.531  11.307 -0.0318 -0.1563  0.1450
  829MPD2    C212243   1.506   4.540  11.428  0.6966  0.1750  0.1710
  829MPD2    C312244   1.452   4.481  11.541 -0.1005 -0.8436 -0.4306
  829MPD2    C412245   1.330   4.410  11.529 -0.0542 -0.4210  0.4097
  829MPD2    C512246   1.266   4.400  11.406  0.4435  0.5036  1.1262
  829MPD2     H12247   1.590   4.608  11.431  1.4865 -0.6884 -2.0560
  829MPD2    H112248   1.290   4.350  11.610 -0.0184 -1.1974 -0.1470
  829MPD2    H212249   1.266   4.457  11.200  1.4543 -1.6171 -0.6088
  829MPD2    H312250   1.178   4.341  11.386  1.2668  0.2240 -1.6042
  829MPD2     N12251   1.514   4.494  11.672 -0.5086 -0.3676 -0.0856
  829MPD2    H512252   1.473   4.440  11.747  0.1067  1.2573  1.4157
  829MPD2    N112253   1.463   4.600  11.190  0.0355 -0.3547 -0.2035
  829MPD2    H712254   1.384   4.611  11.126  1.0411  2.3487 -0.9620
  830MPD2     C12255   1.726   2.401  15.290  0.0408  0.1326 -0.4470
  830MPD2    C112256   1.775   2.530  15.321  0.1104 -0.0987  0.0552
  830MPD2    C212257   1.855   2.594  15.232 -0.2320  0.0012 -0.1532
  830MPD2    C312258   1.875   2.527  15.114  0.3010  0.3666  0.0930
  830MPD2    C412259   1.820   2.408  15.082  0.0519 -1.0544 -0.4615
  830MPD2    C512260   1.749   2.336  15.175 -0.2302  0.1926  1.0187
  830MPD2     H12261   1.886   2.696  15.253  1.8618 -0.2632 -1.8657
  830MPD2    H112262   1.828   2.362  14.984 -3.1648  1.6570 -2.0143
  830MPD2    H212263   1.663   2.338  15.352  2.0912 -1.7481 -0.3002
  830MPD2    H312264   1.704   2.237  15.163 -3.1077  1.3848  1.9372
  830MPD2     N12265   1.963   2.596  15.029 -0.4226  0.3042  0.0097
  830MPD2    H512266   1.993   2.688  15.058  2.3809 -0.2280 -1.1363
  830MPD2    N112267   1.736   2.606  15.431 -0.1360 -0.1288  0.5951
  830MPD2    H712268   1.767   2.702  15.441 -0.9647  0.0417  1.5112
  831MPD2     C12269   1.986   4.050  16.317 -0.7622 -0.0177  0.0037
  831MPD2    C112270   1.990   4.091  16.186 -0.1508 -0.5726 -0.4744
  831MPD2    C212271   1.867   4.123  16.137  0.2840  0.3006 -0.6513
  831MPD2    C312272   1.745   4.093  16.206  0.5115  0.2495  0.0892
  831MPD2    C412273   1.755   4.048  16.338  0.1817 -0.2382  0.3113
  831MPD2    C512274   1.878   4.024  16.394  0.2554 -0.2179 -0.0877
  831MPD2     H12275   1.861   4.164  16.036 -1.6632 -1.0992 -1.0929
  831MPD2    H112276   1.665   4.026  16.394  0.4140 -2.8165 -0.3154
  831MPD2    H212277   2.081   4.032  16.366  0.9555 -0.0419 -3.4064
  831MPD2    H312278   1.888   3.987  16.495  0.3529 -0.0553 -0.0379
  831MPD2     N12279   1.613   4.099  16.148  0.2212 -0.0460  0.5709
  831MPD2    H512280   1.537   4.077  16.212 -0.3267 -1.6164 -0.6250
  831MPD2    N112281   2.112   4.103  16.112  0.3626 -0.5175  0.6786
  831MPD2    H712282   2.102   4.147  16.021 -2.3907 -0.5725  0.9646
  832MPD2     C12283   0.528   0.358  17.017 -0.2034  0.4053  0.8045
  832MPD2    C112284   0.570   0.488  17.004  0.3647  0.0587 -0.2281
  832MPD2    C212285   0.469   0.576  16.969 -0.7336 -0.0998  0.1483
  832MPD2    C312286   0.333   0.539  16.959 -1.0531 -0.3106 -0.1411
  832MPD2    C412287   0.298   0.410  16.975  0.3457 -0.5064 -0.4182
  832MPD2    C512288   0.393   0.323  17.006 -0.6004  0.0418  0.5415
  832MPD2     H12289   0.498   0.681  16.961 -2.0160  0.1637 -1.0173
  832MPD2    H112290   0.193   0.382  16.972 -0.3204  1.9765  0.3579
  832MPD2    H212291   0.596   0.279  17.046 -1.3476 -0.4164  1.2595
  832MPD2    H312292   0.362   0.220  17.021 -0.3304 -0.0718  0.3426
  832MPD2     N12293   0.226   0.629  16.934 -0.3151 -0.2771  0.5463
  832MPD2    H512294   0.133   0.588  16.931 -0.5569  0.1466  2.0273
  832MPD2    N112295   0.704   0.522  17.026 -0.2210 -0.0873  0.1189
  832MPD2    H712296   0.762   0.440  17.044 -1.7370 -1.1478  0.1807
  833MPD2     C12297   2.555   2.197  12.510  0.1268 -0.0564 -0.4946
  833MPD2    C112298   2.625   2.312  12.492  0.3319 -0.6855 -0.0117
  833MPD2    C212299   2.749   2.301  12.427  0.1976  0.0190 -0.2607
  833MPD2    C312300   2.790   2.187  12.362 -0.6391  0.3860 -0.0041
  833MPD2    C412301   2.716   2.072  12.381  0.1332 -0.3465  0.6559
  833MPD2    C512302   2.602   2.079  12.446  0.1893 -0.2452  0.3301
  833MPD2     H12303   2.811   2.388  12.407  1.8226 -0.4891  2.6455
  833MPD2    H112304   2.731   1.976  12.333  0.0643 -0.4057  0.7532
  833MPD2    H212305   2.463   2.188  12.567  0.1837  0.9183 -0.2660
  833MPD2    H312306   2.549   1.987  12.468  1.4408 -0.5648  2.0887
  833MPD2     N12307   2.906   2.205  12.283  0.3509 -0.2881  0.2831
  833MPD2    H512308   2.965   2.287  12.291 -0.5042  0.4429 -0.8579
  833MPD2    N112309   2.579   2.431  12.553  0.2026  0.4879 -0.5348
  833MPD2    H712310   2.492   2.438  12.605  1.4520 -0.0506  1.6317
  834MPD2     C12311   3.386   1.977  11.444  0.0621 -0.0996 -0.3835
  834MPD2    C112312   3.270   1.927  11.478 -0.1569 -0.2845 -0.3420
  834MPD2    C212313   3.199   1.984  11.582  0.1153  0.8939  0.2107
  834MPD2    C312314   3.249   2.096  11.637 -0.3320  0.0192 -0.0602
  834MPD2    C412315   3.363   2.153  11.590  0.8532 -0.3650 -0.1595
  834MPD2    C512316   3.442   2.088  11.502  0.4764  0.5861 -1.0207
  834MPD2     H12317   3.112   1.932  11.619 -0.7814  1.1418 -1.5237
  834MPD2    H112318   3.403   2.247  11.627 -1.1664  1.2125 -2.0010
  834MPD2    H212319   3.438   1.922  11.365  2.1692  0.6939  0.4421
  834MPD2    H312320   3.540   2.126  11.474  0.0616  0.5106 -2.5570
  834MPD2     N12321   3.167   2.149  11.743 -0.0435 -0.1777  0.1782
  834MPD2    H512322   3.078   2.102  11.758 -0.5246  1.2992  1.9713
  834MPD2    N112323   3.233   1.796  11.416  0.4533  0.3228 -0.3032
  834MPD2    H712324   3.283   1.774  11.331 -0.4592  0.7881 -0.9569
  835MPD2     C12325   3.122   0.455  10.589 -0.2064 -0.0603  0.2229
  835MPD2    C112326   2.989   0.432  10.624  0.3180 -0.4947 -0.4222
  835MPD2    C212327   2.953   0.432  10.760 -0.6260  0.6359 -0.5162
  835MPD2    C312328   3.043   0.466  10.857 -0.2358 -0.4967 -0.2591
  835MPD2    C412329   3.178   0.473  10.826 -0.3805  0.6085  0.4658
  835MPD2    C512330   3.219   0.466  10.693 -0.5366  0.0824  0.1205
  835MPD2     H12331   2.853   0.399  10.786 -0.9141  1.0794 -1.0787
  835MPD2    H112332   3.253   0.497  10.901 -0.1046 -0.7307  0.6304
  835MPD2    H212333   3.168   0.463  10.491  1.5767 -0.3585  1.0289
  835MPD2    H312334   3.324   0.479  10.670 -0.5410 -0.0590  0.0218
  835MPD2     N12335   2.993   0.469  10.989 -0.3915  0.3738 -0.1016
  835MPD2    H512336   3.060   0.459  11.065 -0.2548 -1.5124 -0.4672
  835MPD2    N112337   2.888   0.399  10.529 -0.0061 -0.3088  0.0544
  835MPD2    H712338   2.795   0.378  10.564  0.1860  0.8431  1.2915
  836MPD2     C12339   2.317   0.094  11.026 -1.1477 -0.2122  0.2547
  836MPD2    C112340   2.345   0.171  11.140  0.4511 -0.3935 -0.0174
  836MPD2    C212341   2.249   0.186  11.235 -0.7164 -0.0083 -0.2005
  836MPD2    C312342   2.125   0.132  11.218 -0.3150  0.4128 -0.0350
  836MPD2    C412343   2.103   0.044  11.112 -0.3561  0.3126  0.3533
  836MPD2    C512344   2.197   0.025  11.017  0.8735 -0.9958  0.3171
  836MPD2     H12345   2.268   0.256  11.315  0.2316  0.7349 -1.0685
  836MPD2    H112346   2.009   4.729  11.097  0.3691 -0.9223 -0.0626
  836MPD2    H212347   2.385   0.081  10.943 -1.0157  0.0996  0.3168
  836MPD2    H312348   2.181   4.696  10.932  0.5477 -0.5586  0.0487
  836MPD2     N12349   2.021   0.140  11.315  0.0007  0.1898  0.2821
  836MPD2    H512350   1.930   0.102  11.292  0.2511  0.1727 -0.7173
  836MPD2    N112351   2.475   0.224  11.150  0.2883  0.3703 -0.4180
  836MPD2    H712352   2.535   0.226  11.068  0.2151  1.1311 -0.4546
  837MPD2     C12353   1.043   0.004   9.843 -0.1163  0.2133 -0.1220
  837MPD2    C112354   0.921   0.034   9.898 -0.9987  0.0321  0.0473
  837MPD2    C212355   0.873   0.165   9.911 -0.0595  0.0334  0.2608
  837MPD2    C312356   0.952   0.260   9.856 -0.3242  0.1197  0.1721
  837MPD2    C412357   1.070   0.233   9.793 -0.1248  0.2290  0.4796
  837MPD2    C512358   1.116   0.105   9.791 -0.3107  0.0049 -0.7651
  837MPD2     H12359   0.778   0.193   9.955  0.4007 -2.1625  2.6880
  837MPD2    H112360   1.138   0.312   9.762  1.9519 -0.5439  2.9906
  837MPD2    H212361   1.074   4.636   9.843  1.5523  0.7258 -0.9880
  837MPD2    H312362   1.214   0.089   9.746  0.1539  0.3761  0.1028
  837MPD2     N12363   0.889   0.383   9.863  0.0685 -0.7199 -0.0657
  837MPD2    H512364   0.795   0.386   9.900  0.4713  1.6917  0.7850
  837MPD2    N112365   0.823   4.667   9.932 -0.1283  0.1540  0.1821
  837MPD2    H712366   0.738   4.697   9.979  1.2493 -0.4618  3.1127
  838MPD2     C12367   4.346   2.924  11.930  0.1178  0.4792 -0.2283
  838MPD2    C112368   4.334   2.791  11.915  0.1428 -0.3436  0.2765
  838MPD2    C212369   4.233   2.728  11.977 -1.1079 -0.0126  0.6862
  838MPD2    C312370   4.138   2.793  12.046 -0.0519 -0.0198 -0.4097
  838MPD2    C412371   4.145   2.930  12.053 -0.0621  0.3822 -0.3196
  838MPD2    C512372   4.246   2.994  11.994 -0.7546 -0.0814 -0.0150
  838MPD2     H12373   4.218   2.622  11.956 -0.1252  0.0145 -0.2301
  838MPD2    H112374   4.055   2.988  12.071 -0.3569 -0.6287  1.4172
  838MPD2    H212375   4.426   2.979  11.881 -0.6255  0.5834 -1.3081
  838MPD2    H312376   4.246   3.102  12.005  0.1770 -0.0464 -0.3887
  838MPD2     N12377   4.035   2.718  12.097  0.1520 -0.2147 -0.9733
  838MPD2    H512378   4.049   2.618  12.097  0.8822 -0.1041 -0.4177
  838MPD2    N112379   4.415   2.708  11.838 -0.4599 -0.2156 -0.2412
  838MPD2    H712380   4.380   2.614  11.822 -1.7142 -0.0288  1.4455
  839MPD2     C12381   4.503   1.841  11.862  0.3560  0.0012  0.1968
  839MPD2    C112382   4.462   1.881  11.738  0.3193 -0.6445 -0.1362
  839MPD2    C212383   4.503   1.997  11.687 -0.5797  0.3432 -0.5429
  839MPD2    C312384   4.566   2.094  11.764 -0.1860  1.0285 -0.0803
  839MPD2    C412385   4.603   2.054  11.889 -0.3484  0.4971 -1.2776
  839MPD2    C512386   4.570   1.934  11.939  0.2684 -0.1557 -0.1285
  839MPD2     H12387   4.478   2.038  11.590  0.2725  1.1541 -0.4184
  839MPD2    H112388   4.663   2.122  11.948 -1.0353 -1.3551  1.6016
  839MPD2    H212389   4.481   1.746  11.910 -1.2066 -1.1439 -2.8002
  839MPD2    H312390   4.604   1.910  12.039 -0.3843 -0.2966  0.0551
  839MPD2     N12391   4.591   2.235  11.722  0.3155 -0.4267  0.7633
  839MPD2    H512392   4.632   2.304  11.784 -0.6126  2.3597 -1.7067
  839MPD2    N112393   4.386   1.797  11.656 -0.2065 -0.6467 -0.3171
  839MPD2    H712394   4.382   1.827  11.558  0.3136  0.3007 -0.0509
  840MPD2     C12395   3.795   0.651  10.145  0.1252  0.1674  0.5543
  840MPD2    C112396   3.832   0.517  10.157  0.8883 -0.3306 -0.6012
  840MPD2    C212397   3.962   0.489  10.202 -0.1473 -0.0313  0.2911
  840MPD2    C312398   4.045   0.590  10.233 -0.2271 -0.5159  0.2567
  840MPD2    C412399   4.009   0.722  10.205 -0.6202 -0.2869  0.1967
  840MPD2    C512400   3.884   0.751  10.169  0.0207  0.4884 -0.3984
  840MPD2     H12401   3.989   0.385  10.218 -0.7124 -0.3200 -0.6293
  840MPD2    H112402   4.078   0.800  10.235 -3.9588  2.2318  1.3301
  840MPD2    H212403   3.697   0.672  10.106 -0.3573 -1.3765  0.9406
  840MPD2    H312404   3.857   0.855  10.157  0.9678  0.9375  1.4370
  840MPD2     N12405   4.178   0.574  10.284  0.0396  0.2668  0.0048
  840MPD2    H512406   4.230   0.658  10.310 -0.4592  0.3506  0.7317
  840MPD2    N112407   3.738   0.413  10.123 -0.1432 -0.0945  0.8218
  840MPD2    H712408   3.653   0.458  10.089 -0.5318  1.4377  3.8472
  841MPD2     C12409   3.996   0.025  14.613 -0.7397 -0.9329  0.2850
  841MPD2    C112410   3.987   4.687  14.496 -0.0143 -0.5477  0.4378
  841MPD2    C212411   4.050   0.006  14.378  0.0690  0.0616 -0.1261
  841MPD2    C312412   4.128   0.117  14.383 -0.0042 -0.2629  0.0246
  841MPD2    C412413   4.130   0.194  14.500 -0.0464  0.7195 -0.0025
  841MPD2    C512414   4.062   0.145  14.611 -0.5944 -0.6323 -0.1239
  841MPD2     H12415   4.037   4.680  14.289  0.9357  1.2835 -1.0814
  841MPD2    H112416   4.182   0.289  14.514  0.6981  0.4626 -1.0169
  841MPD2    H212417   3.950   4.731  14.706  0.9009 -0.2710  1.3016
  841MPD2    H312418   4.065   0.204  14.703 -0.9962 -0.5600 -0.1568
  841MPD2     N12419   4.203   0.151  14.268  0.2761 -0.3255 -0.0568
  841MPD2    H512420   4.188   0.086  14.190 -1.7564  0.4532 -0.3091
  841MPD2    N112421   3.934   4.559  14.491 -0.1092  0.2638  0.0244
  841MPD2    H712422   3.958   4.504  14.408  1.1933  2.7528 -1.2618
  842MPD2     C12423   4.448   1.131  16.696  0.2961 -0.2630 -0.1532
  842MPD2    C112424   4.401   1.003  16.699  0.3002  0.6810 -0.3597
  842MPD2    C212425   4.407   0.932  16.823  0.4702 -0.0897 -0.5674
  842MPD2    C312426   4.469   0.987  16.939  0.6140  0.3232  0.1682
  842MPD2    C412427   4.517   1.117  16.921  0.2834  0.1763  0.7059
  842MPD2    C512428   4.503   1.186  16.808  0.5673  0.0502 -0.2153
  842MPD2     H12429   4.362   0.833  16.824 -0.9352  0.5404 -1.6417
  842MPD2    H112430   4.567   1.176  16.997  1.1429  0.9315 -0.4540
  842MPD2    H212431   4.439   1.182  16.601 -0.4122 -1.0463 -0.5056
  842MPD2    H312432   4.538   1.288  16.814 -0.2594  0.0677  4.2182
  842MPD2     N12433   4.486   0.925  17.064 -0.1570  0.4581 -0.3957
  842MPD2    H512434   4.558   0.968  17.120 -2.1614  2.5564  0.5452
  842MPD2    N112435   4.355   0.951  16.576 -0.5056  0.1887 -0.3343
  842MPD2    H712436   4.351   1.014  16.497  2.0390 -0.6401 -1.1274
  843MPD2     C12437   1.929   1.477  17.264  0.4416 -0.9426 -0.7828
  843MPD2    C112438   1.979   1.440  17.383  0.2695  0.0848 -0.3000
  843MPD2    C212439   2.063   1.526  17.450 -0.4087  0.1491 -0.1822
  843MPD2    C312440   2.104   1.643  17.398 -0.3609 -0.9256 -0.3729
  843MPD2    C412441   2.037   1.687  17.280  0.7220  0.1580 -0.6686
  843MPD2    C512442   1.939   1.609  17.219  0.0760 -0.1088  0.6172
  843MPD2     H12443   2.103   1.492  17.545  2.2267 -2.5186 -2.2168
  843MPD2    H112444   2.035   1.791  17.250  3.0094  0.0655 -1.1760
  843MPD2    H212445   1.861   1.419  17.203  0.0555 -2.2164  0.8745
  843MPD2    H312446   1.887   1.653  17.135  0.5935  2.8890  1.8836
  843MPD2     N12447   2.181   1.741  17.470 -0.2989 -0.2953 -0.6122
  843MPD2    H512448   2.197   1.827  17.419 -1.6939 -0.1456 -0.8079
  843MPD2    N112449   1.934   1.315  17.428  0.1306 -0.3872  0.0910
  843MPD2    H712450   1.878   1.265  17.361  0.5174 -1.9170  0.9049
  844MPD2     C12451   4.608   0.183  16.503  0.0959  0.1304 -0.8700
  844MPD2    C112452   4.692   0.190  16.396 -0.3655  0.1244  0.9053
  844MPD2    C212453   0.077   0.252  16.408  0.5722 -0.8012  0.3055
  844MPD2    C312454   0.116   0.318  16.520  0.1713  0.4024 -0.7005
  844MPD2    C412455   0.034   0.313  16.632 -0.6108 -0.0184  0.5556
  844MPD2    C512456   4.649   0.242  16.619  0.6129 -0.0350 -0.5769
  844MPD2     H12457   0.145   0.248  16.323  1.8326 -0.2743  1.2892
  844MPD2    H112458   0.071   0.353  16.725  2.0100 -1.2004  0.0530
  844MPD2    H212459   4.514   0.131  16.514  1.0854 -1.6469 -0.8189
  844MPD2    H312460   4.588   0.240  16.708 -2.9677  0.2519 -3.0203
  844MPD2     N12461   0.240   0.384  16.505 -0.3848 -0.0021 -0.4663
  844MPD2    H512462   0.300   0.348  16.431  2.0953 -0.8730  1.9723
  844MPD2    N112463   4.661   0.131  16.266  0.2654 -0.3383 -0.1215
  844MPD2    H712464   4.728   0.141  16.191  0.2997 -1.1981 -0.1983
  845MPD2     C12465   0.520   1.328  16.707  0.3608  0.1600 -0.2523
  845MPD2    C112466   0.421   1.258  16.760 -0.3467 -0.2185 -0.1379
  845MPD2    C212467   0.428   1.119  16.762  0.3017  0.7724  0.3173
  845MPD2    C312468   0.533   1.047  16.710 -0.7506  0.6702 -0.0235
  845MPD2    C412469   0.630   1.128  16.648  0.4845  0.3319 -0.4481
  845MPD2    C512470   0.620   1.264  16.648 -0.4810 -0.2569  0.0555
  845MPD2     H12471   0.347   1.067  16.811 -0.6460  1.4666 -0.5003
  845MPD2    H112472   0.716   1.086  16.598  0.2835  1.6183 -1.8842
  845MPD2    H212473   0.517   1.436  16.714  2.9700  0.3254 -1.6745
  845MPD2    H312474   0.698   1.328  16.609  1.3119 -2.0011  0.7947
  845MPD2     N12475   0.532   0.904  16.703  0.1466  0.7152 -0.1939
  845MPD2    H512476   0.461   0.856  16.758  1.4405 -2.1303 -0.9832
  845MPD2    N112477   0.308   1.333  16.808  0.2591  0.0103 -0.5466
  845MPD2    H712478   0.311   1.432  16.789  0.4825  0.6394  2.8833
  846MPD2     C12479   2.404   1.733  13.851 -0.2095  0.6986  0.1547
  846MPD2    C112480   2.275   1.710  13.823  0.1250 -0.3546  0.0270
  846MPD2    C212481   2.188   1.679  13.927 -0.1200 -0.5725 -0.5871
  846MPD2    C312482   2.229   1.656  14.060 -0.0091  0.1748 -0.0447
  846MPD2    C412483   2.362   1.682  14.087  0.1892 -0.2591 -0.8558
  846MPD2    C512484   2.441   1.727  13.981  0.1253  0.5810  0.1143
  846MPD2     H12485   2.082   1.669  13.908 -0.5256 -0.8589  1.9131
  846MPD2    H112486   2.409   1.677  14.184  1.0283  1.5281 -1.1713
  846MPD2    H212487   2.484   1.770  13.788  0.3676 -2.6241 -1.0646
  846MPD2    H312488   2.543   1.758  14.002  0.5884  0.4589 -1.9630
  846MPD2     N12489   2.140   1.632  14.166  0.1430  0.5753  0.1885
  846MPD2    H512490   2.041   1.629  14.141  0.4781  0.5431 -1.1626
  846MPD2    N112491   2.232   1.743  13.695  0.0785 -0.0453 -0.0144
  846MPD2    H712492   2.301   1.781  13.630 -1.0150 -0.1105 -1.2270
  847MPD2     C12493   2.136   2.670  14.333 -0.1083 -0.4887  0.2469
  847MPD2    C112494   2.186   2.800  14.315  0.3972  0.1673  0.1920
  847MPD2    C212495   2.312   2.837  14.365  0.0570  0.1184  0.1904
  847MPD2    C312496   2.379   2.757  14.455 -0.4689  0.3504 -0.1327
  847MPD2    C412497   2.323   2.637  14.488  0.2652  0.0173  0.0202
  847MPD2    C512498   2.206   2.595  14.421 -0.4112  0.0255  0.6118
  847MPD2     H12499   2.357   2.934  14.349 -0.4913 -0.0375 -2.2493
  847MPD2    H112500   2.373   2.569  14.555  0.0132  1.2155  1.4074
  847MPD2    H212501   2.047   2.635  14.281 -1.0044  1.2304  0.6059
  847MPD2    H312502   2.180   2.494  14.450  1.4087 -0.7870 -0.6652
  847MPD2     N12503   2.486   2.824  14.514  0.2391  0.0325 -0.2202
  847MPD2    H512504   2.502   2.922  14.495 -1.6113  0.0115 -1.8778
  847MPD2    N112505   2.111   2.894  14.239 -0.5445  0.1432  0.5446
  847MPD2    H712506   2.151   2.987  14.239  1.6593 -0.7951  0.3625
  848MPD2     C12507   0.240   0.794  16.322 -0.0023  0.6199 -0.1022
  848MPD2    C112508   0.177   0.913  16.354  0.2371 -0.0636 -0.1616
  848MPD2    C212509   0.225   1.030  16.295  0.1866 -0.0020 -0.3774
  848MPD2    C312510   0.311   1.018  16.185 -0.6440 -0.1866 -0.3547
  848MPD2    C412511   0.363   0.890  16.147  0.3286  0.2511  0.2565
  848MPD2    C512512   0.326   0.785  16.221  0.1623 -0.0271  0.1531
  848MPD2     H12513   0.189   1.122  16.339 -1.0613  0.3307 -2.0770
  848MPD2    H112514   0.425   0.871  16.060  1.0113  0.1743  0.7602
  848MPD2    H212515   0.215   0.703  16.376  0.7926  0.9999  0.9199
  848MPD2    H312516   0.360   0.686  16.193  0.0318 -0.4000  1.3160
  848MPD2     N12517   0.334   1.121  16.088 -0.4251 -0.1762  0.1650
  848MPD2    H512518   0.384   1.090  16.005 -1.5003  1.0832 -0.9437
  848MPD2    N112519   0.100   0.923  16.471 -0.0177 -0.6500  0.1025
  848MPD2    H712520   0.095   1.008  16.527  0.5347 -1.4957  1.4532
  849MPD2     C12521   4.274   0.771  14.059 -0.5403  0.1090 -0.6052
  849MPD2    C112522   4.363   0.814  13.961 -0.6154 -0.3162 -0.3484
  849MPD2    C212523   4.499   0.788  13.974  0.7195  0.4172  0.4312
  849MPD2    C312524   4.537   0.706  14.081 -0.3551 -0.0069  0.2607
  849MPD2    C412525   4.449   0.662  14.177  0.1736  0.1302 -0.0893
  849MPD2    C512526   4.317   0.699  14.162 -0.3964 -0.0629  0.4890
  849MPD2     H12527   4.567   0.816  13.894  0.1853  0.9766  0.1783
  849MPD2    H112528   4.479   0.602  14.262 -0.2472 -1.3820 -0.9969
  849MPD2    H212529   4.173   0.802  14.038 -0.6561 -0.6540 -1.1808
  849MPD2    H312530   4.242   0.670  14.234  0.5819 -0.8362  1.1959
  849MPD2     N12531   4.668   0.658  14.091  0.6694 -0.1726 -0.1293
  849MPD2    H512532   4.683   0.604  14.175  1.4654 -0.7617 -0.6506
  849MPD2    N112533   4.311   0.873  13.843 -0.2426  0.1093 -0.3075
  849MPD2    H712534   4.211   0.887  13.831  0.1599  1.7140 -1.7418
  850MPD2     C12535   1.969   3.840  14.486 -0.1003  0.7659  0.3781
  850MPD2    C112536   1.954   3.856  14.626  0.4020  0.2003  0.2274
  850MPD2    C212537   2.071   3.853  14.704  0.8699 -0.5150  0.8151
  850MPD2    C312538   2.199   3.841  14.654 -0.4265  0.7865  0.1109
  850MPD2    C412539   2.207   3.830  14.518  0.2180 -1.1988 -0.7434
  850MPD2    C512540   2.094   3.824  14.435  0.5546 -0.1967  0.8034
  850MPD2     H12541   2.052   3.875  14.809  0.0137 -2.0773  0.9763
  850MPD2    H112542   2.302   3.830  14.465 -0.4700 -1.1560 -1.9782
  850MPD2    H212543   1.885   3.849  14.418 -0.9685 -1.1942  1.1634
  850MPD2    H312544   2.110   3.813  14.328 -0.5379 -2.2452  0.8509
  850MPD2     N12545   2.312   3.826  14.735 -0.0183 -0.6289  0.5846
  850MPD2    H512546   2.398   3.845  14.683  0.1898 -0.9572  0.8116
  850MPD2    N112547   1.819   3.863  14.668  0.2877  0.0034  0.7820
  850MPD2    H712548   1.754   3.877  14.591  0.2247 -1.5009  0.5563
  851MPD2     C12549   2.250   3.350  15.227 -0.9559  0.0391  0.1411
  851MPD2    C112550   2.172   3.353  15.113  0.5884  0.8314 -0.1466
  851MPD2    C212551   2.185   3.243  15.020  0.3918 -0.0241 -0.8626
  851MPD2    C312552   2.255   3.129  15.058  0.8800  0.3847 -0.1102
  851MPD2    C412553   2.319   3.127  15.183 -0.6159  0.4213 -0.3826
  851MPD2    C512554   2.316   3.234  15.265 -0.6029 -0.7252  0.2458
  851MPD2     H12555   2.121   3.238  14.933 -1.5750 -0.7080  0.6368
  851MPD2    H112556   2.365   3.033  15.211 -0.0854  1.1100  1.1034
  851MPD2    H212557   2.255   3.441  15.286  1.0585 -0.0641  0.1384
  851MPD2    H312558   2.371   3.237  15.358  0.1762 -0.7987 -0.2117
  851MPD2     N12559   2.242   3.018  14.963 -0.3585  0.0090 -0.1143
  851MPD2    H512560   2.188   3.037  14.879  0.8531 -0.4175 -0.9865
  851MPD2    N112561   2.094   3.468  15.091  0.0889  0.1606 -0.4644
  851MPD2    H712562   2.105   3.547  15.153  0.7880  0.2491 -0.7022
  852MPD2     C12563   2.208   1.638  10.492  0.2059 -0.6667  0.2721
  852MPD2    C112564   2.253   1.751  10.563  0.3094 -0.5090 -0.4256
  852MPD2    C212565   2.328   1.849  10.498  0.8448  0.1827  0.3397
  852MPD2    C312566   2.378   1.827  10.366  0.8599  0.3059  0.0715
  852MPD2    C412567   2.339   1.712  10.302 -0.2716 -0.0153  0.6799
  852MPD2    C512568   2.259   1.618  10.365 -0.4226 -0.4651 -0.0285
  852MPD2     H12569   2.356   1.941  10.548 -0.2585  0.8459 -0.2765
  852MPD2    H112570   2.361   1.692  10.197 -2.2970  1.4848 -0.0395
  852MPD2    H212571   2.131   1.575  10.536  0.4408 -1.0734  0.0947
  852MPD2    H312572   2.230   1.526  10.315 -0.1697 -1.4767  1.7121
  852MPD2     N12573   2.464   1.929  10.315  0.1458 -0.0515  0.1686
  852MPD2    H512574   2.472   2.008  10.377 -0.1757 -0.5797  0.8887
  852MPD2    N112575   2.215   1.782  10.696  1.0322  0.3977  0.4382
  852MPD2    H712576   2.260   1.860  10.742  3.2138 -0.0853 -0.8986
  853MPD2     C12577   3.700   0.808  12.162 -0.0832 -1.1037  0.6460
  853MPD2    C112578   3.672   0.939  12.119  0.0753 -0.2315  0.2637
  853MPD2    C212579   3.646   0.962  11.978 -0.2255 -0.6871  0.9800
  853MPD2    C312580   3.628   0.854  11.894  0.0156  0.4050  0.1455
  853MPD2    C412581   3.631   0.726  11.948 -0.3875 -0.1464 -0.0914
  853MPD2    C512582   3.663   0.702  12.078 -0.6526 -0.7001  0.5786
  853MPD2     H12583   3.630   1.062  11.938  1.7648 -1.5771 -2.0654
  853MPD2    H112584   3.612   0.643  11.881 -2.3543  0.1194  0.1278
  853MPD2    H212585   3.731   0.793  12.265 -0.7224 -1.2319  0.8214
  853MPD2    H312586   3.676   0.597  12.102 -0.2610 -1.3975 -2.7679
  853MPD2     N12587   3.608   0.869  11.751 -0.2476  0.2714 -0.5346
  853MPD2    H512588   3.606   0.783  11.697  0.1639 -0.6084  0.8288
  853MPD2    N112589   3.656   1.037  12.217  0.1617 -0.1559 -0.0338
  853MPD2    H712590   3.670   1.012  12.314  0.4427 -1.4733 -0.4163
  854MPD2     C12591   0.886   1.695  12.515 -0.0014  0.2545 -0.8993
  854MPD2    C112592   0.844   1.653  12.635 -0.2556 -0.3295 -0.1508
  854MPD2    C212593   0.864   1.524  12.679  0.1257  0.1386  0.4726
  854MPD2    C312594   0.928   1.428  12.604  0.0289 -0.4512 -0.5628
  854MPD2    C412595   0.949   1.465  12.473  0.5051  0.2196  0.0442
  854MPD2    C512596   0.937   1.596  12.431  0.3150 -0.5511  0.3059
  854MPD2     H12597   0.831   1.501  12.780  3.4426 -0.7224  1.3658
  854MPD2    H112598   0.988   1.392  12.402  2.7217 -0.2146  1.7192
  854MPD2    H212599   0.900   1.800  12.493  1.0583 -0.2070 -2.4422
  854MPD2    H312600   0.981   1.629  12.337 -0.5747  1.3684  0.5646
  854MPD2     N12601   0.981   1.303  12.643  0.2746 -0.6097 -0.7309
  854MPD2    H512602   1.033   1.254  12.571  1.4272 -0.8042  0.2207
  854MPD2    N112603   0.778   1.755  12.713  0.3589  0.2615  0.0700
  854MPD2    H712604   0.780   1.850  12.679 -0.1828  0.4653  0.6087
  855MPD2     C12605   1.410   1.112  13.511  0.2148 -0.4474  0.0892
  855MPD2    C112606   1.429   0.985  13.454  0.5150 -0.2227 -0.1445
  855MPD2    C212607   1.390   0.982  13.316 -0.2041  0.6692  0.6117
  855MPD2    C312608   1.328   1.088  13.252  0.7810 -0.4731  0.3842
  855MPD2    C412609   1.324   1.210  13.308 -0.7443 -0.1222  0.0140
  855MPD2    C512610   1.373   1.223  13.432  0.1123 -0.0107 -0.2280
  855MPD2     H12611   1.401   0.888  13.264  2.0649 -0.5288  3.2850
  855MPD2    H112612   1.292   1.298  13.254 -3.0900 -0.0577  1.4901
  855MPD2    H212613   1.447   1.136  13.610 -2.6958 -0.4529  1.1742
  855MPD2    H312614   1.375   1.324  13.472 -0.2015  0.2481 -0.8736
  855MPD2     N12615   1.268   1.077  13.125  0.3632  0.2988 -0.3916
  855MPD2    H512616   1.214   1.158  13.095 -0.4519 -0.6782 -1.5342
  855MPD2    N112617   1.468   0.871  13.527 -0.0488 -0.0340 -0.4170
  855MPD2    H712618   1.459   0.780  13.483 -0.2817 -0.0382 -0.3597
  856MPD2     C12619   3.261   1.895  13.338  0.1453  0.2049  0.0245
  856MPD2    C112620   3.298   2.024  13.319  0.2346 -0.7307 -0.0296
  856MPD2    C212621   3.215   2.120  13.256 -1.0484 -0.4724 -0.5245
  856MPD2    C312622   3.085   2.088  13.208 -0.0153  0.6992  0.2890
  856MPD2    C412623   3.045   1.954  13.225 -0.1764  0.2653  0.1928
  856MPD2    C512624   3.130   1.868  13.298  0.3644 -0.2401  0.2722
  856MPD2     H12625   3.256   2.220  13.260 -1.3245 -0.4298  1.2380
  856MPD2    H112626   2.948   1.922  13.189 -0.1946 -0.9149  1.2978
  856MPD2    H212627   3.328   1.823  13.384 -0.2277  0.4175  0.9022
  856MPD2    H312628   3.094   1.765  13.305  0.9444 -0.3869  1.0848
  856MPD2     N12629   2.992   2.190  13.174 -0.3901 -0.7481 -0.1278
  856MPD2    H512630   2.894   2.170  13.185 -0.7771  2.0002  1.5262
  856MPD2    N112631   3.419   2.075  13.375  0.5822  0.1261  0.3842
  856MPD2    H712632   3.437   2.173  13.360  2.1922 -0.3748 -0.8999
  857MPD2     C12633   4.470   0.211  12.414 -0.2158 -0.0398 -0.5414
  857MPD2    C112634   4.581   0.142  12.370  0.5476  0.0707 -0.0356
  857MPD2    C212635   4.695   0.145  12.450 -0.2282  0.2426 -0.3932
  857MPD2    C312636   4.700   0.216  12.573  0.4159  0.4504  0.2331
  857MPD2    C412637   4.591   0.297  12.601  0.6997  0.2459  1.0552
  857MPD2    C512638   4.475   0.286  12.529  1.0021 -0.0102  0.1489
  857MPD2     H12639   0.038   0.075  12.424 -2.3426 -1.4739 -2.1290
  857MPD2    H112640   4.579   0.365  12.685  0.5427  0.3882  0.9149
  857MPD2    H212641   4.379   0.216  12.356 -0.1131 -2.2900 -0.9145
  857MPD2    H312642   4.388   0.348  12.547  1.1846  0.1063  0.6419
  857MPD2     N12643   0.084   0.208  12.648 -0.3277 -0.3902 -0.4900
  857MPD2    H512644   0.157   0.154  12.602  1.0270  1.1294 -0.1229
  857MPD2    N112645   4.578   0.070  12.244 -0.7533  0.1792  0.0961
  857MPD2    H712646   4.494   0.074  12.186  0.8912  0.4517 -2.2684
  858MPD2     C12647   0.823   3.077  16.434  1.0361 -0.6418  0.2048
  858MPD2    C112648   0.769   2.955  16.427 -0.4337  0.6678  0.4870
  858MPD2    C212649   0.687   2.922  16.534  0.5917 -0.0867 -0.1740
  858MPD2    C312650   0.686   2.999  16.648 -0.0490 -0.6335 -0.4205
  858MPD2    C412651   0.756   3.114  16.654  0.1561 -0.4143 -0.0237
  858MPD2    C512652   0.823   3.158  16.543 -0.3553 -0.6408  0.4116
  858MPD2     H12653   0.622   2.836  16.522 -0.5597  0.8656 -0.8067
  858MPD2    H112654   0.750   3.178  16.741 -1.5031 -1.5310  0.6781
  858MPD2    H212655   0.883   3.111  16.350  0.3483  2.8712  1.1330
  858MPD2    H312656   0.886   3.246  16.551  0.3259 -1.0816 -0.1634
  858MPD2     N12657   0.591   2.991  16.752  0.7125  0.4787  0.1693
  858MPD2    H512658   0.593   3.053  16.832  3.1724  0.6093  0.0183
  858MPD2    N112659   0.772   2.875  16.312 -0.0092  0.2556 -0.0989
  858MPD2    H712660   0.709   2.796  16.310  1.7136 -1.0989 -0.9581
  859MPD2     C12661   4.027   0.525  15.332 -0.2046  0.2359 -0.7590
  859MPD2    C112662   4.062   0.500  15.196 -1.2144 -0.6766  0.2767
  859MPD2    C212663   4.033   0.375  15.145 -0.1893 -0.6599  0.1148
  859MPD2    C312664   3.980   0.271  15.225 -0.2056 -0.3227 -0.3124
  859MPD2    C412665   3.949   0.298  15.355 -0.7243  0.1374 -0.4520
  859MPD2    C512666   3.974   0.425  15.404  0.3835 -0.0750 -0.7730
  859MPD2     H12667   4.064   0.352  15.043 -1.4432  2.7180 -1.0223
  859MPD2    H112668   3.900   0.225  15.418  0.4090 -0.4080 -0.2210
  859MPD2    H212669   4.059   0.615  15.384  1.2912 -0.4403 -0.5076
  859MPD2    H312670   3.940   0.442  15.505  0.6473  0.4768 -0.7747
  859MPD2     N12671   3.976   0.134  15.182 -0.2795  0.2799 -0.3604
  859MPD2    H512672   3.956   0.066  15.255 -1.4094  0.2302 -0.7129
  859MPD2    N112673   4.119   0.608  15.123 -0.4220  0.2447  1.2229
  859MPD2    H712674   4.154   0.688  15.175  1.7408  0.4106 -0.4961
  860MPD2     C12675   2.040   1.356  11.261 -0.4665 -0.2007 -0.3292
  860MPD2    C112676   2.015   1.275  11.374  0.6563 -0.0514  0.0769
  860MPD2    C212677   1.902   1.296  11.452 -0.6512 -0.6463  0.0506
  860MPD2    C312678   1.817   1.401  11.421  0.6485 -0.3137  0.6214
  860MPD2    C412679   1.830   1.472  11.302 -0.6063  0.1101  0.7110
  860MPD2    C512680   1.942   1.446  11.224 -1.3473 -0.3447  0.0281
  860MPD2     H12681   1.885   1.233  11.539 -1.5116 -0.3259  0.1166
  860MPD2    H112682   1.754   1.539  11.264 -1.7782 -0.4898  2.0247
  860MPD2    H212683   2.132   1.351  11.204  1.1829 -0.4064  2.3648
  860MPD2    H312684   1.959   1.504  11.135  0.6855 -1.3403 -0.2434
  860MPD2     N12685   1.718   1.418  11.515  0.5967  0.7862 -0.6257
  860MPD2    H512686   1.710   1.342  11.581  0.6489  1.7150  0.4607
  860MPD2    N112687   2.113   1.181  11.432  0.4135 -0.4252  0.1095
  860MPD2    H712688   2.074   1.138  11.515  2.6963 -2.2773  0.2110
  861MPD2     C12689   0.572   3.979  11.057  0.0109  0.6165  0.1039
  861MPD2    C112690   0.610   4.106  11.017 -0.3027  0.1243 -0.5731
  861MPD2    C212691   0.570   4.150  10.889  0.4592  0.1246  0.2648
  861MPD2    C312692   0.485   4.075  10.809 -0.8325  0.2332  0.4381
  861MPD2    C412693   0.448   3.949  10.857  0.6447  0.8474 -1.5550
  861MPD2    C512694   0.490   3.902  10.980 -0.1620 -0.6402 -0.5404
  861MPD2     H12695   0.592   4.254  10.866 -0.4827  0.2252 -0.1586
  861MPD2    H112696   0.411   3.881  10.782 -0.6347  1.2581 -1.2869
  861MPD2    H212697   0.597   3.943  11.157  0.6098  0.3946 -0.1259
  861MPD2    H312698   0.450   3.810  11.020 -3.3188  1.4723  1.1440
  861MPD2     N12699   0.433   4.114  10.684 -0.0118 -0.1038  0.0735
  861MPD2    H512700   0.351   4.062  10.653 -0.5024  1.4934 -1.3225
  861MPD2    N112701   0.680   4.200  11.092  0.5093 -0.1553 -0.4317
  861MPD2    H712702   0.714   4.288  11.054 -0.4704  0.5754  0.3765
  862MPD2     C12703   4.643   3.917  10.249 -0.4308  0.0138 -0.1785
  862MPD2    C112704   4.709   3.918  10.367 -0.5088 -0.0272  0.0658
  862MPD2    C212705   4.692   3.808  10.455 -0.4066  0.2994  0.1015
  862MPD2    C312706   4.598   3.708  10.432  0.2855  1.0600 -0.3355
  862MPD2    C412707   4.529   3.709  10.315 -0.3702 -0.2570  0.6078
  862MPD2    C512708   4.552   3.812  10.228  1.1179 -0.4974 -0.1240
  862MPD2     H12709   0.006   3.814  10.551 -0.6947  0.8256  0.2152
  862MPD2    H112710   4.460   3.632  10.285 -1.2404  0.7833 -0.0663
  862MPD2    H212711   4.661   3.997  10.177 -0.0769 -0.5691 -0.7416
  862MPD2    H312712   4.499   3.817  10.134 -0.7707  0.8131  0.9924
  862MPD2     N12713   4.583   3.593  10.517  0.5504  0.0457  0.1722
  862MPD2    H512714   4.521   3.523  10.476 -0.4434 -0.1518  1.9821
  862MPD2    N112715   0.056   4.019  10.419 -0.6970 -0.3834  0.1296
  862MPD2    H712716   0.116   4.000  10.499 -0.8900  0.2910  0.4350
  863MPD2     C12717   3.676   1.770  16.361 -0.3120  0.0399  0.1288
  863MPD2    C112718   3.659   1.896  16.424 -0.2671  0.4238  0.3906
  863MPD2    C212719   3.713   1.911  16.554  0.2177 -0.1876  0.3290
  863MPD2    C312720   3.793   1.805  16.610  0.5166  0.3235  0.2584
  863MPD2    C412721   3.800   1.684  16.543  0.1460  0.8870  0.6942
  863MPD2    C512722   3.737   1.667  16.420  0.2433 -0.1296  0.4318
  863MPD2     H12723   3.719   2.008  16.602 -1.2089 -1.1111  2.3606
  863MPD2    H112724   3.859   1.600  16.577  0.8252  0.2312 -2.0974
  863MPD2    H212725   3.626   1.754  16.267  1.6814  0.7203 -1.0569
  863MPD2    H312726   3.747   1.572  16.367 -0.8540 -1.0457  1.8538
  863MPD2     N12727   3.852   1.811  16.738 -0.3487 -0.0261  0.3567
  863MPD2    H512728   3.908   1.731  16.767  0.6531 -0.1577 -1.9298
  863MPD2    N112729   3.587   1.994  16.354 -0.0118  0.2163  0.2384
  863MPD2    H712730   3.576   1.969  16.256 -1.8052  0.9369  0.2610
  864MPD2     C12731   4.149   3.252  17.428  0.6117 -0.4610 -0.1194
  864MPD2    C112732   4.178   3.238  17.300  0.3827  0.2973 -0.6085
  864MPD2    C212733   4.257   3.337  17.235 -0.0330 -0.2476  0.5188
  864MPD2    C312734   4.319   3.440  17.311  0.4700  0.0610  0.0491
  864MPD2    C412735   4.288   3.454  17.443  1.0337  0.0973  0.2707
  864MPD2    C512736   4.200   3.360  17.495  0.6061  0.3967 -0.2686
  864MPD2     H12737   4.262   3.327  17.128 -2.0485 -0.3484  0.4383
  864MPD2    H112738   4.320   3.539  17.502 -0.4436  0.6175  0.3237
  864MPD2    H212739   4.078   3.188  17.480  1.1793 -1.5881 -0.7293
  864MPD2    H312740   4.170   3.365  17.599  0.1666  0.7594 -0.4147
  864MPD2     N12741   4.405   3.537  17.251 -0.0743  0.4320  0.2255
  864MPD2    H512742   4.464   3.602  17.302  0.7056  1.6681 -2.2266
  864MPD2    N112743   4.117   3.129  17.229  0.3012 -0.2969  0.0273
  864MPD2    H712744   4.047   3.079  17.282  1.7262 -0.4990  1.7213
  865MPD2     C12745   4.163   3.860  16.359  0.1753 -0.3723 -0.2983
  865MPD2    C112746   4.260   3.763  16.394  0.4205  0.1933 -0.3978
  865MPD2    C212747   4.336   3.762  16.513 -0.0952  0.2679  0.2298
  865MPD2    C312748   4.324   3.865  16.609 -0.5992  0.3388 -0.4930
  865MPD2    C412749   4.228   3.963  16.578  0.2683 -0.5588  0.4138
  865MPD2    C512750   4.157   3.963  16.459 -0.0073 -0.2070  0.2751
  865MPD2     H12751   4.410   3.685  16.531  1.7815  1.8950 -0.5695
  865MPD2    H112752   4.212   4.047  16.645  1.5307 -0.6332  0.8204
  865MPD2    H212753   4.115   3.864  16.262  0.9120  1.7136 -0.5809
  865MPD2    H312754   4.084   4.042  16.448  0.4414  0.4785  2.1860
  865MPD2     N12755   4.405   3.874  16.723 -0.1118  0.2390  0.1850
  865MPD2    H512756   4.384   3.940  16.797  0.2561 -1.8787  2.1999
  865MPD2    N112757   4.286   3.653  16.302  0.4741 -0.3777 -0.4976
  865MPD2    H712758   4.255   3.659  16.205 -0.1200 -1.0675 -0.3552
  866MPD2     C12759   1.433   0.130  10.517  0.3083 -0.2465 -0.5217
  866MPD2    C112760   1.388   0.014  10.571  0.0450 -0.5363  0.7548
  866MPD2    C212761   1.258   0.004  10.618  0.2587  0.0977 -0.3314
  866MPD2    C312762   1.169   0.116  10.591  0.1231  0.5608 -0.0441
  866MPD2    C412763   1.216   0.225  10.524 -0.5378  0.5725 -0.6714
  866MPD2    C512764   1.343   0.228  10.481  0.1209  0.2821 -0.4283
  866MPD2     H12765   1.205   4.648  10.642  2.6444 -1.1433  0.1948
  866MPD2    H112766   1.157   0.310  10.491 -1.4903 -0.1540 -0.8537
  866MPD2    H212767   1.537   0.148  10.493  0.1103  0.1377 -1.0865
  866MPD2    H312768   1.382   0.311  10.423 -0.8826  0.6093 -0.6356
  866MPD2     N12769   1.028   0.111  10.620 -1.0100  0.1855 -1.0849
  866MPD2    H512770   0.973   0.193  10.596  0.8325  1.1814 -1.9219
  866MPD2    N112771   1.475   4.640  10.568 -0.0325 -0.3443 -0.1892
  866MPD2    H712772   1.562   4.645  10.516 -0.2932 -0.7130 -0.6637
  867MPD2     C12773   2.798   3.272  16.404  0.2480 -0.0434  0.5828
  867MPD2    C112774   2.862   3.242  16.525  0.1252 -0.7042  0.0272
  867MPD2    C212775   2.868   3.339  16.623  0.3457  1.1703  0.3518
  867MPD2    C312776   2.807   3.457  16.604 -0.2341  0.4996 -0.5127
  867MPD2    C412777   2.724   3.489  16.501  0.6061  0.3781  0.6356
  867MPD2    C512778   2.725   3.388  16.403  0.2011  0.3469 -0.1627
  867MPD2     H12779   2.931   3.327  16.710 -0.1056  0.2849  0.5477
  867MPD2    H112780   2.671   3.582  16.486 -1.0287 -0.5275  0.7809
  867MPD2    H212781   2.800   3.202  16.321 -0.3113  1.2379 -0.5089
  867MPD2    H312782   2.657   3.406  16.320 -0.7651  1.1411  0.7925
  867MPD2     N12783   2.829   3.568  16.686  0.1345  0.2828  0.2842
  867MPD2    H512784   2.784   3.656  16.665 -0.9818 -0.0281  1.3508
  867MPD2    N112785   2.941   3.126  16.531  0.1122 -0.0648 -0.1207
  867MPD2    H712786   2.964   3.070  16.450 -3.9005  0.5198 -1.6701
  868MPD2     C12787   4.578   3.357  13.266 -0.1622 -0.1920  0.5455
  868MPD2    C112788   4.667   3.286  13.349 -0.2050 -0.0804  1.1193
  868MPD2    C212789   4.619   3.220  13.461  0.4842 -0.1026  0.6520
  868MPD2    C312790   4.480   3.209  13.480  0.4307  0.8952 -0.2612
  868MPD2    C412791   4.395   3.270  13.391  0.1694 -0.1533  1.2092
  868MPD2    C512792   4.446   3.348  13.286  0.1595 -0.3797 -0.1266
  868MPD2     H12793   4.688   3.157  13.516 -0.6356 -1.1099  0.8870
  868MPD2    H112794   4.288   3.257  13.398 -0.2569  1.7907 -1.6210
  868MPD2    H212795   4.614   3.418  13.184 -3.7833 -1.0963 -1.7169
  868MPD2    H312796   4.383   3.413  13.226 -0.8061 -0.9766  0.2494
  868MPD2     N12797   4.440   3.106  13.568 -0.1880  0.0807  0.0575
  868MPD2    H512798   4.506   3.061  13.630 -0.7684  1.3679  1.6204
  868MPD2    N112799   0.068   3.277  13.309  0.4903 -0.5262  0.4876
  868MPD2    H712800   0.096   3.290  13.212  0.0170 -0.6184  0.3379
  869MPD2     C12801   0.763   0.578   0.116  0.2300 -0.1024  0.4482
  869MPD2    C112802   0.824   0.463   0.151  0.2915 -0.4744 -0.1015
  869MPD2    C212803   0.913   0.460   0.263  0.6828 -0.2986 -0.4475
  869MPD2    C312804   0.950   0.578   0.325  0.4333  0.1083 -0.6381
  869MPD2    C412805   0.905   0.697   0.268  0.3711  0.3585  0.1435
  869MPD2    C512806   0.810   0.698   0.167 -0.2759  0.3720 -0.2049
  869MPD2     H12807   0.944   0.363   0.300  1.4646  0.0440 -0.2148
  869MPD2    H112808   0.946   0.787   0.313 -1.3859  0.7059  1.0518
  869MPD2    H212809   0.682   0.563   0.046  1.1075  0.7261 -0.7394
  869MPD2    H312810   0.766   0.793   0.137 -0.2995  0.4806  0.1726
  869MPD2     N12811   1.053   0.583   0.423  0.1082  0.1984  0.0312
  869MPD2    H512812   1.076   0.680   0.445  1.5488 -0.9652  3.5178
  869MPD2    N112813   0.770   0.347   0.091  0.6599 -0.2190 -0.4043
  869MPD2    H712814   0.693   0.360   0.028  0.0345 -0.6045  0.2793
  870MPD2     C12815   0.946   3.215   1.281  0.9091 -0.3082 -0.4631
  870MPD2    C112816   1.014   3.320   1.225 -0.1966  0.6067 -0.3856
  870MPD2    C212817   0.951   3.437   1.213  0.0254  0.1595  0.2739
  870MPD2    C312818   0.830   3.462   1.271  0.9605  0.5589 -0.9372
  870MPD2    C412819   0.759   3.355   1.325  0.2681 -0.7969 -0.3646
  870MPD2    C512820   0.814   3.232   1.325 -0.4188  1.2065  0.2184
  870MPD2     H12821   1.008   3.523   1.181 -0.1672 -0.0787 -0.6906
  870MPD2    H112822   0.661   3.365   1.372  0.4796 -0.2430 -0.0422
  870MPD2    H212823   0.995   3.119   1.292 -0.1926 -0.7948  0.1969
  870MPD2    H312824   0.762   3.142   1.357 -1.4299  1.0422 -1.8913
  870MPD2     N12825   0.781   3.597   1.267  0.4587  0.7764 -0.1479
  870MPD2    H512826   0.837   3.667   1.220  0.6339  1.1063  0.5562
  870MPD2    N112827   1.150   3.299   1.184  0.7284  0.3451 -0.1178
  870MPD2    H712828   1.186   3.204   1.185 -1.2198 -0.3802  0.2836
  871MPD2     C12829   1.190   3.711  15.957  0.0462  0.5009 -0.2537
  871MPD2    C112830   1.202   3.673  16.083  0.1105 -0.2970 -0.4024
  871MPD2    C212831   1.287   3.563  16.103 -0.1385 -0.0330  0.2299
  871MPD2    C312832   1.371   3.514  16.013 -0.5914  0.4221  0.4338
  871MPD2    C412833   1.361   3.559  15.885 -0.3725  0.3550  0.2008
  871MPD2    C512834   1.268   3.656  15.851 -0.3375  0.0932  0.3295
  871MPD2     H12835   1.299   3.517  16.201 -0.9649  0.0894  0.3905
  871MPD2    H112836   1.427   3.515  15.812 -1.4130  1.2279 -1.2495
  871MPD2    H212837   1.109   3.780  15.936 -0.0661  0.5583  0.3624
  871MPD2    H312838   1.261   3.693  15.750  0.3525  0.2986  0.3606
  871MPD2     N12839   1.465   3.418  16.049  0.0341 -0.0549  0.1279
  871MPD2    H512840   1.449   3.369  16.136 -0.0860 -0.4771 -0.1278
  871MPD2    N112841   1.126   3.740  16.183 -0.3463 -0.2483  0.1679
  871MPD2    H712842   1.075   3.821  16.148  0.5426  0.1446 -0.2348
  872MPD2     C12843   3.122   1.103  13.836 -0.9021 -0.4346 -0.3914
  872MPD2    C112844   3.093   1.220  13.770  0.5791  0.3006 -0.9284
  872MPD2    C212845   2.965   1.273  13.802  0.4115 -0.9727 -0.4874
  872MPD2    C312846   2.888   1.212  13.900  0.3558  0.0018 -0.0920
  872MPD2    C412847   2.925   1.103  13.970  0.5578 -0.1348  0.4943
  872MPD2    C512848   3.042   1.045  13.934  0.8274  0.7244  0.1516
  872MPD2     H12849   2.950   1.378  13.779 -1.4085 -0.5136  2.7735
  872MPD2    H112850   2.863   1.063  14.050 -1.5936  1.4384 -0.3913
  872MPD2    H212851   3.218   1.053  13.825 -0.4232  0.7368 -1.5614
  872MPD2    H312852   3.078   0.964  13.996  0.3709  0.0656 -0.4418
  872MPD2     N12853   2.767   1.261  13.942 -0.1696  0.5398 -0.2758
  872MPD2    H512854   2.722   1.216  14.021  0.2169  1.4544  0.4653
  872MPD2    N112855   3.183   1.260  13.663 -0.4375 -0.1777  0.7598
  872MPD2    H712856   3.275   1.219  13.662  0.1160  1.1108 -0.3481
  873MPD2     C12857   0.213   0.641   1.114  1.0743 -0.4074  0.1443
  873MPD2    C112858   0.139   0.717   1.031  0.4016  0.7271 -0.2036
  873MPD2    C212859   0.148   0.694   0.892  0.6652 -0.1521  0.4591
  873MPD2    C312860   0.212   0.579   0.849  0.0810 -0.0507  0.5086
  873MPD2    C412861   0.285   0.505   0.941  0.4964 -0.2097  0.0296
  873MPD2    C512862   0.285   0.533   1.074  0.6555 -0.0867 -0.2037
  873MPD2     H12863   0.112   0.759   0.814 -0.1422  1.5185  2.2324
  873MPD2    H112864   0.329   0.411   0.911  0.9113 -0.1361  0.4060
  873MPD2    H212865   0.220   0.672   1.217 -2.1186  0.4191  0.1206
  873MPD2    H312866   0.338   0.472   1.146  1.6862  0.7084 -0.2945
  873MPD2     N12867   0.212   0.535   0.715 -0.2585  0.5036 -0.3206
  873MPD2    H512868   0.249   0.444   0.688 -1.3960  0.3010 -1.2099
  873MPD2    N112869   0.079   0.824   1.094 -0.0313  0.5606 -0.2343
  873MPD2    H712870   0.108   0.850   1.187  2.3849  1.5134 -1.2443
  874MPD2     C12871   4.258   1.094  15.804 -0.4753  0.6143  0.2437
  874MPD2    C112872   4.357   1.051  15.891 -0.0915 -0.4294 -0.4181
  874MPD2    C212873   4.490   1.094  15.867  0.3916 -0.0433  0.6323
  874MPD2    C312874   4.522   1.178  15.759 -0.3022  0.2281 -0.3802
  874MPD2    C412875   4.420   1.231  15.683  1.1874  0.2325  0.6129
  874MPD2    C512876   4.291   1.185  15.710 -0.5275 -0.6472 -0.1100
  874MPD2     H12877   4.569   1.070  15.938  2.8995  0.3715 -2.0158
  874MPD2    H112878   4.436   1.314  15.616  0.3277  0.6836  0.9702
  874MPD2    H212879   4.154   1.066  15.814  0.3956 -2.4707  0.6648
  874MPD2    H312880   4.214   1.224  15.644 -0.6100  0.4979  0.6630
  874MPD2     N12881   4.647   1.231  15.730  0.1610 -0.0280  0.2979
  874MPD2    H512882   4.666   1.303  15.661 -1.0725 -0.9390 -1.0153
  874MPD2    N112883   4.321   0.970  15.998  0.3694  0.5853  0.0992
  874MPD2    H712884   4.227   0.935  16.009  0.5038  0.3197  0.3934
  875MPD2     C12885   0.698   4.290  14.274 -0.7367 -0.2968  0.1211
  875MPD2    C112886   0.584   4.366  14.277 -0.2199  0.0155  0.4616
  875MPD2    C212887   0.554   4.439  14.390  0.3287  1.0320  0.1720
  875MPD2    C312888   0.640   4.445  14.499  0.8695 -0.4559 -0.2351
  875MPD2    C412889   0.761   4.380  14.490  0.9008 -0.0563  0.1300
  875MPD2    C512890   0.778   4.290  14.385 -0.6349  0.0050 -0.0358
  875MPD2     H12891   0.465   4.501  14.389 -1.7315 -1.9561 -0.8600
  875MPD2    H112892   0.823   4.374  14.579  0.5169 -1.7892  0.2895
  875MPD2    H212893   0.728   4.224  14.193  2.7278 -0.5230  1.5597
  875MPD2    H312894   0.863   4.223  14.389 -0.8064 -0.3306 -1.9699
  875MPD2     N12895   0.617   4.524  14.613 -0.6393  0.0621  0.3542
  875MPD2    H512896   0.692   4.519  14.681 -0.6329 -1.4538  0.2230
  875MPD2    N112897   0.498   4.365  14.164  0.7220 -0.1349  0.1784
  875MPD2    H712898   0.410   4.413  14.185  0.6374  0.6350 -1.9281
  876MPD2     C12899   4.703   0.723  15.992 -0.5001  0.5973 -0.3899
  876MPD2    C112900   4.628   0.711  15.878 -0.2149 -0.1952  0.2694
  876MPD2    C212901   4.534   0.608  15.868 -0.4571 -0.0852 -0.4063
  876MPD2    C312902   4.525   0.514  15.971 -0.0152 -0.7298  0.0091
  876MPD2    C412903   4.607   0.524  16.081  0.0223 -0.2045 -0.7207
  876MPD2    C512904   4.698   0.633  16.097  0.2001 -0.2193  0.7224
  876MPD2     H12905   4.468   0.600  15.783  0.6044 -1.1561 -1.1318
  876MPD2    H112906   4.591   0.472  16.175 -1.0674  1.1143 -0.1637
  876MPD2    H212907   0.024   0.813  16.016 -0.8607  0.9268 -0.7900
  876MPD2    H312908   0.016   0.654  16.189 -0.3263  0.4034  0.8925
  876MPD2     N12909   4.433   0.411  15.960  0.1062 -0.0593 -0.9690
  876MPD2    H512910   4.383   0.409  15.872 -0.1267 -2.5319 -0.7767
  876MPD2    N112911   4.651   0.802  15.770  0.4605  0.0725 -1.0372
  876MPD2    H712912   4.725   0.872  15.775 -1.5049  2.1647 -1.2177
  877MPD2     C12913   4.303   1.208  15.057  0.3750  1.2897 -0.5548
  877MPD2    C112914   4.432   1.228  15.087  0.5828 -0.3956  0.0787
  877MPD2    C212915   4.506   1.294  14.995 -0.8485  0.5797 -0.6586
  877MPD2    C312916   4.465   1.341  14.875 -0.4374  0.2328  0.2822
  877MPD2    C412917   4.331   1.324  14.853  0.6698 -0.1754  0.4840
  877MPD2    C512918   4.249   1.255  14.940 -0.5786 -0.0690 -0.0822
  877MPD2     H12919   4.611   1.303  15.022 -0.3952  0.1803 -2.2830
  877MPD2    H112920   4.280   1.357  14.764  0.1026 -3.4723 -0.4127
  877MPD2    H212921   4.238   1.152  15.122  2.2272  1.5067  1.4978
  877MPD2    H312922   4.144   1.241  14.919 -0.5304 -0.5140 -0.0309
  877MPD2     N12923   4.561   1.396  14.783 -0.1354  0.0177 -0.7700
  877MPD2    H512924   4.529   1.420  14.690  1.8107  0.2444 -1.3882
  877MPD2    N112925   4.495   1.188  15.202 -0.1913 -0.0527 -0.1258
  877MPD2    H712926   4.588   1.225  15.219  0.5027 -1.3650 -1.1447
  878MPD2     C12927   4.042   0.363  13.064  0.1746 -0.3087  0.2971
  878MPD2    C112928   4.102   0.466  12.998 -0.1291  0.2773 -0.0941
  878MPD2    C212929   4.138   0.572  13.076 -0.1416  0.4677  0.6946
  878MPD2    C312930   4.131   0.568  13.216 -0.6324 -0.6811 -0.4425
  878MPD2    C412931   4.087   0.457  13.274  0.0435  0.6839  0.1523
  878MPD2    C512932   4.024   0.361  13.200 -0.3116 -0.3338 -0.6823
  878MPD2     H12933   4.199   0.652  13.037  0.5244 -0.7105 -0.7203
  878MPD2    H112934   4.074   0.440  13.381  2.5727 -1.1009  0.1857
  878MPD2    H212935   4.017   0.270  13.013  0.9759 -1.6331  2.2829
  878MPD2    H312936   3.996   0.276  13.261 -0.8528  0.5852  0.3578
  878MPD2     N12937   4.179   0.680  13.287  0.4045 -1.1100 -0.3800
  878MPD2    H512938   4.212   0.761  13.234  2.5990 -2.0801 -0.5181
  878MPD2    N112939   4.118   0.468  12.861  0.1631  0.6489  0.4614
  878MPD2    H712940   4.115   0.380  12.811  1.7260 -0.3589  2.1844
  879MPD2     C12941   4.162   2.034  16.620 -0.5106  0.2572 -0.2378
  879MPD2    C112942   4.202   1.911  16.669 -1.0550 -0.2562  0.2648
  879MPD2    C212943   4.189   1.798  16.595 -1.1384  0.0136 -0.1097
  879MPD2    C312944   4.122   1.807  16.471 -0.7270 -0.3232 -0.8529
  879MPD2    C412945   4.077   1.930  16.426  0.6000 -0.8289 -0.1085
  879MPD2    C512946   4.096   2.046  16.499  0.5427  0.1402 -0.5618
  879MPD2     H12947   4.221   1.703  16.635 -0.9002  0.8706  1.7617
  879MPD2    H112948   4.019   1.935  16.335  2.2086 -0.2425 -1.1015
  879MPD2    H212949   4.172   2.120  16.685 -1.6194  1.1976 -1.3200
  879MPD2    H312950   4.063   2.144  16.467 -0.8461 -0.4295 -0.8416
  879MPD2     N12951   4.110   1.694  16.386  0.7465  0.2518 -0.5325
  879MPD2    H512952   4.077   1.707  16.291 -0.2115  1.0021 -0.1005
  879MPD2    N112953   4.256   1.915  16.798 -0.5756  0.1514  0.3953
  879MPD2    H712954   4.270   2.003  16.847 -0.2489  1.4221 -1.9765
  880MPD2     C12955   0.712   3.507  17.617  0.4246 -0.8631 -0.5168
  880MPD2    C112956   0.744   3.538   0.009  0.0454 -0.3272 -0.0235
  880MPD2    C212957   0.769   3.423   0.087  0.4081 -0.8126 -0.1788
  880MPD2    C312958   0.774   3.295   0.036  0.7066 -0.5079  0.2123
  880MPD2    C412959   0.744   3.273  17.648  0.1905  0.0551  0.1332
  880MPD2    C512960   0.703   3.379  17.571  0.1270  0.3163 -0.9532
  880MPD2     H12961   0.791   3.432   0.193  0.6744  1.0481 -0.3868
  880MPD2    H112962   0.740   3.173  17.607  2.6470  0.4982 -1.1566
  880MPD2    H212963   0.696   3.597  17.560 -2.0707 -0.1900  1.2019
  880MPD2    H312964   0.666   3.362  17.470 -0.7961 -2.2190 -0.1885
  880MPD2     N12965   0.814   3.193   0.125 -0.0347  0.0324 -0.4765
  880MPD2    H512966   0.817   3.210   0.225 -2.6541 -0.8945 -0.2455
  880MPD2    N112967   0.756   3.679   0.045  0.4373 -0.7641  0.3687
  880MPD2    H712968   0.730   3.748  17.717  1.7831  0.0371  0.6735
  881MPD2     C12969   1.029   4.649  17.592  0.5010 -0.1186 -0.3093
  881MPD2    C112970   1.002   4.539  17.520  0.6989  0.2840  0.6094
  881MPD2    C212971   0.943   4.430  17.586  0.4624  0.3669 -0.1788
  881MPD2    C312972   0.958   4.416  17.722 -0.4082  0.2745  0.1469
  881MPD2    C412973   1.006   4.521   0.055 -0.1616  0.0162 -0.1713
  881MPD2    C512974   1.036   4.641  17.731 -0.4259  0.9195  0.1536
  881MPD2     H12975   0.894   4.347  17.537 -0.3413 -0.0732  1.3754
  881MPD2    H112976   1.009   4.523   0.163 -1.5486 -1.3948 -0.1117
  881MPD2    H212977   1.062   0.001  17.537 -1.0439  1.2958  1.0159
  881MPD2    H312978   1.076   4.721   0.049 -0.0982  0.8190  0.0705
  881MPD2     N12979   0.911   4.307   0.057 -0.1849  0.5980  0.6120
  881MPD2    H512980   0.926   4.299   0.157 -1.8663 -1.6083  0.6751
  881MPD2    N112981   0.997   4.542  17.376  0.4254 -0.1697 -0.5616
  881MPD2    H712982   1.016   4.633  17.334  1.1572  0.1637  0.5048
  882MPD2     C12983   4.722   1.343  14.034  0.3895 -0.0385 -0.2720
  882MPD2    C112984   4.640   1.405  14.125 -0.1534 -0.5838  0.4360
  882MPD2    C212985   4.507   1.393  14.117  0.1188  0.0591  0.1592
  882MPD2    C312986   4.451   1.325  14.012 -0.8585 -1.1415  0.1269
  882MPD2    C412987   4.532   1.275  13.910  0.4383  0.4961  0.5240
  882MPD2    C512988   4.667   1.291  13.922  0.4636  0.1723  0.8144
  882MPD2     H12989   4.447   1.430  14.199  2.3829  0.2034  1.7241
  882MPD2    H112990   4.494   1.217  13.827  0.0342 -0.1950  1.1825
  882MPD2    H212991   0.094   1.343  14.032  0.4178  0.3126  0.9648
  882MPD2    H312992   0.001   1.245  13.852 -1.8318 -3.0179  0.6432
  882MPD2     N12993   4.307   1.301  13.997 -0.4233  0.2196 -0.3786
  882MPD2    H512994   4.280   1.271  13.904 -1.2153  3.4343 -1.1851
  882MPD2    N112995   4.715   1.461  14.233  0.1739  0.3612  0.0181
  882MPD2    H712996   0.076   1.429  14.232  0.5259  1.4242  2.5292
  883MPD2     C12997   1.702   1.114  15.494  0.0644  0.0336 -0.2484
  883MPD2    C112998   1.688   1.248  15.483 -0.3234  0.2950  0.8927
  883MPD2    C212999   1.770   1.327  15.564 -0.2317  0.0923 -0.1036
  883MPD2    C313000   1.873   1.274  15.639 -0.5417  0.6012 -0.5822
  883MPD2    C413001   1.887   1.136  15.641 -0.5538  0.1469  0.1061
  883MPD2    C513002   1.796   1.056  15.572  0.3902 -0.1098 -0.1867
  883MPD2     H13003   1.746   1.433  15.556 -1.0092  0.1815  3.4666
  883MPD2    H113004   1.968   1.086  15.692 -1.4399 -1.7399 -0.3382
  883MPD2    H213005   1.654   1.042  15.428 -0.7522  0.0368  0.3422
  883MPD2    H313006   1.800   0.948  15.564  1.8530 -0.1784  1.4929
  883MPD2     N13007   1.951   1.356  15.720  0.3441 -0.1450  0.3768
  883MPD2    H513008   1.922   1.453  15.732 -2.9248 -0.7752 -2.5417
  883MPD2    N113009   1.606   1.309  15.389 -0.0326 -0.5097 -0.1972
  883MPD2    H713010   1.625   1.409  15.379  0.2340 -0.4873  0.5765
  884MPD2     C13011   3.600   2.163  14.867  0.4769  0.3462  0.1708
  884MPD2    C113012   3.546   2.201  14.741  0.5770  0.3200  0.2283
  884MPD2    C213013   3.407   2.198  14.718  0.5708  0.1622  0.5373
  884MPD2    C313014   3.318   2.154  14.821 -0.3202  0.0443  0.0417
  884MPD2    C413015   3.371   2.112  14.944  0.6511 -0.4765  0.1660
  884MPD2    C513016   3.511   2.121  14.971 -0.5013 -1.0694 -0.9059
  884MPD2     H13017   3.372   2.220  14.618  1.8356 -0.6216 -0.0915
  884MPD2    H113018   3.306   2.071  15.020  2.8680 -3.3119  0.5404
  884MPD2    H213019   3.708   2.163  14.879  0.6087  0.4133 -0.9360
  884MPD2    H313020   3.549   2.095  15.069 -0.8800  1.2535 -0.1650
  884MPD2     N13021   3.177   2.160  14.790  0.2586 -0.6378 -0.9460
  884MPD2    H513022   3.143   2.163  14.694  0.7557  1.0932 -1.0687
  884MPD2    N113023   3.626   2.253  14.640  0.0973 -0.3903 -0.2313
  884MPD2    H713024   3.587   2.309  14.565 -2.7847 -0.2199  1.3666
  885MPD2     C13025   1.843   1.706  17.629  0.0130  0.2674  0.1581
  885MPD2    C113026   1.871   1.807  17.714  0.3495  0.2138 -0.3406
  885MPD2    C213027   1.820   1.932  17.686 -0.5750 -0.0729  0.0991
  885MPD2    C313028   1.751   1.954  17.575  0.4081  0.5314 -0.7881
  885MPD2    C413029   1.720   1.848  17.491  0.2694  0.5245 -0.0066
  885MPD2    C513030   1.769   1.717  17.519  0.0185  0.2546 -0.3456
  885MPD2     H13031   1.843   2.015   0.011  0.7241 -1.7708  1.8037
  885MPD2    H113032   1.679   1.876  17.394  1.3740  3.2076  0.2932
  885MPD2    H213033   1.881   1.606  17.651 -1.1841 -0.2599 -0.1695
  885MPD2    H313034   1.735   1.633  17.460 -0.7145 -0.3572  0.9540
  885MPD2     N13035   1.710   2.089  17.541  0.2618  0.6462  0.0436
  885MPD2    H513036   1.744   2.169  17.595 -2.0137 -0.8052  3.6767
  885MPD2    N113037   1.944   1.776   0.091  0.1177 -0.7386 -0.5274
  885MPD2    H713038   1.966   1.678   0.107 -1.4588 -0.4031  3.5106
  886MPD2     C13039   2.664   0.739  14.626  0.3886 -0.0910  0.4112
  886MPD2    C113040   2.747   0.789  14.726 -0.1320 -0.6023  0.2702
  886MPD2    C213041   2.869   0.854  14.693  0.0211  0.5703 -0.3366
  886MPD2    C313042   2.891   0.881  14.554 -0.2036 -0.9567 -0.1936
  886MPD2    C413043   2.803   0.829  14.453  0.1796 -0.0806  0.5593
  886MPD2    C513044   2.697   0.755  14.494  0.6225 -0.0483 -0.4856
  886MPD2     H13045   2.934   0.887  14.773 -3.7421 -0.5496  3.1866
  886MPD2    H113046   2.834   0.838  14.349 -0.9018  1.9825  0.4248
  886MPD2    H213047   2.583   0.670  14.646 -0.9702  2.2847  3.0930
  886MPD2    H313048   2.639   0.701  14.419  2.1800 -1.4912 -0.6439
  886MPD2     N13049   3.008   0.954  14.510  0.7430 -0.8441  0.2359
  886MPD2    H513050   3.023   0.960  14.410  0.1323 -0.9387  0.1396
  886MPD2    N113051   2.716   0.753  14.857  0.5048 -0.8407 -0.7096
  886MPD2    H713052   2.630   0.702  14.877  0.7405 -1.4255 -1.2064
  887MPD2     C13053   3.110   0.690  15.463  0.0953  0.0083  0.0797
  887MPD2    C113054   3.050   0.797  15.410  0.2685  0.3202 -0.1530
  887MPD2    C213055   3.124   0.903  15.361  0.2625  0.1640  0.0284
  887MPD2    C313056   3.262   0.907  15.390  0.0989  0.0621  0.4483
  887MPD2    C413057   3.322   0.797  15.442  0.0946 -1.4601 -0.2051
  887MPD2    C513058   3.244   0.690  15.487  0.3513 -0.5635 -0.3378
  887MPD2     H13059   3.068   0.985  15.318  1.9175  0.7189 -1.0593
  887MPD2    H113060   3.428   0.790  15.460 -0.3635 -0.4574  2.8910
  887MPD2    H213061   3.050   0.603  15.489 -0.7878  0.2950 -0.9792
  887MPD2    H313062   3.291   0.604  15.533  1.0145 -0.5364 -0.9577
  887MPD2     N13063   3.339   1.026  15.354  0.2451 -0.5188  0.3854
  887MPD2    H513064   3.287   1.104  15.315 -1.0110 -0.7450  1.5922
  887MPD2    N113065   2.915   0.807  15.371  0.7683 -0.1221 -0.5738
  887MPD2    H713066   2.903   0.891  15.315  0.7655  0.1237 -0.2009
  888MPD2     C13067   0.891   0.727  14.986  0.0406  0.3398 -0.0172
  888MPD2    C113068   0.785   0.795  15.038  0.0966 -0.4360 -0.0628
  888MPD2    C213069   0.786   0.931  15.059  0.4666  0.2039  0.4084
  888MPD2    C313070   0.897   1.001  15.014  0.1808 -0.8233 -0.1326
  888MPD2    C413071   1.006   0.942  14.960 -0.5151 -0.6560  0.7035
  888MPD2    C513072   0.999   0.805  14.941 -0.0678 -0.4341 -0.0785
  888MPD2     H13073   0.702   0.984  15.102  0.5079 -0.3380  1.1690
  888MPD2    H113074   1.092   1.001  14.930 -1.2977  0.6288  1.0133
  888MPD2    H213075   0.894   0.621  14.965 -4.2295  0.3161 -0.6156
  888MPD2    H313076   1.086   0.758  14.896 -0.0302 -0.3239 -0.1222
  888MPD2     N13077   0.893   1.139  15.023  0.2984  0.1125 -0.4089
  888MPD2    H513078   0.803   1.186  15.027  0.4207  0.0972  2.1894
  888MPD2    N113079   0.669   0.723  15.061  0.0211 -0.6244  0.1922
  888MPD2    H713080   0.592   0.772  15.106  0.0370  0.6257 -1.1707
  889MPD2     C13081   0.630   0.686  12.374 -0.7306 -0.2859 -0.3771
  889MPD2    C113082   0.589   0.695  12.505  0.8336 -0.8233  0.5678
  889MPD2    C213083   0.608   0.814  12.568 -0.0470  0.7540  0.1803
  889MPD2    C313084   0.642   0.931  12.506  0.1022 -0.0655 -0.3280
  889MPD2    C413085   0.673   0.924  12.372 -0.3485  0.0910  0.1945
  889MPD2    C513086   0.668   0.799  12.313  0.5288  0.7516  0.3508
  889MPD2     H13087   0.579   0.825  12.672 -0.2464 -2.3070  0.4486
  889MPD2    H113088   0.692   1.014  12.314 -1.9036  0.3473  0.0832
  889MPD2    H213089   0.631   0.594  12.317 -2.3501  0.2474 -1.2530
  889MPD2    H313090   0.697   0.781  12.210 -1.6707  1.5735 -0.4234
  889MPD2     N13091   0.639   1.053  12.574  0.7820  0.7793 -0.7558
  889MPD2    H513092   0.594   1.055  12.665  1.0967 -1.6093 -0.5441
  889MPD2    N113093   0.560   0.575  12.571 -0.0109 -0.1647 -0.4292
  889MPD2    H713094   0.571   0.488  12.520  1.0291 -1.5689  2.1771
  890MPD2     C13095   4.202   2.206  14.247  0.0045 -0.1552  0.0821
  890MPD2    C113096   4.322   2.242  14.308  0.2523 -0.2653  0.0737
  890MPD2    C213097   4.382   2.167  14.408 -1.0974  0.0752  0.4842
  890MPD2    C313098   4.319   2.048  14.448 -0.1289 -0.5117 -0.0108
  890MPD2    C413099   4.210   2.008  14.371 -0.7306 -0.4234  0.1380
  890MPD2    C513100   4.147   2.086  14.275 -0.8103  0.1047  0.4518
  890MPD2     H13101   4.478   2.192  14.452 -0.1195  1.1355 -2.2357
  890MPD2    H113102   4.161   1.915  14.398 -2.9164  1.3638  2.3911
  890MPD2    H213103   4.157   2.262  14.165  1.1782  0.0071 -0.4538
  890MPD2    H313104   4.060   2.044  14.226 -0.6894 -1.0261  1.2018
  890MPD2     N13105   4.380   1.971  14.547 -0.1854 -0.1602 -0.0855
  890MPD2    H513106   4.467   2.005  14.588 -1.0553  2.5928 -0.5348
  890MPD2    N113107   4.384   2.364  14.270 -0.5550  0.0716 -0.5115
  890MPD2    H713108   4.342   2.428  14.203  0.4635 -0.2027 -1.4189
  891MPD2     C13109   2.266   1.174  16.315 -0.0978 -0.0228  0.7968
  891MPD2    C113110   2.293   1.040  16.339  0.2459 -0.6258  0.5155
  891MPD2    C213111   2.391   1.002  16.423  0.0737 -0.3977 -0.6514
  891MPD2    C313112   2.472   1.099  16.479 -0.1602  0.4975  0.8261
  891MPD2    C413113   2.438   1.229  16.466  0.2178  0.4038  0.1868
  891MPD2    C513114   2.337   1.274  16.374 -0.0047 -0.0058 -0.5040
  891MPD2     H13115   2.408   0.901  16.460  3.1400 -0.0548 -1.1207
  891MPD2    H113116   2.480   1.314  16.519  1.4012 -0.5621  0.7760
  891MPD2    H213117   2.197   1.219  16.244 -3.1800 -1.8998  2.6459
  891MPD2    H313118   2.324   1.381  16.363 -1.2682 -0.2210 -1.0782
  891MPD2     N13119   2.571   1.054  16.569 -0.0514 -0.3462  0.0344
  891MPD2    H513120   2.591   0.957  16.551  1.3904 -0.0851  0.2290
  891MPD2    N113121   2.192   0.948  16.296  0.8238  0.2393 -0.4406
  891MPD2    H713122   2.126   0.973  16.223  0.6147  0.1382 -0.2860
  892MPD2     C13123   3.498   1.471  14.607 -0.5234 -0.3626 -0.3173
  892MPD2    C113124   3.449   1.480  14.474  0.7284  0.2798 -0.1174
  892MPD2    C213125   3.541   1.458  14.373 -0.3897  0.0117  0.1024
  892MPD2    C313126   3.674   1.410  14.395  0.1416  0.5252  0.0050
  892MPD2    C413127   3.710   1.387  14.525  0.4886 -0.0516  0.6112
  892MPD2    C513128   3.626   1.432  14.624  0.2246  0.3126 -0.3207
  892MPD2     H13129   3.504   1.476  14.272  0.5408 -2.5086 -0.6829
  892MPD2    H113130   3.805   1.345  14.556  0.1667 -2.5725 -1.7772
  892MPD2    H213131   3.433   1.493  14.691  2.5487 -0.3621  2.0796
  892MPD2    H313132   3.658   1.420  14.727 -2.5315 -0.3057  0.4647
  892MPD2     N13133   3.769   1.376  14.299  0.4991  0.5434 -0.5567
  892MPD2    H513134   3.868   1.370  14.318  0.7424  1.3957 -1.5106
  892MPD2    N113135   3.320   1.524  14.438 -0.4460  0.4755  0.2884
  892MPD2    H713136   3.309   1.556  14.342  2.9940  1.6065  0.2735
  893MPD2     C13137   0.259   4.070   1.314 -0.0776 -0.3173 -0.0714
  893MPD2    C113138   0.308   4.045   1.189 -0.9352 -0.4505 -0.1189
  893MPD2    C213139   0.322   3.913   1.151 -0.2805  0.1955  0.1576
  893MPD2    C313140   0.288   3.811   1.241 -0.6143 -0.7982  0.6160
  893MPD2    C413141   0.229   3.832   1.362 -0.2587  0.0220  0.8396
  893MPD2    C513142   0.214   3.967   1.398 -0.4005  0.4253  0.0388
  893MPD2     H13143   0.354   3.887   1.051 -0.1717  0.9537 -0.0065
  893MPD2    H113144   0.200   3.758   1.436 -1.2912  2.0057  2.4197
  893MPD2    H213145   0.236   4.167   1.356  1.8192 -0.4660  1.3193
  893MPD2    H313146   0.178   3.997   1.495  0.9814  0.5533  0.5100
  893MPD2     N13147   0.299   3.673   1.202 -0.1497  0.0615 -0.0735
  893MPD2    H513148   0.270   3.599   1.265  0.0868  1.0907  1.2592
  893MPD2    N113149   0.346   4.159   1.105  0.1955  0.2497 -0.6476
  893MPD2    H713150   0.338   4.251   1.148  1.1885 -0.4212  0.9882
  894MPD2     C13151   3.047   3.200   1.234  0.2378  0.1836 -0.2443
  894MPD2    C113152   3.034   3.065   1.242  0.2075 -0.1637  0.3486
  894MPD2    C213153   3.118   2.989   1.164 -0.5054 -0.3499 -0.0249
  894MPD2    C313154   3.217   3.042   1.080  0.3041  0.0094 -0.0265
  894MPD2    C413155   3.225   3.181   1.075  0.3532  0.5260  0.2633
  894MPD2    C513156   3.141   3.256   1.153  0.3324 -0.1466 -0.6990
  894MPD2     H13157   3.108   2.881   1.159 -1.3006 -0.3306  1.1081
  894MPD2    H113158   3.284   3.238   1.004 -1.0507  3.4903  1.4520
  894MPD2    H213159   2.981   3.269   1.285  0.6718 -0.5833  1.3615
  894MPD2    H313160   3.161   3.362   1.146 -1.5576  0.1668 -1.4243
  894MPD2     N13161   3.297   2.953   1.010  0.5161 -1.0355 -0.2363
  894MPD2    H513162   3.277   2.853   1.010 -1.6258 -0.5967 -2.2363
  894MPD2    N113163   2.928   3.004   1.307  0.1301  0.2278  0.3880
  894MPD2    H713164   2.916   2.910   1.271 -0.7711  0.3537  0.3661
  895MPD2     C13165   2.785   1.229  13.196 -0.2830  0.5594  0.2564
  895MPD2    C113166   2.683   1.221  13.107  1.0066 -0.4749 -0.1579
  895MPD2    C213167   2.666   1.107  13.034  0.0193  0.0265  0.8590
  895MPD2    C313168   2.740   0.994  13.062  0.3028  0.3142 -0.2206
  895MPD2    C413169   2.846   1.001  13.155  0.4192 -0.0745  0.5977
  895MPD2    C513170   2.878   1.126  13.204 -0.1815 -0.2589 -0.2958
  895MPD2     H13171   2.581   1.115  12.966 -0.0031  0.4360  0.9364
  895MPD2    H113172   2.916   0.919  13.170 -0.7992 -1.4443 -1.1829
  895MPD2    H213173   2.813   1.323  13.243  0.4873 -0.2504  1.4533
  895MPD2    H313174   2.965   1.145  13.266 -1.2937 -0.6812  1.3889
  895MPD2     N13175   2.710   0.859  13.015  0.6906 -0.0616 -0.2846
  895MPD2    H513176   2.771   0.786  13.051 -0.1880 -0.6614 -0.0408
  895MPD2    N113177   2.592   1.328  13.089 -0.4083 -0.0745 -0.2161
  895MPD2    H713178   2.525   1.310  13.015 -1.0746 -3.1051  1.1319
  896MPD2     C13179   0.421   3.092   1.201 -0.6149 -0.5050  0.5313
  896MPD2    C113180   0.357   3.002   1.115  0.5007 -0.3105  0.9092
  896MPD2    C213181   0.237   2.956   1.165 -0.1988 -0.0949 -0.7841
  896MPD2    C313182   0.186   2.987   1.292 -0.6374 -0.5910 -0.0978
  896MPD2    C413183   0.257   3.076   1.369 -0.4024  0.1405 -0.5700
  896MPD2    C513184   0.372   3.130   1.324  0.7035 -0.3178 -0.2762
  896MPD2     H13185   0.185   2.876   1.112  0.0532 -1.8917  1.6753
  896MPD2    H113186   0.205   3.108   1.459  0.2995 -0.0621 -0.0878
  896MPD2    H213187   0.514   3.127   1.157 -0.0522  0.8416  2.8161
  896MPD2    H313188   0.421   3.208   1.381  0.8310 -1.1726  0.7795
  896MPD2     N13189   0.063   2.928   1.328 -0.0731  0.3717  0.1874
  896MPD2    H513190   0.017   2.882   1.250 -2.3792  1.2478  0.9983
  896MPD2    N113191   0.417   2.970   0.996  0.0824  0.7538  0.5542
  896MPD2    H713192   0.517   2.992   0.996  0.4018 -0.7016 -2.0523
  897MPD2     C13193   1.110   0.883   9.968 -0.6811 -0.1883  0.1544
  897MPD2    C113194   1.052   0.996  10.020  0.2788  0.3394 -0.3643
  897MPD2    C213195   0.957   0.989  10.121 -0.0721  0.3320  0.3369
  897MPD2    C313196   0.941   0.873  10.192  0.2337 -0.1705 -0.1373
  897MPD2    C413197   1.003   0.761  10.146 -0.7284 -0.3786  0.1235
  897MPD2    C513198   1.083   0.764  10.037  0.1151 -0.3230  0.6293
  897MPD2     H13199   0.921   1.082  10.162  0.1609  0.9609 -0.8741
  897MPD2    H113200   0.975   0.667  10.192 -1.8754 -0.2884 -0.4079
  897MPD2    H213201   1.169   0.887   9.878  0.9583 -0.6047  1.2080
  897MPD2    H313202   1.128   0.674   9.994  0.2699  0.7029 -1.3761
  897MPD2     N13203   0.861   0.878  10.309  0.2078 -0.2100 -0.1154
  897MPD2    H513204   0.810   0.964  10.323  0.5475  0.0416 -0.4296
  897MPD2    N113205   1.079   1.116   9.952  0.4471  0.1150  0.7878
  897MPD2    H713206   1.118   1.109   9.859 -0.3174 -0.4231  0.5117
  898MPD2     C13207   3.581   0.961  17.014  0.5469 -0.4618  0.0901
  898MPD2    C113208   3.576   0.925  17.146 -0.4708  0.8336 -0.1505
  898MPD2    C213209   3.515   1.011  17.239 -0.0272 -0.9985 -0.3474
  898MPD2    C313210   3.492   1.147  17.207  1.0944 -0.0305  0.2408
  898MPD2    C413211   3.517   1.186  17.074 -0.3633 -0.0962 -0.9425
  898MPD2    C513212   3.542   1.091  16.976  0.5824 -0.1400  0.1281
  898MPD2     H13213   3.504   0.985  17.343  0.8702 -1.6303 -0.4103
  898MPD2    H113214   3.499   1.286  17.037 -2.3879 -0.6031 -1.3221
  898MPD2    H213215   3.618   0.896  16.935 -0.0393 -0.2000 -0.3922
  898MPD2    H313216   3.557   1.128  16.876 -0.6367 -0.7616 -0.2729
  898MPD2     N13217   3.440   1.242  17.303 -0.1475  0.6481 -0.0093
  898MPD2    H513218   3.427   1.215  17.400  3.2744 -1.7500 -0.2295
  898MPD2    N113219   3.608   0.797  17.192 -0.1182  0.5458  0.6405
  898MPD2    H713220   3.598   0.782  17.292  0.4601  0.8677  0.7430
  899MPD2     C13221   3.906   1.313  17.035  0.2944  0.3763  0.3732
  899MPD2    C113222   3.936   1.403  17.133 -0.1901  0.5494 -0.2150
  899MPD2    C213223   3.931   1.363  17.265  0.2343  0.1363  0.1805
  899MPD2    C313224   3.871   1.239  17.293 -0.3763 -0.0443  0.6476
  899MPD2    C413225   3.850   1.144  17.192 -0.1044 -0.2819  0.7566
  899MPD2    C513226   3.865   1.184  17.064  0.3460 -0.5104 -0.0638
  899MPD2     H13227   3.957   1.426  17.349 -0.3798  0.3148  0.2386
  899MPD2    H113228   3.812   1.044  17.209  2.2325 -0.8852  2.5742
  899MPD2    H213229   3.909   1.348  16.933  0.0251 -0.6792  0.0131
  899MPD2    H313230   3.831   1.108  16.996  1.9128 -0.8012 -0.5085
  899MPD2     N13231   3.863   1.187  17.425 -0.3866  0.0832  0.3567
  899MPD2    H513232   3.845   1.087  17.423  2.2375 -0.3509 -2.1281
  899MPD2    N113233   3.966   1.532  17.094  0.6108  0.3726  0.2735
  899MPD2    H713234   3.958   1.546  16.994  0.0085  0.8817  0.3963
  900MPD2     C13235   4.217   3.137  12.373 -0.3832  0.4590  0.1937
  900MPD2    C113236   4.090   3.089  12.377  0.3061  0.9437  0.1280
  900MPD2    C213237   3.982   3.161  12.350  0.6053  0.1694 -1.3965
  900MPD2    C313238   4.005   3.292  12.318  0.0213  0.3680  0.1630
  900MPD2    C413239   4.135   3.344  12.316  0.1559  0.4609 -0.4714
  900MPD2    C513240   4.240   3.264  12.329 -0.0928  0.6373 -0.1770
  900MPD2     H13241   3.884   3.119  12.331  2.3430 -3.3440 -2.7066
  900MPD2    H113242   4.145   3.449  12.289  0.2465  0.6222  0.2088
  900MPD2    H213243   4.304   3.078  12.401  2.3305  3.3670 -2.0992
  900MPD2    H313244   4.342   3.300  12.317  0.4251 -0.7141  0.2033
  900MPD2     N13245   3.886   3.367  12.286  0.3892 -0.0926 -0.1574
  900MPD2    H513246   3.799   3.315  12.290 -0.0681  0.7153  0.3968
  900MPD2    N113247   4.082   2.953  12.412 -0.2881 -1.0124 -0.5176
  900MPD2    H713248   4.170   2.903  12.406 -0.1854 -1.0049  1.0497
  901MPD2     C13249   3.588   1.986  12.604  0.5165 -0.0535  0.1748
  901MPD2    C113250   3.723   1.960  12.577 -0.1935  0.0128 -0.4155
  901MPD2    C213251   3.810   2.072  12.547  0.2140  0.2140  0.3255
  901MPD2    C313252   3.759   2.202  12.547  0.3186  0.1809 -0.2650
  901MPD2    C413253   3.627   2.226  12.587 -0.4376 -0.2525 -0.0643
  901MPD2    C513254   3.544   2.117  12.614  0.2084  0.4970  0.4419
  901MPD2     H13255   3.911   2.058  12.510  0.2577 -0.6364  0.7602
  901MPD2    H113256   3.586   2.325  12.605 -0.6532 -0.6635  1.6966
  901MPD2    H213257   3.519   1.904  12.619 -0.2384  0.4100 -0.7544
  901MPD2    H313258   3.439   2.141  12.627 -0.0802 -0.7714  0.4198
  901MPD2     N13259   3.838   2.305  12.502  0.3225  0.0368 -0.4781
  901MPD2    H513260   3.932   2.282  12.472  0.2310 -0.2094 -0.5782
  901MPD2    N113261   3.761   1.826  12.549 -0.3046 -0.5207  0.3115
  901MPD2    H713262   3.680   1.769  12.528 -0.8710  0.9780 -1.5254
  902MPD2     C13263   1.971   1.839  12.619  0.6016 -0.0112 -0.1744
  902MPD2    C113264   2.074   1.864  12.706 -0.1830  0.5555  0.3539
  902MPD2    C213265   2.209   1.829  12.675  0.7099 -0.3289  0.0965
  902MPD2    C313266   2.227   1.766  12.550 -0.1197 -0.0350 -0.5278
  902MPD2    C413267   2.120   1.746  12.468  0.3775  0.1739  0.3710
  902MPD2    C513268   1.998   1.782  12.496 -0.3526 -0.4223 -0.2498
  902MPD2     H13269   2.290   1.858  12.741 -0.9829  0.1714  1.9799
  902MPD2    H113270   2.134   1.699  12.371 -1.6605  0.7946 -0.2256
  902MPD2    H213271   1.874   1.881  12.644 -1.0144 -3.2115 -0.9576
  902MPD2    H313272   1.915   1.755  12.432 -1.0386 -0.4282  0.6368
  902MPD2     N13273   2.355   1.737  12.496 -0.0450 -0.2510 -0.5712
  902MPD2    H513274   2.356   1.707  12.399 -0.1475 -1.5808 -0.1584
  902MPD2    N113275   2.037   1.959  12.804  0.5131  0.1963 -0.3915
  902MPD2    H713276   1.966   2.025  12.771  0.0815  0.0309  0.2126
  903MPD2     C13277   2.930   1.502  11.875  0.0865 -0.5075  0.0101
  903MPD2    C113278   2.806   1.483  11.941  0.0906  0.1802  0.2640
  903MPD2    C213279   2.718   1.394  11.884 -0.2271 -0.1586  0.4819
  903MPD2    C313280   2.750   1.317  11.779 -0.2641  0.1270  0.0003
  903MPD2    C413281   2.872   1.332  11.720 -0.0629  0.4231 -0.2982
  903MPD2    C513282   2.956   1.423  11.768  0.2501  0.8361 -0.0723
  903MPD2     H13283   2.630   1.372  11.944 -0.1650  2.4074  1.4874
  903MPD2    H113284   2.898   1.283  11.627  0.0175  0.5319 -0.3330
  903MPD2    H213285   2.999   1.575  11.916  0.0465 -1.0801  1.1101
  903MPD2    H313286   3.052   1.437  11.719  1.0206 -1.7575  0.7052
  903MPD2     N13287   2.651   1.222  11.737  0.6829  0.2466 -0.0890
  903MPD2    H513288   2.569   1.210  11.796  1.6088 -0.0919  1.1356
  903MPD2    N113289   2.785   1.557  12.061 -0.1543  0.4388  0.5715
  903MPD2    H713290   2.861   1.621  12.080 -0.5464  1.4720 -1.3032
  904MPD2     C13291   1.971   0.436  13.915  0.7363  0.1022  0.1725
  904MPD2    C113292   2.083   0.505  13.863  0.0576 -0.5190  0.2221
  904MPD2    C213293   2.190   0.438  13.820  0.0281 -0.6392 -1.1506
  904MPD2    C313294   2.193   0.294  13.822  0.7722  0.7019  0.0923
  904MPD2    C413295   2.083   0.231  13.873 -0.1385 -0.6045 -0.8702
  904MPD2    C513296   1.982   0.295  13.931  0.1176 -0.2815  0.3734
  904MPD2     H13297   2.257   0.500  13.761 -0.6010 -1.2044 -2.4604
  904MPD2    H113298   2.068   0.124  13.884  0.5660 -0.7080 -0.8773
  904MPD2    H213299   1.879   0.478  13.954 -0.1275  0.1910 -1.9602
  904MPD2    H313300   1.911   0.231  13.982  1.4894  0.8932  3.6825
  904MPD2     N13301   2.300   0.220  13.767  0.0917 -0.5353  0.1237
  904MPD2    H513302   2.375   0.275  13.726  0.6444 -0.1038  1.7255
  904MPD2    N113303   2.088   0.647  13.851 -0.7205  0.5664  0.2231
  904MPD2    H713304   2.170   0.678  13.799 -1.1318  1.0922 -0.1136
  905MPD2     C13305   1.796   0.744  13.309  0.3612  0.6394 -0.0139
  905MPD2    C113306   1.920   0.795  13.348 -0.9073  0.3083 -0.1986
  905MPD2    C213307   2.029   0.744  13.279 -0.7430  0.3444  0.2284
  905MPD2    C313308   2.017   0.662  13.175 -0.3953  0.2229 -0.1112
  905MPD2    C413309   1.892   0.615  13.139  0.5187  0.3177 -0.6486
  905MPD2    C513310   1.783   0.657  13.208  0.4143  0.3614  0.8844
  905MPD2     H13311   2.129   0.772  13.312 -0.6080  0.0374  0.0784
  905MPD2    H113312   1.880   0.542  13.059 -1.1956  0.6515 -0.6885
  905MPD2    H213313   1.703   0.782  13.351 -0.8178 -0.4987 -1.6043
  905MPD2    H313314   1.687   0.643  13.161  1.3653 -0.9242 -0.6993
  905MPD2     N13315   2.134   0.623  13.106  0.0767  0.0520  0.5942
  905MPD2    H513316   2.134   0.554  13.031  0.2369 -1.2944  1.8227
  905MPD2    N113317   1.933   0.891  13.456 -0.2376 -0.5630  0.3254
  905MPD2    H713318   1.847   0.924  13.500  1.0182  2.1646  0.6790
  906MPD2     C13319   4.634   0.162  10.867  0.1279  0.3126  0.1669
  906MPD2    C113320   4.545   0.146  10.766  0.1362  0.3101 -0.1912
  906MPD2    C213321   4.475   0.029  10.759 -0.1890  0.2568 -0.2129
  906MPD2    C313322   4.490   4.663  10.850  0.4254  1.1732  0.6394
  906MPD2    C413323   4.588   4.679  10.949 -0.0005  0.6012  0.4586
  906MPD2    C513324   4.648   0.064  10.967 -0.8688  1.0158 -0.0639
  906MPD2     H13325   4.393   0.023  10.689  0.4111  0.9407 -0.9878
  906MPD2    H113326   4.606   4.602  11.024 -0.4387  1.9480  1.9523
  906MPD2    H213327   4.689   0.255  10.880  1.8628 -0.7850  0.6933
  906MPD2    H313328   4.720   0.074  11.047  0.7888 -3.5159 -0.9724
  906MPD2     N13329   4.412   4.544  10.857 -0.3792  0.1654  0.2860
  906MPD2    H513330   4.397   4.505  10.950 -0.3794  0.9161  0.5988
  906MPD2    N113331   4.515   0.248  10.675  0.2432  0.2515  0.3043
  906MPD2    H713332   4.455   0.230  10.595  2.2766  0.2782 -1.2262
  907MPD2     C13333   3.325   4.468  15.646 -0.8957 -0.0815  0.0495
  907MPD2    C113334   3.318   4.332  15.601 -0.0355  0.7245 -0.0041
  907MPD2    C213335   3.298   4.232  15.694  0.0802  0.0813 -0.0655
  907MPD2    C313336   3.305   4.263  15.829  0.1735  0.7893  0.5569
  907MPD2    C413337   3.311   4.394  15.868  0.2675  0.3947  0.2050
  907MPD2    C513338   3.317   4.498  15.778 -0.2604 -0.5196 -0.6086
  907MPD2     H13339   3.300   4.131  15.656  2.6987  0.2003 -0.2905
  907MPD2    H113340   3.308   4.417  15.974 -0.5764  0.7081  0.1125
  907MPD2    H213341   3.326   4.557  15.584  1.8289  0.0979  0.3327
  907MPD2    H313342   3.325   4.599  15.816  2.7256 -1.5107  1.3777
  907MPD2     N13343   3.317   4.154  15.919  0.1183  0.0093 -0.5992
  907MPD2    H513344   3.345   4.063  15.885  0.9649 -0.3538  1.0679
  907MPD2    N113345   3.316   4.301  15.463  0.1868 -0.4667 -0.3532
  907MPD2    H713346   3.307   4.202  15.441  0.2926 -0.6171  0.2734
  908MPD2     C13347   0.682   1.127   9.202  0.5682  0.0098 -0.4101
  908MPD2    C113348   0.725   1.032   9.291 -0.1209  0.8214 -0.1997
  908MPD2    C213349   0.815   1.082   9.384  0.0323  0.4272 -0.1712
  908MPD2    C313350   0.859   1.218   9.380  0.4840  0.2716 -0.7337
  908MPD2    C413351   0.806   1.309   9.288  0.8250  0.4618 -0.6987
  908MPD2    C513352   0.721   1.263   9.196  0.2890 -0.4191 -0.5901
  908MPD2     H13353   0.861   1.016   9.456 -3.3168 -1.9223 -0.2177
  908MPD2    H113354   0.833   1.414   9.299 -1.3586  0.9207  0.1720
  908MPD2    H213355   0.604   1.102   9.132  0.0028  2.8288 -0.7599
  908MPD2    H313356   0.670   1.324   9.122 -1.6720 -1.9699 -0.4869
  908MPD2     N13357   0.948   1.254   9.485  0.3576 -0.0348 -0.1432
  908MPD2    H513358   0.955   1.184   9.557 -3.4576 -0.6722 -0.3663
  908MPD2    N113359   0.673   0.904   9.286  0.1969  0.3791  0.1765
  908MPD2    H713360   0.606   0.871   9.217 -0.6247 -0.6658  1.4678
  909MPD2     C13361   1.287   3.441  11.388 -0.3674 -0.3019  1.0061
  909MPD2    C113362   1.403   3.506  11.426  0.3211 -0.1458 -0.0352
  909MPD2    C213363   1.419   3.568  11.545 -0.0506 -0.7407 -0.3389
  909MPD2    C313364   1.317   3.539  11.636  1.1058 -0.1028  0.1326
  909MPD2    C413365   1.201   3.465  11.603 -0.2306 -0.1409 -0.1636
  909MPD2    C513366   1.183   3.428  11.473 -0.6894 -0.9641  0.2579
  909MPD2     H13367   1.509   3.624  11.568 -1.7366  1.8216  0.0633
  909MPD2    H113368   1.118   3.450  11.671 -0.3871  0.5483 -0.1994
  909MPD2    H213369   1.279   3.392  11.292 -3.4301  1.3854  0.3966
  909MPD2    H313370   1.091   3.384  11.436 -0.4490 -0.6326 -0.7322
  909MPD2     N13371   1.327   3.595  11.763  0.7333 -0.0306 -0.1826
  909MPD2    H513372   1.403   3.659  11.782  1.0571 -1.0706  2.0683
  909MPD2    N113373   1.519   3.507  11.341  0.5151  0.4745  0.3838
  909MPD2    H713374   1.596   3.565  11.373 -0.2044  1.7246 -0.1550
  910MPD2     C13375   2.501   0.116  15.278  0.0249 -0.3984 -0.3659
  910MPD2    C113376   2.610   0.034  15.240  0.0778 -0.3883 -0.4291
  910MPD2    C213377   2.620   0.005  15.102  0.0211  0.2082 -0.4080
  910MPD2    C313378   2.536   0.064  15.012  0.0173  0.7726  0.3872
  910MPD2    C413379   2.431   0.144  15.049 -0.5056  0.5487  0.5145
  910MPD2    C513380   2.409   0.156  15.183  0.0803 -0.6852  0.4248
  910MPD2     H13381   2.684   4.659  15.071 -0.1504 -0.0741 -0.0225
  910MPD2    H113382   2.362   0.177  14.972  1.1705 -1.1000 -1.7023
  910MPD2    H213383   2.483   0.164  15.373 -1.6478 -1.9296  0.0827
  910MPD2    H313384   2.322   0.212  15.214  0.3339  0.1818 -0.4409
  910MPD2     N13385   2.550   0.033  14.875  0.5679  0.3682  0.6208
  910MPD2    H513386   2.475   0.067  14.816  0.7123 -1.8970 -0.8754
  910MPD2    N113387   2.699   4.713  15.333 -0.4466 -0.2279 -0.0274
  910MPD2    H713388   2.774   4.651  15.304 -1.3845 -0.4410 -2.0302
  911MPD2     C13389   0.665   0.154  16.037 -0.5972  0.5460  0.4379
  911MPD2    C113390   0.723   0.275  16.070 -0.4924 -0.0802 -0.7275
  911MPD2    C213391   0.668   0.399  16.043  0.3933  0.2641  0.4321
  911MPD2    C313392   0.546   0.397  15.983  0.2316  0.0433 -0.6423
  911MPD2    C413393   0.474   0.285  15.945 -0.1641 -0.3231  0.2672
  911MPD2    C513394   0.535   0.163  15.979  0.5695  0.0048  0.2722
  911MPD2     H13395   0.722   0.486  16.078  2.7224 -1.1667  0.4143
  911MPD2    H113396   0.371   0.299  15.913  0.4504 -0.4075 -1.7426
  911MPD2    H213397   0.706   0.059  16.068  0.4331  0.4230 -1.3015
  911MPD2    H313398   0.474   0.073  15.972  0.0591  0.4443 -0.8220
  911MPD2     N13399   0.488   0.522  15.933  0.1836  0.3222 -0.1347
  911MPD2    H513400   0.403   0.508  15.879 -0.3000  1.3826  0.3629
  911MPD2    N113401   0.846   0.254  16.138  0.4560 -0.1884 -0.7732
  911MPD2    H713402   0.883   0.160  16.135 -1.1839 -0.7682 -2.9360
  912MPD2     C13403   0.019   0.381  15.420  0.8534 -0.5404 -0.1265
  912MPD2    C113404   0.077   0.413  15.544  0.6392 -0.5284  0.1860
  912MPD2    C213405   0.033   0.333  15.652 -0.3301 -0.6230 -0.0622
  912MPD2    C313406   4.684   0.223  15.632  0.1714 -0.1024  0.1572
  912MPD2    C413407   4.634   0.185  15.507 -0.0640 -0.2352 -0.5042
  912MPD2    C513408   4.665   0.276  15.405  0.2169  0.5682 -0.0369
  912MPD2     H13409   0.060   0.356  15.755  0.7255 -0.3509 -0.3979
  912MPD2    H113410   4.565   0.104  15.486 -0.3341 -0.0659 -0.2646
  912MPD2    H213411   0.033   0.450  15.338  1.5134  1.0726  1.3685
  912MPD2    H313412   4.639   0.256  15.302 -0.3950  0.4934  0.1369
  912MPD2     N13413   4.660   0.140  15.741 -0.2655 -0.6759  0.1524
  912MPD2    H513414   4.706   0.166  15.828  2.5806 -0.6131 -1.3756
  912MPD2    N113415   0.158   0.534  15.553 -0.1941 -0.0324 -0.0283
  912MPD2    H713416   0.156   0.597  15.473 -0.2234 -1.6521 -1.3022
  913MPD2     C13417   1.154   2.600  10.842  0.4350 -0.6033 -0.2973
  913MPD2    C113418   1.184   2.508  10.752  0.3113  0.3276  0.2663
  913MPD2    C213419   1.162   2.543  10.615 -0.2410 -1.1786 -0.1414
  913MPD2    C313420   1.116   2.667  10.578 -0.2748 -0.9148  0.0491
  913MPD2    C413421   1.106   2.761  10.672  0.1802  0.1283  0.1021
  913MPD2    C513422   1.129   2.730  10.801 -0.3127  0.5482 -0.9610
  913MPD2     H13423   1.158   2.459  10.547 -2.0782 -0.2931 -1.1147
  913MPD2    H113424   1.093   2.867  10.653 -1.1601  0.1118  0.9206
  913MPD2    H213425   1.155   2.573  10.947 -0.9549  0.2807 -0.0674
  913MPD2    H313426   1.123   2.815  10.867 -1.3140  1.9065 -2.8174
  913MPD2     N13427   1.093   2.701  10.437 -0.1386  0.5786 -0.5439
  913MPD2    H513428   1.105   2.630  10.365 -1.8326  0.2690 -0.5247
  913MPD2    N113429   1.236   2.384  10.804 -0.6353  1.1446 -0.1668
  913MPD2    H713430   1.256   2.386  10.904  1.8047 -0.3638 -0.6138
  914MPD2     C13431   3.617   2.094  11.847 -0.5202  0.2759  0.2817
  914MPD2    C113432   3.692   2.135  11.951 -0.6029 -0.0937  0.5619
  914MPD2    C213433   3.762   2.043  12.021 -0.0893 -0.4376  0.0735
  914MPD2    C313434   3.746   1.903  12.003  0.5308 -0.0749 -0.2397
  914MPD2    C413435   3.667   1.860  11.900 -0.3431 -0.2361 -0.2643
  914MPD2    C513436   3.605   1.959  11.821 -0.2114  0.0571  0.0838
  914MPD2     H13437   3.837   2.067  12.095  0.8924 -1.6295 -0.5431
  914MPD2    H113438   3.650   1.758  11.870  1.2347 -0.0764 -1.6647
  914MPD2    H213439   3.551   2.158  11.790  1.3902  2.6233  0.7090
  914MPD2    H313440   3.540   1.921  11.743 -2.8453  3.6839  0.5144
  914MPD2     N13441   3.805   1.811  12.088 -0.6173  0.2020 -0.0083
  914MPD2    H513442   3.870   1.848  12.158 -0.4725  0.4415 -0.2689
  914MPD2    N113443   3.685   2.266  11.995 -0.0047 -0.1723  0.9463
  914MPD2    H713444   3.620   2.326  11.945 -1.0979 -1.1444  1.1850
  915MPD2     C13445   1.458   2.065  15.521  0.3672  0.1905  0.4821
  915MPD2    C113446   1.325   2.084  15.550  0.0378  0.1968  0.3185
  915MPD2    C213447   1.292   2.145  15.672 -0.4876 -0.6452  0.3315
  915MPD2    C313448   1.388   2.206  15.754 -0.1366 -0.3287  0.9998
  915MPD2    C413449   1.522   2.195  15.713  0.2275 -0.6004 -0.4322
  915MPD2    C513450   1.552   2.117  15.607 -0.6219 -0.5300  0.0415
  915MPD2     H13451   1.189   2.162  15.699 -0.8768  1.5650 -2.5258
  915MPD2    H113452   1.603   2.222  15.780  0.0710 -1.9158  0.3064
  915MPD2    H213453   1.501   2.008  15.439 -0.2031  1.1079 -0.4435
  915MPD2    H313454   1.652   2.100  15.568 -0.9075 -2.0228 -0.0582
  915MPD2     N13455   1.345   2.259  15.879 -0.0738 -0.2800  0.5398
  915MPD2    H513456   1.246   2.261  15.899  0.3154  3.3051  1.9975
  915MPD2    N113457   1.231   2.035  15.460 -0.2959 -0.9762  0.1044
  915MPD2    H713458   1.265   1.988  15.377  0.7502  2.7237 -1.5406
  916MPD2     C13459   4.291   0.324  15.412  0.4396 -0.0634  0.9285
  916MPD2    C113460   4.258   0.211  15.473 -0.1769 -0.5505 -0.7541
  916MPD2    C213461   4.287   0.089  15.410 -0.0466 -0.9759 -0.4828
  916MPD2    C313462   4.349   0.090  15.280 -0.6265 -0.1489 -0.0039
  916MPD2    C413463   4.379   0.214  15.218 -0.4552  0.5393  0.3527
  916MPD2    C513464   4.344   0.330  15.285  0.0981 -0.0308  0.2564
  916MPD2     H13465   4.271   4.735  15.469  0.4340 -0.8190 -0.1211
  916MPD2    H113466   4.440   0.218  15.129 -1.1859 -0.2504 -0.1850
  916MPD2    H213467   4.275   0.419  15.461 -0.0899  0.1348  0.3595
  916MPD2    H313468   4.361   0.421  15.231 -0.3376 -0.7094 -1.0190
  916MPD2     N13469   4.388   4.704  15.226  0.1038  0.3540 -0.7344
  916MPD2    H513470   4.383   4.624  15.288  2.2245  0.6960 -0.1244
  916MPD2    N113471   4.206   0.223  15.607 -0.0238 -0.5844  0.0336
  916MPD2    H713472   4.201   0.315  15.650 -1.9345 -1.4015  1.5520
  917MPD2     C13473   0.468   2.622  11.083  0.6006  0.2076 -0.2059
  917MPD2    C113474   0.495   2.626  11.217  0.1585  0.4262  0.3771
  917MPD2    C213475   0.584   2.721  11.267  0.1443  0.4001 -0.2232
  917MPD2    C313476   0.615   2.828  11.192  0.2450  0.6644 -0.1719
  917MPD2    C413477   0.594   2.824  11.059 -0.2251 -0.1131  0.1313
  917MPD2    C513478   0.517   2.720  11.007  0.2124 -0.6247 -0.3182
  917MPD2     H13479   0.624   2.719  11.368  3.3206  1.5945 -1.4539
  917MPD2    H113480   0.616   2.906  10.992  3.2176 -1.0137  0.1395
  917MPD2    H213481   0.385   2.561  11.049  1.5268  0.1226 -2.2529
  917MPD2    H313482   0.490   2.727  10.902  0.1535 -2.9633 -0.4640
  917MPD2     N13483   0.684   2.936  11.242  0.3636 -0.6304 -0.2801
  917MPD2    H513484   0.698   3.018  11.183  0.6071 -0.2333  0.3267
  917MPD2    N113485   0.419   2.548  11.307 -0.5962  0.5030  0.2762
  917MPD2    H713486   0.352   2.483  11.267 -0.9530  1.0450  0.0103
  918MPD2     C13487   0.072   2.801  12.208  0.2292 -0.5262  0.4745
  918MPD2    C113488   0.166   2.857  12.128 -0.4982 -0.3462 -0.8555
  918MPD2    C213489   0.197   2.783  12.011  0.5234 -0.3050  0.3018
  918MPD2    C313490   0.136   2.669  11.979  0.1506  0.3242  0.0608
  918MPD2    C413491   0.042   2.618  12.058 -0.1842 -0.0128  0.3664
  918MPD2    C513492   0.005   2.687  12.170 -1.6846 -0.2776 -1.0782
  918MPD2     H13493   0.271   2.823  11.943 -0.1187  0.9752  0.3686
  918MPD2    H113494   4.729   2.522  12.049  0.0051 -0.0996  0.2659
  918MPD2    H213495   0.021   2.849  12.290 -0.7643 -0.5273 -0.1376
  918MPD2    H313496   4.659   2.653  12.232 -1.4662  1.2526  0.0355
  918MPD2     N13497   0.177   2.598  11.864 -0.6974 -0.2430  0.5668
  918MPD2    H513498   0.247   2.638  11.803  0.1456 -1.1839  0.9106
  918MPD2    N113499   0.236   2.973  12.170  0.0597  0.6696  0.4571
  918MPD2    H713500   0.299   3.015  12.102 -0.0558  0.3204  0.1344
  919MPD2     C13501   1.085   2.067  11.184 -0.1709  0.9319 -0.3394
  919MPD2    C113502   1.102   1.948  11.114 -0.4195 -0.2974 -0.3185
  919MPD2    C213503   1.069   1.945  10.980  0.3081  0.3799 -0.7554
  919MPD2    C313504   1.021   2.061  10.920 -0.3492  0.2745 -0.0941
  919MPD2    C413505   1.005   2.176  10.994  0.2792  0.4087 -0.0902
  919MPD2    C513506   1.043   2.179  11.124  0.6833 -0.4956  0.7502
  919MPD2     H13507   1.074   1.845  10.940 -0.5187 -0.9103  2.4084
  919MPD2    H113508   0.955   2.255  10.939 -2.4122 -1.9617 -1.0589
  919MPD2    H213509   1.098   2.075  11.291 -0.2541 -2.0609 -0.0993
  919MPD2    H313510   1.007   2.265  11.180  0.1668 -0.9206  1.0682
  919MPD2     N13511   0.988   2.070  10.786 -0.2024 -0.3953  0.5101
  919MPD2    H513512   0.957   2.162  10.755 -0.0628 -0.8423 -0.9353
  919MPD2    N113513   1.142   1.830  11.180  0.0247 -0.1797  0.0903
  919MPD2    H713514   1.164   1.751  11.120  1.2834 -0.8030  1.3832
  920MPD2     C13515   0.588   2.740  10.188 -0.3258  0.1396 -0.3245
  920MPD2    C113516   0.567   2.627  10.109 -0.1012 -0.4580  0.0313
  920MPD2    C213517   0.614   2.507  10.154 -0.3475 -0.0472 -0.1598
  920MPD2    C313518   0.697   2.501  10.265 -0.0146 -0.3682  0.4038
  920MPD2    C413519   0.723   2.613  10.338  0.6830  0.8200 -0.1319
  920MPD2    C513520   0.676   2.735  10.298 -1.0177 -0.1349 -0.2705
  920MPD2     H13521   0.593   2.421  10.092 -0.9492  0.2576 -0.3732
  920MPD2    H113522   0.781   2.609  10.430 -0.9932 -0.2190  0.8786
  920MPD2    H213523   0.550   2.838  10.164 -1.4685  0.1107  1.3497
  920MPD2    H313524   0.696   2.823  10.358  1.5864 -0.6979 -0.3290
  920MPD2     N13525   0.742   2.368  10.301  0.2441  0.0853  0.3315
  920MPD2    H513526   0.721   2.286  10.245  1.6631  0.5490 -0.9010
  920MPD2    N113527   0.490   2.628   9.994  0.7899  0.0747  0.0403
  920MPD2    H713528   0.462   2.537   9.957 -0.8366  0.5460  0.1390
  921MPD2     C13529   1.758   0.393  16.680 -0.1122 -0.5253 -0.4948
  921MPD2    C113530   1.692   0.470  16.586 -0.3277 -0.2620  0.1522
  921MPD2    C213531   1.561   0.428  16.552  0.7222  0.4443 -0.3028
  921MPD2    C313532   1.503   0.319  16.615 -0.8903 -0.0250 -0.7446
  921MPD2    C413533   1.577   0.244  16.703  0.5892  0.2858  0.5955
  921MPD2    C513534   1.707   0.280  16.735 -0.1610 -0.2363 -0.3485
  921MPD2     H13535   1.505   0.477  16.472 -0.7019 -1.9624 -0.7769
  921MPD2    H113536   1.534   0.153  16.744 -0.5183  0.3258 -0.4669
  921MPD2    H213537   1.860   0.414  16.711  0.5207 -0.4010 -2.7187
  921MPD2    H313538   1.752   0.224  16.816  1.8982 -0.1668 -1.4424
  921MPD2     N13539   1.373   0.275  16.573 -0.0694  0.2126  0.0625
  921MPD2    H513540   1.350   0.178  16.595  0.2330 -0.6390 -3.2647
  921MPD2    N113541   1.762   0.575  16.510 -0.1191  0.3026  0.7302
  921MPD2    H713542   1.851   0.589  16.556  0.5259 -0.6625 -0.2480
  922MPD2     C13543   2.330   3.422  17.334 -0.4474  0.4595 -0.8078
  922MPD2    C113544   2.241   3.364  17.426  0.0466  0.2511 -0.2041
  922MPD2    C213545   2.122   3.299  17.390  0.3157 -0.4771  0.1556
  922MPD2    C313546   2.089   3.287  17.257  0.3399 -0.4541  0.0889
  922MPD2    C413547   2.176   3.337  17.170 -0.2158 -0.1757  0.2794
  922MPD2    C513548   2.287   3.409  17.206 -0.1890  0.5585  0.8400
  922MPD2     H13549   2.066   3.246  17.465  1.0989  0.8013  1.6536
  922MPD2    H113550   2.154   3.329  17.064 -1.0137  2.1403  0.2869
  922MPD2    H213551   2.425   3.472  17.353  0.3260 -1.7130  1.0733
  922MPD2    H313552   2.338   3.461  17.125  1.8251 -2.7861 -0.0318
  922MPD2     N13553   1.963   3.223  17.225 -0.6054 -0.4235  0.6759
  922MPD2    H513554   1.911   3.180  17.301  0.0788 -0.5479  1.0735
  922MPD2    N113555   2.271   3.367  17.560 -0.2886 -0.3764 -0.1812
  922MPD2    H713556   2.198   3.329  17.619  0.3766  0.2604  1.0810
  923MPD2     C13557   2.976   0.519   9.086 -0.0699  0.2427  0.5758
  923MPD2    C113558   3.026   0.391   9.081 -0.1117  0.2517 -0.1483
  923MPD2    C213559   3.139   0.367   9.158  0.7190 -1.3667 -0.1625
  923MPD2    C313560   3.199   0.464   9.237 -0.2558 -0.4687 -0.1774
  923MPD2    C413561   3.153   0.593   9.236 -0.4762  0.1982 -0.2005
  923MPD2    C513562   3.041   0.618   9.166 -0.2052  0.3031 -0.2459
  923MPD2     H13563   3.191   0.272   9.157  2.5606 -0.3116 -2.7112
  923MPD2    H113564   3.185   0.662   9.313  0.0439  0.9286 -1.0758
  923MPD2    H213565   2.876   0.541   9.049  0.3148  0.6456 -0.2128
  923MPD2    H313566   2.996   0.716   9.175 -1.9461 -0.4316 -0.9011
  923MPD2     N13567   3.300   0.440   9.331  0.3572  0.3480  0.0674
  923MPD2    H513568   3.336   0.524   9.375 -1.2302 -0.0619  2.1446
  923MPD2    N113569   2.954   0.287   9.015 -0.0174  0.4571 -0.5384
  923MPD2    H713570   2.861   0.309   8.982 -0.0544  1.1148  0.0130
  924MPD2     C13571   3.384   3.239  16.350  0.2574 -0.5416 -0.2328
  924MPD2    C113572   3.349   3.299  16.234  0.2290  0.6058 -0.2116
  924MPD2    C213573   3.382   3.433  16.200  0.2302  0.4510  0.0252
  924MPD2    C313574   3.443   3.516  16.289  0.5452  0.5364  0.4322
  924MPD2    C413575   3.461   3.458  16.418  0.8726  0.0078 -0.2259
  924MPD2    C513576   3.432   3.324  16.446  0.0259 -0.1499  0.6239
  924MPD2     H13577   3.356   3.481  16.106 -1.2859  0.5638  0.5088
  924MPD2    H113578   3.500   3.531  16.488 -1.7266  2.4147 -1.2760
  924MPD2    H213579   3.361   3.135  16.370 -2.7841  0.3718  0.9561
  924MPD2    H313580   3.452   3.284  16.544 -0.9657  0.3100  1.0163
  924MPD2     N13581   3.472   3.652  16.273  0.0394  0.6602 -0.4507
  924MPD2    H513582   3.496   3.703  16.357 -2.0842  1.4565 -0.3180
  924MPD2    N113583   3.275   3.213  16.146 -0.4590 -0.2422  0.1681
  924MPD2    H713584   3.278   3.113  16.161  2.3342 -0.1344  0.3820
  925MPD2     C13585   2.697   1.430  14.633 -0.2374 -0.4830 -0.2252
  925MPD2    C113586   2.586   1.497  14.583  0.9626  0.5848 -0.2381
  925MPD2    C213587   2.513   1.581  14.670  0.4014 -0.4128 -0.3747
  925MPD2    C313588   2.553   1.593  14.805  0.1053 -0.8504  0.0403
  925MPD2    C413589   2.655   1.510  14.852  1.0361 -0.0280  0.8985
  925MPD2    C513590   2.731   1.435  14.762 -0.2641 -0.5353  0.7513
  925MPD2     H13591   2.426   1.634  14.634  1.7875  0.4447 -2.5295
  925MPD2    H113592   2.694   1.526  14.952  1.0472  0.0168  0.8868
  925MPD2    H213593   2.759   1.364  14.573 -0.4786 -0.8387 -0.0807
  925MPD2    H313594   2.818   1.394  14.811 -0.5680 -1.1700  0.7617
  925MPD2     N13595   2.491   1.682  14.894  0.7674  0.3269 -0.4848
  925MPD2    H513596   2.516   1.671  14.991  0.6298 -2.6783 -0.7758
  925MPD2    N113597   2.542   1.499  14.445 -0.1780 -0.0909 -0.3898
  925MPD2    H713598   2.454   1.543  14.419  0.7219  0.3409 -2.7199
  926MPD2     C13599   1.268   4.433  13.455 -0.2095 -0.7096  1.0916
  926MPD2    C113600   1.210   4.539  13.390  0.8985 -0.6008  0.1417
  926MPD2    C213601   1.279   4.604  13.293  0.4569  0.0889  0.1282
  926MPD2    C313602   1.403   4.568  13.254 -0.7404 -0.3428  0.5099
  926MPD2    C413603   1.458   4.459  13.313 -0.3243  0.2186 -0.4009
  926MPD2    C513604   1.389   4.395  13.411  0.2717  0.1470 -0.3191
  926MPD2     H13605   1.242   4.691  13.239  0.7792 -1.1260 -2.0379
  926MPD2    H113606   1.555   4.432  13.273 -0.8471 -1.9573 -0.1784
  926MPD2    H213607   1.226   4.364  13.528 -1.9603 -0.7927  0.0105
  926MPD2    H313608   1.434   4.308  13.458  0.0787  0.1192 -0.1870
  926MPD2     N13609   1.484   4.627  13.155  0.0811  0.1993 -0.4092
  926MPD2    H513610   1.568   4.574  13.135 -0.1408  0.1478 -1.2302
  926MPD2    N113611   1.077   4.573  13.422 -0.4060  0.0615  0.0488
  926MPD2    H713612   1.047   4.657  13.374 -0.1660 -1.3687 -2.6490
  927MPD2     C13613   1.375   1.234   0.012  0.0126  0.2598 -0.3101
  927MPD2    C113614   1.282   1.310  17.697  0.3174 -0.0522  0.0035
  927MPD2    C213615   1.335   1.385  17.591  0.0789 -0.3969  0.3178
  927MPD2    C313616   1.459   1.377  17.536  0.1661  0.2319  0.0253
  927MPD2    C413617   1.556   1.312  17.607  0.7776 -0.5287 -1.2968
  927MPD2    C513618   1.504   1.236  17.710  0.0390  0.9075  0.6772
  927MPD2     H13619   1.273   1.459  17.541 -2.4853 -1.7420  1.4631
  927MPD2    H113620   1.660   1.329  17.579  0.5298  0.2518 -1.7318
  927MPD2    H213621   1.359   1.177   0.103  1.7043 -0.4655 -0.4543
  927MPD2    H313622   1.575   1.180   0.028 -1.2260 -0.3587  0.9962
  927MPD2     N13623   1.476   1.450  17.413 -0.0659 -0.1382 -0.0544
  927MPD2    H513624   1.395   1.506  17.388 -0.7613  0.9546  4.6707
  927MPD2    N113625   1.171   1.343   0.029 -0.0372 -0.4506 -0.4835
  927MPD2    H713626   1.163   1.296   0.118 -0.5331 -3.2512 -1.9956
  928MPD2     C13627   3.748   4.613   0.799 -0.2533 -0.4236 -0.3937
  928MPD2    C113628   3.753   0.013   0.801 -0.5854 -0.0504  0.1489
  928MPD2    C213629   3.805   0.079   0.691 -0.0941  0.2851 -0.1342
  928MPD2    C313630   3.858   0.005   0.586  0.1041 -0.1144 -0.4733
  928MPD2    C413631   3.848   4.602   0.588  0.0499 -0.4256 -0.4556
  928MPD2    C513632   3.782   4.541   0.692  0.0364  0.0884  0.0645
  928MPD2     H13633   3.823   0.186   0.699  4.0723 -0.3533 -0.9730
  928MPD2    H113634   3.885   4.543   0.504 -1.1095  0.2845 -1.4695
  928MPD2    H213635   3.714   4.556   0.885  0.0320 -1.5506 -1.0148
  928MPD2    H313636   3.752   4.436   0.687 -0.5012  0.2854 -1.0204
  928MPD2     N13637   3.930   0.066   0.478  0.0144 -0.3872  0.1190
  928MPD2    H513638   3.960   0.002   0.405  1.6558  0.6891 -0.1676
  928MPD2    N113639   3.709   0.079   0.919  0.8038  0.2025  0.7162
  928MPD2    H713640   3.701   0.015   0.997  1.9260 -0.0395  0.6320
  929MPD2     C13641   2.970   0.447  10.008  0.0728  0.4166 -0.5893
  929MPD2    C113642   2.879   0.407   9.902  0.9581  0.5023  0.7110
  929MPD2    C213643   2.785   0.494   9.862 -0.1314 -0.2683  0.1904
  929MPD2    C313644   2.786   0.627   9.897  0.1083 -0.4005  0.3160
  929MPD2    C413645   2.866   0.661  10.003  0.1045  0.1506  0.0800
  929MPD2    C513646   2.955   0.575  10.051 -0.5526  0.1931  0.1762
  929MPD2     H13647   2.720   0.476   9.777 -0.0070 -2.8315  0.6583
  929MPD2    H113648   2.849   0.760  10.044  0.8048 -0.0900  0.9537
  929MPD2    H213649   3.057   0.389  10.035 -0.1647  0.3313  0.0041
  929MPD2    H313650   3.021   0.596  10.135 -0.3135 -0.7308  0.2241
  929MPD2     N13651   2.694   0.729   9.855  0.5010 -0.4431 -0.4600
  929MPD2    H513652   2.732   0.823   9.851 -0.5668  0.0618  1.0130
  929MPD2    N113653   2.897   0.281   9.842 -0.3167 -0.0730 -0.3058
  929MPD2    H713654   2.986   0.239   9.865 -0.5563 -0.4446 -0.0621
  930MPD2     C13655   0.546   2.575  13.815 -0.1583  0.5331  0.0440
  930MPD2    C113656   0.683   2.555  13.827  0.4046 -0.2492 -0.0532
  930MPD2    C213657   0.766   2.629  13.753 -0.0594 -0.0652  0.3637
  930MPD2    C313658   0.717   2.734  13.676 -0.3342  0.5290  0.1178
  930MPD2    C413659   0.584   2.757  13.665 -0.4754  0.3663 -0.3085
  930MPD2    C513660   0.501   2.674  13.732 -0.0417  0.2506 -0.2925
  930MPD2     H13661   0.874   2.620  13.759  0.1191  1.3371 -0.8572
  930MPD2    H113662   0.538   2.844  13.620 -3.7538  0.0744  2.4635
  930MPD2    H213663   0.467   2.521  13.866  0.8105 -1.3894 -0.4740
  930MPD2    H313664   0.394   2.691  13.730 -0.3712 -1.8443 -0.0631
  930MPD2     N13665   0.800   2.823  13.613  0.0262 -0.2230  0.4283
  930MPD2    H513666   0.766   2.901  13.557  1.5055  0.1841  0.0880
  930MPD2    N113667   0.718   2.457  13.916  0.4280  0.4817  0.3728
  930MPD2    H713668   0.643   2.396  13.946  0.4782  0.9770  1.4970
  931MPD2     C13669   0.957   1.818   0.633  0.3408 -0.5284  0.2406
  931MPD2    C113670   0.971   1.682   0.619  0.1485 -0.1912 -0.4289
  931MPD2    C213671   1.010   1.603   0.732 -0.3452 -0.2905  0.4675
  931MPD2    C313672   0.989   1.663   0.857 -0.0394 -0.0356  0.0658
  931MPD2    C413673   0.955   1.797   0.868 -0.7298  0.4278 -0.3015
  931MPD2    C513674   0.949   1.879   0.754  0.2037  0.3763 -0.5833
  931MPD2     H13675   1.017   1.495   0.726  1.7017 -0.0070 -2.3539
  931MPD2    H113676   0.926   1.838   0.964 -2.4682 -0.8449 -0.2808
  931MPD2    H213677   0.944   1.873   0.541 -0.1926 -0.8648  0.1108
  931MPD2    H313678   0.921   1.983   0.759  2.1671  0.9269 -1.1416
  931MPD2     N13679   0.998   1.571   0.962 -0.1424  0.1127 -0.1545
  931MPD2    H513680   1.040   1.483   0.933 -0.9512 -0.5869  0.8158
  931MPD2    N113681   0.948   1.633   0.486 -0.2998  0.8286  0.3422
  931MPD2    H713682   0.937   1.701   0.411  2.5044 -1.4678 -2.1144
  932MPD2     C13683   3.079   0.979  11.501  1.1439 -0.4444  0.0210
  932MPD2    C113684   3.127   1.096  11.554  0.3632  0.8342  0.1436
  932MPD2    C213685   3.186   1.086  11.680  0.0372 -0.4851 -0.1317
  932MPD2    C313686   3.189   0.970  11.758 -0.3450  0.2956 -0.0344
  932MPD2    C413687   3.146   0.855  11.696 -0.2082  0.1916  0.0039
  932MPD2    C513688   3.095   0.856  11.568  0.7601 -0.5749  0.4756
  932MPD2     H13689   3.237   1.173  11.718  1.1459 -0.2697 -2.1012
  932MPD2    H113690   3.162   0.755  11.734  0.9339 -0.0821 -1.2040
  932MPD2    H213691   3.039   0.970  11.400 -0.5884 -1.2372  0.7745
  932MPD2    H313692   3.068   0.765  11.517  0.2643 -0.5922  0.7684
  932MPD2     N13693   3.238   0.974  11.890  0.3939  0.2177  0.2541
  932MPD2    H513694   3.294   1.054  11.916  2.3681 -0.4856 -1.7706
  932MPD2    N113695   3.127   1.216  11.480 -0.0231 -0.1080  0.1152
  932MPD2    H713696   3.171   1.302  11.512 -0.6962  0.1881  0.2497
  933MPD2     C13697   3.309   0.588   1.592  0.7708  0.4667 -0.3275
  933MPD2    C113698   3.372   0.605   1.466 -0.5258 -0.7178  0.1596
  933MPD2    C213699   3.348   0.727   1.399  0.4053 -0.4360 -0.3236
  933MPD2    C313700   3.274   0.828   1.456  0.7770  0.9914 -0.1376
  933MPD2    C413701   3.226   0.815   1.585  0.4228 -0.1788 -0.7874
  933MPD2    C513702   3.244   0.692   1.647  0.2620 -0.3388  0.1194
  933MPD2     H13703   3.410   0.749   1.312  0.7741  0.9712  0.2851
  933MPD2    H113704   3.175   0.895   1.636  1.5604  1.0627 -1.5994
  933MPD2    H213705   3.329   0.513   1.669  1.8036  0.2219 -0.8307
  933MPD2    H313706   3.217   0.682   1.751 -1.4514  1.6441 -0.1393
  933MPD2     N13707   3.249   0.942   1.367 -0.3938  0.2475  0.2164
  933MPD2    H513708   3.300   0.938   1.280 -0.5248  0.9309  0.1097
  933MPD2    N113709   3.458   0.505   1.418 -0.0616 -0.3132  0.2501
  933MPD2    H713710   3.468   0.426   1.481  1.4329 -1.0992 -0.9674
  934MPD2     C13711   0.036   2.486   1.760  0.5330 -0.2255  0.2242
  934MPD2    C113712   0.061   2.492   1.622  0.0274 -0.3316  0.3919
  934MPD2    C213713   4.728   2.408   1.536  0.1795  0.6330 -0.2607
  934MPD2    C313714   4.626   2.328   1.585  0.2157  0.2205 -0.2909
  934MPD2    C413715   4.597   2.332   1.721  0.0390 -0.5094 -0.2875
  934MPD2    C513716   4.668   2.412   1.803  0.2577 -0.0866 -0.0295
  934MPD2     H13717   0.005   2.414   1.429 -1.6583 -2.4257 -0.6338
  934MPD2    H113718   4.529   2.269   1.777  0.0367 -0.5844 -0.3744
  934MPD2    H213719   0.090   2.543   1.835  1.4688 -1.8007  0.7556
  934MPD2    H313720   4.647   2.419   1.909 -1.8957  0.3629 -0.4993
  934MPD2     N13721   4.562   2.230   1.512 -0.6634 -0.0347 -0.4458
  934MPD2    H513722   4.504   2.166   1.566  0.5082 -0.9016 -0.2065
  934MPD2    N113723   0.159   2.583   1.573  0.0283 -0.8131  0.5631
  934MPD2    H713724   0.188   2.559   1.478 -1.5507  0.2571 -0.1980
  935MPD2     C13725   4.721   1.427   1.047  0.0543 -0.3265  0.1028
  935MPD2    C113726   4.603   1.463   0.987  0.0371 -0.1637 -0.2518
  935MPD2    C213727   4.535   1.570   1.043 -0.0892  0.7641 -0.4812
  935MPD2    C313728   4.579   1.639   1.147  0.1772 -0.2062  0.1024
  935MPD2    C413729   4.713   1.611   1.191  0.3311 -0.3117  0.0546
  935MPD2    C513730   0.041   1.503   1.146 -0.4957  0.3107  0.6110
  935MPD2     H13731   4.435   1.586   1.005  0.4604  1.0993 -1.8199
  935MPD2    H113732   0.030   1.674   1.261  0.1721 -1.5107  1.2580
  935MPD2    H213733   0.042   1.339   1.019  0.8679 -0.1116  1.0979
  935MPD2    H313734   0.142   1.479   1.176 -0.9716 -0.9496  1.2213
  935MPD2     N13735   4.513   1.748   1.215 -0.4039  0.3443  0.0119
  935MPD2    H513736   4.553   1.786   1.300 -1.6030  0.4700  0.5240
  935MPD2    N113737   4.544   1.386   0.883  0.1220  0.4708  0.3417
  935MPD2    H713738   4.449   1.406   0.855  0.8480  1.8791 -1.1335
  936MPD2     C13739   3.248   0.195  12.185  0.3580  0.8409 -0.3599
  936MPD2    C113740   3.319   0.122  12.273 -0.4118 -0.0655 -0.7716
  936MPD2    C213741   3.453   0.143  12.293  0.2951 -0.0637  0.3057
  936MPD2    C313742   3.521   0.221  12.200  0.0052 -0.2994 -0.6527
  936MPD2    C413743   3.446   0.301  12.109 -0.2452  0.7376 -0.3798
  936MPD2    C513744   3.311   0.287  12.106  0.0005  0.0711  0.2016
  936MPD2     H13745   3.509   0.075  12.356  2.1073  0.2400 -0.9883
  936MPD2    H113746   3.497   0.367  12.040 -0.4610  1.7594  0.4355
  936MPD2    H213747   3.143   0.185  12.158  0.8363 -1.9792 -1.1540
  936MPD2    H313748   3.254   0.340  12.031 -0.4584  2.0885  1.9700
  936MPD2     N13749   3.660   0.226  12.212  0.2663 -0.1971 -0.2768
  936MPD2    H513750   3.696   0.157  12.277 -1.1369 -0.5055  0.1531
  936MPD2    N113751   3.265   0.025  12.358  0.0287  0.1357 -0.4386
  936MPD2    H713752   3.342   4.706  12.394  0.6086 -1.3356 -3.9270
  937MPD2     C13753   1.537   1.321  10.980  0.8492 -0.2162  0.4217
  937MPD2    C113754   1.566   1.441  11.048 -0.3718 -0.2264 -0.2891
  937MPD2    C213755   1.639   1.542  10.978  0.0140 -0.9677 -0.3767
  937MPD2    C313756   1.675   1.520  10.847 -0.1698  0.5046 -0.1343
  937MPD2    C413757   1.661   1.400  10.787 -0.3232 -0.1662 -0.2663
  937MPD2    C513758   1.596   1.302  10.856 -0.3564 -0.1046 -0.0039
  937MPD2     H13759   1.622   1.644  11.011 -1.6135 -0.9470 -1.2716
  937MPD2    H113760   1.695   1.374  10.687  1.7708  0.0912  0.3836
  937MPD2    H213761   1.477   1.244  11.027 -1.0652  2.2552  2.0611
  937MPD2    H313762   1.576   1.209  10.804 -1.5748 -0.4204  1.0025
  937MPD2     N13763   1.719   1.635  10.774  0.1278  0.0953 -0.1033
  937MPD2    H513764   1.718   1.722  10.825  2.5698 -0.1759  0.4185
  937MPD2    N113765   1.498   1.485  11.160 -0.4767 -0.3889 -0.2979
  937MPD2    H713766   1.526   1.576  11.195 -0.8630  0.3922 -2.0305
  938MPD2     C13767   3.742   1.755   0.661  0.4591 -0.0204 -1.0712
  938MPD2    C113768   3.667   1.856   0.724 -0.2598  0.7809  0.9448
  938MPD2    C213769   3.567   1.820   0.816  0.3202 -0.1175 -0.6027
  938MPD2    C313770   3.546   1.682   0.836  0.0021 -0.4255  0.2707
  938MPD2    C413771   3.626   1.583   0.784  0.4435 -0.1810 -0.1505
  938MPD2    C513772   3.725   1.626   0.697 -0.0128  0.1519  0.6095
  938MPD2     H13773   3.519   1.899   0.872  0.9532  1.1101 -1.7915
  938MPD2    H113774   3.601   1.479   0.801  2.2046 -0.5423  0.2556
  938MPD2    H213775   3.803   1.774   0.574  1.0624 -0.8628 -0.8290
  938MPD2    H313776   3.795   1.554   0.655 -0.0223  0.1862  0.5356
  938MPD2     N13777   3.444   1.635   0.921 -0.1171  0.0400  0.2494
  938MPD2    H513778   3.443   1.538   0.952 -1.2291 -0.1147 -0.2977
  938MPD2    N113779   3.690   1.990   0.695  0.7664 -0.4241 -0.2272
  938MPD2    H713780   3.644   2.062   0.749 -0.3387 -0.1965 -1.4681
  939MPD2     C13781   0.295   2.588   0.625 -0.5599 -0.0549  0.4214
  939MPD2    C113782   0.186   2.639   0.567 -0.4609  0.0537 -0.0465
  939MPD2    C213783   0.128   2.574   0.462 -0.2691  0.0013  0.1784
  939MPD2    C313784   0.174   2.452   0.430  0.0362 -1.1310  0.6033
  939MPD2    C413785   0.291   2.398   0.478 -0.6497  0.1812 -0.5085
  939MPD2    C513786   0.349   2.472   0.578 -0.2747 -0.6862  0.4902
  939MPD2     H13787   0.033   2.606   0.421  0.2013  1.9089  0.5604
  939MPD2    H113788   0.332   2.303   0.445  0.2212  1.2389 -2.4272
  939MPD2    H213789   0.336   2.638   0.712 -1.2113  0.3286  0.5082
  939MPD2    H313790   0.436   2.433   0.630 -0.3573 -0.5821  0.7104
  939MPD2     N13791   0.124   2.389   0.314  0.4890  0.3140  0.3221
  939MPD2    H513792   0.162   2.295   0.306 -1.6442 -0.4052 -1.2431
  939MPD2    N113793   0.127   2.744   0.630 -0.2968  0.0149 -0.2132
  939MPD2    H713794   0.162   2.772   0.722  0.3359 -1.3482 -0.0300
  940MPD2     C13795   3.760   3.856  13.115  0.1087 -0.1503 -0.1773
  940MPD2    C113796   3.843   3.962  13.077 -0.0677  0.7047 -0.0640
  940MPD2    C213797   3.831   4.019  12.952  0.2619  0.2084 -0.7947
  940MPD2    C313798   3.733   3.962  12.860  0.5946 -0.1242  0.7959
  940MPD2    C413799   3.651   3.861  12.907 -0.6389  0.0156 -0.4869
  940MPD2    C513800   3.672   3.797  13.024  0.6433 -0.6931 -0.4811
  940MPD2     H13801   3.888   4.108  12.928 -1.1018  0.8371 -1.7537
  940MPD2    H113802   3.572   3.826  12.842 -1.4289  0.2227  0.3596
  940MPD2    H213803   3.753   3.818  13.216 -2.7775 -1.9916 -1.0854
  940MPD2    H313804   3.599   3.719  13.041  0.3138 -0.4850 -0.9627
  940MPD2     N13805   3.703   4.021  12.738 -0.0745 -0.0846  0.0631
  940MPD2    H513806   3.614   4.004  12.694  0.9964 -2.6027 -1.1381
  940MPD2    N113807   3.916   4.024  13.182  0.1620  0.2877 -0.3726
  940MPD2    H713808   3.949   4.118  13.160  1.5058  0.1275  0.9874
  941MPD2     C13809   3.724   3.650  10.788 -0.1800  0.3084 -0.7761
  941MPD2    C113810   3.647   3.635  10.676  0.6528  0.5370  0.2193
  941MPD2    C213811   3.510   3.607  10.686  0.4985 -0.4375 -0.5091
  941MPD2    C313812   3.450   3.588  10.815  0.2019 -0.0142 -0.1512
  941MPD2    C413813   3.531   3.609  10.930 -0.7299  0.2602  0.3087
  941MPD2    C513814   3.662   3.642  10.910 -0.1745  0.3488 -0.7449
  941MPD2     H13815   3.442   3.607  10.601  1.2765  2.0169 -1.1392
  941MPD2    H113816   3.502   3.601  11.034 -2.9206  2.0186 -0.1615
  941MPD2    H213817   3.828   3.682  10.787 -0.0980  0.0887  0.4140
  941MPD2    H313818   3.729   3.658  10.994 -1.1707  1.3987 -0.1516
  941MPD2     N13819   3.326   3.516  10.831  0.0277  0.3235 -0.1598
  941MPD2    H513820   3.288   3.500  10.924  0.9749 -1.1624 -0.0392
  941MPD2    N113821   3.695   3.667  10.546  0.2280 -0.1336 -0.0634
  941MPD2    H713822   3.634   3.688  10.468 -0.3330  0.6396  0.5854
  942MPD2     C13823   2.121   4.274   8.867 -0.6045  0.1633 -0.3051
  942MPD2    C113824   2.074   4.149   8.840 -0.8912 -0.1433  0.7227
  942MPD2    C213825   2.169   4.051   8.807 -0.2163 -0.6867 -0.9006
  942MPD2    C313826   2.307   4.080   8.816  0.7988  0.5280  0.7782
  942MPD2    C413827   2.346   4.207   8.851  0.0699 -0.6229  0.0186
  942MPD2    C513828   2.254   4.305   8.874  0.0271 -0.1983  0.3239
  942MPD2     H13829   2.134   3.953   8.779 -2.6607  0.3293 -1.4108
  942MPD2    H113830   2.450   4.219   8.878 -0.3075 -1.0119  1.6358
  942MPD2    H213831   2.050   4.351   8.894 -1.3473 -0.4418 -0.5298
  942MPD2    H313832   2.282   4.407   8.898 -2.3065  0.0448  1.9983
  942MPD2     N13833   2.408   3.984   8.808 -0.0842 -0.1371 -0.1446
  942MPD2    H513834   2.506   4.012   8.812 -0.3386  0.9432 -1.4700
  942MPD2    N113835   1.939   4.114   8.822  0.2727  0.2284  0.3352
  942MPD2    H713836   1.921   4.022   8.783 -1.7104  1.2151 -1.0866
  943MPD2     C13837   1.817   3.627   9.417 -0.0419 -0.2152  0.3152
  943MPD2    C113838   1.738   3.734   9.454  1.5292  0.7902 -0.2522
  943MPD2    C213839   1.800   3.849   9.497  0.0065 -0.0787  0.3648
  943MPD2    C313840   1.930   3.867   9.492 -0.5200  0.6018 -0.7095
  943MPD2    C413841   2.009   3.762   9.447  0.2889  0.4783  0.0985
  943MPD2    C513842   1.953   3.642   9.405 -0.4848  0.5918 -0.4230
  943MPD2     H13843   1.738   3.929   9.537 -0.4240 -0.3083  0.1505
  943MPD2    H113844   2.117   3.769   9.445  0.1743  2.2702  0.5426
  943MPD2    H213845   1.782   3.529   9.387  0.4827 -0.4439  0.4488
  943MPD2    H313846   2.018   3.562   9.372  0.2463  1.5546 -1.2830
  943MPD2     N13847   2.003   3.983   9.533 -0.7739 -0.6390 -0.1984
  943MPD2    H513848   2.102   3.976   9.515 -0.6920  0.8254 -0.3354
  943MPD2    N113849   1.601   3.712   9.471 -0.4832 -0.4713  0.4500
  943MPD2    H713850   1.575   3.614   9.472 -1.3003 -0.2404  2.2192
  944MPD2     C13851   1.046   3.303  11.002 -0.3345 -0.1789  0.5837
  944MPD2    C113852   1.016   3.270  11.138 -0.6373 -0.7831 -0.2062
  944MPD2    C213853   0.925   3.351  11.203 -0.6718  0.2620 -0.8849
  944MPD2    C313854   0.839   3.432  11.134  0.6856  0.3320  0.4595
  944MPD2    C413855   0.849   3.438  11.000 -0.3175  0.1459  0.4862
  944MPD2    C513856   0.956   3.381  10.932 -0.1979 -0.8699 -0.0336
  944MPD2     H13857   0.899   3.335  11.307 -2.4457 -1.5407 -1.5824
  944MPD2    H113858   0.774   3.486  10.938 -0.9411 -2.6846 -0.9515
  944MPD2    H213859   1.126   3.260  10.944  0.3964 -1.2250  2.3795
  944MPD2    H313860   0.961   3.396  10.825 -3.3477 -1.6213 -0.2876
  944MPD2     N13861   0.735   3.489  11.208 -0.6562 -0.2948 -0.6647
  944MPD2    H513862   0.737   3.474  11.308 -1.8030  0.1071 -0.5785
  944MPD2    N113863   1.095   3.175  11.204 -1.0243  0.2744  0.4260
  944MPD2    H713864   1.171   3.142  11.147 -0.9735 -0.4669  0.9292
    1TMC1    C113865   4.609   3.489  14.215  0.0454  0.0917 -0.3219
    1TMC1    C213866   4.476   3.490  14.179 -0.6621 -0.0667  0.2258
    1TMC1    C313867   4.393   3.416  14.253  0.2887  0.7320 -0.0673
    1TMC1    C413868   4.656   3.404  14.309  0.3079 -0.2529 -0.0945
    1TMC1    C513869   4.568   3.323  14.371  0.3773 -0.3062 -0.4601
    1TMC1    C613870   4.438   3.316  14.340 -0.5769 -0.4242 -0.4916
    1TMC1     C13871   4.665   3.614  14.244  0.3685  0.7687 -0.1396
    1TMC1     O13872   0.018   3.621  14.328 -0.2824 -0.5542 -0.7300
    1TMC1     H13873   4.426   3.550  14.104 -2.9380 -1.6775  0.4751
    1TMC1    H113874   0.027   3.399  14.332  0.0135 -0.5825  1.2218
    1TMC1    H213875   4.373   3.254  14.401  2.2584 -1.7048  1.2253
    1TMC1    C713876   4.619   3.233  14.468  0.2039 -0.2156 -0.0623
    1TMC1    C813877   4.265   3.477  14.262 -0.8032  0.9701  0.0364
    1TMC1    O113878   4.733   3.183  14.469 -0.6120  0.2653 -0.1196
    1TMC1    O213879   4.208   3.522  14.161  0.3383  0.4966  0.2579
    1TMC1    O313880   4.534   3.251  14.568 -0.1985 -0.1262  0.2071
    1TMC1    H313881   4.488   3.336  14.552 -0.9020 -0.2026  1.8623
    1TMC1    O513882   4.262   3.542  14.381 -0.3782 -0.7806  0.2566
    1TMC1    H513883   4.325   3.509  14.449  0.3455 -0.5339 -0.2867
    2MPD2     C13884   4.635   4.130  14.202 -0.4144  0.0404 -0.8590
    2MPD2    C113885   4.592   4.073  14.087 -0.7211 -0.8705  0.2251
    2MPD2    C213886   4.589   3.933  14.071  0.3514 -0.8359  0.7657
    2MPD2    C313887   4.630   3.852  14.174 -0.2009  0.0195 -0.5200
    2MPD2    C413888   4.685   3.913  14.287 -0.0668  0.5924 -0.0986
    2MPD2    C513889   4.684   4.052  14.303  0.1109 -0.2871  0.5377
    2MPD2     H13890   4.543   3.886  13.984  1.1775  0.1352 -0.1997
    2MPD2    H113891   4.731   3.861  14.370 -0.5002  1.1581  0.4983
    2MPD2    H213892   4.626   4.237  14.214 -1.1408 -0.3880  2.3341
    2MPD2    H313893   4.724   4.101  14.391  1.3957  0.4500 -0.4456
    2MPD2     N13894   4.612   3.712  14.162  0.4860 -0.5117  0.0000
    2MPD2    H513895   4.549   3.684  14.088  0.3501 -0.0771 -0.0446
    2MPD2    N113896   4.534   4.170  13.998  0.2775  0.1863  0.5171
    2MPD2    H713897   4.530   4.268  14.023 -3.9972  0.3762 -0.8752
    3TMC2    C113898   4.425   4.246  13.812  0.0283 -0.6333 -0.3023
    3TMC2    C213899   4.363   4.341  13.888 -0.1190 -0.2575 -0.0380
    3TMC2    C313900   4.290   4.436  13.817  0.2337 -0.0194 -0.3387
    3TMC2    C413901   4.419   4.242  13.673 -0.0626 -0.2166  0.4351
    3TMC2    C513902   4.354   4.343  13.606  0.0233  0.2207  0.2923
    3TMC2    C613903   4.287   4.439  13.675  0.6864  0.2773  0.0691
    3TMC2     C13904   4.487   4.139  13.874  0.3535 -0.4011 -0.4776
    3TMC2     O13905   4.518   4.041  13.813  0.3269  0.2643 -0.0492
    3TMC2     H13906   4.369   4.347  13.996  1.6925 -0.4409 -0.1360
    3TMC2    H113907   4.461   4.160  13.616  0.2572 -0.1056  0.5077
    3TMC2    H213908   4.237   4.522  13.627  0.8575  0.5313  0.3278
    3TMC2    C713909   4.361   4.354  13.463 -0.1755  0.4094  0.0184
    3TMC2    C813910   4.206   4.524  13.895  0.3343 -0.3338 -0.3787
    3TMC2    O113911   4.450   4.286  13.416  0.6503  0.1966  0.6005
    3TMC2    O213912   4.230   4.538  14.017  0.1238  0.2669  0.5636
    3TMC2    O513913   4.087   4.545  13.827  0.5749  0.0745 -0.0016
    3TMC2    H513914   4.080   4.505  13.738  2.4299  0.4744 -0.3384
    4TMC2    C113915   3.600   0.050  12.952  0.3234  0.0795 -0.1703
    4TMC2    C213916   3.638   0.142  12.861  0.3702  0.3029 -0.1533
    4TMC2    C313917   3.772   0.158  12.832  0.0265  0.0350 -0.3944
    4TMC2    C413918   3.690   4.707  13.012  0.0869  0.7181 -0.0755
    4TMC2    C513919   3.821   4.721  12.986 -0.0868 -0.1301  0.0960
    4TMC2    C613920   3.862   0.082  12.895  0.1041  0.3025 -0.0882
    4TMC2     C13921   3.459   0.028  12.971  0.1667 -1.2990  0.4743
    4TMC2     O13922   3.414   4.699  13.065  0.0314 -0.7440 -0.3011
    4TMC2     H13923   3.570   0.204  12.804  0.5962  1.3424  0.7221
    4TMC2    H113924   3.655   4.643  13.092 -1.2166 -0.5315 -1.6375
    4TMC2    H213925   3.968   0.096  12.878  0.4738 -1.6383  0.6717
    4TMC2    C713926   3.916   4.652  13.079 -0.1642 -0.1273 -0.2488
    4TMC2    C813927   3.790   0.157  12.685 -0.3098  0.5665  0.3826
    4TMC2    O113928   3.874   4.599  13.181 -0.3982 -0.5453 -0.4684
    4TMC2    O213929   3.696   0.141  12.610  0.5877 -0.0319 -0.0139
    4TMC2    O513930   3.917   0.163  12.639  0.1615  0.0083 -0.3681
    4TMC2    H513931   3.993   0.171  12.701  0.3226 -0.6999 -0.4735
    5MPD2     C13932   2.984   0.158  12.898  0.1973 -0.0802 -0.0095
    5MPD2    C113933   3.058   0.205  12.788  0.2725  0.7145 -0.8645
    5MPD2    C213934   3.190   0.189  12.785  0.9172  0.6569  0.1121
    5MPD2    C313935   3.253   0.129  12.893 -0.4484 -0.4899  0.2097
    5MPD2    C413936   3.180   0.083  13.006  0.6096  0.0060 -0.2020
    5MPD2    C513937   3.046   0.110  13.008  0.0607 -0.1631  0.2512
    5MPD2     H13938   3.252   0.224  12.703  1.2601 -2.2983 -0.9059
    5MPD2    H113939   3.225   0.051  13.099 -3.1321 -1.1646  1.1936
    5MPD2    H213940   2.878   0.180  12.905  0.2683  0.2669 -0.0207
    5MPD2    H313941   2.992   0.079  13.097  1.0390 -1.1188  0.5144
    5MPD2     N13942   3.385   0.108  12.886 -0.4987 -0.4945  0.0451
    5MPD2    H513943   3.435   0.155  12.810 -1.1765  0.0776 -0.0471
    5MPD2    N113944   2.986   0.266  12.677  0.7168  0.2479  0.5863
    5MPD2    H713945   2.886   0.276  12.693  0.5470 -1.8977  0.9507
    6MPD1     C13946   2.646   1.840  13.241  0.1167 -0.6162  1.2748
    6MPD1    C113947   2.602   1.830  13.106  0.3236  0.5413 -0.9854
    6MPD1    C213948   2.682   1.760  13.017  0.1158 -0.1642  0.1481
    6MPD1    C313949   2.770   1.663  13.066  0.6490 -0.3844  0.3402
    6MPD1    C413950   2.800   1.667  13.201  0.4286  0.3424  0.1496
    6MPD1    C513951   2.741   1.756  13.289 -0.4052  0.2130  0.0805
    6MPD1     H13952   2.664   1.779  12.912  1.0837  1.7244  0.3187
    6MPD1    H113953   2.858   1.584  13.240  0.8412 -0.2253 -1.6486
    6MPD1    H213954   2.602   1.894  13.324 -3.4197 -1.7736  0.1262
    6MPD1    H313955   2.764   1.761  13.395 -0.6991 -2.8205  0.2955
    6MPD1     N13956   2.832   1.559  12.982  0.0019 -0.0911  1.0208
    6MPD1    H513957   2.903   1.508  13.033 -0.7517 -0.0838  2.0961
    6MPD1    N113958   2.512   1.918  13.058 -0.2009 -0.0522 -0.4095
    6MPD1    H613959   2.445   1.879  12.993 -0.6790 -1.6628  1.0667
    6MPD1    H713960   2.456   1.960  13.132 -0.9845  2.3738 -2.3620
    7MPD2     C13961   3.027   0.806  12.925 -0.3484 -0.1962  0.4445
    7MPD2    C113962   2.958   0.868  12.821 -0.4004  0.3662  0.0199
    7MPD2    C213963   2.873   0.797  12.738  0.0351  0.5005 -0.1593
    7MPD2    C313964   2.864   0.659  12.756  0.5022  0.9965  0.3418
    7MPD2    C413965   2.932   0.597  12.858 -0.2900  0.1156  0.1879
    7MPD2    C513966   3.010   0.668  12.945  0.1634 -0.1813 -0.1462
    7MPD2     H13967   2.838   0.843  12.646 -0.9304  1.8527  0.8956
    7MPD2    H113968   2.932   0.489  12.861  1.7330  0.1445  1.3659
    7MPD2    H213969   3.086   0.862  12.997 -2.3324 -0.1419  2.0363
    7MPD2    H313970   3.071   0.612  13.016  0.2596 -0.0853 -0.1530
    7MPD2     N13971   2.793   0.570  12.671 -0.7924 -0.0519 -0.7672
    7MPD2    H513972   2.801   0.470  12.686 -0.7398  0.1328  0.3765
    7MPD2    N113973   2.952   1.012  12.803 -0.4676  0.2923  0.2782
    7MPD2    H713974   2.873   1.051  12.753 -1.4321 -0.7039  1.0018
    8TMC3    C113975   2.724   0.497  12.462 -0.2463  0.0602 -0.7068
    8TMC3    C213976   2.794   0.394  12.518 -0.8612  0.0548  0.1389
    8TMC3    C313977   2.923   0.369  12.473  0.1992 -0.4531  0.0428
    8TMC3    C413978   2.775   0.568  12.356 -0.0927 -0.2470 -0.3933
    8TMC3    C513979   2.897   0.544  12.314  0.1039  0.2278  1.0206
    8TMC3    C613980   2.975   0.441  12.368 -0.4456  0.1953  0.3704
    8TMC3     C13981   2.706   0.596  12.564  0.1495  0.0188  0.6212
    8TMC3     O13982   2.662   0.701  12.532  0.0099 -0.1383 -0.1499
    8TMC3     H13983   2.745   0.339  12.598  0.6128 -0.5237  0.6404
    8TMC3    H113984   2.737   0.667  12.333 -0.5107 -0.1129  0.8912
    8TMC3    H213985   3.075   0.429  12.327  0.9906  0.4690  3.7886
    8TMC3    C713986   2.973   0.664  12.277  0.0476  0.1181  0.3924
    8TMC3    C813987   3.032   0.317  12.557 -1.0037 -0.0646 -0.2213
    8TMC3    O113988   3.069   0.700  12.343  0.8376 -0.2564 -0.6159
    8TMC3    O213989   3.149   0.330  12.523 -0.0903 -0.2281 -0.3630
    9TMC3    C113990   2.879   1.422  12.788  0.1262 -0.1254 -0.1413
    9TMC3    C213991   2.860   1.406  12.653 -0.2524  0.6783 -0.1000
    9TMC3    C313992   2.921   1.299  12.593  0.6172 -0.1050  0.6146
    9TMC3    C413993   2.942   1.328  12.865 -0.6767  0.1155 -0.3959
    9TMC3    C513994   3.005   1.229  12.795 -0.2103 -0.1083 -0.1173
    9TMC3    C613995   2.984   1.206  12.665  0.0066  0.3601 -0.3578
    9TMC3     C13996   2.798   1.523  12.850  0.1998 -0.3503  0.3319
    9TMC3     O13997   2.696   1.551  12.790  0.6096 -0.0490 -0.0415
    9TMC3     H13998   2.801   1.478  12.598 -0.2664  0.9146  0.2330
    9TMC3    H113999   2.945   1.325  12.974 -0.7457  1.7115 -0.3454
    9TMC3    H214000   3.040   1.124  12.622  2.4171  1.9722 -0.3118
    9TMC3    C714001   3.028   1.106  12.872  0.0637  0.0063  0.5222
    9TMC3    C814002   2.902   1.276  12.455  0.2928 -0.8112  0.1655
    9TMC3    O114003   3.122   1.104  12.952  0.7143 -0.0489  0.0974
    9TMC3    O214004   2.905   1.365  12.371  0.0820 -0.0409  0.0209
   10MPD2     C14005   2.870   0.934  12.059 -0.9847  0.4011 -0.0001
   10MPD2    C114006   2.908   0.875  12.175 -0.1760 -0.0404 -0.6295
   10MPD2    C214007   2.923   0.945  12.288  0.1856 -0.6687  0.5735
   10MPD2    C314008   2.909   1.083  12.296 -0.1054 -1.1423  1.3997
   10MPD2    C414009   2.890   1.150  12.176  0.5061  0.4107  0.0047
   10MPD2    C514010   2.872   1.076  12.061 -0.4034 -0.3808  0.4085
   10MPD2     H14011   2.950   0.896  12.380  0.4979 -0.1020  0.7863
   10MPD2    H114012   2.876   1.257  12.179  1.0518  0.4542  0.8350
   10MPD2    H214013   2.842   0.885  11.967  0.5065 -2.1260  0.8896
   10MPD2    H314014   2.859   1.124  11.965  0.9952 -1.4746 -0.3459
   10MPD2     N14015   2.913   1.144  12.423 -0.3949 -0.2930  0.4318
   10MPD2    H514016   2.923   1.083  12.504  1.3925 -1.5661 -0.7606
   10MPD2    N114017   2.910   0.731  12.175 -0.4407  0.2306  0.4890
   10MPD2    H714018   2.857   0.676  12.108 -1.2083  2.7831 -0.9903
   11MPD2     C14019   4.378   4.440  13.183 -0.4478 -0.1845  0.6200
   11MPD2    C114020   4.271   4.471  13.266 -0.1275  0.5790  0.3098
   11MPD2    C214021   4.157   4.540  13.220 -0.7219 -0.2805  0.1185
   11MPD2    C314022   4.153   4.583  13.088  0.3263 -0.4475  0.3819
   11MPD2    C414023   4.260   4.550  13.005 -0.0131 -0.1909  0.3207
   11MPD2    C514024   4.365   4.485  13.055 -1.0352  0.0966  0.3400
   11MPD2     H14025   4.081   4.571  13.291 -1.9435  0.0935 -1.3656
   11MPD2    H114026   4.263   4.548  12.896  0.9281  0.4698  0.3342
   11MPD2    H214027   4.476   4.401  13.206 -0.6536  0.1989  2.1080
   11MPD2    H314028   4.445   4.467  12.985 -0.5780 -0.7268  1.0801
   11MPD2     N14029   4.041   4.645  13.027  0.7661 -0.2615  0.0128
   11MPD2    H514030   4.057   4.675  12.931  0.7467  1.6132  0.6042
   11MPD2    N114031   4.265   4.431  13.404 -0.6783 -0.6087  0.1062
   11MPD2    H714032   4.190   4.474  13.456 -0.4909  2.1235 -1.9030
    1MPD1     C14033   2.305   1.852  16.487 -0.4701  0.4879  0.2080
    1MPD1    C114034   2.350   1.811  16.614 -0.2034 -0.4969 -0.8884
    1MPD1    C214035   2.329   1.679  16.654 -0.1456  0.1204 -0.2973
    1MPD1    C314036   2.245   1.592  16.585 -0.0054 -0.7243  0.1048
    1MPD1    C414037   2.187   1.635  16.466 -0.3085 -0.3592  0.5746
    1MPD1    C514038   2.231   1.756  16.419 -0.1502 -0.0688 -1.0481
    1MPD1     H14039   2.370   1.648  16.749 -1.9270  2.0246  1.0783
    1MPD1    H114040   2.128   1.568  16.405 -0.4373  2.9718 -2.9322
    1MPD1    H214041   2.329   1.948  16.442  1.3586  0.1381  0.4323
    1MPD1    H314042   2.190   1.779  16.322 -0.5459  0.9057 -0.6482
    1MPD1     N14043   2.214   1.463  16.623 -0.1552  0.3447  0.3447
    1MPD1    H514044   2.156   1.419  16.552 -0.1000  0.3872  0.2745
    1MPD1    N114045   2.440   1.900  16.684 -1.0284 -0.2013 -0.4175
    1MPD1    H614046   2.452   1.880  16.783 -3.9181 -0.5073 -0.1022
    1MPD1    H714047   2.408   1.996  16.669  1.9420  1.1840  2.0457
    2MPD1     C14048   1.480   0.886  16.674 -0.0539 -0.0317 -0.2588
    2MPD1    C114049   1.579   0.798  16.719  0.2334  0.1180 -0.2158
    2MPD1    C214050   1.706   0.844  16.715  0.0933  0.3688  0.0168
    2MPD1    C314051   1.744   0.952  16.640 -0.8516 -0.0362  0.4294
    2MPD1    C414052   1.647   1.034  16.586  0.2952 -0.4240  0.6263
    2MPD1    C514053   1.512   1.003  16.616  0.5040 -0.0412  0.4035
    2MPD1     H14054   1.782   0.795  16.775 -0.5348 -1.1451 -0.4283
    2MPD1    H114055   1.665   1.122  16.524  0.8046  0.4759  2.0559
    2MPD1    H214056   1.379   0.874  16.712  0.3859  0.8505  1.1810
    2MPD1    H314057   1.438   1.072  16.576  0.9747  0.1321 -0.1762
    2MPD1     N14058   1.884   0.980  16.639 -0.7102  0.3067  0.7704
    2MPD1    H514059   1.937   0.927  16.708 -0.3258 -1.1764 -0.6652
    2MPD1    N114060   1.548   0.684  16.795  0.5356 -0.5660  0.0713
    2MPD1    H614061   1.453   0.651  16.779  1.2106 -2.3621 -0.2556
    2MPD1    H714062   1.608   0.603  16.780 -2.0773 -2.3641 -0.5779
    3TMC3    C114063   2.080   1.098  16.617 -0.1064  0.2740  0.1771
    3TMC3    C214064   2.139   0.998  16.697 -0.2329  0.3200 -0.8777
    3TMC3    C314065   2.238   1.033  16.785  0.3563 -0.8632 -0.1470
    3TMC3    C414066   2.122   1.227  16.624  0.1470  0.1952  0.7393
    3TMC3    C514067   2.231   1.254  16.708 -0.1874 -0.2050 -0.5124
    3TMC3    C614068   2.289   1.161  16.793  0.0364  0.5799 -0.4576
    3TMC3     C14069   1.944   1.082  16.577  0.3918 -0.0453 -0.1883
    3TMC3     O14070   1.898   1.177  16.515  0.4743  0.2882 -0.1434
    3TMC3     H14071   2.103   0.897  16.684 -0.0286 -0.1949  2.5668
    3TMC3    H114072   2.057   1.308  16.594 -1.3048 -1.2384  0.0456
    3TMC3    H214073   2.378   1.180  16.851  0.4638  2.1057 -1.6371
    3TMC3    C714074   2.260   1.389  16.729 -0.0478  0.1002 -0.6154
    3TMC3    C814075   2.319   0.925  16.838 -0.1699  0.2015  0.8724
    3TMC3    O114076   2.325   1.424  16.824 -0.0910  0.3551 -0.2396
    3TMC3    O214077   2.398   0.956  16.928  0.2923  0.5019 -0.3190
    4MPD1     C14078   2.630   0.532  16.728 -0.4308  0.8840 -0.2731
    4MPD1    C114079   2.565   0.572  16.615 -0.4241 -0.0045 -0.1918
    4MPD1    C214080   2.461   0.659  16.620 -0.0258  0.3251  0.4397
    4MPD1    C314081   2.429   0.722  16.743 -0.7846 -0.1303  0.5805
    4MPD1    C414082   2.502   0.697  16.859 -0.2501 -0.2631  0.4721
    4MPD1    C514083   2.590   0.588  16.847 -0.1710 -0.1259 -0.2013
    4MPD1     H14084   2.398   0.675  16.534 -0.6032  2.0737  1.1852
    4MPD1    H114085   2.485   0.743  16.956  1.0090 -0.9171  1.0059
    4MPD1    H214086   2.708   0.457  16.735 -2.0057 -0.7909 -0.5378
    4MPD1    H314087   2.639   0.550  16.936 -1.5733 -0.1013  0.5794
    4MPD1     N14088   2.325   0.825  16.745  0.0218 -0.0037 -0.1107
    4MPD1    H514089   2.275   0.832  16.657 -2.3111  1.8370  1.3807
    4MPD1    N114090   2.594   0.515  16.495 -0.2722 -0.0436  0.0691
    4MPD1    H614091   2.582   0.575  16.414 -0.0137  0.0273  0.0820
    4MPD1    H714092   2.693   0.490  16.488  0.0686  0.8095  1.8862
    1TCq1    O114093   3.405   0.306   8.828 -0.5440 -0.0758 -0.1839
    1TCq1    C114094   3.464   0.399   8.905 -0.0774  0.5530  0.4440
    1TCq1    O214095   3.577   0.396   8.951 -0.3587 -0.2467 -0.4037
    1TCq1    C214096   3.396   0.523   8.877  0.4818 -0.3535 -0.5894
    1TCq1    C314097   3.393   0.561   8.747 -0.9056 -0.2907  0.1174
    1TCq1    C414098   3.406   0.698   8.713  0.6029  0.2303  0.4672
    1TCq1    C514099   3.433   0.789   8.809 -0.0445 -0.2251 -0.0277
    1TCq1    C614100   3.438   0.743   8.939  0.5447 -0.2614 -0.4211
    1TCq1    C714101   3.422   0.613   8.979 -0.3575  0.0233  0.1696
    1TCq1    C814102   3.489   0.832   9.045 -0.6461  0.7165  0.4146
    1TCq1    O414103   3.491   0.786   9.162  0.2861 -0.2912  0.4210
    1TCq1    C914104   3.435   0.743   8.576 -0.4690  0.4023  0.4502
    1TCq1    O514105   3.474   0.862   8.562  0.3548 -0.0830 -0.3942
    1TCq1    O614106   3.444   0.647   8.495 -0.6387  0.3321 -0.6327
    1TCq1    H114107   3.314   0.326   8.797 -1.1071 -0.2875  1.3366
    1TCq1    H214108   3.393   0.491   8.664 -0.3315 -1.2669  0.9439
    1TCq1    H314109   3.442   0.895   8.786  2.0698 -0.7219 -1.5221
    1TCq1    H414110   3.430   0.580   9.082  0.9158 -0.2992 -0.0321
    2MPD1     C14111   3.738   1.230   9.240 -0.1480  0.4197  0.0341
    2MPD1    C114112   3.749   1.236   9.106  0.6425 -0.4402  0.5260
    2MPD1    C214113   3.670   1.149   9.030  0.4642 -0.1530  0.1295
    2MPD1    C314114   3.593   1.050   9.083 -0.2970  0.1138 -0.3332
    2MPD1    C414115   3.583   1.047   9.215  0.1085  0.5739 -0.2448
    2MPD1    C514116   3.656   1.134   9.292  0.2607  0.0195 -0.1245
    2MPD1     H14117   3.675   1.155   8.922  0.3959  1.1123  0.1947
    2MPD1    H114118   3.527   0.974   9.270  0.1618  0.8675  0.1981
    2MPD1    H214119   3.782   1.310   9.300  2.8418 -0.5604 -0.8457
    2MPD1    H314120   3.622   1.137   9.395 -2.3016 -1.3060 -0.9496
    2MPD1     N14121   3.535   0.956   9.002  0.4279  0.1490 -0.0084
    2MPD1    H514122   3.532   0.985   8.905  0.6171  2.0474  0.5539
    2MPD1    N114123   3.822   1.337   9.042 -0.5322 -0.2894 -0.0553
    2MPD1    H614124   3.895   1.368   9.106 -1.5716 -1.5152  1.7012
    2MPD1    H714125   3.874   1.298   8.963 -1.4356 -2.8546  0.6288
    1TMC1    C114126   0.254   1.384   0.329 -0.1929 -0.0504  0.2818
    1TMC1    C214127   0.150   1.456   0.391 -0.0752  0.2677 -0.6247
    1TMC1    C314128   0.016   1.430   0.359  0.4941  0.4606 -0.5063
    1TMC1    C414129   0.220   1.307   0.228 -0.0552  0.6632  0.7674
    1TMC1    C514130   0.094   1.279   0.191 -0.1819 -0.0403 -0.0064
    1TMC1    C614131   4.728   1.333   0.261  0.3210  0.6768 -0.0388
    1TMC1     C14132   0.390   1.381   0.386  0.3662  0.6103 -0.2361
    1TMC1     O14133   0.472   1.302   0.340  0.1927 -0.1968  0.1776
    1TMC1     H14134   0.173   1.517   0.478  2.3994 -0.1849 -0.9594
    1TMC1    H114135   0.300   1.256   0.176 -1.4787 -0.0092 -0.7811
    1TMC1    H214136   4.628   1.304   0.229 -0.8444  2.4362  1.9508
    1TMC1    C714137   0.079   1.231   0.052 -0.1971  1.0810  0.0007
    1TMC1    C814138   4.648   1.474   0.446  0.1614  0.3219  0.3039
    1TMC1    O114139   4.714   1.257  17.733 -0.1230 -0.1083  0.5071
    1TMC1    O214140   4.653   1.461   0.566  0.2132  0.8841  0.7435
    1TMC1    O314141   0.139   1.109   0.057 -0.3165 -0.2363  0.4110
    1TMC1    H314142   0.173   1.094   0.148  0.1588 -0.4867  0.1933
    1TMC1    O514143   4.543   1.455   0.370 -0.6629 -0.2400  0.2961
    1TMC1    H514144   4.556   1.489   0.279 -0.5412 -0.3932  0.2569
    2MPD1     C14145   0.697   1.510   0.774  0.7533  0.0412  0.1568
    2MPD1    C114146   0.598   1.606   0.773  0.2473  0.4489  0.4648
    2MPD1    C214147   0.492   1.571   0.693 -0.1472 -0.7610  0.0136
    2MPD1    C314148   0.506   1.482   0.585  0.3040 -0.9068 -0.5920
    2MPD1    C414149   0.618   1.414   0.579  0.1054 -0.0410 -0.3733
    2MPD1    C514150   0.711   1.418   0.671  0.7756 -0.6469  0.2295
    2MPD1     H14151   0.403   1.633   0.705 -1.6674 -2.9975  0.2044
    2MPD1    H114152   0.622   1.339   0.500 -1.1862 -2.0921  1.5286
    2MPD1    H214153   0.771   1.513   0.854  0.4688  3.1272  0.2978
    2MPD1    H314154   0.795   1.351   0.660 -0.4221 -2.0401 -0.4096
    2MPD1     N14155   0.398   1.468   0.493  0.2675  0.0150  0.6801
    2MPD1    H514156   0.313   1.516   0.519  0.0668 -0.1384  0.3050
    2MPD1    N114157   0.588   1.708   0.874  0.0165 -0.1682  0.1316
    2MPD1    H614158   0.509   1.771   0.858  0.4763  0.6870  1.2699
    2MPD1    H714159   0.672   1.765   0.876  0.1607 -0.3056 -1.6584
    1MPD1     C14160   0.708   1.514  10.275 -0.4485 -0.2516 -0.8462
    1MPD1    C114161   0.704   1.577  10.393  0.0829  0.3383 -0.9992
    1MPD1    C214162   0.758   1.515  10.504 -0.7432  0.6593 -0.4417
    1MPD1    C314163   0.831   1.398  10.493 -0.3264  1.2711 -0.0788
    1MPD1    C414164   0.848   1.349  10.370  0.4504  0.1289  0.7180
    1MPD1    C514165   0.782   1.399  10.260  0.0172 -0.2233 -0.3947
    1MPD1     H14166   0.747   1.565  10.600 -5.0824  0.0638 -0.6340
    1MPD1    H114167   0.908   1.259  10.358  1.5444  0.9124  0.2563
    1MPD1    H214168   0.652   1.555  10.191 -0.5889 -1.3097 -1.2602
    1MPD1    H314169   0.787   1.349  10.164 -0.4090  1.9476 -1.5738
    1MPD1     N14170   0.896   1.343  10.608 -0.2285 -0.5372  0.0269
    1MPD1    H514171   0.873   1.383  10.698  0.1455  0.6654 -0.4089
    1MPD1    N114172   0.618   1.686  10.403  0.0772  0.2924 -0.1595
    1MPD1    H614173   0.642   1.755  10.474 -3.5274  1.2443  0.1662
    1MPD1    H714174   0.598   1.739  10.319  2.5066  2.1927  0.4661
    2MPD1     C14175   3.822   1.141  11.343 -0.9465 -0.5269 -0.4678
    2MPD1    C114176   3.862   1.157  11.210 -0.2721  0.3706 -0.0215
    2MPD1    C214177   3.998   1.160  11.189 -0.0562 -0.7318 -0.0508
    2MPD1    C314178   4.093   1.135  11.290 -0.0911 -0.4238 -0.1848
    2MPD1    C414179   4.045   1.105  11.415 -0.6773 -0.1914 -0.0601
    2MPD1    C514180   3.909   1.108  11.445 -0.5316  0.7339  0.5540
    2MPD1     H14181   4.034   1.176  11.088 -0.0090  1.0291  0.2535
    2MPD1    H114182   4.109   1.071  11.496  0.1634 -1.1351 -1.1229
    2MPD1    H214183   3.722   1.167  11.375 -0.3232  0.7142  0.4490
    2MPD1    H314184   3.865   1.094  11.543  0.5085  1.3953  1.1224
    2MPD1     N14185   4.228   1.139  11.267 -0.6506  0.1455 -0.7299
    2MPD1    H514186   4.288   1.165  11.346 -2.3547  1.8173  0.0036
    2MPD1    N114187   3.770   1.196  11.117  0.5521 -0.4052 -0.4697
    2MPD1    H614188   3.801   1.179  11.021  0.6720  1.2495 -0.7223
    2MPD1    H714189   3.682   1.148  11.137 -0.2121  0.8617 -0.8226
    3MPD1     C14190   0.117   1.576  10.569  0.4781  0.1703 -0.5824
    3MPD1    C114191   0.175   1.582  10.693 -0.9531  0.0550 -0.8487
    3MPD1    C214192   0.121   1.501  10.795  0.2052  0.0516 -0.1996
    3MPD1    C314193   0.021   1.417  10.766  0.7349  1.4756  0.1672
    3MPD1    C414194   4.699   1.411  10.638  0.0003  0.5119  0.8015
    3MPD1    C514195   0.014   1.494  10.547 -0.3823 -1.5961 -0.1549
    3MPD1     H14196   0.168   1.501  10.893 -0.3394 -1.9290  0.0616
    3MPD1    H114197   4.617   1.344  10.613  0.6532  0.8188 -2.1800
    3MPD1    H214198   0.163   1.627  10.486 -0.7419  4.0569  1.1011
    3MPD1    H314199   4.713   1.488  10.445  0.7603 -0.2580 -0.6563
    3MPD1     N14200   4.716   1.330  10.870 -0.1940  0.0768 -0.1986
    3MPD1    H514201   0.001   1.362  10.964  2.5902  2.1758 -1.5253
    3MPD1    N114202   0.287   1.667  10.718 -0.1443  0.0515  0.0445
    3MPD1    H614203   0.346   1.633  10.794 -0.7305 -0.6910  0.1626
    3MPD1    H714204   0.338   1.683  10.632  0.2378  0.2166  0.3006
    4MPD2     C14205   1.060   0.691  11.105  0.4172 -0.3239 -0.3234
    4MPD2    C114206   1.056   0.826  11.129 -0.4155 -0.0946 -0.1469
    4MPD2    C214207   1.012   0.870  11.250  0.0327  0.3004  0.2624
    4MPD2    C314208   0.945   0.780  11.334  0.2247 -0.1693  0.1059
    4MPD2    C414209   0.933   0.655  11.295  0.0761 -0.0816 -0.0465
    4MPD2    C514210   0.996   0.607  11.182 -0.1813 -0.0051  0.0835
    4MPD2     H14211   1.014   0.974  11.280  0.3530 -0.0178  1.3245
    4MPD2    H114212   0.887   0.584  11.363 -2.6832  2.6571  0.8814
    4MPD2    H214213   1.111   0.667  11.012  1.9463 -0.4464  0.5462
    4MPD2    H314214   1.001   0.502  11.155  1.7403  0.4555 -1.3816
    4MPD2     N14215   0.888   0.831  11.447 -0.5232 -0.2280  0.2938
    4MPD2    H514216   0.916   0.928  11.459 -1.5068 -0.1925  2.1982
    4MPD2    N114217   1.106   0.930  11.041 -0.8019 -0.1036  0.0899
    4MPD2    H714218   1.111   1.021  11.086 -2.2874 -0.2519  0.5510
    5TMC3    C114219   1.165   1.042  10.844 -0.0077  0.2709 -0.0168
    5TMC3    C214220   1.085   1.076  10.743 -0.6783 -0.4166 -0.2172
    5TMC3    C314221   1.033   1.200  10.736  0.1045  0.1693  0.2565
    5TMC3    C414222   1.219   1.144  10.922 -0.3841 -0.5736 -0.0617
    5TMC3    C514223   1.156   1.266  10.926  0.2601 -0.2047  0.3639
    5TMC3    C614224   1.068   1.297  10.830  0.1415  0.2235  0.1962
    5TMC3     C14225   1.133   0.916  10.904 -0.1301  1.1487  0.8512
    5TMC3     O14226   1.136   0.821  10.825  0.1300  0.1819  0.1276
    5TMC3     H14227   1.058   1.002  10.668 -1.2467  1.7466 -2.1323
    5TMC3    H114228   1.288   1.119  11.002  0.3351  0.5160 -0.3502
    5TMC3    H214229   1.016   1.392  10.823 -0.6664 -0.4741 -3.2175
    5TMC3    C714230   1.097   1.280  11.060  0.6332  0.7133  0.0875
    5TMC3    C814231   0.964   1.223  10.616  0.1648  0.3504 -0.1356
    5TMC3    O114232   1.113   1.179  11.129 -0.2487  0.1329  0.2193
    5TMC3    O214233   1.013   1.159  10.524  0.0520 -0.2474 -0.5880
    6TMC3    C114234   4.424   1.109  11.142  0.0928  0.4323 -0.4559
    6TMC3    C214235   4.467   1.138  11.011 -0.1000  0.4637  0.8623
    6TMC3    C314236   4.599   1.162  10.993 -0.1490 -0.3298  0.2640
    6TMC3    C414237   4.513   1.105  11.251 -0.3103  0.4010  0.1964
    6TMC3    C514238   4.646   1.121  11.225 -1.0991  0.0177  0.3710
    6TMC3    C614239   4.692   1.156  11.096  0.1139 -0.3306  0.0944
    6TMC3     C14240   4.278   1.096  11.149  0.0753 -0.5595  0.9922
    6TMC3     O14241   4.227   1.083  11.041  0.2787 -0.6679 -0.0161
    6TMC3     H14242   4.397   1.155  10.930  0.9679 -1.0825 -0.3817
    6TMC3    H114243   4.481   1.083  11.352 -1.0870 -1.1906 -0.4001
    6TMC3    H214244   0.061   1.173  11.072  0.5030 -1.5521  0.9271
    6TMC3    C714245   0.006   1.078  11.322 -0.3668 -0.1319 -1.1286
    6TMC3    C814246   4.644   1.215  10.867  0.1050  0.7219  0.5975
    6TMC3    O114247   0.125   1.079  11.286 -0.3777 -0.2543 -0.1884
    6TMC3    O214248   4.597   1.159  10.767 -0.1458 -0.0509  0.3555
    7MPD2     C14249   0.834   1.520  11.419  0.1785  0.0575 -0.0511
    7MPD2    C114250   0.866   1.385  11.411 -0.1764 -0.2367  0.2255
    7MPD2    C214251   0.935   1.340  11.297  0.7129  0.4549 -0.5848
    7MPD2    C314252   0.969   1.429  11.196  0.5134 -0.3326  0.5280
    7MPD2    C414253   0.931   1.564  11.207 -0.3545 -0.1173 -0.4561
    7MPD2    C514254   0.865   1.606  11.319  0.1888 -0.2040 -0.4478
    7MPD2     H14255   0.953   1.234  11.280  0.4527  0.2773  0.2629
    7MPD2    H114256   0.960   1.635  11.130  1.2892 -0.9047 -0.5519
    7MPD2    H214257   0.782   1.551  11.509 -2.7258 -0.3502 -1.5565
    7MPD2    H314258   0.850   1.712  11.335 -0.7801 -0.7188  2.0004
    7MPD2     N14259   1.032   1.396  11.078  0.5119  0.3879  0.0861
    7MPD2    H514260   1.034   1.470  11.008  0.1749 -0.1150 -0.4575
    7MPD2    N114261   0.830   1.311  11.525 -0.1610  0.8422 -0.3364
    7MPD2    H714262   0.782   1.356  11.602  0.8503  0.2508  0.6208
    8TMC3    C114263   0.803   1.095  11.647  0.6777  0.3584  0.3557
    8TMC3    C214264   0.672   1.108  11.662  0.1795  0.0781  0.4865
    8TMC3    C314265   0.594   0.999  11.682 -0.3383 -0.4291  0.7357
    8TMC3    C414266   0.858   0.972  11.639 -0.0818 -0.1094 -0.5504
    8TMC3    C514267   0.781   0.860  11.645  0.2580 -0.6138  0.7513
    8TMC3    C614268   0.644   0.871  11.669  0.3216  0.4066 -0.3003
    8TMC3     C14269   0.856   1.176  11.536 -0.0753 -0.3391  1.2128
    8TMC3     O14270   0.937   1.113  11.474 -0.2922  0.1669 -0.0816
    8TMC3     H14271   0.629   1.207  11.669  1.9961  0.7255  2.3276
    8TMC3    H114272   0.966   0.963  11.636 -0.1552 -1.0722 -0.3323
    8TMC3    H214273   0.585   0.784  11.644  1.5770 -0.7173  0.6661
    8TMC3    C714274   0.828   0.767  11.545 -0.5331 -0.0048 -0.0233
    8TMC3    C814275   0.460   1.009  11.629  0.2692 -0.2300 -0.3221
    8TMC3    O114276   0.779   0.657  11.556  0.1687 -0.1450  0.6355
    8TMC3    O214277   0.433   1.107  11.558 -0.3924 -0.2987 -0.0625
    9MPD2     C14278   0.182   0.800  11.724  0.1495 -0.5635 -0.5386
    9MPD2    C114279   0.246   0.883  11.646 -0.1249 -0.3072  1.0778
    9MPD2    C214280   0.176   0.958  11.552 -0.5475  0.4586  0.4343
    9MPD2    C314281   0.037   0.945  11.532 -0.2017 -0.6756  1.0304
    9MPD2    C414282   4.706   0.872  11.629  0.0835  0.3211 -0.5297
    9MPD2    C514283   0.044   0.788  11.710  0.5632  0.5547  0.6650
    9MPD2     H14284   0.222   1.030  11.485 -1.5378  1.0341  0.3903
    9MPD2    H114285   4.602   0.850  11.609  0.0224  0.4586 -0.3666
    9MPD2    H214286   0.236   0.752  11.805  1.6239  0.8090 -0.7012
    9MPD2    H314287   4.730   0.723  11.781  0.0266  0.4836  0.2282
    9MPD2     N14288   4.695   1.008  11.434 -0.5753  0.0819  0.0312
    9MPD2    H514289   4.598   0.978  11.436 -0.5898  0.1601  0.6080
    9MPD2    N114290   0.382   0.904  11.677 -0.9576 -0.5417 -0.6044
    9MPD2    H714291   0.430   0.835  11.733 -3.5186 -1.6838  0.1881
    1MPD1     C14292   0.369   0.032  16.518  0.2684 -0.2488  0.3999
    1MPD1    C114293   0.319   4.684  16.419  0.2611 -0.5984  0.0781
    1MPD1    C214294   0.202   4.613  16.437 -0.4148  0.1065  0.0912
    1MPD1    C314295   0.127   4.625  16.553 -0.4552  0.7956 -0.1552
    1MPD1    C414296   0.184   4.706  16.649 -0.5034 -0.3669  0.5186
    1MPD1    C514297   0.302   0.044  16.637 -1.1426  0.4329  0.4281
    1MPD1     H14298   0.167   4.553  16.353  2.5772  1.5697 -2.1933
    1MPD1    H114299   0.120   4.718  16.737 -0.2569  0.3202  0.6034
    1MPD1    H214300   0.455   0.098  16.511 -0.8513  1.2789  0.9423
    1MPD1    H314301   0.337   0.113  16.712 -1.5540  0.4973  0.5632
    1MPD1     N14302   0.008   4.568  16.586 -0.1161  0.5961 -1.3823
    1MPD1    H514303   4.711   4.580  16.681 -2.1784  0.1331 -2.0333
    1MPD1    N114304   0.386   4.684  16.302  0.1867 -0.3446  0.5304
    1MPD1    H614305   0.358   4.595  16.261 -1.5877  0.8987 -1.0048
    1MPD1    H714306   0.486   4.683  16.319  0.2430  0.7366  0.3093
    2TMC2    C114307   4.321   4.371  16.538 -0.6223 -0.5581  0.0913
    2TMC2    C214308   4.313   4.354  16.671 -0.3213  0.0950  0.0120
    2TMC2    C314309   4.422   4.371  16.747 -0.1272 -0.2102 -0.1389
    2TMC2    C414310   4.438   4.409  16.480 -0.6562  0.0248  0.5997
    2TMC2    C514311   4.547   4.434  16.567  0.1405 -0.3930 -0.5766
    2TMC2    C614312   4.535   4.433  16.702 -0.4020 -0.1544 -0.3944
    2TMC2     C14313   4.202   4.346  16.457 -0.2102 -0.5812 -0.6836
    2TMC2     O14314   4.099   4.347  16.519  0.2301 -0.3225  0.0748
    2TMC2     H14315   4.232   4.301  16.721 -2.3589  0.1502 -3.2010
    2TMC2    H114316   4.442   4.441  16.376  1.3801 -0.6858  0.4715
    2TMC2    H214317   4.619   4.454  16.767 -0.8932  0.2989  0.0983
    2TMC2    C714318   4.668   4.488  16.504  0.2676  0.5853 -0.6137
    2TMC2    C814319   4.406   4.387  16.885  0.8016 -0.5343  0.0337
    2TMC2    O114320   4.689   4.464  16.387  0.2572  0.4774 -0.7160
    2TMC2    O214321   4.334   4.303  16.938 -0.1373 -0.1671 -0.4210
    2TMC2    O514322   4.378   4.520  16.891 -0.0002 -0.2841 -0.1753
    2TMC2    H514323   4.402   4.566  16.808 -0.3275 -1.1227 -0.7357
    3MPD1     C14324   3.956   4.163  16.038 -0.4321  0.0571  0.3855
    3MPD1    C114325   4.090   4.131  16.025 -0.4401  0.2855  0.2395
    3MPD1    C214326   4.182   4.179  16.119 -0.6081 -0.0161 -0.2266
    3MPD1    C314327   4.140   4.248  16.233 -0.0141 -0.1958 -0.2131
    3MPD1    C414328   4.003   4.259  16.255  0.4847 -0.1948 -0.1527
    3MPD1    C514329   3.914   4.219  16.159  0.1190 -0.3220 -0.5580
    3MPD1     H14330   4.288   4.161  16.122 -0.5201  0.3851 -1.1496
    3MPD1    H114331   3.953   4.307  16.339  0.4814 -0.6191  0.0854
    3MPD1    H214332   3.884   4.142  15.960  0.6221  2.9796 -1.4032
    3MPD1    H314333   3.810   4.243  16.176 -0.3255 -1.1635 -2.0888
    3MPD1     N14334   4.231   4.297  16.329 -0.2603 -0.0089 -0.3571
    3MPD1    H514335   4.330   4.283  16.309  0.1515  1.1836  0.8017
    3MPD1    N114336   4.128   4.081  15.900 -0.3459  0.2238 -0.1472
    3MPD1    H614337   4.202   4.011  15.910 -1.7841 -1.1041  1.3130
    3MPD1    H714338   4.048   4.029  15.865  0.4689 -1.9204  1.1334
    1TMC1    C114339   3.639   3.730  14.058 -0.0807  0.8178 -0.6913
    1TMC1    C214340   3.719   3.835  14.005 -0.8347  0.1835  0.3780
    1TMC1    C314341   3.701   3.870  13.877  0.1845 -0.3245  0.4742
    1TMC1    C414342   3.552   3.663  13.975 -0.0278 -0.6763 -0.1950
    1TMC1    C514343   3.526   3.712  13.849 -0.1031 -0.4579  0.1750
    1TMC1    C614344   3.604   3.816  13.804 -0.8035 -0.9457  0.2135
    1TMC1     C14345   3.610   3.733  14.200  0.1165  0.8150  0.3619
    1TMC1     O14346   3.490   3.726  14.222 -0.0029  0.3653 -0.1215
    1TMC1     H14347   3.794   3.885  14.066 -0.3447 -0.6421  0.4632
    1TMC1    H114348   3.485   3.594  14.025  0.6931 -0.6337  0.8394
    1TMC1    H214349   3.574   3.865  13.712 -0.9755  0.2870  0.9346
    1TMC1    C714350   3.390   3.711  13.814 -0.7845  0.1475 -0.1138
    1TMC1    C814351   3.737   4.011  13.852  0.2159 -0.0550 -0.3301
    1TMC1    O114352   3.341   3.804  13.752 -0.6407 -0.1051 -0.4806
    1TMC1    O214353   3.785   4.071  13.946 -0.6221  0.0681 -0.1537
    1TMC1    O314354   3.323   3.624  13.883  0.6614  0.2295  0.3365
    1TMC1    H314355   3.382   3.547  13.898 -1.0983 -1.5241 -1.8531
    1TMC1    O514356   3.761   4.030  13.719  0.6006  0.5283  0.0965
    1TMC1    H514357   3.754   3.950  13.663 -2.1434  1.0513 -0.2831
    2MPD2     C14358   3.623   3.730  14.501  0.1350  0.8046  0.6129
    2MPD2    C114359   3.733   3.720  14.416  0.4777 -0.4346 -0.2529
    2MPD2    C214360   3.857   3.716  14.477  0.2756  0.3803 -0.6511
    2MPD2    C314361   3.872   3.738  14.619  0.5705  0.8998  0.5767
    2MPD2    C414362   3.760   3.741  14.701  0.3489 -0.5922  0.7561
    2MPD2    C514363   3.638   3.731  14.638  0.6966 -0.2081  0.6672
    2MPD2     H14364   3.945   3.711  14.414 -0.2442 -4.2498 -0.9826
    2MPD2    H114365   3.772   3.747  14.809  2.4793  0.7192  0.4636
    2MPD2    H214366   3.524   3.745  14.459  0.5137 -0.2847 -0.6484
    2MPD2    H314367   3.544   3.735  14.692  0.6130  1.7778  0.3971
    2MPD2     N14368   4.003   3.729  14.669  0.9012 -0.0571  0.0769
    2MPD2    H514369   4.079   3.714  14.605 -0.1736 -1.4559 -0.8903
    2MPD2    N114370   3.725   3.720  14.274  0.9054  1.1347 -0.2906
    2MPD2    H714371   3.811   3.691  14.228  0.7126 -1.6462  1.1490
    3TCq1    O114372   4.261   3.669  15.193  0.1561  0.2143 -0.3052
    3TCq1    C114373   4.369   3.634  15.123 -0.2216  0.2477 -1.0286
    3TCq1    O214374   4.455   3.550  15.143 -0.1864  0.2232 -0.1058
    3TCq1    C214375   4.345   3.685  14.994 -0.4134 -0.1365  0.3555
    3TCq1    C314376   4.427   3.636  14.894  0.4140  0.7257 -0.7116
    3TCq1    C414377   4.385   3.598  14.770 -0.2745 -1.1227 -0.1052
    3TCq1    C514378   4.259   3.632  14.732  0.5585 -0.2154  0.0365
    3TCq1    C614379   4.184   3.702  14.825  0.0574 -0.4963 -0.4730
    3TCq1    C714380   4.222   3.715  14.954  0.1407  0.0796 -0.7648
    3TCq1    C814381   4.037   3.713  14.805 -0.6874 -0.0119 -0.0338
    3TCq1    O414382   3.969   3.729  14.903 -0.7123  0.2147 -0.0846
    3TCq1    C914383   4.479   3.544  14.668  0.3533  0.1154  0.2164
    3TCq1    O514384   4.598   3.578  14.673 -0.7321 -0.3050  0.5392
    3TCq1    O614385   4.429   3.486  14.572  0.3428 -0.3118 -0.3141
    3TCq1    H114386   4.258   3.766  15.186 -1.5577  0.1673 -0.1619
    3TCq1    H214387   4.530   3.611  14.918  0.1150  0.0185 -0.1869
    3TCq1    H314388   4.231   3.613  14.629 -0.1843 -0.3784  0.2744
    3TCq1    H414389   4.159   3.772  15.021  3.1293  1.4668  0.8931
    1MPD2     C14390   2.712   4.523  14.205 -0.1282  0.5702 -0.5186
    1MPD2    C114391   2.654   4.447  14.300 -0.2813  0.7384  0.2969
    1MPD2    C214392   2.722   4.427  14.418 -0.3697  0.1536 -0.3409
    1MPD2    C314393   2.849   4.473  14.440  0.5803 -0.1085  0.2340
    1MPD2    C414394   2.915   4.542  14.338  0.0069  0.3169 -0.9567
    1MPD2    C514395   2.841   4.570  14.223 -0.4814 -0.3452 -0.5682
    1MPD2     H14396   2.670   4.372  14.496 -2.5893 -0.9075 -2.5772
    1MPD2    H114397   3.011   4.589  14.355 -0.4021  0.4872  0.8825
    1MPD2    H214398   2.650   4.560  14.125 -2.2470  2.3387  1.9577
    1MPD2    H314399   2.894   4.634  14.153  0.2797 -0.2189  0.1136
    1MPD2     N14400   2.913   4.433  14.559 -0.4940  0.6446  0.0920
    1MPD2    H514401   2.861   4.372  14.622  2.0278 -1.5022  0.0795
    1MPD2    N114402   2.521   4.393  14.277 -0.1534 -0.4708  0.6547
    1MPD2    H714403   2.461   4.420  14.200 -0.9857 -0.2639  1.3800
    2TMC3    C114404   2.322   4.260  14.326 -0.4324 -0.8835  0.2747
    2TMC3    C214405   2.288   4.161  14.409  1.0242 -0.3444  0.1204
    2TMC3    C314406   2.171   4.172  14.485 -0.1436 -0.1826 -0.2151
    2TMC3    C414407   2.237   4.367  14.302 -0.3495 -0.5562  0.4245
    2TMC3    C514408   2.112   4.363  14.361 -0.2362  0.0863 -0.2453
    2TMC3    C614409   2.079   4.268  14.455  0.4984 -0.1913 -0.2401
    2TMC3     C14410   2.466   4.291  14.344  1.0236  0.3881 -0.0229
    2TMC3     O14411   2.524   4.219  14.428 -0.0256  0.0113  0.2108
    2TMC3     H14412   2.351   4.073  14.422  1.4624  0.1855  1.5509
    2TMC3    H114413   2.272   4.452  14.244 -0.7750 -2.5304 -2.7496
    2TMC3    H214414   1.985   4.277  14.508 -0.8296 -1.4163 -2.4113
    2TMC3    C714415   2.017   4.478  14.361 -0.5206 -0.1289  0.0763
    2TMC3    C814416   2.190   4.159  14.626 -0.0371 -1.2234  0.7104
    2TMC3    O114417   1.906   4.471  14.414  0.1200  0.1595  0.0280
    2TMC3    O214418   2.092   4.136  14.693 -0.6371 -0.2072 -0.3786
    3TCq1    O114419   2.467   0.629  13.804  0.4737 -0.2316 -0.5114
    3TCq1    C114420   2.529   0.523  13.869  0.1687  0.2261 -0.1824
    3TCq1    O214421   2.535   0.408  13.825 -0.4346  0.5220 -0.0638
    3TCq1    C214422   2.498   0.535  14.009 -0.2745 -0.0425  0.2546
    3TCq1    C314423   2.458   0.654  14.058 -0.0632  0.4443 -0.6410
    3TCq1    C414424   2.366   0.654  14.160  0.0136  0.3594 -0.0793
    3TCq1    C514425   2.305   0.540  14.206 -0.3527 -0.2420 -0.9272
    3TCq1    C614426   2.355   0.423  14.159  0.1402 -0.4758 -0.3675
    3TCq1    C714427   2.445   0.418  14.053  0.4222 -0.2128 -0.5546
    3TCq1    C814428   2.291   0.299  14.192 -0.2821  0.0950  0.0937
    3TCq1    O414429   2.348   0.191  14.176 -0.7365 -0.1967 -0.3826
    3TCq1    C914430   2.322   0.775  14.230 -0.3633 -0.2692  0.4695
    3TCq1    O514431   2.348   0.886  14.179  0.5445  0.0164 -0.7181
    3TCq1    O614432   2.241   0.771  14.329 -0.1119  0.0328 -0.7541
    3TCq1    H114433   2.478   0.711  13.856 -0.7167 -0.6632  0.4212
    3TCq1    H214434   2.508   0.747  14.032 -3.7135  2.2392 -1.2696
    3TCq1    H314435   2.229   0.543  14.284 -0.0775 -0.2824 -0.6585
    3TCq1    H414436   2.468   0.318  14.017  2.3199 -0.1068  0.3912
    4MPD2     C14437   1.937   0.242  14.266  0.4214 -0.1798  0.2511
    4MPD2    C114438   2.072   0.213  14.256  0.3265 -0.1167  0.4992
    4MPD2    C214439   2.117   0.085  14.286  0.2344  0.1188  0.0932
    4MPD2    C314440   2.028   4.716  14.314  0.4793  0.7027  0.3651
    4MPD2    C414441   1.894   0.008  14.319  0.2867  0.6661 -0.0406
    4MPD2    C514442   1.851   0.134  14.293 -0.2512 -0.1156  0.6205
    4MPD2     H14443   2.222   0.058  14.284  0.0343 -0.7006  1.6482
    4MPD2    H114444   1.822   4.669  14.350  0.2586  1.8689  2.7601
    4MPD2    H214445   1.892   0.340  14.264  2.2236  0.5876 -1.9211
    4MPD2    H314446   1.745   0.148  14.307 -0.7028 -1.7558 -1.2047
    4MPD2     N14447   2.086   4.595  14.339  0.2273  0.3422 -0.1882
    4MPD2    H514448   2.187   4.581  14.334  0.1405 -1.9571  3.7036
    4MPD2    N114449   2.164   0.316  14.225  0.1298  0.5194  0.1228
    4MPD2    H714450   2.122   0.409  14.225  2.6034  1.6275  0.2594
    5TMC2    C114451   2.933   4.266  14.881 -0.2608  0.1970  0.3562
    5TMC2    C214452   2.954   4.353  14.982  0.3013  0.1811 -0.3076
    5TMC2    C314453   3.005   4.478  14.959 -0.3333 -0.6295  0.1200
    5TMC2    C414454   2.988   4.288  14.759  0.1793 -0.6749  0.0603
    5TMC2    C514455   3.046   4.411  14.742 -0.0660 -0.4681 -0.2957
    5TMC2    C614456   3.066   4.508  14.841 -0.1020  0.1913 -0.0996
    5TMC2     C14457   2.789   4.240  14.849 -0.1164  0.1129  0.4641
    5TMC2     O14458   2.774   4.245  14.726 -0.0200 -0.2699 -0.2872
    5TMC2     H14459   2.896   4.348  15.074 -0.9426  0.3371 -1.0857
    5TMC2    H114460   2.981   4.216  14.679  0.5264 -0.8031  0.1439
    5TMC2    H214461   3.107   4.605  14.816  0.9134  0.4106  2.3876
    5TMC2    C714462   3.031   4.476  14.607  0.6541 -0.6661  0.2776
    5TMC2    C814463   2.979   4.586  15.054  1.0627  0.1919  0.4434
    5TMC2    O114464   3.089   4.579  14.580 -0.1142 -0.0982 -0.4127
    5TMC2    O214465   2.900   4.575  15.148 -0.1268  0.4392 -0.2390
    5TMC2    O514466   3.079   4.670  15.046  0.3246  0.5106 -0.3961
    5TMC2    H514467   3.131   4.650  14.965  2.3574  0.8139  0.8211
    6MPD2     C14468   2.288   4.180  14.909  0.1729 -0.1645 -0.1570
    6MPD2    C114469   2.368   4.184  14.795 -0.0052  0.7175  0.0894
    6MPD2    C214470   2.502   4.193  14.808  0.2400 -0.2399 -0.7611
    6MPD2    C314471   2.565   4.190  14.929  0.1543  0.1213 -0.1051
    6MPD2    C414472   2.487   4.170  15.036 -0.5222  0.8542 -0.0128
    6MPD2    C514473   2.349   4.173  15.034  0.2010  0.1363  0.0158
    6MPD2     H14474   2.558   4.208  14.717 -0.1516  2.5773 -0.5331
    6MPD2    H114475   2.531   4.170  15.136  0.9615 -1.5571 -0.6741
    6MPD2    H214476   2.180   4.177  14.912  0.1664 -0.1755 -0.3827
    6MPD2    H314477   2.290   4.164  15.124 -0.0049 -0.3607 -0.1691
    6MPD2     N14478   2.699   4.216  14.951 -0.0898 -0.9965 -0.0199
    6MPD2    H514479   2.723   4.213  15.049 -0.3544 -0.4550  0.0612
    6MPD2    N114480   2.317   4.173  14.661 -0.3980 -0.1961 -0.0133
    6MPD2    H714481   2.381   4.188  14.584 -0.7549 -2.2170 -0.6980
  945NH3     N114482   0.048   2.557   2.435 -1.0514  0.7327  0.3335
  945NH3     H214483   0.135   2.505   2.441 -1.0340  0.7212 -0.0072
  945NH3     H314484   4.707   2.502   2.471 -1.1538  1.6429  1.4870
  945NH3     H414485   0.032   2.555   2.335 -0.9625  1.0541  0.3103
  946SOD     NA14486   3.529   0.390  15.109  0.1702  0.0818 -0.2716
  947SOD     NA14487   1.007   2.352  11.834 -0.2562 -0.0131  0.2156
  948SOD     NA14488   1.010   0.292   3.964 -0.4959  0.4326 -0.2887
  949SOD     NA14489   4.539   3.873   9.000  0.0390  0.2322  0.0098
  950SOD     NA14490   0.346   3.452   3.350  0.1733  0.0944  0.0507
  951SOD     NA14491   0.020   0.549  12.990  0.5748 -0.0310  0.2039
  952SOD     NA14492   3.815   2.422  16.787  0.1316 -0.0682 -0.2739
  953SOD     NA14493   2.225   1.038  14.272  0.0009  0.4513  0.9265
  954SOL     OW14494   0.098   0.502  12.495 -0.1790  0.5757 -0.2732
  954SOL    HW114495   0.179   0.504  12.444 -0.1185 -0.3381 -0.2119
  954SOL    HW214496   0.038   0.466  12.429 -1.6299 -0.8060  1.8049
  955SOL     OW14497   4.089   4.126   4.543  0.1162  0.4358 -0.4922
  955SOL    HW114498   4.016   4.175   4.506 -0.4202  0.5552  0.7447
  955SOL    HW214499   4.122   4.068   4.474 -0.4584 -1.7512  1.0548
  956SOL     OW14500   3.985   4.376   1.821  0.1715 -0.1407 -0.5774
  956SOL    HW114501   3.952   4.407   1.905  0.2140 -0.0413 -0.5967
  956SOL    HW214502   3.956   4.285   1.817 -0.1209 -0.0993  0.5587
  957SOL     OW14503   0.501   0.824   9.045  0.0073  0.1874  0.4688
  957SOL    HW114504   0.451   0.888   8.994 -1.4039 -2.7916 -1.8631
  957SOL    HW214505   0.563   0.784   8.985 -3.3044 -0.5777 -2.4259
  958SOL     OW14506   4.142   1.444   4.041 -0.2030 -0.1056  0.5224
  958SOL    HW114507   4.172   1.353   4.031  2.5500  0.8110  0.3359
  958SOL    HW214508   4.226   1.466   4.082  0.5107 -0.3106 -0.8061
  959SOL     OW14509   3.185   3.727  12.010  0.4706  0.0331 -0.0722
  959SOL    HW114510   3.188   3.781  11.931  1.8018 -0.5651 -0.4425
  959SOL    HW214511   3.195   3.787  12.085 -0.4304  0.3356 -0.2025
  960SOL     OW14512   0.785   2.357   7.282 -0.0504  0.0153 -0.3140
  960SOL    HW114513   0.832   2.414   7.343 -2.9604  2.5524 -0.3828
  960SOL    HW214514   0.810   2.385   7.194 -1.7415 -1.5191 -1.2765
  961SOL     OW14515   1.664   2.058   4.361  0.6247 -0.9249 -0.2141
  961SOL    HW114516   1.627   1.982   4.407  0.8614 -0.5944  0.5221
  961SOL    HW214517   1.710   2.099   4.435 -0.2774 -1.0327  0.4077
  962SOL     OW14518   1.938   1.350   2.376  0.0999  0.0054 -0.4004
  962SOL    HW114519   1.973   1.292   2.308  1.5015  0.2505  0.1302
  962SOL    HW214520   2.008   1.414   2.367  0.6094 -0.5543 -0.4711
  963SOL     OW14521   3.315   1.726  11.743 -0.0510 -0.0228  0.0428
  963SOL    HW114522   3.395   1.696  11.700  0.2219  0.2741  0.3368
  963SOL    HW214523   3.243   1.697  11.688 -0.4201  0.2837  0.3624
  964SOL     OW14524   3.055   3.667   6.900 -0.6562  0.2080  0.0827
  964SOL    HW114525   3.025   3.757   6.890  2.0087  0.9701 -1.1019
  964SOL    HW214526   3.016   3.643   6.984 -2.7386 -0.6888 -1.1437
  965SOL     OW14527   3.869   3.092   3.691 -0.8732 -0.4896 -0.0232
  965SOL    HW114528   3.794   3.074   3.634  0.0741 -1.3523 -0.9816
  965SOL    HW214529   3.829   3.138   3.765  1.5320  3.4321 -1.1461
  966SOL     OW14530   0.317   1.482   5.701  1.0171  0.2418 -0.4130
  966SOL    HW114531   0.229   1.513   5.719  0.9012  0.9239 -2.1219
  966SOL    HW214532   0.296   1.443   5.616  3.0464  2.9414 -2.1645
  967SOL     OW14533   0.821   4.052  10.477 -0.2192 -0.3508 -0.0554
  967SOL    HW114534   0.876   4.126  10.454  0.4239 -0.4992  0.9894
  967SOL    HW214535   0.757   4.050  10.405  0.1920 -1.6652 -0.3838
  968SOL     OW14536   4.444   1.325   2.716  0.2677  0.3098  0.7292
  968SOL    HW114537   4.513   1.391   2.706  1.0116 -0.0660  3.4929
  968SOL    HW214538   4.376   1.370   2.768  0.4811  1.4315  0.0403
  969SOL     OW14539   0.601   1.727   7.307  0.0489 -0.1874  0.8865
  969SOL    HW114540   0.691   1.757   7.300 -0.9233  2.8882  1.9532
  969SOL    HW214541   0.560   1.807   7.338  1.4960  0.3188  1.4616
  970SOL     OW14542   1.823   2.527   5.744 -0.0405  0.0786 -0.2838
  970SOL    HW114543   1.837   2.492   5.832 -0.5790  1.8093  0.4909
  970SOL    HW214544   1.903   2.502   5.698  0.8458 -0.8807  1.8249
  971SOL     OW14545   4.497   0.963   5.389  0.3027  0.1708  0.0966
  971SOL    HW114546   4.422   1.009   5.350  0.0019 -0.9058 -0.5896
  971SOL    HW214547   4.495   1.012   5.471  0.7404 -1.0810  0.8507
  972SOL     OW14548   2.972   0.519   5.691 -0.4456  0.3778  0.3406
  972SOL    HW114549   3.038   0.479   5.634 -0.4585 -0.5465  0.9702
  972SOL    HW214550   2.905   0.451   5.698  0.8581 -1.0464 -0.9309
  973SOL     OW14551   2.412   0.447   2.427  0.5545 -0.5016  0.0234
  973SOL    HW114552   2.445   0.396   2.502 -0.2481 -2.5318 -1.0084
  973SOL    HW214553   2.414   0.387   2.353  0.6908 -0.0261 -0.3541
  974SOL     OW14554   0.967   4.144  10.102 -0.2123  0.1048  0.7466
  974SOL    HW114555   0.975   4.050  10.116 -0.6210 -0.0174  0.1544
  974SOL    HW214556   0.873   4.154  10.120 -0.6573 -1.0065 -0.9303
  975SOL     OW14557   1.571   4.520   1.593 -0.2298  0.2387  0.2032
  975SOL    HW114558   1.610   4.605   1.614 -1.4273  0.8403 -0.0472
  975SOL    HW214559   1.502   4.529   1.528  0.8100  0.9545 -0.7998
  976SOL     OW14560   0.822   0.045   1.464 -0.0334  0.5818  0.3629
  976SOL    HW114561   0.838   0.044   1.559  1.6253 -0.0084  0.0741
  976SOL    HW214562   0.772   0.125   1.450 -2.1544 -0.8180 -0.1038
  977SOL     OW14563   0.244   1.680   7.235  0.2069  0.3039  0.2723
  977SOL    HW114564   0.282   1.698   7.321 -1.9138 -0.0895  1.2872
  977SOL    HW214565   0.196   1.762   7.226  0.4253  0.5216  1.0617
  978SOL     OW14566   0.948   3.302   4.332  0.2727  0.9970  0.1955
  978SOL    HW114567   0.903   3.362   4.272 -1.1405  0.6507  0.9068
  978SOL    HW214568   0.878   3.297   4.397  2.8685  3.0717  3.1131
  979SOL     OW14569   1.073   0.487   8.393  0.0938 -0.4092 -0.0799
  979SOL    HW114570   1.061   0.572   8.350 -0.0986 -0.6253 -0.4402
  979SOL    HW214571   0.982   0.463   8.410 -0.1153 -1.5110 -2.8573
  980SOL     OW14572   3.868   1.255  16.630  0.0107  0.6420  0.6700
  980SOL    HW114573   3.817   1.295  16.700 -2.8481  0.9260 -1.5696
  980SOL    HW214574   3.957   1.253  16.663  0.8622  0.9546 -1.6419
  981SOL     OW14575   3.974   2.849   6.694  0.8450  0.1800 -0.3310
  981SOL    HW114576   4.050   2.907   6.692  1.3773 -0.6271 -3.0908
  981SOL    HW214577   3.992   2.788   6.766 -0.6573 -1.7750 -1.6172
  982SOL     OW14578   0.876   2.749   5.067 -0.2202  0.4444 -0.0740
  982SOL    HW114579   0.958   2.759   5.116 -0.6025  0.9577  0.4499
  982SOL    HW214580   0.883   2.827   5.013  1.1574  2.5045  3.0812
  983SOL     OW14581   0.794   0.471  12.767 -0.5340  0.4367  0.3643
  983SOL    HW114582   0.771   0.557  12.732  1.1551 -0.1465 -2.1559
  983SOL    HW214583   0.823   0.418  12.693  1.9830  1.7613  0.4005
  984SOL     OW14584   4.075   0.293  11.716  0.0203  0.1100 -0.0551
  984SOL    HW114585   4.075   0.215  11.772 -0.4350 -0.0783 -0.3149
  984SOL    HW214586   4.015   0.267  11.646  2.2006  2.5473 -2.8262
  985SOL     OW14587   2.874   3.258   6.292 -0.5819  0.4847  0.0310
  985SOL    HW114588   2.887   3.341   6.338  0.1914  1.1528 -1.3974
  985SOL    HW214589   2.939   3.263   6.221 -1.2523 -1.4127 -0.7283
  986SOL     OW14590   1.032   2.230  11.631 -0.1095 -0.0149 -0.1300
  986SOL    HW114591   1.019   2.135  11.627  0.7156 -0.1089 -0.5756
  986SOL    HW214592   1.122   2.243  11.601 -1.0399  3.5151 -1.3775
  987SOL     OW14593   0.599   1.244   2.511  0.1771 -0.0930  0.1094
  987SOL    HW114594   0.559   1.172   2.462 -1.5892 -0.6347  2.3564
  987SOL    HW214595   0.536   1.269   2.578  0.2055 -0.7270  0.3682
  988SOL     OW14596   1.269   3.563   7.008  0.2136  0.8326  0.2273
  988SOL    HW114597   1.181   3.533   6.984  0.1596  1.9815 -1.0331
  988SOL    HW214598   1.328   3.498   6.971 -0.1253 -0.1291  1.3682
  989SOL     OW14599   4.583   4.505   6.062  0.2350  0.2509  0.4042
  989SOL    HW114600   4.560   4.588   6.105  1.9437 -0.3727  2.4930
  989SOL    HW214601   4.524   4.451   6.114 -0.0991 -0.1668 -0.4042
  990SOL     OW14602   1.097   2.147  11.894  0.2580 -0.5879 -0.9806
  990SOL    HW114603   1.040   2.072  11.875  0.2701 -0.6929 -0.6090
  990SOL    HW214604   1.178   2.106  11.864  0.5178  1.0310 -2.4795
  991SOL     OW14605   0.070   1.677  17.372 -0.0477  0.4577  0.1330
  991SOL    HW114606   0.118   1.693  17.453 -0.0269  0.3760  0.1371
  991SOL    HW214607   4.713   1.668  17.395  0.6998  2.1547  3.7101
  992SOL     OW14608   2.007   3.105   4.875  0.4615 -0.1431  0.3956
  992SOL    HW114609   1.915   3.129   4.867  0.7649  0.5631 -0.9097
  992SOL    HW214610   2.000   3.010   4.887  0.5277 -0.2264 -0.2220
  993SOL     OW14611   1.400   1.997   8.223  0.0785 -0.3489  0.0848
  993SOL    HW114612   1.406   1.920   8.166 -0.4290 -1.9112  2.1334
  993SOL    HW214613   1.477   2.038   8.183  0.1212 -0.5441 -0.0382
  994SOL     OW14614   1.318   3.480   4.082  0.1722  0.2175  0.0926
  994SOL    HW114615   1.275   3.565   4.090  0.4936  0.4009 -0.1019
  994SOL    HW214616   1.408   3.513   4.077 -0.1768  1.0031 -1.1364
  995SOL     OW14617   3.193   1.686  16.382  0.1340  0.6525 -0.0044
  995SOL    HW114618   3.277   1.653  16.414  1.3583  2.9049 -0.8581
  995SOL    HW214619   3.131   1.661  16.450  1.0583  3.2336  1.7449
  996SOL     OW14620   3.383   0.574  14.102 -0.3912  0.2874 -0.2148
  996SOL    HW114621   3.422   0.567  14.189  1.3041 -2.1212 -1.1389
  996SOL    HW214622   3.356   0.665  14.103  1.4900  0.8530 -1.7145
  997SOL     OW14623   1.713   3.025   0.603 -0.1212  0.4228  0.2816
  997SOL    HW114624   1.625   3.015   0.638  0.6413  0.8664  2.2836
  997SOL    HW214625   1.759   3.055   0.681 -0.5605  0.3874  0.5577
  998SOL     OW14626   2.877   3.920  11.980  0.3015  0.0708 -0.3308
  998SOL    HW114627   2.879   3.836  12.025 -0.0778 -0.5886 -1.5325
  998SOL    HW214628   2.926   3.898  11.900 -2.5447 -0.4738 -1.9460
  999SOL     OW14629   3.847   3.289  15.138  0.0476 -0.2884  0.1267
  999SOL    HW114630   3.852   3.384  15.138  0.1757 -0.3053  2.3602
  999SOL    HW214631   3.918   3.261  15.196  2.3438  3.1105 -1.0457
 1000SOL     OW14632   2.967   4.210  13.204  0.3679 -0.2427  0.6042
 1000SOL    HW114633   3.057   4.176  13.197  0.1472 -0.7257  0.1210
 1000SOL    HW214634   2.986   4.303  13.194 -0.5159  0.0234  1.4125
 1001SOL     OW14635   1.063   2.341   8.832 -0.1275 -0.2450 -0.4298
 1001SOL    HW114636   1.049   2.435   8.845 -0.1835  0.0399 -2.4757
 1001SOL    HW214637   1.050   2.335   8.737  0.9958 -1.1765 -0.5254
 1002SOL     OW14638   4.161   3.428  16.672  0.0215  0.4828  0.0636
 1002SOL    HW114639   4.209   3.440  16.590 -0.0228  0.0556 -0.0256
 1002SOL    HW214640   4.227   3.400  16.736  0.1529 -0.7366 -0.5947
 1003SOL     OW14641   1.439   0.211   6.915 -0.0317 -0.4402 -0.0616
 1003SOL    HW114642   1.355   0.258   6.917 -1.8582 -3.6831 -0.2390
 1003SOL    HW214643   1.490   0.261   6.979 -1.8062  0.3373  0.7528
 1004SOL     OW14644   4.671   3.413  17.476  0.4359  0.1369  0.6348
 1004SOL    HW114645   4.681   3.391  17.383 -1.4660 -0.3878  0.5511
 1004SOL    HW214646   4.728   3.346  17.512  1.6986  0.2594 -1.1162
 1005SOL     OW14647   1.231   3.511   3.191  0.0398  0.2171 -0.3863
 1005SOL    HW114648   1.284   3.454   3.135  1.6925  0.3722  1.0317
 1005SOL    HW214649   1.283   3.516   3.271  2.9670 -1.3228 -2.1785
 1006SOL     OW14650   2.791   1.150   2.682 -0.5587  0.1731 -0.0123
 1006SOL    HW114651   2.849   1.168   2.756  1.0683  0.1611 -1.2620
 1006SOL    HW214652   2.727   1.093   2.723 -0.8994  1.2522  0.9732
 1007SOL     OW14653   1.478   1.130  17.147 -0.0440  0.2669 -0.2048
 1007SOL    HW114654   1.496   1.076  17.070 -0.2270  0.5978 -0.4797
 1007SOL    HW214655   1.533   1.085  17.212  1.3578  1.0443 -0.8465
 1008SOL     OW14656   0.864   2.544   7.444  0.0597 -0.4873 -0.3750
 1008SOL    HW114657   0.774   2.574   7.449  0.1423 -0.5106  1.2405
 1008SOL    HW214658   0.922   2.607   7.487  1.2917 -1.2594 -0.9040
 1009SOL     OW14659   0.617   3.084   5.815  0.4344  0.2245  0.0213
 1009SOL    HW114660   0.555   3.132   5.870 -1.7710  1.0222 -3.1751
 1009SOL    HW214661   0.584   3.117   5.731 -0.6843 -1.8649 -0.3434
 1010SOL     OW14662   2.923   4.725   8.154 -0.5885 -0.9387  0.1486
 1010SOL    HW114663   2.837   4.694   8.182 -1.1139 -0.7580 -1.2323
 1010SOL    HW214664   2.972   4.655   8.197 -1.0649 -0.7723  0.9538
 1011SOL     OW14665   1.986   0.424   2.579 -0.4142 -0.1458  0.2635
 1011SOL    HW114666   1.935   0.360   2.528 -2.1207  1.8277 -0.5228
 1011SOL    HW214667   2.056   0.427   2.514 -0.0410  1.0023  0.7282
 1012SOL     OW14668   2.890   1.982  11.742  0.1475  0.4401 -0.3462
 1012SOL    HW114669   2.834   1.913  11.707  2.2079 -0.7200 -1.3228
 1012SOL    HW214670   2.834   2.059  11.751 -2.7490 -1.5396 -1.2983
 1013SOL     OW14671   0.609   2.143  10.139  0.4872  0.3444  0.3992
 1013SOL    HW114672   0.528   2.141  10.191  0.5056  1.7432  0.4868
 1013SOL    HW214673   0.581   2.174  10.053 -0.0646 -0.9961  0.1043
 1014SOL     OW14674   2.744   3.827   3.862 -0.1044 -0.7795 -0.3026
 1014SOL    HW114675   2.810   3.771   3.824 -2.3040 -2.4565 -1.6434
 1014SOL    HW214676   2.693   3.849   3.784 -0.8665  1.1918  0.7380
 1015SOL     OW14677   3.369   3.178   6.525 -0.1963 -0.3707  0.8443
 1015SOL    HW114678   3.388   3.131   6.444 -1.9710 -1.3779  1.0061
 1015SOL    HW214679   3.322   3.111   6.575 -0.3198 -0.5995  0.4152
 1016SOL     OW14680   3.984   0.500   2.872  0.0704 -0.4495 -0.6905
 1016SOL    HW114681   4.044   0.519   2.800  0.1780 -1.9920 -0.9921
 1016SOL    HW214682   3.991   0.405   2.867 -0.3872 -0.4755 -0.7999
 1017SOL     OW14683   1.343   2.526  10.109 -0.8284  0.5906 -0.5662
 1017SOL    HW114684   1.389   2.475  10.042 -1.3400  0.5922 -0.9179
 1017SOL    HW214685   1.363   2.617  10.087  0.9901 -0.0241 -1.4107
 1018SOL     OW14686   0.189   0.092   1.911 -0.7568  0.8226  0.0694
 1018SOL    HW114687   0.199   0.143   1.831  1.6697  0.6150  0.2341
 1018SOL    HW214688   0.093   0.084   1.913 -1.1004  5.2328  0.3761
 1019SOL     OW14689   0.742   2.243  17.468 -0.3518  0.6491 -0.1624
 1019SOL    HW114690   0.751   2.255  17.374 -1.8805 -0.7423 -0.4954
 1019SOL    HW214691   0.746   2.335  17.496  0.4312 -0.0167  1.9745
 1020SOL     OW14692   2.104   0.300   0.911 -0.5041  0.2066  0.3746
 1020SOL    HW114693   2.186   0.263   0.879 -0.2734  1.8799 -0.9803
 1020SOL    HW214694   2.064   0.225   0.954 -1.2498  0.0192 -0.6509
 1021SOL     OW14695   4.365   1.383   6.018  0.0248  0.0455 -0.1254
 1021SOL    HW114696   4.374   1.422   5.930  0.7218  1.8524  0.7495
 1021SOL    HW214697   4.456   1.356   6.022 -0.3719 -1.2446  0.2517
 1022SOL     OW14698   2.051   1.166   4.087 -0.3017 -0.3414 -0.4466
 1022SOL    HW114699   1.961   1.198   4.093 -0.8731 -1.7716 -1.3148
 1022SOL    HW214700   2.053   1.152   3.993  0.8026  0.2850 -0.5104
 1023SOL     OW14701   0.809   2.957   9.331 -0.2413  0.4815 -0.0230
 1023SOL    HW114702   0.827   2.881   9.275  0.2014  1.4084 -1.1509
 1023SOL    HW214703   0.896   2.994   9.343 -0.0712 -0.5596  1.8802
 1024SOL     OW14704   3.386   3.195  13.548 -0.2181 -0.0046  0.3429
 1024SOL    HW114705   3.475   3.161  13.545 -0.1639  0.0766  1.0529
 1024SOL    HW214706   3.362   3.199  13.641  2.7042  0.5304  1.0752
 1025SOL     OW14707   2.113   3.128  11.569  0.2502  0.6030 -0.0992
 1025SOL    HW114708   2.126   3.200  11.630  0.4098  0.9372 -0.5291
 1025SOL    HW214709   2.017   3.119  11.570  0.2391  0.6766 -0.5623
 1026SOL     OW14710   2.379   0.134  17.456  0.3587  0.0140 -0.1927
 1026SOL    HW114711   2.434   0.206  17.485  0.1576  1.3480 -3.1674
 1026SOL    HW214712   2.300   0.154  17.507  0.6975  0.0440  0.3246
 1027SOL     OW14713   1.234   1.733   3.538  0.1443  0.2977  0.0875
 1027SOL    HW114714   1.145   1.705   3.516  0.8373 -2.8796  1.4504
 1027SOL    HW214715   1.263   1.748   3.448  1.4171 -0.8227  0.3182
 1028SOL     OW14716   3.653   3.044   8.558 -0.5024  0.0203  0.0474
 1028SOL    HW114717   3.684   3.068   8.646  0.2510 -1.0764  0.0704
 1028SOL    HW214718   3.709   2.973   8.528  1.5393  1.2386  1.0325
 1029SOL     OW14719   3.777   3.839  13.542  0.1480 -0.7360  0.4686
 1029SOL    HW114720   3.851   3.850  13.483 -0.3469 -0.9267 -0.1793
 1029SOL    HW214721   3.721   3.780  13.491 -2.5227  0.8602  1.5478
 1030SOL     OW14722   3.604   0.115  11.879  0.2605 -0.4975  0.2663
 1030SOL    HW114723   3.569   0.162  11.803  2.3090  1.4056  0.5150
 1030SOL    HW214724   3.642   0.187  11.929  0.3617 -0.4739  0.1535
 1031SOL     OW14725   3.983   3.456   0.327 -0.3660 -0.0668  0.0890
 1031SOL    HW114726   3.999   3.525   0.263 -3.6389  0.5771 -0.0335
 1031SOL    HW214727   4.001   3.503   0.409  1.4464 -2.1301  0.8670
 1032SOL     OW14728   3.363   4.325  16.735  0.3010 -0.1724 -0.4393
 1032SOL    HW114729   3.386   4.264  16.664  1.1647 -0.4852  0.1134
 1032SOL    HW214730   3.448   4.332  16.779 -0.6820  1.0299  1.2724
 1033SOL     OW14731   0.882   2.846   7.309  0.2182  0.0276  0.3303
 1033SOL    HW114732   0.796   2.885   7.318  0.5031  1.0826 -1.4547
 1033SOL    HW214733   0.916   2.858   7.397 -1.7327  1.4477  0.8886
 1034SOL     OW14734   1.420   2.198   8.678  0.3938 -0.1044 -0.2746
 1034SOL    HW114735   1.479   2.256   8.726 -0.3387  1.3986 -1.1608
 1034SOL    HW214736   1.375   2.148   8.746  0.9420  2.2716  1.8414
 1035SOL     OW14737   3.546   2.499   5.388 -0.4275 -0.1835 -0.7713
 1035SOL    HW114738   3.568   2.431   5.452  1.2984  2.1187  1.0872
 1035SOL    HW214739   3.576   2.452   5.309  1.4659  1.0109 -0.7554
 1036SOL     OW14740   1.581   1.377   8.564 -0.3107 -0.1650  0.0544
 1036SOL    HW114741   1.548   1.463   8.588 -0.4640  0.0078 -0.7904
 1036SOL    HW214742   1.659   1.378   8.620  0.2820  0.0382 -0.7742
 1037SOL     OW14743   3.785   1.755   2.100 -0.4052  0.3074 -0.0082
 1037SOL    HW114744   3.729   1.678   2.113  0.8273 -0.8728 -1.7693
 1037SOL    HW214745   3.728   1.813   2.050 -1.5505  0.2467  1.2110
 1038SOL     OW14746   0.759   4.291   1.691  0.3184  0.2649 -0.1888
 1038SOL    HW114747   0.684   4.284   1.751 -0.4102 -0.2477 -1.1557
 1038SOL    HW214748   0.718   4.238   1.622  0.0890  1.7974 -1.2247
 1039SOL     OW14749   3.216   3.754   3.305 -0.4142 -0.2989 -0.1637
 1039SOL    HW114750   3.174   3.688   3.360 -0.2965  0.0746  0.3722
 1039SOL    HW214751   3.211   3.708   3.221  1.2306  1.3806 -1.1518
 1040SOL     OW14752   2.088   1.127   6.700 -0.6427 -0.0533  0.2434
 1040SOL    HW114753   2.068   1.141   6.608  0.6480  0.2200  0.0031
 1040SOL    HW214754   1.999   1.132   6.737 -0.9386  1.8830 -0.7407
 1041SOL     OW14755   3.879   1.295   0.730  0.2938  0.3829 -0.7691
 1041SOL    HW114756   3.900   1.372   0.783 -0.9683  1.2278 -1.5023
 1041SOL    HW214757   3.804   1.264   0.780 -0.6491  3.2974 -0.4069
 1042SOL     OW14758   1.026   3.307   6.558  0.4606 -0.6830  0.0029
 1042SOL    HW114759   1.061   3.359   6.486  0.0217 -1.6428 -0.9096
 1042SOL    HW214760   1.073   3.361   6.621 -0.1824  0.6185 -0.6225
 1043SOL     OW14761   4.250   2.721   3.078 -0.1834 -0.1722 -0.0106
 1043SOL    HW114762   4.241   2.631   3.048  1.8102 -1.0495  2.0199
 1043SOL    HW214763   4.207   2.761   3.003 -1.4154 -0.1613  0.6908
 1044SOL     OW14764   0.485   2.263   3.589  0.6650 -0.3128 -0.1024
 1044SOL    HW114765   0.426   2.304   3.526 -0.9227 -4.0005 -1.0133
 1044SOL    HW214766   0.484   2.170   3.569  0.8231 -0.7941  2.1404
 1045SOL     OW14767   0.843   1.465  16.103 -0.6614 -0.1621  0.5036
 1045SOL    HW114768   0.816   1.374  16.111  0.7538 -0.5652  0.7311
 1045SOL    HW214769   0.829   1.488  16.195  0.8108  2.2572  0.1392
 1046SOL     OW14770   3.576   2.262   2.768  0.1216  0.1878  0.1951
 1046SOL    HW114771   3.490   2.220   2.760  1.3770 -2.6136  1.6143
 1046SOL    HW214772   3.620   2.190   2.813 -1.0361  0.7341  2.2103
 1047SOL     OW14773   1.663   3.439   1.634  0.2177 -0.6501  0.2515
 1047SOL    HW114774   1.686   3.518   1.684  0.5570 -0.1950 -0.6167
 1047SOL    HW214775   1.665   3.376   1.707 -0.9723 -1.4153 -0.3893
 1048SOL     OW14776   3.608   0.398   0.629 -0.5126  0.1709  0.1436
 1048SOL    HW114777   3.638   0.351   0.707 -1.7492 -0.5720  0.1605
 1048SOL    HW214778   3.554   0.461   0.677 -0.8246  0.1580 -0.1894
 1049SOL     OW14779   3.666   1.012   1.938 -0.1926 -1.1201  0.5809
 1049SOL    HW114780   3.630   0.978   1.856  0.1443 -0.3795  0.1181
 1049SOL    HW214781   3.717   0.939   1.972  0.7354 -0.4244  0.6974
 1050SOL     OW14782   2.810   3.218   3.736  0.6293  0.2660 -0.1330
 1050SOL    HW114783   2.860   3.282   3.787  2.5457 -1.2017 -0.1521
 1050SOL    HW214784   2.737   3.272   3.707  0.0475  0.3237  1.4059
 1051SOL     OW14785   1.174   0.369  12.888  0.1635  0.4366  0.0219
 1051SOL    HW114786   1.264   0.397  12.902 -0.6700  3.0922  0.0837
 1051SOL    HW214787   1.183   0.305  12.817 -1.1108  0.7340 -0.4144
 1052SOL     OW14788   3.256   3.316   6.879 -0.1883  0.1642  0.7225
 1052SOL    HW114789   3.199   3.336   6.954 -0.6648  0.1862  0.3582
 1052SOL    HW214790   3.228   3.377   6.811  0.2210 -0.8522 -0.3568
 1053SOL     OW14791   1.298   2.303   8.968 -0.1760  0.4296 -0.5026
 1053SOL    HW114792   1.263   2.337   9.050  2.0780  0.1746  0.5807
 1053SOL    HW214793   1.222   2.313   8.911 -1.6814 -0.0847  1.4258
 1054SOL     OW14794   0.056   1.370  15.508 -0.3464  0.5648  0.1947
 1054SOL    HW114795   0.084   1.337  15.423 -1.3670  2.4849 -0.8813
 1054SOL    HW214796   0.055   1.464  15.489  0.9992  0.2510 -1.3792
 1055SOL     OW14797   1.773   0.515  11.534 -0.5764 -0.1981 -0.1916
 1055SOL    HW114798   1.694   0.569  11.541  0.8844  1.9526 -0.3718
 1055SOL    HW214799   1.761   0.494  11.442 -1.5781  1.5080 -0.4465
 1056SOL     OW14800   3.417   0.325  13.748  0.1870 -0.3566 -0.3379
 1056SOL    HW114801   3.377   0.249  13.788  0.4564  0.1112  0.8149
 1056SOL    HW214802   3.507   0.298  13.769 -0.5306 -1.1203  1.6960
 1057SOL     OW14803   2.678   4.321   0.480 -0.7495 -0.3624  0.6218
 1057SOL    HW114804   2.749   4.287   0.424  0.1494  1.4202  0.6813
 1057SOL    HW214805   2.661   4.237   0.524 -1.3564 -1.1340 -1.0768
 1058SOL     OW14806   3.608   1.350   4.886 -0.1088  0.3194 -0.2769
 1058SOL    HW114807   3.538   1.355   4.822  0.8618  0.2190 -1.3374
 1058SOL    HW214808   3.681   1.302   4.847 -0.1974  0.0544 -0.1227
 1059SOL     OW14809   1.912   4.523   3.842 -0.3100 -0.0691 -0.3874
 1059SOL    HW114810   1.900   4.439   3.797 -0.6978 -0.0191 -0.3742
 1059SOL    HW214811   1.834   4.520   3.897 -1.6246  1.2571 -2.1669
 1060SOL     OW14812   2.387   0.294   1.586  0.4001  0.0770 -0.1626
 1060SOL    HW114813   2.355   0.377   1.549 -2.1730  0.3890  2.7149
 1060SOL    HW214814   2.424   0.320   1.670 -0.0246  0.5924 -0.1380
 1061SOL     OW14815   3.724   4.355  13.183  0.0952  0.2346  0.0508
 1061SOL    HW114816   3.739   4.425  13.246  1.8557  1.0946 -1.3301
 1061SOL    HW214817   3.801   4.356  13.125  0.8506  0.2214  1.0554
 1062SOL     OW14818   0.023   2.223   7.127 -0.0305  0.2524 -0.3316
 1062SOL    HW114819   4.689   2.274   7.167 -0.8942 -0.2862 -1.1572
 1062SOL    HW214820   0.018   2.236   7.033 -1.7577 -1.2004 -0.4307
 1063SOL     OW14821   3.774   3.279   0.353  0.7852  0.1974 -0.0548
 1063SOL    HW114822   3.846   3.342   0.346  1.8150 -0.9524  0.1939
 1063SOL    HW214823   3.791   3.214   0.286  1.0183  0.7615 -0.5445
 1064SOL     OW14824   2.908   1.752  16.331 -0.3862 -0.6594 -0.2188
 1064SOL    HW114825   2.990   1.795  16.356 -0.3234 -0.4347 -0.8016
 1064SOL    HW214826   2.844   1.768  16.400 -0.6669 -0.0713 -0.6120
 1065SOL     OW14827   3.535   4.589  17.264  0.4796  0.0881 -0.1961
 1065SOL    HW114828   3.557   4.565  17.173  0.7514 -1.5777  0.3127
 1065SOL    HW214829   3.600   4.532  17.304  1.1393  0.2776 -0.9899
 1066SOL     OW14830   1.774   0.970   4.221 -0.1144  0.3954  0.4136
 1066SOL    HW114831   1.750   0.885   4.185 -1.6824  1.2536 -0.5862
 1066SOL    HW214832   1.692   1.017   4.201 -0.4406 -1.3708 -2.4214
 1067SOL     OW14833   1.095   0.127   0.511  0.2433 -0.0721 -0.7622
 1067SOL    HW114834   1.146   0.147   0.432 -0.6013  1.5832 -0.8915
 1067SOL    HW214835   1.033   0.200   0.502 -2.0459 -1.7623  1.2347
 1068SOL     OW14836   3.410   3.578   7.569  0.1643  0.6156  0.1983
 1068SOL    HW114837   3.407   3.483   7.552  1.1948  0.7014 -0.4377
 1068SOL    HW214838   3.431   3.610   7.481  0.4233  0.1206  0.0813
 1069SOL     OW14839   0.168   2.734   7.454  0.0630 -0.0390 -0.3315
 1069SOL    HW114840   0.234   2.772   7.396  1.4767 -1.2426  0.4889
 1069SOL    HW214841   0.103   2.803   7.466 -0.4783 -0.7633  0.9433
 1070SOL     OW14842   3.904   4.312   8.921  0.0657  0.5847  0.5137
 1070SOL    HW114843   3.873   4.362   8.846  1.9527 -0.6988 -1.1170
 1070SOL    HW214844   3.869   4.363   8.994  0.3847  1.6603 -0.0888
 1071SOL     OW14845   2.273   4.611  11.361  0.4196  0.3046 -0.0726
 1071SOL    HW114846   2.306   4.651  11.442 -1.0543  0.2511  0.5638
 1071SOL    HW214847   2.233   4.684  11.313  2.3927  0.8959 -0.8391
 1072SOL     OW14848   0.279   2.122   0.307  0.3445 -0.3192  1.0560
 1072SOL    HW114849   0.329   2.110   0.227 -1.5955 -0.2672 -0.1541
 1072SOL    HW214850   0.251   2.032   0.318 -0.4186  0.1447  2.9696
 1073SOL     OW14851   1.624   0.883  10.674 -0.1392 -0.2054  0.1091
 1073SOL    HW114852   1.693   0.836  10.627 -1.5170 -0.2449 -1.8808
 1073SOL    HW214853   1.674   0.963  10.686 -1.4843  0.4263  1.4669
 1074SOL     OW14854   4.703   3.103   7.315  0.4613  0.3440 -0.6918
 1074SOL    HW114855   0.021   3.091   7.237 -1.0310  3.1005 -2.1622
 1074SOL    HW214856   0.006   3.185   7.347  1.8814 -0.6313  0.1005
 1075SOL     OW14857   0.033   4.694   4.535 -0.6750  0.0216  0.2863
 1075SOL    HW114858   0.080   4.651   4.464  2.1105  0.5822  1.8137
 1075SOL    HW214859   0.038   4.626   4.602  0.1419 -2.0714 -1.9009
 1076SOL     OW14860   3.178   0.278  14.767 -0.4394 -0.1509  0.2271
 1076SOL    HW114861   3.143   0.354  14.721  0.6171 -0.6122 -1.3529
 1076SOL    HW214862   3.137   0.283  14.853  0.6848  0.4945  0.7233
 1077SOL     OW14863   4.452   1.116  10.548 -0.3310  0.1565 -0.1420
 1077SOL    HW114864   4.504   1.040  10.524 -0.1582  1.0445 -2.5254
 1077SOL    HW214865   4.484   1.139  10.635 -1.2062 -0.2631  0.3015
 1078SOL     OW14866   3.827   3.459  15.428 -0.6772 -0.4812 -0.2204
 1078SOL    HW114867   3.853   3.498  15.511 -1.2794 -0.7545  0.1009
 1078SOL    HW214868   3.851   3.529  15.368  0.1172  0.8297  1.6376
 1079SOL     OW14869   0.662   4.695  15.453  0.6412 -0.2019 -0.4972
 1079SOL    HW114870   0.674   4.703  15.359 -1.5450  0.5703 -0.6829
 1079SOL    HW214871   0.578   0.003  15.460  0.1779 -1.2855  0.8720
 1080SOL     OW14872   0.289   2.726   4.928  0.3798 -0.3811 -0.3488
 1080SOL    HW114873   0.245   2.643   4.907  0.9385 -0.3707 -1.5859
 1080SOL    HW214874   0.375   2.693   4.953 -0.1855 -1.1557  0.5947
 1081SOL     OW14875   1.973   1.488   4.901 -0.0044  0.0222  0.6231
 1081SOL    HW114876   1.896   1.496   4.958 -0.9126  0.9797 -0.7455
 1081SOL    HW214877   1.990   1.399   4.932 -1.1455  0.3743  2.3169
 1082SOL     OW14878   1.167   4.222   2.487 -0.1622 -0.0331 -0.7245
 1082SOL    HW114879   1.157   4.141   2.439  1.8382  0.7836 -2.4915
 1082SOL    HW214880   1.262   4.231   2.488 -0.3815  2.4168  0.7664
 1083SOL     OW14881   4.331   1.188  14.453  0.0801  0.1562 -0.2276
 1083SOL    HW114882   4.370   1.114  14.499 -0.2421  0.7273  0.9513
 1083SOL    HW214883   4.339   1.161  14.361  2.4387 -0.4294  0.1377
 1084SOL     OW14884   3.237   1.354  16.955  0.3815  0.2527  0.2354
 1084SOL    HW114885   3.263   1.263  16.946  0.9395  0.5796 -1.3527
 1084SOL    HW214886   3.276   1.377  17.040 -0.6453  1.3433  0.4226
 1085SOL     OW14887   0.871   4.431   7.266 -0.5248  0.0302  0.0906
 1085SOL    HW114888   0.784   4.414   7.302 -0.0142  0.3909  1.4541
 1085SOL    HW214889   0.853   4.432   7.171  1.3964 -0.6687 -0.2789
 1086SOL     OW14890   3.536   1.332   5.151 -0.0268  0.6557 -0.2588
 1086SOL    HW114891   3.443   1.356   5.153 -0.9183 -2.7464 -0.7237
 1086SOL    HW214892   3.558   1.354   5.061 -1.8697 -1.7804 -1.3004
 1087SOL     OW14893   4.047   3.265  12.013 -0.1089  0.2112  0.0286
 1087SOL    HW114894   3.970   3.208  12.017 -0.8784  1.3254  1.0266
 1087SOL    HW214895   4.060   3.285  12.106  1.3110  2.1379 -0.5790
 1088SOL     OW14896   2.263   1.042   5.351 -0.4764 -0.3898  0.0566
 1088SOL    HW114897   2.355   1.021   5.362  0.0960  2.8254  1.2860
 1088SOL    HW214898   2.259   1.137   5.335  1.1315 -0.6887 -2.1193
 1089SOL     OW14899   3.055   0.594   6.328 -0.2049  0.1256  0.1608
 1089SOL    HW114900   3.004   0.613   6.407 -0.7719 -0.5385 -0.0444
 1089SOL    HW214901   3.013   0.519   6.286  1.5367 -1.3710  1.1134
 1090SOL     OW14902   3.225   1.628   2.834  0.1015 -0.0780 -0.3017
 1090SOL    HW114903   3.274   1.598   2.910 -0.3745  1.2293  0.5061
 1090SOL    HW214904   3.182   1.704   2.872  2.6885  0.6751  1.1603
 1091SOL     OW14905   4.693   2.060  11.374 -0.1421  0.2659  0.3510
 1091SOL    HW114906   4.633   2.096  11.440 -2.2293 -2.6013  0.0236
 1091SOL    HW214907   4.661   1.970  11.372  0.3655  0.1012 -0.1635
 1092SOL     OW14908   3.297   1.298   2.850 -0.1625 -0.2008  0.0606
 1092SOL    HW114909   3.228   1.320   2.912 -1.5231  1.0771 -1.8964
 1092SOL    HW214910   3.335   1.214   2.879 -0.8557  0.0255  1.6028
 1093SOL     OW14911   1.604   3.727   7.881  0.6950  0.2910  0.7441
 1093SOL    HW114912   1.573   3.713   7.971  1.0504 -1.6043  0.5849
 1093SOL    HW214913   1.678   3.667   7.887  0.7336  0.3439  0.7994
 1094SOL     OW14914   1.718   3.776   6.680 -0.6935  0.2354  0.5899
 1094SOL    HW114915   1.641   3.832   6.688 -1.5105 -0.7900  0.0253
 1094SOL    HW214916   1.779   3.843   6.709  2.8293 -2.3971 -0.7829
 1095SOL     OW14917   0.649   0.761   5.109  0.0448  0.2109  0.4173
 1095SOL    HW114918   0.731   0.744   5.062 -0.1336  0.0662  0.1554
 1095SOL    HW214919   0.662   0.852   5.134 -1.0087 -0.2572  2.6375
 1096SOL     OW14920   0.509   1.413   4.384  0.2613 -0.3954 -0.7242
 1096SOL    HW114921   0.497   1.321   4.410  0.9399  0.1953  1.6420
 1096SOL    HW214922   0.418   1.438   4.367 -0.0678 -0.9348  0.2785
 1097SOL     OW14923   2.062   1.809   5.835  0.1127  0.3420 -0.0062
 1097SOL    HW114924   2.054   1.896   5.794 -1.1346 -0.3842 -1.3170
 1097SOL    HW214925   2.001   1.752   5.789  2.2252 -1.9526  0.0820
 1098SOL     OW14926   2.877   3.462  14.906  0.1454  0.3247 -0.0370
 1098SOL    HW114927   2.935   3.387  14.893 -1.1885 -0.7081 -0.0156
 1098SOL    HW214928   2.926   3.521  14.848 -0.2173  1.5368  0.8840
 1099SOL     OW14929   1.361   1.810   2.268 -0.0846 -0.4893  0.6413
 1099SOL    HW114930   1.453   1.806   2.241  0.2138  1.2102  1.4228
 1099SOL    HW214931   1.316   1.771   2.193  1.2164  1.2750 -1.0542
 1100SOL     OW14932   3.820   4.628   7.903  0.2081  0.3864  0.2288
 1100SOL    HW114933   3.744   4.669   7.862  2.8068  3.5504 -1.3806
 1100SOL    HW214934   3.776   4.551   7.941 -1.0647  1.9955  1.9804
 1101SOL     OW14935   1.098   1.577   7.917  0.1904  0.5615 -0.4955
 1101SOL    HW114936   1.041   1.530   7.978  0.6887  0.3211 -0.2145
 1101SOL    HW214937   1.183   1.568   7.959  0.2613  2.2196 -0.2836
 1102SOL     OW14938   0.331   0.891  10.199 -0.0950 -0.1912  0.0540
 1102SOL    HW114939   0.323   0.902  10.294  0.1336 -3.0623  0.4080
 1102SOL    HW214940   0.266   0.825  10.176 -0.7315  0.2888  0.5039
 1103SOL     OW14941   2.908   1.910   8.884 -1.1313 -0.1987 -0.1057
 1103SOL    HW114942   2.890   1.940   8.795  2.4358 -1.7348 -1.3481
 1103SOL    HW214943   2.886   1.988   8.935 -1.3948 -0.8739  0.8002
 1104SOL     OW14944   3.389   0.423   5.557  0.2853 -0.1319  0.1567
 1104SOL    HW114945   3.304   0.419   5.514 -0.3345 -1.2738  1.4873
 1104SOL    HW214946   3.371   0.455   5.645 -0.2678  1.5397 -0.5784
 1105SOL     OW14947   2.238   2.637   8.226 -0.4070  0.6656 -0.2267
 1105SOL    HW114948   2.208   2.647   8.316  2.5260  3.2607  0.4629
 1105SOL    HW214949   2.332   2.626   8.240 -0.2247  1.0815 -1.1221
 1106SOL     OW14950   3.329   3.922  11.868  0.0594 -0.2090  0.1169
 1106SOL    HW114951   3.329   3.979  11.792 -3.2449  1.4217  1.3390
 1106SOL    HW214952   3.372   3.847  11.826 -0.1120 -0.2249 -0.0322
 1107SOL     OW14953   3.171   4.339   0.856  0.3344 -0.0558  0.2128
 1107SOL    HW114954   3.145   4.355   0.765 -0.3448 -1.2171  0.1892
 1107SOL    HW214955   3.162   4.427   0.890 -0.2206  0.1111 -0.3593
 1108SOL     OW14956   3.509   1.523   6.511  0.0479  0.3318 -0.0594
 1108SOL    HW114957   3.575   1.539   6.444  1.6412  1.1621  1.7174
 1108SOL    HW214958   3.464   1.448   6.473 -1.1281  0.8563  0.2933
 1109SOL     OW14959   3.454   3.233   2.175  0.0510  0.3759  0.0569
 1109SOL    HW114960   3.397   3.185   2.235  0.8215  0.5876  0.9613
 1109SOL    HW214961   3.441   3.206   2.085  2.3629 -3.0901  0.7776
 1110SOL     OW14962   1.023   2.876   3.065 -0.2088  0.1083  0.3698
 1110SOL    HW114963   1.064   2.802   3.020 -2.0844 -0.4239 -0.4564
 1110SOL    HW214964   1.044   2.853   3.155 -0.2891  0.1767  0.4057
 1111SOL     OW14965   0.709   0.710   8.908  0.5013  0.1228  0.1912
 1111SOL    HW114966   0.792   0.752   8.884  0.0597  0.5824 -0.5079
 1111SOL    HW214967   0.714   0.627   8.860 -1.5853  1.3007 -2.0475
 1112SOL     OW14968   0.908   3.413   9.946 -0.3535  0.1563  0.1394
 1112SOL    HW114969   0.954   3.414   9.862  0.2405 -1.1634  0.4457
 1112SOL    HW214970   0.841   3.346   9.932  0.7973 -0.7835 -0.8733
 1113SOL     OW14971   2.801   3.285  11.842  0.5931  0.0071 -0.4185
 1113SOL    HW114972   2.827   3.216  11.781  0.5032  0.1247 -0.5931
 1113SOL    HW214973   2.875   3.346  11.841 -1.5226  2.6365  4.8344
 1114SOL     OW14974   4.367   0.421   6.912  0.1795 -0.3776  0.0844
 1114SOL    HW114975   4.398   0.509   6.935 -0.5797 -0.4042  1.2003
 1114SOL    HW214976   4.450   0.374   6.919 -0.2575 -1.1459  0.0570
 1115SOL     OW14977   0.509   3.094   6.068  0.5228 -0.6857 -0.4934
 1115SOL    HW114978   0.526   3.065   6.158  1.2092  0.1185 -0.3645
 1115SOL    HW214979   0.417   3.122   6.071  0.5129 -0.7675  0.0908
 1116SOL     OW14980   4.249   3.446   3.863  0.4947 -0.9154 -0.4198
 1116SOL    HW114981   4.327   3.392   3.850  0.0716 -2.2200  2.5251
 1116SOL    HW214982   4.179   3.391   3.826  0.6153 -0.3419 -1.5164
 1117SOL     OW14983   2.470   1.261  14.800 -0.2429  0.1878 -0.1503
 1117SOL    HW114984   2.513   1.323  14.859 -0.6687  1.4206 -1.1518
 1117SOL    HW214985   2.545   1.209  14.771  0.6515  1.3332  0.1379
 1118SOL     OW14986   4.206   1.106   5.866 -0.0491 -0.0085 -0.8448
 1118SOL    HW114987   4.190   1.101   5.772  2.1338  1.3986 -1.2945
 1118SOL    HW214988   4.292   1.147   5.871  0.3102 -0.9829  1.0951
 1119SOL     OW14989   0.030   2.051   2.675  0.3661  0.1538 -0.5171
 1119SOL    HW114990   4.698   1.988   2.650  0.1831  0.5162 -0.9349
 1119SOL    HW214991   0.015   2.075   2.767  1.2364  0.2836 -0.4073
 1120SOL     OW14992   4.314   2.530   2.017 -0.1124  0.0020 -0.2601
 1120SOL    HW114993   4.248   2.579   1.968  1.6851  1.1822 -1.5078
 1120SOL    HW214994   4.384   2.595   2.010  0.9755 -0.8757  2.5219
 1121SOL     OW14995   2.033   0.737   8.752  0.2774 -0.4761 -0.0392
 1121SOL    HW114996   2.083   0.768   8.677  0.7207  2.3273  1.4026
 1121SOL    HW214997   2.101   0.704   8.812 -0.2664  0.6200  1.1872
 1122SOL     OW14998   0.322   2.901   5.163 -0.0609  0.5748  0.4049
 1122SOL    HW114999   0.405   2.887   5.207  0.2260  1.7255  0.2081
 1122SOL    HW215000   0.333   2.852   5.081 -0.6497 -1.2122  1.3855
 1123SOL     OW15001   4.010   1.160   3.792 -0.2741 -0.2164  0.0879
 1123SOL    HW115002   4.002   1.245   3.749  0.6471 -0.3916 -0.4397
 1123SOL    HW215003   4.097   1.172   3.830  0.7951 -1.5392 -1.9313
 1124SOL     OW15004   0.944   4.623   0.391  0.1000  0.0628  0.1208
 1124SOL    HW115005   0.850   4.635   0.374  0.9809  2.2628 -3.1125
 1124SOL    HW215006   0.972   4.711   0.416 -1.4472  0.4198  0.6493
 1125SOL     OW15007   1.655   0.665  12.577  0.5669  0.4579 -0.1047
 1125SOL    HW115008   1.708   0.709  12.510  0.4799  0.7798  0.0340
 1125SOL    HW215009   1.601   0.612  12.520  0.9897  2.0131 -1.9534
 1126SOL     OW15010   2.160   1.707   1.422  0.1634  0.2627  0.1197
 1126SOL    HW115011   2.139   1.614   1.433 -0.7974  0.2128 -2.1808
 1126SOL    HW215012   2.101   1.756   1.478 -0.6297  1.8076 -2.0416
 1127SOL     OW15013   0.172   0.233   1.145  0.4850  0.0206  0.3281
 1127SOL    HW115014   0.101   0.274   1.194 -1.5577 -0.3563 -2.3051
 1127SOL    HW215015   0.131   0.220   1.059  2.0100 -0.2252 -0.3606
 1128SOL     OW15016   0.672   0.828  17.307  0.6831  0.3042 -0.1084
 1128SOL    HW115017   0.694   0.920  17.313  3.0218 -0.4605  2.7299
 1128SOL    HW215018   0.637   0.820  17.218  2.1901  1.1488 -0.7660
 1129SOL     OW15019   3.454   0.404   6.574  0.0001 -0.5635 -0.3212
 1129SOL    HW115020   3.386   0.338   6.581 -2.1404  1.4840 -1.8777
 1129SOL    HW215021   3.419   0.456   6.501 -1.1614  0.7724  1.1971
 1130SOL     OW15022   0.246   1.026   6.169 -0.1941  0.3977  0.2642
 1130SOL    HW115023   0.312   1.060   6.108 -0.1052 -2.9809 -1.4941
 1130SOL    HW215024   0.173   1.084   6.147 -1.1340 -0.5643  0.8746
 1131SOL     OW15025   2.358   4.090   9.920 -0.0434  0.1399  0.6214
 1131SOL    HW115026   2.436   4.074   9.867 -0.3925  0.7129 -0.0819
 1131SOL    HW215027   2.344   4.005   9.961 -2.8459 -0.0128 -0.6443
 1132SOL     OW15028   4.128   0.863   5.947  0.2508 -0.0203 -0.1472
 1132SOL    HW115029   4.203   0.839   6.001 -0.4284  3.7292  2.4389
 1132SOL    HW215030   4.168   0.926   5.886  0.8484 -1.1231 -0.8936
 1133SOL     OW15031   0.246   1.893  14.439  0.5098 -0.4631  0.0147
 1133SOL    HW115032   0.186   1.897  14.514 -0.0709  1.5459 -0.5441
 1133SOL    HW215033   0.304   1.965  14.463  0.3002 -0.7087  1.2829
 1134SOL     OW15034   3.132   1.822   9.036 -0.7621  0.5531  0.6888
 1134SOL    HW115035   3.110   1.883   9.107  1.9365 -1.6894  3.4619
 1134SOL    HW215036   3.055   1.843   8.984 -0.4419 -0.1816 -0.0711
 1135SOL     OW15037   2.785   3.212   0.970 -0.4126 -0.7172  0.1704
 1135SOL    HW115038   2.717   3.154   0.938 -0.8378 -0.1616  0.0578
 1135SOL    HW215039   2.861   3.163   0.937  0.7316  0.1039  1.5481
 1136SOL     OW15040   2.924   0.244   8.058 -0.6187  0.0015  0.3527
 1136SOL    HW115041   2.899   0.159   8.093 -0.5513  0.2167  0.9390
 1136SOL    HW215042   3.015   0.264   8.082 -0.8601  0.4783  0.8596
 1137SOL     OW15043   1.662   1.674   6.227  0.4474  0.4081  0.3153
 1137SOL    HW115044   1.745   1.718   6.244  0.2020  1.0084 -0.0577
 1137SOL    HW215045   1.669   1.609   6.297  1.2193 -2.1573 -2.1739
 1138SOL     OW15046   4.558   4.230   0.655 -0.0817 -0.0785 -0.7778
 1138SOL    HW115047   4.516   4.190   0.579  0.7565  0.5417 -1.5592
 1138SOL    HW215048   4.597   4.160   0.707 -0.4889  1.3342  1.4387
 1139SOL     OW15049   1.899   0.508   5.727  0.3463  0.1497 -0.0046
 1139SOL    HW115050   1.981   0.537   5.767 -0.2702 -0.1844  1.5040
 1139SOL    HW215051   1.911   0.415   5.749  1.4625  0.0547 -1.0031
 1140SOL     OW15052   4.572   1.192   6.773  0.3366 -0.1074  0.2366
 1140SOL    HW115053   4.557   1.208   6.679  2.2997  1.3589  0.1694
 1140SOL    HW215054   4.667   1.186   6.768  0.3386 -0.9738  1.4126
 1141SOL     OW15055   2.230   1.086   6.334 -0.3459  0.7510 -0.0829
 1141SOL    HW115056   2.142   1.050   6.349 -0.7187  1.6556 -0.0984
 1141SOL    HW215057   2.241   1.057   6.243  0.3529  3.7560 -0.9724
 1142SOL     OW15058   0.135   0.536   3.521  0.4583  0.0564 -0.1906
 1142SOL    HW115059   0.062   0.493   3.477 -1.0781  0.9453  1.4900
 1142SOL    HW215060   0.080   0.583   3.583  0.2562  0.3705 -0.6036
 1143SOL     OW15061   4.099   1.489   5.640 -0.1877 -0.1006  0.6740
 1143SOL    HW115062   4.038   1.415   5.630 -1.8974  1.6638 -1.9380
 1143SOL    HW215063   4.046   1.567   5.626  1.2107  0.3430 -2.0464
 1144SOL     OW15064   2.456   1.026   4.504 -0.6808 -0.1877 -0.1098
 1144SOL    HW115065   2.437   1.060   4.417 -1.3070  0.9716  0.4753
 1144SOL    HW215066   2.396   0.952   4.506  0.1340 -0.8884 -2.1306
 1145SOL     OW15067   4.704   2.496  13.252 -0.5049  0.1343 -0.3465
 1145SOL    HW115068   4.729   2.437  13.323 -1.3814 -0.0187 -0.1702
 1145SOL    HW215069   0.049   2.543  13.230 -0.4812  1.3239  2.2976
 1146SOL     OW15070   2.660   1.832   1.657 -0.2414 -0.0471  0.4779
 1146SOL    HW115071   2.632   1.742   1.671  1.3027 -0.3942  1.2774
 1146SOL    HW215072   2.754   1.824   1.671  0.0535 -0.7856 -1.8833
 1147SOL     OW15073   4.552   2.467  11.115  0.1179  0.5392 -0.2879
 1147SOL    HW115074   4.584   2.377  11.107 -1.3253  0.1467 -1.7506
 1147SOL    HW215075   4.627   2.518  11.145 -0.2757  0.4127  0.9092
 1148SOL     OW15076   0.691   4.705   0.426 -0.7198 -0.1994  0.5398
 1148SOL    HW115077   0.690   0.051   0.475 -0.5508 -1.5439  2.7975
 1148SOL    HW215078   0.665   4.641   0.493 -2.2884  1.2467  1.3039
 1149SOL     OW15079   4.042   3.723   8.581  0.4560  0.4173 -0.7720
 1149SOL    HW115080   4.132   3.738   8.609  0.0223  0.8358  0.3797
 1149SOL    HW215081   4.070   3.715   8.489  0.6964  0.3036 -0.6894
 1150SOL     OW15082   1.252   1.146   7.232  0.3624 -0.6515  0.0004
 1150SOL    HW115083   1.178   1.116   7.179 -1.2037  0.7526  1.3960
 1150SOL    HW215084   1.306   1.067   7.229  2.1533  0.5018  1.5226
 1151SOL     OW15085   3.919   3.575  17.567 -0.5623  0.4444 -0.2911
 1151SOL    HW115086   3.968   3.618  17.497  1.3015  0.7974  1.2299
 1151SOL    HW215087   3.828   3.591  17.543 -0.7111 -2.6330 -1.8933
 1152SOL     OW15088   4.542   0.876   4.440 -0.3719 -0.5180 -0.1690
 1152SOL    HW115089   4.533   0.781   4.432 -1.0343 -0.6439  2.1363
 1152SOL    HW215090   4.463   0.886   4.493 -1.0351  0.3296 -1.3316
 1153SOL     OW15091   1.301   3.032   0.026  0.9059  0.3758  0.1346
 1153SOL    HW115092   1.232   3.068  17.711 -1.0498 -3.1584  0.2987
 1153SOL    HW215093   1.281   3.091   0.099  0.6576 -0.9777  1.1476
 1154SOL     OW15094   2.241   1.976   8.398  0.2530 -0.2296 -0.5140
 1154SOL    HW115095   2.331   1.994   8.428  0.3440 -2.2950  0.4738
 1154SOL    HW215096   2.206   1.910   8.458 -0.8996  0.5597 -0.3096
 1155SOL     OW15097   1.668   4.382  14.645  0.0126  0.2094 -0.4971
 1155SOL    HW115098   1.745   4.355  14.696  0.1173  1.6844  0.1284
 1155SOL    HW215099   1.622   4.303  14.618 -1.6859  0.7303  0.8955
 1156SOL     OW15100   0.962   3.546   3.442 -0.0614 -0.0211 -0.0012
 1156SOL    HW115101   0.952   3.597   3.522  3.2560  0.9613 -0.1926
 1156SOL    HW215102   0.870   3.523   3.427  0.1652 -1.4416  0.7925
 1157SOL     OW15103   2.243   1.818   8.824  0.3117  0.0793  0.5549
 1157SOL    HW115104   2.308   1.886   8.838 -0.6074  0.6477  2.0386
 1157SOL    HW215105   2.184   1.860   8.762  1.8953  0.2649 -0.8231
 1158SOL     OW15106   0.819   1.320   1.758  0.3632 -0.3403  0.5262
 1158SOL    HW115107   0.889   1.378   1.787  1.5652 -1.4558 -0.1705
 1158SOL    HW215108   0.824   1.322   1.662  1.9057 -0.2125  0.6078
 1159SOL     OW15109   0.019   0.344   1.518 -0.0252  0.0829  0.3800
 1159SOL    HW115110   4.686   0.317   1.457  1.7675 -2.0467 -0.7112
 1159SOL    HW215111   0.071   0.264   1.513 -0.2581  0.0555 -1.4506
 1160SOL     OW15112   1.343   0.310  15.383  0.1439 -0.8280 -0.4379
 1160SOL    HW115113   1.298   0.353  15.310  0.9980  0.3379 -0.2826
 1160SOL    HW215114   1.430   0.348  15.372 -0.3037 -0.3261 -2.2377
 1161SOL     OW15115   4.513   4.180   0.311 -0.1515 -0.0753 -0.2016
 1161SOL    HW115116   4.605   4.181   0.336  0.0362  1.3722 -0.9414
 1161SOL    HW215117   4.474   4.119   0.374 -1.5237  0.4467 -0.5330
 1162SOL     OW15118   1.798   3.512   6.325 -0.3979  0.4446 -0.2426
 1162SOL    HW115119   1.742   3.458   6.268 -1.1582 -0.6613  1.5271
 1162SOL    HW215120   1.822   3.451   6.395 -0.7572 -0.9999 -1.3653
 1163SOL     OW15121   0.015   4.102   0.410 -0.0087 -0.4376 -0.1086
 1163SOL    HW115122   0.043   4.012   0.427 -0.5576 -0.6843 -0.5169
 1163SOL    HW215123   0.085   4.137   0.354 -0.4118 -0.9891 -0.9680
 1164SOL     OW15124   2.676   0.736  15.747  0.1066 -0.3293  0.0439
 1164SOL    HW115125   2.697   0.657  15.797  0.1765  0.1301  0.7277
 1164SOL    HW215126   2.735   0.738  15.671  2.4294 -1.0391  1.8343
 1165SOL     OW15127   3.207   1.007   6.674  0.4628  0.6060 -0.2235
 1165SOL    HW115128   3.189   1.090   6.717 -2.5679 -0.5443  0.7127
 1165SOL    HW215129   3.117   0.974   6.666  0.3103  1.1961 -0.9369
 1166SOL     OW15130   1.289   0.688  15.818 -0.4184  0.0958  0.4624
 1166SOL    HW115131   1.358   0.629  15.848 -1.9805 -0.9566  2.0026
 1166SOL    HW215132   1.222   0.669  15.883  0.0822 -0.6025  0.7764
 1167SOL     OW15133   1.254   1.871   3.279 -0.0026 -0.1558 -0.3695
 1167SOL    HW115134   1.165   1.906   3.280  0.6611  1.4663  1.0072
 1167SOL    HW215135   1.317   1.931   3.318 -2.1902  1.1512  1.1252
 1168SOL     OW15136   3.781   3.024   5.651 -0.1679  0.6862  0.1099
 1168SOL    HW115137   3.690   3.046   5.671 -0.6084 -1.1527  0.1614
 1168SOL    HW215138   3.822   3.073   5.722 -0.1659 -0.9165  1.2226
 1169SOL     OW15139   2.272   2.914   7.196  0.0305 -0.1932 -0.2868
 1169SOL    HW115140   2.226   2.997   7.206 -0.7873 -0.5109 -1.4165
 1169SOL    HW215141   2.254   2.857   7.271  1.6987  0.9583  1.0054
 1170SOL     OW15142   3.851   0.020   5.509 -0.0649  0.1203 -0.3518
 1170SOL    HW115143   3.926   0.070   5.475 -1.1157  3.8943  2.8208
 1170SOL    HW215144   3.790   0.046   5.441 -0.7712 -0.3640  0.1024
 1171SOL     OW15145   0.024   3.558   5.032  0.0420 -0.2692 -0.3749
 1171SOL    HW115146   0.109   3.535   4.994 -0.2681  0.1664 -1.3278
 1171SOL    HW215147   4.711   3.485   4.993 -0.7109 -0.2734  0.5873
 1172SOL     OW15148   2.506   2.566   6.145  0.2293 -0.0671  0.6622
 1172SOL    HW115149   2.558   2.645   6.128  0.1769 -0.2568 -0.3869
 1172SOL    HW215150   2.569   2.498   6.121  0.3535 -0.0505  0.9425
 1173SOL     OW15151   3.685   4.474   8.062  0.6535 -0.4061 -0.3777
 1173SOL    HW115152   3.709   4.499   8.151  0.7926 -0.6052 -0.3600
 1173SOL    HW215153   3.711   4.382   8.066 -1.0018 -0.8919 -0.7600
 1174SOL     OW15154   2.161   4.450   2.797 -0.2357 -0.3111 -0.2660
 1174SOL    HW115155   2.149   4.471   2.704  2.1774 -2.1680 -0.9885
 1174SOL    HW215156   2.245   4.487   2.821 -0.0210 -0.4501 -0.7982
 1175SOL     OW15157   1.437   2.495   5.687  0.0071  0.7096 -0.1379
 1175SOL    HW115158   1.423   2.554   5.761 -1.7758 -0.1755  0.2249
 1175SOL    HW215159   1.365   2.521   5.630  0.6673 -1.3670 -1.9182
 1176SOL     OW15160   1.975   3.169   9.717 -0.6635 -0.0773 -0.2385
 1176SOL    HW115161   2.065   3.146   9.737 -0.8952 -1.0255 -0.2999
 1176SOL    HW215162   1.988   3.240   9.654  2.6960  1.2658  1.9780
 1177SOL     OW15163   0.111   2.801   8.619  0.2132 -1.1884  0.3988
 1177SOL    HW115164   0.042   2.848   8.573  0.9582  0.7668  1.2843
 1177SOL    HW215165   0.130   2.861   8.690 -0.9701  1.6485 -1.6776
 1178SOL     OW15166   0.584   1.392   1.082  0.1026  0.4130  0.1134
 1178SOL    HW115167   0.615   1.369   0.994  0.5594  0.3873  0.2785
 1178SOL    HW215168   0.490   1.378   1.082 -0.1811  2.3076 -0.4908
 1179SOL     OW15169   2.310   2.027  14.299  0.0645  0.7538  0.3283
 1179SOL    HW115170   2.231   2.077  14.280 -0.8535 -1.3436 -1.4312
 1179SOL    HW215171   2.291   1.968  14.373  1.2455  1.5905  1.2926
 1180SOL     OW15172   3.110   2.485   8.117 -0.4418 -0.2783 -0.1675
 1180SOL    HW115173   3.175   2.483   8.047  0.4739 -1.4018  0.7042
 1180SOL    HW215174   3.166   2.455   8.189 -1.7031  1.5409  1.5536
 1181SOL     OW15175   0.742   3.399   6.536  0.5184  0.5958 -0.0938
 1181SOL    HW115176   0.689   3.358   6.604  1.5663 -3.1511 -1.5469
 1181SOL    HW215177   0.829   3.362   6.551  1.1706  1.2712 -2.2093
 1182SOL     OW15178   0.976   3.678   1.581  0.3091  0.4444  0.1336
 1182SOL    HW115179   0.984   3.584   1.563 -2.4356  0.2437  0.0027
 1182SOL    HW215180   1.044   3.713   1.523  1.5298  0.1878  1.4048
 1183SOL     OW15181   2.240   0.279   1.186  0.3100  0.2169 -0.5330
 1183SOL    HW115182   2.237   0.324   1.102 -0.1892  1.3150  0.0618
 1183SOL    HW215183   2.334   0.268   1.197  0.4263  1.6029 -0.1236
 1184SOL     OW15184   0.585   3.418   9.675 -0.1998  0.2895 -1.6021
 1184SOL    HW115185   0.539   3.338   9.650  0.1213  0.1082 -1.6216
 1184SOL    HW215186   0.525   3.477   9.630  1.0108  1.8497 -1.1755
 1185SOL     OW15187   1.023   1.660   2.967 -0.6564 -0.7442  0.4290
 1185SOL    HW115188   1.076   1.591   2.927  1.5285  0.5409  1.1038
 1185SOL    HW215189   1.095   1.716   2.996 -1.9466  0.2649  1.7134
 1186SOL     OW15190   2.969   4.202   3.457 -0.0335  0.4513 -0.3636
 1186SOL    HW115191   2.936   4.112   3.458 -0.2900  0.5625  0.7868
 1186SOL    HW215192   2.981   4.205   3.552 -2.3529 -1.2189 -0.0093
 1187SOL     OW15193   2.234   0.255   3.182  0.4958 -0.1966 -0.0132
 1187SOL    HW115194   2.167   0.217   3.239  1.3719  0.2552  1.3210
 1187SOL    HW215195   2.256   0.334   3.233 -0.2288  0.6433 -0.9956
 1188SOL     OW15196   4.236   1.893  12.040  0.0487  0.6642  0.7657
 1188SOL    HW115197   4.270   1.882  11.951  0.1260  0.1355  0.8585
 1188SOL    HW215198   4.267   1.809  12.074 -0.4594 -0.9824 -2.8295
 1189SOL     OW15199   2.795   0.306   2.235  0.4042 -0.2783  0.1764
 1189SOL    HW115200   2.850   0.277   2.162 -0.9466  0.0455 -0.9607
 1189SOL    HW215201   2.742   0.378   2.203  0.2298 -0.8723 -0.8635
 1190SOL     OW15202   3.500   1.287   3.370  0.2765  0.1847  0.4513
 1190SOL    HW115203   3.459   1.205   3.398  0.0813 -0.7170 -2.4551
 1190SOL    HW215204   3.559   1.310   3.441  0.2898 -0.3243  0.6039
 1191SOL     OW15205   4.306   0.098  13.168 -0.2976  0.1228 -0.2731
 1191SOL    HW115206   4.317   0.011  13.130 -0.7796 -0.6877  1.4718
 1191SOL    HW215207   4.240   0.077  13.234 -0.0888  1.8030  0.4606
 1192SOL     OW15208   2.285   3.833   9.739 -0.2745 -0.2438 -0.1271
 1192SOL    HW115209   2.335   3.751   9.742 -1.1801 -0.8115 -0.6594
 1192SOL    HW215210   2.212   3.812   9.796 -0.8236  2.0913  0.0366
 1193SOL     OW15211   2.096   0.554   7.520 -0.4063  0.5256 -0.1789
 1193SOL    HW115212   2.165   0.605   7.476 -0.0561 -0.8103 -1.1966
 1193SOL    HW215213   2.099   0.476   7.465  2.8648 -0.1174  0.9406
 1194SOL     OW15214   0.776   0.093   6.921  0.4703  0.4332 -0.0844
 1194SOL    HW115215   0.719   0.083   6.846  1.1263 -1.0296 -0.3949
 1194SOL    HW215216   0.721   0.045   6.983  0.1768  0.2562 -0.4857
 1195SOL     OW15217   4.545   0.666  11.969 -0.5367  0.5864  0.2364
 1195SOL    HW115218   4.617   0.604  11.980 -0.3299  0.6624 -0.7390
 1195SOL    HW215219   4.470   0.631  12.016 -0.1626  0.9762  1.1248
 1196SOL     OW15220   1.232   1.356   8.264  0.9545  0.3552 -0.2232
 1196SOL    HW115221   1.272   1.390   8.344  1.3703  0.5954 -0.5360
 1196SOL    HW215222   1.215   1.263   8.279 -1.5149  0.8948  0.4069
 1197SOL     OW15223   3.240   3.572   5.194  0.5119  0.1530 -0.0466
 1197SOL    HW115224   3.293   3.612   5.263  0.5954  0.8584 -0.5238
 1197SOL    HW215225   3.166   3.632   5.202 -1.9436 -2.7966 -1.0968
 1198SOL     OW15226   2.867   0.475   5.965  0.4214 -0.0483 -0.4982
 1198SOL    HW115227   2.874   0.383   5.938 -0.4304  0.2004 -1.5904
 1198SOL    HW215228   2.884   0.466   6.059 -1.0364  0.0289 -0.2179
 1199SOL     OW15229   1.156   2.217  10.369 -0.0012 -0.3658  0.2422
 1199SOL    HW115230   1.124   2.244  10.455  2.9872  1.4454  0.7763
 1199SOL    HW215231   1.248   2.198  10.387  0.4675  2.1725  0.4752
 1200SOL     OW15232   4.688   0.908   5.842 -0.0760 -0.2351  0.2881
 1200SOL    HW115233   4.686   0.880   5.933  0.3115 -1.4582 -0.0781
 1200SOL    HW215234   0.044   0.935   5.830 -0.9737  0.8524 -4.1324
 1201SOL     OW15235   1.402   1.792   7.792 -0.5825  0.1410  0.3993
 1201SOL    HW115236   1.313   1.825   7.774 -0.1533  0.0949 -1.8211
 1201SOL    HW215237   1.447   1.808   7.709 -3.7362 -1.1132 -1.5562
 1202SOL     OW15238   2.058   0.911   3.617 -0.4002  0.0097  0.1087
 1202SOL    HW115239   1.998   0.846   3.654  0.0164 -1.2758 -1.5060
 1202SOL    HW215240   2.077   0.974   3.687 -2.3270  2.3708 -1.5047
 1203SOL     OW15241   1.554   2.732   7.169 -0.7399 -0.8133  0.5630
 1203SOL    HW115242   1.553   2.709   7.262 -1.9380  1.3931  1.1238
 1203SOL    HW215243   1.578   2.645   7.138  0.6423 -1.0963  2.3916
 1204SOL     OW15244   2.914   3.704   1.082  0.1012  0.2714  0.4966
 1204SOL    HW115245   2.934   3.775   1.143  1.4380 -0.0049  0.3859
 1204SOL    HW215246   2.934   3.624   1.131 -3.6949  0.5932  2.5559
 1205SOL     OW15247   1.446   3.656   4.910 -0.1763  0.0579 -0.3692
 1205SOL    HW115248   1.513   3.613   4.857  0.5224  0.5070  0.1390
 1205SOL    HW215249   1.387   3.701   4.850  0.6744  0.9653 -0.5314
 1206SOL     OW15250   2.457   2.999   1.214  0.2206 -0.1144 -0.3843
 1206SOL    HW115251   2.444   3.078   1.266  0.0663 -0.2408 -0.2336
 1206SOL    HW215252   2.363   2.985   1.206 -0.1130  1.1633  1.3745
 1207SOL     OW15253   4.104   2.197   2.365  0.4341  0.3182 -0.3986
 1207SOL    HW115254   4.153   2.262   2.316  0.2017  1.5255  0.9590
 1207SOL    HW215255   4.019   2.242   2.365  0.4271  0.3057 -0.3430
 1208SOL     OW15256   4.529   3.096   5.986  0.3351  0.4246  0.5989
 1208SOL    HW115257   4.438   3.126   5.989  0.4561  0.9168 -0.4951
 1208SOL    HW215258   4.508   3.003   6.000  0.7122  0.4490  1.3203
 1209SOL     OW15259   3.800   3.942   7.553 -0.5482  0.2201  0.0812
 1209SOL    HW115260   3.813   4.035   7.535 -2.0394  0.1492 -1.4116
 1209SOL    HW215261   3.773   3.914   7.465  0.3953  1.8959 -0.7404
 1210SOL     OW15262   3.861   0.031   5.791 -0.3626  0.3263  0.2044
 1210SOL    HW115263   3.838   0.051   5.700 -0.1420  0.3682  0.1579
 1210SOL    HW215264   3.934   0.092   5.803  0.9411 -1.8057  2.8877
 1211SOL     OW15265   4.711   0.504   2.792 -0.2875  0.4856  0.2356
 1211SOL    HW115266   0.058   0.516   2.839  0.5445 -3.5820 -0.1737
 1211SOL    HW215267   4.641   0.537   2.848  0.6929  0.0021  1.7388
 1212SOL     OW15268   0.747   1.899  11.062 -0.2073 -0.5885 -0.0987
 1212SOL    HW115269   0.821   1.869  11.009  1.0725 -0.3492  1.5601
 1212SOL    HW215270   0.721   1.974  11.008  1.4746 -0.7456 -1.1447
 1213SOL     OW15271   2.767   2.401  16.587  0.1088  0.0275  0.2841
 1213SOL    HW115272   2.761   2.488  16.627  2.0803  0.0355  0.5610
 1213SOL    HW215273   2.781   2.411  16.493 -0.6982 -0.8856  0.0737
 1214SOL     OW15274   4.598   2.597  10.616  0.0955  0.5814  0.2461
 1214SOL    HW115275   4.597   2.535  10.689 -1.5691 -0.2741 -0.5141
 1214SOL    HW215276   4.686   2.630  10.631  0.3253 -0.7892  2.0270
 1215SOL     OW15277   1.089   3.758   1.827  0.1035 -0.0128  0.6217
 1215SOL    HW115278   1.121   3.843   1.797  0.4719 -0.5714 -0.5432
 1215SOL    HW215279   1.065   3.717   1.744  2.1406 -1.0212  0.5264
 1216SOL     OW15280   4.253   2.868  14.503  0.4752 -0.3396  0.2099
 1216SOL    HW115281   4.279   2.871  14.411  1.3955  3.2691  0.5672
 1216SOL    HW215282   4.163   2.899  14.499  0.8158  0.5784 -0.3934
 1217SOL     OW15283   3.207   2.126   5.186  0.0499  0.4302 -0.0914
 1217SOL    HW115284   3.177   2.094   5.271 -1.2415 -0.1175 -0.7571
 1217SOL    HW215285   3.233   2.044   5.144  0.4408 -0.8468  2.6944
 1218SOL     OW15286   0.667   0.783   0.995  0.6591 -0.5343  0.0258
 1218SOL    HW115287   0.587   0.835   0.996  0.2513 -1.1814  0.6237
 1218SOL    HW215288   0.725   0.849   1.032  0.2096 -0.0225 -0.1820
 1219SOL     OW15289   4.209   1.597   8.505 -0.1199  0.4517 -0.0741
 1219SOL    HW115290   4.151   1.569   8.434 -1.1474 -1.1703  1.4172
 1219SOL    HW215291   4.287   1.544   8.489  0.3815  0.4108  2.6085
 1220SOL     OW15292   4.100   0.289   8.008 -0.0208  0.0621  0.6135
 1220SOL    HW115293   4.190   0.310   7.984 -0.2041  0.7746  0.5538
 1220SOL    HW215294   4.082   0.198   7.984 -0.3717  0.3597 -0.2694
 1221SOL     OW15295   1.845   3.551   2.092 -0.2783  0.0124  0.6365
 1221SOL    HW115296   1.774   3.491   2.116 -1.1479  1.0524  0.6849
 1221SOL    HW215297   1.921   3.502   2.062 -1.1997 -1.3187  0.4813
 1222SOL     OW15298   3.183   0.203   3.391  0.1545 -0.5305  0.2623
 1222SOL    HW115299   3.243   0.255   3.338  1.6857 -2.9277 -0.3765
 1222SOL    HW215300   3.098   0.247   3.383  0.2789 -0.2637  0.4383
 1223SOL     OW15301   2.106   1.396   7.316 -0.3741  0.0672  0.6126
 1223SOL    HW115302   2.052   1.378   7.393 -1.8391  1.3657 -0.1120
 1223SOL    HW215303   2.037   1.435   7.262 -0.0549  2.3069  1.8444
 1224SOL     OW15304   2.357   1.757   0.827 -0.5285 -0.0409  0.5724
 1224SOL    HW115305   2.360   1.830   0.889  0.3861  1.9056 -1.7480
 1224SOL    HW215306   2.264   1.743   0.808  0.1432 -0.0619 -2.6389
 1225SOL     OW15307   2.730   1.267   8.382 -0.5366 -0.4374 -0.8413
 1225SOL    HW115308   2.803   1.285   8.441 -2.0107 -2.3896  1.6056
 1225SOL    HW215309   2.772   1.254   8.297 -1.8788  0.3556 -1.6251
 1226SOL     OW15310   3.631   2.566   7.325  0.0806  0.0714  0.5348
 1226SOL    HW115311   3.714   2.594   7.287 -0.2321  0.8644  0.4372
 1226SOL    HW215312   3.652   2.478   7.356  0.4810  0.0574  0.2154
 1227SOL     OW15313   3.797   0.279   1.943 -0.5721 -0.1591 -0.2564
 1227SOL    HW115314   3.834   0.269   2.031 -0.5108  0.8337 -0.1635
 1227SOL    HW215315   3.755   0.194   1.930  0.0371 -0.3900 -0.7522
 1228SOL     OW15316   0.413   1.580   6.011 -0.1086 -0.2808 -0.0565
 1228SOL    HW115317   0.472   1.513   6.045 -0.9397 -0.4774  1.0086
 1228SOL    HW215318   0.458   1.664   6.019 -0.4897 -0.2720  1.9685
 1229SOL     OW15319   4.257   3.329   2.763  0.6613 -0.3626  0.4642
 1229SOL    HW115320   4.215   3.415   2.757  0.9807 -0.2141  0.3572
 1229SOL    HW215321   4.348   3.358   2.757  0.8753 -1.0895  0.1912
 1230SOL     OW15322   0.266   3.966   5.291 -0.1386 -0.7233  0.2779
 1230SOL    HW115323   0.191   3.910   5.308  0.9601 -1.8331  1.4112
 1230SOL    HW215324   0.253   4.032   5.360  2.0707  0.5274 -0.4965
 1231SOL     OW15325   3.731   0.949   8.753  0.1665  0.2380 -0.3856
 1231SOL    HW115326   3.719   0.916   8.663  0.6619  1.0269 -0.7303
 1231SOL    HW215327   3.810   1.002   8.753  0.6210 -0.4470 -2.6578
 1232SOL     OW15328   1.232   2.562   4.159  0.7311 -0.3928  0.4675
 1232SOL    HW115329   1.253   2.499   4.090 -0.5590  1.5202 -1.7045
 1232SOL    HW215330   1.136   2.558   4.166  0.7265  1.2976  1.5209
 1233SOL     OW15331   3.603   4.608   7.123 -0.4910 -0.1033  0.2132
 1233SOL    HW115332   3.675   4.603   7.186 -1.6028 -2.0861  1.3248
 1233SOL    HW215333   3.553   4.671   7.176 -0.7293 -1.4627  1.5897
 1234SOL     OW15334   3.994   2.715  16.037  0.3040 -0.4032 -0.7114
 1234SOL    HW115335   3.965   2.669  15.958 -1.5192  0.8861 -0.8106
 1234SOL    HW215336   4.087   2.728  16.019  0.9046 -0.4791  2.2670
 1235SOL     OW15337   0.727   0.986  12.048  0.1872 -0.0823 -0.1282
 1235SOL    HW115338   0.779   0.914  12.011 -0.4037  0.3631 -1.8279
 1235SOL    HW215339   0.638   0.957  12.032 -1.0008  3.9662 -0.9358
 1236SOL     OW15340   4.251   0.323   7.244 -0.1357  0.2170  0.3667
 1236SOL    HW115341   4.329   0.367   7.210  0.4493 -1.0250  0.0858
 1236SOL    HW215342   4.220   0.285   7.161  1.4316 -0.2758  0.0003
 1237SOL     OW15343   0.711   3.563   7.129 -0.9119 -0.1567 -0.3516
 1237SOL    HW115344   0.743   3.637   7.180  0.5161 -0.8679 -0.2146
 1237SOL    HW215345   0.715   3.490   7.192 -2.0508  0.8040  0.8322
 1238SOL     OW15346   2.962   1.479  10.549  0.3014 -0.1979  0.4417
 1238SOL    HW115347   2.962   1.459  10.643 -0.3871  0.3036  0.5460
 1238SOL    HW215348   2.949   1.392  10.512  1.4645 -0.9358  1.7785
 1239SOL     OW15349   2.467   3.436  10.643 -0.0647  0.4416 -0.4478
 1239SOL    HW115350   2.519   3.462  10.719  1.1346 -1.0463 -0.7504
 1239SOL    HW215351   2.527   3.370  10.606 -0.0447 -0.9858  2.1441
 1240SOL     OW15352   1.404   0.770  16.401 -0.0237 -0.3921  0.1409
 1240SOL    HW115353   1.425   0.763  16.494  1.4779  2.7687  0.0324
 1240SOL    HW215354   1.491   0.759  16.362  0.5153 -1.9290  1.8016
 1241SOL     OW15355   0.961   2.903   3.557 -0.0156  0.1030 -0.0363
 1241SOL    HW115356   0.885   2.846   3.547 -1.6234  2.4691 -1.4107
 1241SOL    HW215357   0.925   2.986   3.526 -0.1270  0.4365  1.0043
 1242SOL     OW15358   0.950   1.306   3.513  0.0769 -0.0121 -0.5544
 1242SOL    HW115359   0.909   1.220   3.507  2.3402 -1.0976 -0.4745
 1242SOL    HW215360   0.919   1.362   3.442  0.0022  1.0143  0.2778
 1243SOL     OW15361   1.027   3.612   2.516  0.2572 -0.3210 -0.1437
 1243SOL    HW115362   1.045   3.635   2.607  0.3350  2.8292 -0.9712
 1243SOL    HW215363   1.114   3.611   2.477 -0.0925  2.5542 -0.9582
 1244SOL     OW15364   3.914   2.044   7.400  0.2549  0.0115  0.0607
 1244SOL    HW115365   3.880   2.092   7.475 -1.7923 -0.6869 -0.4101
 1244SOL    HW215366   4.009   2.050   7.411  0.3632 -1.2527 -0.1678
 1245SOL     OW15367   0.056   1.997   9.107 -0.4952  0.2122 -0.0760
 1245SOL    HW115368   0.125   1.941   9.141 -1.1315 -0.1379  0.6536
 1245SOL    HW215369   0.062   2.077   9.158 -0.6421  0.1295  0.0709
 1246SOL     OW15370   3.882   2.215  17.631  0.3732  0.1477 -0.5207
 1246SOL    HW115371   3.915   2.134  17.670 -1.2021 -0.2339  0.0254
 1246SOL    HW215372   3.968   2.256  17.624  0.9544 -0.7393  1.3139
 1247SOL     OW15373   3.810   3.086   8.004 -0.5219  0.5976 -0.4367
 1247SOL    HW115374   3.850   3.037   7.932  2.9065  0.7218  1.3461
 1247SOL    HW215375   3.745   3.144   7.964 -0.6783  0.5100 -0.3060
 1248SOL     OW15376   0.158   2.919   8.921  0.3374  0.2341  1.4373
 1248SOL    HW115377   0.141   2.961   9.005 -2.4112 -0.2473  1.1288
 1248SOL    HW215378   0.243   2.951   8.891 -0.1052 -0.1651 -0.2327
 1249SOL     OW15379   1.048   0.453   2.658  0.1340 -0.4062  0.3051
 1249SOL    HW115380   1.064   0.408   2.574  0.4784  0.1762  0.0626
 1249SOL    HW215381   1.068   0.544   2.636 -2.0235 -0.0317 -0.0816
 1250SOL     OW15382   1.487   2.983   8.094 -0.0081  0.1894 -0.0038
 1250SOL    HW115383   1.439   3.029   8.163  0.6529 -0.7991  1.1042
 1250SOL    HW215384   1.423   2.983   8.024 -0.5733  1.6721  0.4984
 1251SOL     OW15385   3.897   4.180   7.461 -0.0087  0.3402 -0.0371
 1251SOL    HW115386   3.932   4.117   7.399 -1.1494 -0.5197  0.1824
 1251SOL    HW215387   3.912   4.264   7.419  0.8145  1.2674  2.0949
 1252SOL     OW15388   1.414   3.705  17.616  0.5505  0.1209 -0.6635
 1252SOL    HW115389   1.471   3.628  17.617  0.6649  0.2088 -0.3006
 1252SOL    HW215390   1.326   3.671  17.637  1.2728  1.2003  4.0775
 1253SOL     OW15391   4.639   2.952   4.059  0.5503 -0.5024 -0.2660
 1253SOL    HW115392   4.629   2.944   4.153  1.1279  0.8468 -0.0872
 1253SOL    HW215393   4.624   2.861   4.036 -0.0422 -0.1121 -1.4477
 1254SOL     OW15394   3.975   0.818   2.608  0.5017  0.1983 -0.1779
 1254SOL    HW115395   4.040   0.753   2.581 -2.7879 -2.7855 -0.8893
 1254SOL    HW215396   4.015   0.862   2.683  1.3147  0.8612 -0.9933
 1255SOL     OW15397   1.917   3.607  15.841  0.0632  0.6105 -0.1048
 1255SOL    HW115398   1.935   3.625  15.749  0.6262  0.2079 -0.0705
 1255SOL    HW215399   1.833   3.562  15.837  0.5136 -0.0441 -1.8358
 1256SOL     OW15400   2.519   0.258   3.153 -0.0292  0.7438  0.5361
 1256SOL    HW115401   2.509   0.313   3.230 -0.1396 -0.4204  1.3611
 1256SOL    HW215402   2.540   0.177   3.201  0.3273 -1.1894 -2.8884
 1257SOL     OW15403   0.219   0.166   9.035 -0.0467  0.3229  0.1897
 1257SOL    HW115404   0.219   0.262   9.026 -0.1155  0.1799 -1.4029
 1257SOL    HW215405   0.283   0.136   8.970 -0.5412  1.1859 -0.7005
 1258SOL     OW15406   1.654   1.494  16.514 -0.3673 -0.4439 -0.0426
 1258SOL    HW115407   1.563   1.523  16.512  0.1631  1.0913 -1.5600
 1258SOL    HW215408   1.650   1.405  16.480  3.0387 -0.5583 -0.1116
 1259SOL     OW15409   2.963   4.317  11.881 -0.1602 -0.6351  0.7789
 1259SOL    HW115410   2.986   4.233  11.840 -1.6023 -0.0593 -1.1982
 1259SOL    HW215411   2.974   4.373  11.805 -2.6043  0.0414  0.9073
 1260SOL     OW15412   2.590   4.660   1.715 -0.6399 -0.1153 -0.5652
 1260SOL    HW115413   2.639   4.593   1.667 -0.7220  0.1004 -0.9504
 1260SOL    HW215414   2.658   4.720   1.745  1.0068 -2.3248  0.1332
 1261SOL     OW15415   3.727   1.173  16.393  0.4919  1.0373 -0.6197
 1261SOL    HW115416   3.792   1.104  16.388  0.3549  0.6398  3.0140
 1261SOL    HW215417   3.764   1.212  16.472  1.0543  1.9994 -1.3683
 1262SOL     OW15418   0.130   4.238   3.128  0.1142 -0.3527 -0.1629
 1262SOL    HW115419   0.127   4.318   3.181 -2.3292 -0.0471 -0.7475
 1262SOL    HW215420   0.102   4.269   3.042 -2.1341 -0.6350  0.4721
 1263SOL     OW15421   0.815   1.991   9.182  0.3964  0.8682 -0.4784
 1263SOL    HW115422   0.804   2.076   9.138  1.1372  1.0823 -0.2461
 1263SOL    HW215423   0.898   1.964   9.143  0.4948  0.6974 -0.1510
 1264SOL     OW15424   1.631   0.048   8.260  0.1004  0.2903 -0.1610
 1264SOL    HW115425   1.577   4.734   8.321 -3.6404  5.1382  0.4111
 1264SOL    HW215426   1.681   0.104   8.318 -3.8954  2.8351  0.7848
 1265SOL     OW15427   2.297   1.107  10.830 -0.6276  0.1007  0.4542
 1265SOL    HW115428   2.283   1.014  10.810 -2.8191  0.5812 -0.2905
 1265SOL    HW215429   2.375   1.096  10.884 -0.5565 -0.2132  0.2904
 1266SOL     OW15430   0.585   0.766   5.812 -0.5427 -0.6434 -0.4546
 1266SOL    HW115431   0.680   0.770   5.825 -0.4859 -2.8241 -0.2244
 1266SOL    HW215432   0.556   0.805   5.894  0.6742 -0.4489 -0.1256
 1267SOL     OW15433   1.226   2.609  13.693  0.7929  0.3051 -0.0272
 1267SOL    HW115434   1.217   2.522  13.654 -0.6081  0.9859 -1.2306
 1267SOL    HW215435   1.142   2.645  13.665  0.8811  0.1093 -0.5572
 1268SOL     OW15436   1.772   2.132   0.493  0.2033  0.7639  0.0622
 1268SOL    HW115437   1.715   2.182   0.551  0.7346  0.8737  0.4934
 1268SOL    HW215438   1.716   2.122   0.416  1.0305 -1.1638 -0.2949
 1269SOL     OW15439   4.063   3.690   4.326 -0.0056  0.0687 -0.7157
 1269SOL    HW115440   4.082   3.634   4.402  1.4731  1.5485  0.0034
 1269SOL    HW215441   4.052   3.623   4.258  1.0828  0.5465 -1.3680
 1270SOL     OW15442   3.573   4.086   4.057 -0.7716  0.2033 -0.5531
 1270SOL    HW115443   3.521   4.012   4.026  1.2672 -1.5750  0.3170
 1270SOL    HW215444   3.546   4.074   4.148 -0.1824  0.0530 -0.3994
 1271SOL     OW15445   3.799   0.282   4.860  0.1149 -0.0705 -0.7821
 1271SOL    HW115446   3.750   0.235   4.927 -0.2956 -0.5785 -1.4371
 1271SOL    HW215447   3.817   0.362   4.910 -1.3864  0.3615 -0.9159
 1272SOL     OW15448   4.171   2.252   9.813  0.5959  0.6151 -0.1030
 1272SOL    HW115449   4.267   2.256   9.820  0.8069 -2.0131 -1.4583
 1272SOL    HW215450   4.153   2.325   9.872  1.1772  2.3909 -2.1341
 1273SOL     OW15451   4.409   3.380   5.219 -0.3936  0.0291  0.0059
 1273SOL    HW115452   4.438   3.291   5.200  0.2876 -0.0633  1.4318
 1273SOL    HW215453   4.321   3.366   5.185 -0.6784 -0.3245  0.8836
 1274SOL     OW15454   4.613   0.579   3.632  0.3497 -0.0922 -0.3957
 1274SOL    HW115455   4.532   0.555   3.587  0.5936 -0.8087 -0.4659
 1274SOL    HW215456   4.577   0.559   3.719  1.5944 -1.3252 -0.1496
 1275SOL     OW15457   3.127   0.521   3.347 -0.5048 -0.1817 -0.7095
 1275SOL    HW115458   3.057   0.471   3.388 -0.5506  0.4964  0.0404
 1275SOL    HW215459   3.132   0.486   3.258  0.7364 -4.1935  0.9472
 1276SOL     OW15460   4.480   4.084   5.974  0.4881 -0.7828 -0.3001
 1276SOL    HW115461   4.557   4.076   5.918 -0.9164  1.2360 -2.4790
 1276SOL    HW215462   4.440   4.161   5.933  1.1978 -0.6986 -0.8356
 1277SOL     OW15463   1.491   1.080  16.059 -0.4762  0.3585  0.4076
 1277SOL    HW115464   1.477   1.032  15.977 -2.3818  0.1291  0.8587
 1277SOL    HW215465   1.407   1.073  16.104 -0.5756 -0.3970  0.0975
 1278SOL     OW15466   2.849   3.680   2.790 -0.4204 -0.5333 -0.1099
 1278SOL    HW115467   2.883   3.755   2.839 -1.5773 -1.8486  2.7520
 1278SOL    HW215468   2.799   3.632   2.856 -1.2841  0.1502 -0.2749
 1279SOL     OW15469   0.979   3.053   6.390  0.0016  0.1867  0.1984
 1279SOL    HW115470   1.017   3.132   6.427  0.2373  0.7932 -1.3587
 1279SOL    HW215471   0.933   3.081   6.311 -2.3100 -1.0266  1.1078
 1280SOL     OW15472   1.213   2.141   8.085  0.0105 -0.1309 -0.1176
 1280SOL    HW115473   1.285   2.094   8.127  0.7622  0.9908 -0.1695
 1280SOL    HW215474   1.225   2.114   7.994  1.5693  0.1258  0.0197
 1281SOL     OW15475   3.894   0.380   5.502  0.2885 -0.2309 -0.0162
 1281SOL    HW115476   3.801   0.360   5.496  0.2957 -0.3124  0.1228
 1281SOL    HW215477   3.919   0.398   5.412  0.2603  0.0286  0.0267
 1282SOL     OW15478   0.821   0.534   7.366  0.2620  0.8012 -0.1550
 1282SOL    HW115479   0.761   0.598   7.328 -1.3187 -2.0679 -2.5097
 1282SOL    HW215480   0.809   0.566   7.456 -4.2576 -0.0855 -0.4264
 1283SOL     OW15481   0.185   1.992   7.022 -0.3259  0.0039  0.2458
 1283SOL    HW115482   0.123   2.055   7.059 -1.0902 -0.2163 -0.6576
 1283SOL    HW215483   0.136   1.947   6.953  2.0244 -0.8538 -0.8276
 1284SOL     OW15484   1.987   3.690  17.490  0.2230 -0.0115  0.4770
 1284SOL    HW115485   1.897   3.695  17.459  0.5897  0.3871 -0.5058
 1284SOL    HW215486   2.032   3.670  17.408 -2.2438  1.1289 -1.1452
 1285SOL     OW15487   2.771   2.166   9.040  0.1066  0.1096  0.0284
 1285SOL    HW115488   2.759   2.253   9.001 -1.6641  0.2192  0.8081
 1285SOL    HW215489   2.855   2.181   9.083  0.5192 -1.4925 -0.2290
 1286SOL     OW15490   2.532   3.180   1.779  0.9194  0.0560  0.1878
 1286SOL    HW115491   2.496   3.092   1.779 -2.4892  1.4660  1.6925
 1286SOL    HW215492   2.468   3.224   1.722 -1.0890 -1.1294  1.5336
 1287SOL     OW15493   0.816   0.358   8.431 -0.5371 -0.4687 -0.1934
 1287SOL    HW115494   0.734   0.408   8.441 -0.0116  0.0409  1.5658
 1287SOL    HW215495   0.815   0.316   8.517 -1.3740  0.0394  0.0431
 1288SOL     OW15496   1.817   1.761   3.135 -0.0790 -0.1706  0.1354
 1288SOL    HW115497   1.832   1.666   3.134 -3.3696 -0.6759 -0.3400
 1288SOL    HW215498   1.892   1.799   3.181 -2.3464  2.0949  1.9386
 1289SOL     OW15499   2.735   0.332  17.405 -0.0648 -0.0451  0.0024
 1289SOL    HW115500   2.742   0.415  17.356 -1.0158 -0.9030 -1.5838
 1289SOL    HW215501   2.828   0.310  17.407 -0.1231 -0.2696  0.1104
 1290SOL     OW15502   4.306   2.217   8.900 -0.3383  0.2046 -0.0476
 1290SOL    HW115503   4.387   2.168   8.915  0.5367  1.8840  0.8016
 1290SOL    HW215504   4.261   2.205   8.983  0.2947 -2.3204 -0.0818
 1291SOL     OW15505   0.529   0.947   0.089  0.1545  0.1508 -0.6236
 1291SOL    HW115506   0.577   1.025   0.061  1.2477  0.5120  2.1751
 1291SOL    HW215507   0.510   0.980   0.177  0.6986  4.1659 -2.0185
 1292SOL     OW15508   2.765   0.812  16.096  0.6028  0.3792 -0.0936
 1292SOL    HW115509   2.845   0.812  16.149  0.1390 -0.5412  0.5807
 1292SOL    HW215510   2.802   0.831  16.009  2.4477 -2.8296  0.0064
 1293SOL     OW15511   1.395   4.130   6.970  0.0432 -0.1935 -0.2387
 1293SOL    HW115512   1.436   4.217   6.967 -2.3733  0.9497 -0.3193
 1293SOL    HW215513   1.439   4.091   6.895  1.7698 -0.0821  0.7134
 1294SOL     OW15514   3.448   3.504   5.036 -0.1451 -0.4346  0.1140
 1294SOL    HW115515   3.485   3.592   5.035  1.0392 -0.9322 -0.3101
 1294SOL    HW215516   3.369   3.531   5.083 -1.9717 -2.4756 -1.7362
 1295SOL     OW15517   2.714   1.866   2.559  0.3612  0.0080  0.2713
 1295SOL    HW115518   2.800   1.838   2.592  1.5100  1.1874 -1.7365
 1295SOL    HW215519   2.654   1.812   2.611  1.3007 -1.5703 -0.2674
 1296SOL     OW15520   2.072   3.138  15.543  0.1347  0.3642  0.4900
 1296SOL    HW115521   2.165   3.149  15.563  0.6459  1.2901 -2.4572
 1296SOL    HW215522   2.044   3.067  15.602 -1.2650 -2.8344 -3.9620
 1297SOL     OW15523   0.825   2.892   8.318 -0.1932  0.4485  0.2247
 1297SOL    HW115524   0.747   2.921   8.364  0.1654  0.4393  0.8386
 1297SOL    HW215525   0.801   2.801   8.299 -1.5316  1.0415 -0.8949
 1298SOL     OW15526   0.284   2.374   3.425  0.0295 -0.4034 -0.0706
 1298SOL    HW115527   0.212   2.335   3.375 -0.5366 -0.6432  0.9284
 1298SOL    HW215528   0.234   2.452   3.451 -0.0997 -0.3393 -0.5111
 1299SOL     OW15529   1.806   1.006   6.772  0.0504  0.2546 -0.3342
 1299SOL    HW115530   1.762   1.091   6.776 -1.5064 -0.6067  0.6168
 1299SOL    HW215531   1.803   0.970   6.860  3.3373  0.9075  0.0475
 1300SOL     OW15532   4.729   3.453  14.854  0.0050 -0.4847 -0.1682
 1300SOL    HW115533   4.680   3.494  14.783 -0.2767  2.1568  1.5149
 1300SOL    HW215534   0.003   3.361  14.828 -3.0246 -0.8224 -0.0403
 1301SOL     OW15535   4.512   0.070   6.830 -0.1680  0.3994  0.3814
 1301SOL    HW115536   4.565   0.120   6.768 -0.2426 -0.5733 -0.4701
 1301SOL    HW215537   4.539   4.714   6.824 -1.1199  0.2506 -1.5797
 1302SOL     OW15538   1.765   2.684  16.963 -0.0526 -0.0820 -0.2006
 1302SOL    HW115539   1.692   2.629  16.935 -0.5806  0.6272 -0.2181
 1302SOL    HW215540   1.808   2.642  17.038 -1.6892 -2.1625 -0.4256
 1303SOL     OW15541   0.029   2.235   4.894  0.2910  0.4927 -0.4934
 1303SOL    HW115542   0.081   2.290   4.953 -1.8654  1.6021  0.3493
 1303SOL    HW215543   0.035   2.277   4.809 -0.7797 -0.0825 -0.8566
 1304SOL     OW15544   4.037   0.220   4.484  0.0130  0.0800 -0.0746
 1304SOL    HW115545   4.100   0.283   4.450 -1.5591  1.0524 -1.1977
 1304SOL    HW215546   3.958   0.262   4.520 -0.8785 -0.4724 -1.4044
 1305SOL     OW15547   2.319   1.252  13.416  0.4102  0.5686 -0.1053
 1305SOL    HW115548   2.300   1.172  13.367  2.0103 -0.5708  1.1227
 1305SOL    HW215549   2.247   1.301  13.376  1.8033  1.4896 -1.4820
 1306SOL     OW15550   2.836   2.421   8.232  0.0841  0.0167  0.0029
 1306SOL    HW115551   2.914   2.446   8.181 -1.0372  1.9551 -0.7384
 1306SOL    HW215552   2.874   2.352   8.288  2.4521  1.2521 -0.0530
 1307SOL     OW15553   3.422   2.111  16.840  0.0001 -0.0745  0.0819
 1307SOL    HW115554   3.434   2.020  16.866 -0.8511 -0.0858  0.4219
 1307SOL    HW215555   3.388   2.141  16.924 -1.1059  0.7260 -0.6558
 1308SOL     OW15556   2.606   3.645  17.486  0.4730 -0.2300  0.1204
 1308SOL    HW115557   2.551   3.678  17.415  0.0967  0.9880  0.9775
 1308SOL    HW215558   2.565   3.563  17.517  0.1496 -0.6808 -1.5049
 1309SOL     OW15559   0.590   2.123   2.435  0.6638 -0.1462 -0.1600
 1309SOL    HW115560   0.624   2.140   2.523 -0.4049  1.1099  0.0015
 1309SOL    HW215561   0.633   2.041   2.408  0.0421 -0.5150 -0.0202
 1310SOL     OW15562   4.454   4.484  12.300  0.5037  0.0971  0.2341
 1310SOL    HW115563   4.483   4.535  12.376  3.9361 -2.3571  0.6015
 1310SOL    HW215564   4.378   4.436  12.333 -0.7881  1.7067 -0.4805
 1311SOL     OW15565   3.383   1.718   4.614  0.4833  0.0370  0.3983
 1311SOL    HW115566   3.322   1.653   4.580 -0.3770  0.7860  0.5316
 1311SOL    HW215567   3.351   1.794   4.564  1.9899 -2.1629 -3.9600
 1312SOL     OW15568   4.087   3.799   3.931 -0.0063 -0.1304  0.0465
 1312SOL    HW115569   4.153   3.782   3.999 -1.1217 -0.4648  1.0376
 1312SOL    HW215570   4.111   3.885   3.899 -1.6395 -0.1054 -1.0700
 1313SOL     OW15571   0.575   1.686  11.130 -0.0680 -0.0364  0.0288
 1313SOL    HW115572   0.637   1.755  11.105 -0.3500 -0.0734 -0.7554
 1313SOL    HW215573   0.535   1.732  11.204 -4.3974 -0.3618 -2.1250
 1314SOL     OW15574   0.668   4.358   3.902  0.3676  0.5048 -0.3083
 1314SOL    HW115575   0.643   4.433   3.849  0.3167  1.7425  1.4572
 1314SOL    HW215576   0.651   4.295   3.832  0.0585  0.0867  0.1387
 1315SOL     OW15577   1.100   2.279  12.200 -0.4524 -0.0272 -0.2586
 1315SOL    HW115578   1.112   2.200  12.148 -0.7495 -0.7575  0.7763
 1315SOL    HW215579   1.027   2.323  12.157  0.2785  2.2151  0.7676
 1316SOL     OW15580   0.935   3.971  11.142 -0.2836  0.5301 -0.2421
 1316SOL    HW115581   1.022   4.008  11.128  0.6389 -1.6593 -0.3836
 1316SOL    HW215582   0.906   3.950  11.053  0.6817  1.6001 -0.8169
 1317SOL     OW15583   1.198   3.382   3.459  0.1489 -0.7591 -0.0571
 1317SOL    HW115584   1.269   3.442   3.434 -0.2878 -1.6080 -3.2737
 1317SOL    HW215585   1.125   3.436   3.430 -0.9245 -0.8500  2.4382
 1318SOL     OW15586   4.241   3.126   2.925 -0.4660 -0.6055  0.1497
 1318SOL    HW115587   4.247   3.152   3.017  1.5503  0.2238 -0.2351
 1318SOL    HW215588   4.242   3.211   2.883 -2.2915 -1.1637 -1.0199
 1319SOL     OW15589   2.796   1.111   0.478  0.0101 -0.1034 -0.3065
 1319SOL    HW115590   2.752   1.187   0.439 -1.2276 -1.3596 -1.3547
 1319SOL    HW215591   2.842   1.097   0.395  1.7986  0.7585  0.5280
 1320SOL     OW15592   3.442   1.443  16.214 -0.1429 -0.2038 -0.8729
 1320SOL    HW115593   3.356   1.407  16.192 -0.6584  0.7795 -0.4287
 1320SOL    HW215594   3.503   1.385  16.168  1.5928  1.2221 -0.3872
 1321SOL     OW15595   1.976   1.605   1.089 -0.5421  0.1782 -0.6318
 1321SOL    HW115596   1.901   1.579   1.035  0.1745 -0.9992 -1.0329
 1321SOL    HW215597   1.930   1.610   1.173 -0.1906  4.7904 -0.7086
 1322SOL     OW15598   0.940   0.573  14.387 -0.6591 -0.6164 -0.0070
 1322SOL    HW115599   0.898   0.490  14.367 -0.9283 -0.8344  1.4390
 1322SOL    HW215600   0.934   0.574  14.483  1.1759 -1.3028  0.1151
 1323SOL     OW15601   2.818   4.324   7.244 -0.0274 -0.3055  0.6267
 1323SOL    HW115602   2.802   4.369   7.327 -1.2970  1.5237 -0.6001
 1323SOL    HW215603   2.753   4.253   7.249 -0.0540 -0.2385  1.2238
 1324SOL     OW15604   2.614   1.963   2.151  0.3494  0.6625  0.0673
 1324SOL    HW115605   2.577   2.051   2.161 -0.6624  0.1130  1.0947
 1324SOL    HW215606   2.582   1.940   2.063  0.6864  1.8115 -0.3487
 1325SOL     OW15607   0.450   0.641  11.796  0.0822  0.2212 -0.3317
 1325SOL    HW115608   0.379   0.583  11.824  1.2454 -1.4158 -0.7671
 1325SOL    HW215609   0.530   0.605  11.833  0.2332  0.5483 -0.3431
 1326SOL     OW15610   3.365   1.136   4.747  0.3287 -0.3584 -0.9750
 1326SOL    HW115611   3.449   1.113   4.786  0.8062  2.1728 -0.5146
 1326SOL    HW215612   3.380   1.228   4.722  1.5619 -0.2742  0.0986
 1327SOL     OW15613   4.516   1.055   9.369  0.3734 -0.3097  0.4154
 1327SOL    HW115614   4.465   1.005   9.433  1.0767 -2.0912 -0.4089
 1327SOL    HW215615   4.544   1.122   9.431  0.3948 -0.9957  1.1513
 1328SOL     OW15616   2.940   1.678  17.461  0.1686 -0.0365 -0.6899
 1328SOL    HW115617   2.997   1.753  17.474 -1.5898  0.7596  2.5173
 1328SOL    HW215618   2.892   1.705  17.382 -2.5579 -0.8239  0.6903
 1329SOL     OW15619   2.287   4.307   2.375  0.2777 -0.4901  0.4765
 1329SOL    HW115620   2.282   4.267   2.462 -0.3652  0.4487  0.8697
 1329SOL    HW215621   2.358   4.255   2.336 -1.7641 -1.9857 -1.2640
 1330SOL     OW15622   2.326   1.509   7.412 -0.4920  0.3914 -0.1565
 1330SOL    HW115623   2.299   1.599   7.429 -1.3793  0.0200  0.4323
 1330SOL    HW215624   2.248   1.465   7.377 -2.3112  1.3601  2.6090
 1331SOL     OW15625   1.073   0.359  11.466  0.3860  0.1180  0.2334
 1331SOL    HW115626   1.100   0.385  11.378  1.6804 -0.7710  0.3658
 1331SOL    HW215627   1.139   0.389  11.528  0.1025 -1.1095  1.1380
 1332SOL     OW15628   2.068   0.298  15.130  0.4474  0.3868  0.3194
 1332SOL    HW115629   2.086   0.261  15.216  1.3542 -1.7390 -0.7979
 1332SOL    HW215630   2.097   0.388  15.145  2.1711 -0.6205  2.9933
 1333SOL     OW15631   0.890   1.719   3.817  0.1234 -0.5187 -0.1519
 1333SOL    HW115632   0.910   1.811   3.834 -2.8408 -0.1246  1.0659
 1333SOL    HW215633   0.873   1.735   3.724 -0.4957  1.6375  0.3214
 1334SOL     OW15634   3.982   1.567   4.358  0.3127 -0.4933 -0.1564
 1334SOL    HW115635   3.976   1.602   4.269  1.9566  0.1358 -0.0060
 1334SOL    HW215636   3.890   1.540   4.362  0.4078 -0.8409 -0.3223
 1335SOL     OW15637   3.446   0.395  13.467  0.1297  0.5149  0.2695
 1335SOL    HW115638   3.383   0.354  13.408 -1.0382  1.8824  0.5654
 1335SOL    HW215639   3.399   0.379  13.549  1.0622  0.7273  0.8455
 1336SOL     OW15640   3.244   4.193   3.907 -0.3225 -0.3625  0.1767
 1336SOL    HW115641   3.237   4.112   3.957 -3.1880 -0.2834 -0.0943
 1336SOL    HW215642   3.242   4.253   3.981  0.2284 -0.5029  0.3061
 1337SOL     OW15643   1.815   3.076  11.986 -0.7523  0.5248 -0.1259
 1337SOL    HW115644   1.897   3.120  11.965  0.1630 -0.9057  0.5197
 1337SOL    HW215645   1.764   3.150  12.019 -2.6321 -0.6483 -0.3931
 1338SOL     OW15646   2.847   1.111   0.748  0.6009  0.0849 -0.4290
 1338SOL    HW115647   2.837   1.108   0.653  0.5693 -2.2168 -0.3478
 1338SOL    HW215648   2.858   1.206   0.755  1.3466 -0.1597  1.6701
 1339SOL     OW15649   4.177   1.681   8.070  0.4501  1.2059 -0.0286
 1339SOL    HW115650   4.242   1.750   8.078  1.6512 -0.2497  3.0315
 1339SOL    HW215651   4.184   1.671   7.975  1.1849 -1.6324  0.3095
 1340SOL     OW15652   2.789   3.174   3.369  0.1874  0.3825  0.2548
 1340SOL    HW115653   2.802   3.128   3.286 -1.4404  1.8011 -0.7861
 1340SOL    HW215654   2.844   3.251   3.354 -0.5993  0.9923  0.4918
 1341SOL     OW15655   2.553   0.575   7.781  0.0811 -0.0663  0.0743
 1341SOL    HW115656   2.487   0.642   7.766  0.4337 -0.4126 -3.0925
 1341SOL    HW215657   2.499   0.497   7.765 -0.6742 -0.0558  2.5304
 1342SOL     OW15658   1.166   0.679   2.605  0.3261 -0.5660 -0.5372
 1342SOL    HW115659   1.176   0.769   2.575 -2.3618 -1.6632 -4.6383
 1342SOL    HW215660   1.243   0.672   2.663 -2.2404  0.2689  2.9584
 1343SOL     OW15661   2.074   4.596   3.453 -0.4831  0.6294  0.1823
 1343SOL    HW115662   2.027   4.649   3.517  0.1469  0.9271  0.3954
 1343SOL    HW215663   2.046   4.612   3.362  0.5275  1.1518 -0.0411
 1344SOL     OW15664   1.542   2.311  16.735 -0.0574  0.1057 -0.3368
 1344SOL    HW115665   1.555   2.267  16.651  3.1857  0.4567 -0.0225
 1344SOL    HW215666   1.518   2.234  16.788  0.1938 -0.1692 -0.6175
 1345SOL     OW15667   4.177   1.964  12.755 -0.0840 -0.8617 -0.0154
 1345SOL    HW115668   4.150   1.912  12.831 -1.2993  0.1313  0.2210
 1345SOL    HW215669   4.112   1.940  12.689  1.1250 -0.6536 -1.3018
 1346SOL     OW15670   2.560   4.183  15.416  0.6455 -0.4964  0.1362
 1346SOL    HW115671   2.529   4.219  15.499  0.9239 -0.5721  0.2713
 1346SOL    HW215672   2.543   4.089  15.414  0.3060 -0.4689  1.4793
 1347SOL     OW15673   3.846   4.168   2.974 -0.4555 -0.3290 -0.9794
 1347SOL    HW115674   3.771   4.159   3.033  0.8721 -1.8080  0.4836
 1347SOL    HW215675   3.809   4.232   2.913 -1.7179  2.2289  2.4482
 1348SOL     OW15676   4.715   3.968   8.864 -0.3825  0.2922 -0.0653
 1348SOL    HW115677   0.051   4.014   8.907  0.0207  0.2451 -0.6879
 1348SOL    HW215678   4.725   3.997   8.773  1.7062  1.3622  0.4998
 1349SOL     OW15679   0.558   1.851   6.444  0.2457 -0.7310 -0.5312
 1349SOL    HW115680   0.483   1.875   6.498  1.9344  2.4843  0.3741
 1349SOL    HW215681   0.628   1.896   6.492  0.3401 -2.0521  0.5771
 1350SOL     OW15682   0.381   3.838   3.144  0.2647 -0.8029 -0.6621
 1350SOL    HW115683   0.310   3.888   3.104  1.4369  1.7735  0.4090
 1350SOL    HW215684   0.460   3.877   3.106  1.6469 -3.5784 -0.6304
 1351SOL     OW15685   3.613   3.249   4.415 -0.2215  0.4484 -0.3190
 1351SOL    HW115686   3.533   3.218   4.457 -0.2849  1.1438  0.0736
 1351SOL    HW215687   3.649   3.171   4.373  1.5683 -0.5468  3.0342
 1352SOL     OW15688   1.446   1.165  15.727 -0.3014 -0.3967  0.0819
 1352SOL    HW115689   1.488   1.132  15.647 -1.3952  0.1525 -0.7123
 1352SOL    HW215690   1.422   1.086  15.777 -0.8453 -0.3322 -0.0818
 1353SOL     OW15691   3.287   1.468  10.517  0.1140 -0.6591 -0.1932
 1353SOL    HW115692   3.224   1.540  10.506 -1.0854 -1.6480  0.1578
 1353SOL    HW215693   3.318   1.493  10.604 -2.4204 -1.0088  0.8181
 1354SOL     OW15694   3.028   2.614   5.911 -0.1273  0.4515  0.7459
 1354SOL    HW115695   3.054   2.697   5.950 -0.8592  0.2853  1.5802
 1354SOL    HW215696   2.939   2.605   5.944  0.4865 -2.5232  1.6391
 1355SOL     OW15697   0.977   2.350   7.610  0.3170  0.0820  0.0271
 1355SOL    HW115698   0.934   2.400   7.540  0.2767  2.3155  1.6581
 1355SOL    HW215699   0.947   2.390   7.691  0.0558  0.8438 -0.4497
 1356SOL     OW15700   2.346   0.842  14.679 -0.5285 -0.6142  0.2672
 1356SOL    HW115701   2.384   0.816  14.763  0.4138  2.1355  0.6925
 1356SOL    HW215702   2.260   0.878  14.701  0.1666  1.3773 -0.3580
 1357SOL     OW15703   3.837   2.364   5.669  0.0344  0.3267 -0.0595
 1357SOL    HW115704   3.833   2.275   5.635  1.4514  0.4593 -0.5651
 1357SOL    HW215705   3.746   2.391   5.657  0.0126  0.5820  0.6659
 1358SOL     OW15706   3.483   3.385   2.406 -0.3290  0.0894 -0.4671
 1358SOL    HW115707   3.479   3.352   2.316 -0.4851 -1.2152  0.0100
 1358SOL    HW215708   3.567   3.348   2.435 -0.4130  1.2567  1.2606
 1359SOL     OW15709   4.493   4.528   2.640 -0.3541 -0.4010  0.2049
 1359SOL    HW115710   4.478   4.513   2.733 -2.7945 -2.8996 -0.5837
 1359SOL    HW215711   4.463   4.618   2.623  1.9788  0.0051 -1.7955
 1360SOL     OW15712   4.263   2.778  15.970 -0.0105 -0.2882 -0.0428
 1360SOL    HW115713   4.321   2.797  15.896  1.9445 -0.2603  1.5110
 1360SOL    HW215714   4.292   2.852  16.023  1.3858 -0.2949 -0.7775
 1361SOL     OW15715   4.446   4.715   3.583 -0.6107  0.0564 -0.7774
 1361SOL    HW115716   4.484   4.629   3.600 -1.4743  0.1545  1.6857
 1361SOL    HW215717   4.360   4.711   3.624 -0.5004  0.5579 -0.4928
 1362SOL     OW15718   2.844   0.092  10.981 -0.7178 -0.1177 -0.8007
 1362SOL    HW115719   2.939   0.091  10.994 -0.4156  2.7356 -2.7881
 1362SOL    HW215720   2.822   0.017  11.036  0.3448 -0.5256 -0.9230
 1363SOL     OW15721   1.698   1.128   9.910 -0.3432  0.1172 -0.7518
 1363SOL    HW115722   1.682   1.133  10.004 -2.0945 -0.8475 -0.9957
 1363SOL    HW215723   1.782   1.174   9.911 -0.6936  0.7102  2.2059
 1364SOL     OW15724   1.960   1.348   3.398  0.1548 -0.2272 -0.0800
 1364SOL    HW115725   1.883   1.296   3.375 -0.8158  0.2930  1.9724
 1364SOL    HW215726   2.026   1.278   3.399  1.1445  0.7443  1.6737
 1365SOL     OW15727   3.332   3.248   8.804  0.3013 -0.1825  0.0567
 1365SOL    HW115728   3.307   3.340   8.798 -1.4807 -0.8241 -2.7615
 1365SOL    HW215729   3.345   3.229   8.711 -2.5805 -0.0632 -0.3521
 1366SOL     OW15730   1.513   0.989   1.715  0.1278  0.0186  0.7497
 1366SOL    HW115731   1.521   1.058   1.649 -0.7140  0.2229  0.8640
 1366SOL    HW215732   1.424   1.002   1.747  0.7849  1.6568  1.9274
 1367SOL     OW15733   0.912   0.710   8.685  0.2438 -0.5640  0.1285
 1367SOL    HW115734   1.000   0.672   8.683  0.4602  0.0630 -2.0296
 1367SOL    HW215735   0.939   0.801   8.697 -1.1610 -0.1173 -0.0802
 1368SOL     OW15736   2.768   4.247  15.236 -0.1875 -0.3305 -0.3480
 1368SOL    HW115737   2.704   4.205  15.294 -0.9525 -0.2444 -1.1138
 1368SOL    HW215738   2.831   4.280  15.300 -0.9318  0.5182 -0.0413
 1369SOL     OW15739   0.678   0.530   0.597 -0.0307 -0.7441  0.3571
 1369SOL    HW115740   0.745   0.525   0.665 -0.1256 -0.4912  0.4648
 1369SOL    HW215741   0.602   0.559   0.646 -0.6201 -0.9491 -0.4378
 1370SOL     OW15742   2.152   2.172   2.115 -0.6052 -0.2955  0.2495
 1370SOL    HW115743   2.209   2.136   2.182 -1.1784  0.0442  0.9124
 1370SOL    HW215744   2.138   2.096   2.058 -0.5673  1.0140 -1.5206
 1371SOL     OW15745   1.150   4.310   3.801  0.3090  0.1868  0.2207
 1371SOL    HW115746   1.069   4.272   3.767 -0.2363  0.8677  0.7440
 1371SOL    HW215747   1.174   4.251   3.872  0.5249  0.8287  0.6831
 1372SOL     OW15748   4.097   2.782   0.853  0.6726 -0.3260 -0.1518
 1372SOL    HW115749   4.091   2.687   0.853 -1.1183 -0.2083  0.6438
 1372SOL    HW215750   4.031   2.806   0.788 -1.1082  0.0887  1.8332
 1373SOL     OW15751   1.649   4.599   9.082  0.6510  0.1679 -0.0186
 1373SOL    HW115752   1.636   4.506   9.064  0.1244  0.3483 -0.5498
 1373SOL    HW215753   1.614   4.611   9.170  2.0166 -0.2726  0.5996
 1374SOL     OW15754   3.303   3.292   0.545 -0.2059  0.4139  0.0857
 1374SOL    HW115755   3.369   3.319   0.609  1.4468 -0.1801 -1.3610
 1374SOL    HW215756   3.353   3.220   0.506 -2.7796 -1.2299 -0.1428
 1375SOL     OW15757   4.231   1.235  12.222 -0.0854 -0.5871  0.3845
 1375SOL    HW115758   4.267   1.167  12.280 -0.8246 -2.1611 -1.0063
 1375SOL    HW215759   4.140   1.238  12.252  0.1537  2.0234  0.8363
 1376SOL     OW15760   1.425   0.924  15.840  0.9416 -0.3082 -0.0860
 1376SOL    HW115761   1.357   0.857  15.835  0.8170 -0.1957  0.0681
 1376SOL    HW215762   1.485   0.891  15.774  2.4082  0.7697  0.7056
 1377SOL     OW15763   2.127   1.526   7.997 -0.3005 -0.0901  0.2884
 1377SOL    HW115764   2.194   1.572   8.049 -1.1291  0.5591  0.7709
 1377SOL    HW215765   2.056   1.589   7.985  0.2089 -0.4961 -5.0413
 1378SOL     OW15766   1.117   1.091   2.360  0.0474  0.0121  0.8346
 1378SOL    HW115767   1.141   1.050   2.277 -0.4693 -0.7865  1.0690
 1378SOL    HW215768   1.023   1.103   2.343 -0.2179 -0.7889  1.6919
 1379SOL     OW15769   2.893   1.082   2.431  0.3967 -0.3828 -0.3624
 1379SOL    HW115770   2.865   1.093   2.522  1.4890  1.8811 -0.2847
 1379SOL    HW215771   2.895   1.177   2.421 -0.0110 -0.3320  0.0152
 1380SOL     OW15772   1.600   2.917   3.794  0.1045 -0.1179 -0.4469
 1380SOL    HW115773   1.586   2.888   3.703  1.4201  0.2345 -0.7633
 1380SOL    HW215774   1.527   2.976   3.812  0.9039  1.2467 -1.7472
 1381SOL     OW15775   1.547   2.149   2.632 -0.3089  0.3337 -0.0146
 1381SOL    HW115776   1.461   2.189   2.645 -1.0581 -0.5674 -2.1981
 1381SOL    HW215777   1.512   2.071   2.589 -1.1954 -0.5699  2.3841
 1382SOL     OW15778   3.070   4.575  17.507  0.1494  0.0453  0.1881
 1382SOL    HW115779   3.007   4.617  17.566  0.2506 -1.5806  1.4609
 1382SOL    HW215780   3.120   4.531  17.575  0.7696  0.2757 -0.1166
 1383SOL     OW15781   0.585   4.386   7.282 -0.0872 -0.0626 -0.5614
 1383SOL    HW115782   0.551   4.451   7.221  3.0349  0.5879 -1.6411
 1383SOL    HW215783   0.571   4.437   7.362 -2.6001  0.2160 -1.1994
 1384SOL     OW15784   1.416   3.733   5.793 -0.5721  0.6833 -0.2631
 1384SOL    HW115785   1.393   3.763   5.881 -2.0196  2.6033 -1.3098
 1384SOL    HW215786   1.394   3.814   5.747 -1.5748  0.9562  0.7007
 1385SOL     OW15787   4.296   3.527   6.916  0.0085  0.1195  0.0471
 1385SOL    HW115788   4.264   3.554   6.830 -0.1364 -0.6810 -0.1505
 1385SOL    HW215789   4.330   3.613   6.940  0.1969  0.1451 -0.3007
 1386SOL     OW15790   3.676   1.217   0.882  0.4413 -0.7193 -0.3148
 1386SOL    HW115791   3.706   1.174   0.962 -0.3810 -0.4839  0.1242
 1386SOL    HW215792   3.627   1.141   0.850 -0.7744 -0.6010  1.2262
 1387SOL     OW15793   1.021   1.490   1.826  0.0638  0.2374  0.2721
 1387SOL    HW115794   1.105   1.478   1.782 -0.4122  1.8792 -1.0824
 1387SOL    HW215795   0.998   1.572   1.782  0.9406  0.8698  1.0198
 1388SOL     OW15796   0.930   3.338   0.366  0.0167 -0.2148 -0.2496
 1388SOL    HW115797   0.975   3.419   0.387  0.2033 -0.4481  0.2444
 1388SOL    HW215798   0.875   3.323   0.442  0.3706  0.2328  0.0910
 1389SOL     OW15799   0.576   2.516   9.752  0.0098  0.3877 -0.1035
 1389SOL    HW115800   0.600   2.559   9.670  1.3300  0.4533  0.3224
 1389SOL    HW215801   0.571   2.425   9.721 -0.6730  0.6461 -0.7725
 1390SOL     OW15802   2.215   1.980  17.279 -0.2973 -0.5374  0.0198
 1390SOL    HW115803   2.279   1.996  17.348  0.0004  2.4771 -0.9388
 1390SOL    HW215804   2.268   1.959  17.202  0.0500  0.2098  0.0558
 1391SOL     OW15805   2.945   1.182   1.850  0.8260  0.4187  0.3447
 1391SOL    HW115806   2.925   1.101   1.804  1.0568 -0.6208  2.0852
 1391SOL    HW215807   2.996   1.228   1.783 -2.4081  1.5798 -1.3413
 1392SOL     OW15808   3.104   3.898   3.675  0.1170  0.1215  0.0897
 1392SOL    HW115809   3.030   3.939   3.720  0.5150 -0.2528  1.0658
 1392SOL    HW215810   3.075   3.808   3.659 -1.1304  0.1164  2.3760
 1393SOL     OW15811   1.268   0.196   9.034  0.1060 -0.0359  0.1519
 1393SOL    HW115812   1.282   0.250   9.112 -0.7212 -1.0153  0.9763
 1393SOL    HW215813   1.277   0.109   9.072 -1.9166 -0.3827 -0.1817
 1394SOL     OW15814   4.470   2.585   4.657 -0.0587  0.0039  0.1391
 1394SOL    HW115815   4.460   2.535   4.738 -1.6964 -2.6930 -1.7243
 1394SOL    HW215816   4.548   2.640   4.665  0.3512 -0.3624 -1.2533
 1395SOL     OW15817   3.906   2.972   6.455 -0.0748  0.4831 -0.1160
 1395SOL    HW115818   3.871   3.040   6.513  0.8976  1.4330 -0.6357
 1395SOL    HW215819   3.934   2.911   6.523  3.5307  1.8830 -0.2923
 1396SOL     OW15820   4.132   2.744   5.146  0.2783 -0.0553  0.5581
 1396SOL    HW115821   4.227   2.734   5.142 -0.0201 -2.5348 -0.2906
 1396SOL    HW215822   4.118   2.837   5.163 -1.4652  0.2896 -2.8715
 1397SOL     OW15823   0.424   1.149   8.407  0.0836  0.4254  0.3735
 1397SOL    HW115824   0.421   1.237   8.368  3.2935 -0.0068 -0.8669
 1397SOL    HW215825   0.356   1.155   8.474  0.7497  0.3599  1.0520
 1398SOL     OW15826   1.122   2.228   3.813  0.0103 -0.2075 -0.0101
 1398SOL    HW115827   1.187   2.271   3.870 -1.3146  0.2540  1.1690
 1398SOL    HW215828   1.059   2.204   3.882  0.4183 -1.5250 -0.0978
 1399SOL     OW15829   2.143   1.797   9.095  0.5535  0.2123 -0.5142
 1399SOL    HW115830   2.165   1.792   9.002 -1.1173 -1.2791 -0.8471
 1399SOL    HW215831   2.133   1.702   9.103  0.6679  0.1899 -0.6432
 1400SOL     OW15832   0.285   4.264   9.140 -0.2809  0.1606  0.7800
 1400SOL    HW115833   0.350   4.252   9.071 -1.0537 -1.4851  0.3364
 1400SOL    HW215834   0.253   4.175   9.157  0.1205  0.0966  1.1881
 1401SOL     OW15835   1.797   1.163   8.241  0.2106 -0.0806  0.2040
 1401SOL    HW115836   1.892   1.160   8.234  0.3146  1.4665  0.9793
 1401SOL    HW215837   1.782   1.144   8.334 -0.4211  0.6314  0.2556
 1402SOL     OW15838   4.308   0.323   2.662  0.0074  0.1386  0.3749
 1402SOL    HW115839   4.253   0.310   2.739 -1.3706 -0.6104 -0.7341
 1402SOL    HW215840   4.240   0.338   2.596  0.0797  2.9109  0.9257
 1403SOL     OW15841   2.763   2.205   2.922  0.7649  0.0515 -0.0739
 1403SOL    HW115842   2.720   2.291   2.921 -0.4164 -0.5420  0.7011
 1403SOL    HW215843   2.703   2.169   2.857 -1.0655  2.5700  0.2025
 1404SOL     OW15844   4.325   2.225   4.494 -0.1783 -0.0985 -0.1857
 1404SOL    HW115845   4.420   2.229   4.506 -0.1229  0.7310 -0.8426
 1404SOL    HW215846   4.317   2.210   4.400 -1.2124  0.3513 -0.1796
 1405SOL     OW15847   2.308   1.825   4.432 -0.4919  0.0050  0.4442
 1405SOL    HW115848   2.327   1.848   4.523  0.8871 -1.0890  0.4244
 1405SOL    HW215849   2.312   1.914   4.397  0.2670  0.4557  1.6675
 1406SOL     OW15850   0.938   2.944  10.928  0.0372 -0.0068  0.9187
 1406SOL    HW115851   1.012   2.984  10.883  0.1586  0.5154  1.5966
 1406SOL    HW215852   0.898   3.010  10.985 -1.5105 -0.4474  0.3491
 1407SOL     OW15853   3.823   3.892   6.126  0.3304 -0.2009  0.3624
 1407SOL    HW115854   3.765   3.893   6.203 -0.7568 -0.9213 -0.4458
 1407SOL    HW215855   3.857   3.802   6.133  0.5662  0.1099  3.0493
 1408SOL     OW15856   3.898   3.141   2.700 -0.0530 -0.7258  0.0244
 1408SOL    HW115857   3.859   3.067   2.746  1.2192 -1.7386 -0.5370
 1408SOL    HW215858   3.965   3.172   2.761  1.2743  0.1134 -1.8784
 1409SOL     OW15859   1.478   2.692  13.682  0.2655  0.2321 -0.0799
 1409SOL    HW115860   1.388   2.665  13.701  0.3457 -0.3283 -0.4897
 1409SOL    HW215861   1.525   2.640  13.747 -1.1080 -0.9077  0.0080
 1410SOL     OW15862   1.664   2.746   5.944 -0.7916 -0.3063  0.2428
 1410SOL    HW115863   1.676   2.834   5.911 -0.0151 -0.0437  1.2333
 1410SOL    HW215864   1.571   2.727   5.928 -1.0578 -0.0335  1.4402
 1411SOL     OW15865   4.275   3.691   3.479 -0.0319 -0.0801  0.0176
 1411SOL    HW115866   4.179   3.686   3.479  0.0166 -0.9142  1.0328
 1411SOL    HW215867   4.290   3.669   3.571 -1.0639  0.6606  0.3641
 1412SOL     OW15868   3.852   0.579   8.701 -0.4693  0.6426  0.1997
 1412SOL    HW115869   3.782   0.519   8.673  2.7011 -2.3237 -1.3436
 1412SOL    HW215870   3.838   0.582   8.795  0.8810 -1.3293  0.4739
 1413SOL     OW15871   0.954   1.844  17.026  0.2511  0.1778 -0.9948
 1413SOL    HW115872   0.988   1.754  17.019  2.0307  0.8093 -0.5858
 1413SOL    HW215873   1.029   1.893  16.993  1.5439 -0.8612  0.3813
 1414SOL     OW15874   3.934   1.451  14.766  0.1480  0.4736  0.5563
 1414SOL    HW115875   3.963   1.470  14.676 -2.3633  2.3345  0.1559
 1414SOL    HW215876   3.980   1.521  14.812  0.8910 -1.4340  2.7160
 1415SOL     OW15877   0.274   1.009   7.428 -0.2994 -0.3874  0.1592
 1415SOL    HW115878   0.206   1.026   7.363 -0.1150  0.7222  0.2662
 1415SOL    HW215879   0.228   0.940   7.475 -0.8026  0.8841  1.5045
 1416SOL     OW15880   1.043   0.810   7.968 -0.1674  0.0481 -0.2700
 1416SOL    HW115881   1.006   0.897   7.961 -1.8414 -0.4525  2.2904
 1416SOL    HW215882   1.135   0.824   7.948  0.2516 -1.4981  0.5237
 1417SOL     OW15883   1.010   0.353   3.467 -0.1084  0.1361  0.2527
 1417SOL    HW115884   0.918   0.353   3.494 -0.2805 -5.0853 -0.4010
 1417SOL    HW215885   1.034   0.265   3.495  2.0242  0.1839 -1.4438
 1418SOL     OW15886   1.618   0.534   9.581 -0.1770  0.6226  0.1131
 1418SOL    HW115887   1.551   0.475   9.546  0.5216  0.0709 -0.2829
 1418SOL    HW215888   1.641   0.484   9.660  0.3238  1.0410  0.2286
 1419SOL     OW15889   1.606   4.530   9.768 -0.0397 -0.4391  0.8942
 1419SOL    HW115890   1.539   4.590   9.800 -0.4177  0.2672 -1.2073
 1419SOL    HW215891   1.679   4.592   9.768 -1.1090  0.8116  0.9302
 1420SOL     OW15892   4.067   0.789  17.431  0.2518  0.1581  0.2291
 1420SOL    HW115893   4.140   0.732  17.407 -0.2712 -0.8459  0.9891
 1420SOL    HW215894   4.111   0.859  17.479 -0.0446  1.3361 -1.2432
 1421SOL     OW15895   1.400   2.580  15.080  0.2660  0.0674 -0.1375
 1421SOL    HW115896   1.447   2.650  15.035 -0.1428 -0.6793 -1.7061
 1421SOL    HW215897   1.315   2.612  15.048  0.4097  1.0743  0.4784
 1422SOL     OW15898   2.371   0.497   4.932  0.7946 -0.0201  0.0490
 1422SOL    HW115899   2.443   0.527   4.877  1.7478 -3.6163 -0.6876
 1422SOL    HW215900   2.419   0.422   4.966  0.4964 -0.3728 -0.3141
 1423SOL     OW15901   2.891   4.481  10.364  0.4981  0.1560  0.3365
 1423SOL    HW115902   2.975   4.457  10.324  0.0322 -2.2558  0.7785
 1423SOL    HW215903   2.841   4.510  10.288  2.5240  2.1457 -0.2378
 1424SOL     OW15904   3.281   3.254  14.855  0.3913  0.0949  0.3443
 1424SOL    HW115905   3.324   3.311  14.792  0.7694 -1.4531 -0.8060
 1424SOL    HW215906   3.353   3.234  14.915  1.4651 -0.4636 -1.1409
 1425SOL     OW15907   1.495   3.088   8.373 -0.7980  0.2456  0.8008
 1425SOL    HW115908   1.464   3.109   8.461  1.8300  0.9483  1.5678
 1425SOL    HW215909   1.444   3.141   8.312 -1.0148 -1.4589 -0.4989
 1426SOL     OW15910   4.683   2.748   8.222 -0.0006 -0.2834 -0.4069
 1426SOL    HW115911   0.028   2.797   8.203  0.5010 -1.3236 -0.9330
 1426SOL    HW215912   4.656   2.775   8.310  4.1117 -1.0994  1.1064
 1427SOL     OW15913   0.653   4.236  16.980 -0.3022  0.6164 -0.3576
 1427SOL    HW115914   0.727   4.189  16.943 -0.6109 -0.0903 -0.0694
 1427SOL    HW215915   0.574   4.183  16.965  0.0528 -0.6027  2.1466
 1428SOL     OW15916   1.403   0.756   4.995 -0.1924  0.0263  0.0800
 1428SOL    HW115917   1.365   0.834   5.037  0.7137 -0.8153  2.4768
 1428SOL    HW215918   1.497   0.770   4.995  0.0603 -1.6957 -1.5613
 1429SOL     OW15919   0.781   0.871   6.991  0.1293  0.4172  0.3907
 1429SOL    HW115920   0.827   0.869   7.075 -0.7932  1.8465  0.9274
 1429SOL    HW215921   0.718   0.799   7.001  0.4474 -0.0674 -1.1286
 1430SOL     OW15922   1.286   2.285   3.600  0.4963 -0.2022 -0.6008
 1430SOL    HW115923   1.363   2.317   3.646  0.6093  0.8759 -1.5424
 1430SOL    HW215924   1.218   2.283   3.667  0.4816 -0.2099 -0.6158
 1431SOL     OW15925   1.366   3.055   0.492 -0.4727 -0.3849 -0.0721
 1431SOL    HW115926   1.420   3.128   0.462  0.1681 -1.2078 -0.9475
 1431SOL    HW215927   1.428   3.021   0.557  1.1619  0.6721 -1.0824
 1432SOL     OW15928   1.886   1.880   6.504  0.0601 -0.5751 -0.1098
 1432SOL    HW115929   1.920   1.966   6.480  0.5208 -0.5113  0.7670
 1432SOL    HW215930   1.821   1.908   6.568 -1.2358 -0.7865 -1.3303
 1433SOL     OW15931   2.358   1.202   7.366  0.0297 -0.5218  0.4768
 1433SOL    HW115932   2.285   1.240   7.317 -1.0031 -1.9547  0.8943
 1433SOL    HW215933   2.413   1.278   7.386 -0.4308  0.1140 -0.6922
 1434SOL     OW15934   1.264   2.202   0.423  0.1481  0.0446 -0.3546
 1434SOL    HW115935   1.240   2.113   0.451 -0.1683  0.2463  0.0173
 1434SOL    HW215936   1.246   2.247   0.506  0.0794  0.1202 -0.4104
 1435SOL     OW15937   1.736   3.880   1.907 -0.1260  0.6175  0.1006
 1435SOL    HW115938   1.807   3.892   1.970  0.1271  2.1232 -0.4623
 1435SOL    HW215939   1.720   3.968   1.872 -0.5743 -1.3751 -4.6445
 1436SOL     OW15940   4.156   0.221   6.970  0.0850 -0.1830 -0.1976
 1436SOL    HW115941   4.225   0.281   6.940  0.4707 -0.1783  0.7125
 1436SOL    HW215942   4.174   0.138   6.924  2.7191 -0.0631  0.6094
 1437SOL     OW15943   0.657   1.013  13.663 -0.1634  0.2157  0.0753
 1437SOL    HW115944   0.625   0.942  13.719  1.1945  1.1983  2.0770
 1437SOL    HW215945   0.586   1.076  13.651 -1.7725 -1.7599 -0.8100
 1438SOL     OW15946   0.191   3.925   5.596  0.2842 -0.3884  0.0503
 1438SOL    HW115947   0.138   3.895   5.522  0.9925  0.7692 -0.9286
 1438SOL    HW215948   0.217   4.013   5.569 -2.4721 -0.1537 -1.8462
 1439SOL     OW15949   2.347   1.902   1.668 -0.1147 -0.0222  0.5285
 1439SOL    HW115950   2.334   1.808   1.669  0.6718 -0.1282  1.1651
 1439SOL    HW215951   2.336   1.924   1.575  0.0118 -3.7953 -0.3581
 1440SOL     OW15952   0.089   2.528  15.682  0.0882 -0.2631 -0.1753
 1440SOL    HW115953   0.031   2.568  15.618  0.5641  1.2175  0.3197
 1440SOL    HW215954   0.142   2.602  15.711 -0.2268  0.1614 -0.6734
 1441SOL     OW15955   3.312   4.503  16.446  0.4838 -0.3034  0.3746
 1441SOL    HW115956   3.361   4.463  16.375  1.6581  1.6988  0.0389
 1441SOL    HW215957   3.317   4.435  16.512 -3.0862 -1.0069 -0.0807
 1442SOL     OW15958   1.400   1.968   3.721  0.1084 -0.7193 -0.0701
 1442SOL    HW115959   1.398   1.993   3.813 -2.5880 -1.2271  0.0205
 1442SOL    HW215960   1.311   1.959   3.687 -0.0416  0.8091 -0.1003
 1443SOL     OW15961   4.431   4.407   4.264 -0.1956  0.1574 -0.5515
 1443SOL    HW115962   4.501   4.366   4.213 -1.4906 -0.7939 -1.5860
 1443SOL    HW215963   4.376   4.329   4.264  2.0069 -1.3839 -0.1656
 1444SOL     OW15964   0.957   0.232   6.318 -0.0889  0.1467  0.0651
 1444SOL    HW115965   0.909   0.158   6.280  0.7160 -0.2457 -0.1945
 1444SOL    HW215966   0.883   0.290   6.332  0.1937  0.6217 -0.4038
 1445SOL     OW15967   0.340   4.440   5.442 -0.2023 -0.5408 -0.2018
 1445SOL    HW115968   0.415   4.404   5.489 -0.6618 -0.7743  0.3514
 1445SOL    HW215969   0.274   4.458   5.510  0.2729  3.5737 -0.8238
 1446SOL     OW15970   1.500   1.894   2.544 -0.0878 -0.2177 -0.0954
 1446SOL    HW115971   1.422   1.848   2.513 -0.5973  0.3393  0.3357
 1446SOL    HW215972   1.564   1.831   2.576  1.3836  1.5895  0.5494
 1447SOL     OW15973   3.408   1.878   6.819  0.0529 -0.1446  0.8745
 1447SOL    HW115974   3.474   1.855   6.754 -0.7879 -0.5698  0.1702
 1447SOL    HW215975   3.324   1.873   6.774  0.8976 -1.8522 -0.5216
 1448SOL     OW15976   0.217   3.091   1.715  0.4383  0.7683  0.2423
 1448SOL    HW115977   0.161   3.042   1.654  2.3043 -0.7486 -0.2420
 1448SOL    HW215978   0.152   3.150   1.754  0.0378 -0.9201  2.1372
 1449SOL     OW15979   2.344   0.333  16.570  0.5231  0.1736 -0.2482
 1449SOL    HW115980   2.284   0.394  16.526  2.6266  1.9636 -0.6459
 1449SOL    HW215981   2.418   0.384  16.603  0.4580  1.6415 -2.3278
 1450SOL     OW15982   1.592   2.883   3.511 -0.7743  0.4210  0.2805
 1450SOL    HW115983   1.628   2.956   3.462  1.9333  0.2165  1.9415
 1450SOL    HW215984   1.533   2.839   3.450  0.9855  0.6072 -1.5560
 1451SOL     OW15985   0.403   1.260   5.920  0.3718 -0.8268  0.1032
 1451SOL    HW115986   0.346   1.189   5.891  1.5832 -1.2369 -1.2706
 1451SOL    HW215987   0.384   1.332   5.860  2.3972 -0.3842 -0.0036
 1452SOL     OW15988   2.699   1.633  17.040 -0.0577  0.6441  0.2951
 1452SOL    HW115989   2.740   1.647  16.956  0.3471 -1.1654  0.1853
 1452SOL    HW215990   2.631   1.569  17.020 -0.9758  1.3049  1.2707
 1453SOL     OW15991   1.522   2.932   1.951  0.0264  0.0130 -0.0582
 1453SOL    HW115992   1.549   2.911   1.861  0.6851  1.5747 -0.2272
 1453SOL    HW215993   1.601   2.904   1.998  0.5704  0.9491 -0.4138
 1454SOL     OW15994   2.478   2.221   7.575  0.2960 -0.1569 -0.5538
 1454SOL    HW115995   2.469   2.299   7.629 -0.6379 -0.1389 -0.7304
 1454SOL    HW215996   2.551   2.246   7.518 -0.0282  0.5836 -0.6534
 1455SOL     OW15997   2.561   1.037   3.570  0.0735 -0.6945 -0.3408
 1455SOL    HW115998   2.574   1.055   3.663  0.3744 -3.0390  0.0690
 1455SOL    HW215999   2.508   1.114   3.547 -1.4586 -1.5410  0.3465
 1456SOL     OW16000   1.845   4.729   5.327 -0.1295 -0.9029  0.9403
 1456SOL    HW116001   1.886   4.677   5.257  0.4981 -0.8515  1.2681
 1456SOL    HW216002   1.871   0.080   5.298 -0.9400 -1.3939 -1.2220
 1457SOL     OW16003   4.596   1.635   8.433 -0.0266  0.6779  0.0182
 1457SOL    HW116004   4.564   1.549   8.461  1.7690  0.7065  2.1987
 1457SOL    HW216005   4.629   1.608   8.348  0.7080 -0.0457  0.5400
 1458SOL     OW16006   1.735   1.050  13.579 -0.5256 -0.5413 -0.0510
 1458SOL    HW116007   1.715   1.143  13.568  0.5621 -0.3983 -0.8831
 1458SOL    HW216008   1.661   1.027  13.634 -1.5767  0.7466 -0.9011
 1459SOL     OW16009   0.146   0.750  12.583  0.0914  0.0460 -0.0120
 1459SOL    HW116010   0.093   0.742  12.662 -0.2205 -0.5709 -0.2796
 1459SOL    HW216011   0.140   0.660  12.551 -0.3617  0.2750 -0.5742
 1460SOL     OW16012   4.561   0.382   7.499  0.5287  0.1271  0.4922
 1460SOL    HW116013   4.607   0.449   7.551 -0.3375 -0.2206  1.7169
 1460SOL    HW216014   4.500   0.437   7.451  0.6177 -0.9335 -0.8349
 1461SOL     OW16015   0.237   0.608   7.469 -0.2395 -0.2835 -0.1741
 1461SOL    HW116016   0.296   0.533   7.475  0.9416  0.8391  2.1284
 1461SOL    HW216017   0.226   0.605   7.374 -1.4423  2.8800 -0.1467
 1462SOL     OW16018   2.100   2.150  14.808 -0.1099  0.0245 -0.3047
 1462SOL    HW116019   2.102   2.131  14.714 -0.2366 -0.6270 -0.1754
 1462SOL    HW216020   2.149   2.232  14.813 -0.2714  0.1307 -0.5130
 1463SOL     OW16021   1.674   0.790  15.151  0.1119 -0.4602  0.1178
 1463SOL    HW116022   1.653   0.742  15.071 -1.0824  0.2666 -0.0046
 1463SOL    HW216023   1.770   0.794  15.153  0.0310  0.6281  1.8122
 1464SOL     OW16024   2.547   0.624   0.004 -0.0747  0.0824  0.0245
 1464SOL    HW116025   2.478   0.683   0.035  1.8004  2.2098  0.1734
 1464SOL    HW216026   2.619   0.641   0.064 -0.6385 -0.4344  0.8404
 1465SOL     OW16027   3.407   2.208  10.639  0.3028  0.5459  0.7530
 1465SOL    HW116028   3.464   2.168  10.705 -1.1136 -1.1025  0.9893
 1465SOL    HW216029   3.319   2.183  10.668  0.0880 -0.2840 -0.6449
 1466SOL     OW16030   1.245   2.077   4.515 -0.0459  0.0388 -0.7750
 1466SOL    HW116031   1.302   2.034   4.578  1.0616  2.7803  0.0980
 1466SOL    HW216032   1.164   2.030   4.533  0.1352  0.0911  0.1666
 1467SOL     OW16033   3.173   0.872  15.039  0.0347 -0.6422 -0.0467
 1467SOL    HW116034   3.184   0.848  14.947  1.5070  0.8543 -0.2610
 1467SOL    HW216035   3.096   0.928  15.025 -0.3183 -1.2056 -0.3629
 1468SOL     OW16036   0.803   2.211   8.397  0.1163 -0.3961 -0.7547
 1468SOL    HW116037   0.728   2.183   8.449  0.6143 -1.3615 -0.5483
 1468SOL    HW216038   0.766   2.268   8.330 -0.9838 -0.4856 -0.2285
 1469SOL     OW16039   3.564   2.841   6.811  0.3968  0.1353 -0.1001
 1469SOL    HW116040   3.482   2.795   6.831  0.0230  0.0679 -1.7797
 1469SOL    HW216041   3.624   2.773   6.780  0.6989  0.9363 -1.2919
 1470SOL     OW16042   3.924   4.420   7.372  0.3635 -0.5737  0.9042
 1470SOL    HW116043   3.892   4.481   7.306  1.0397  0.1737  1.2516
 1470SOL    HW216044   3.923   4.479   7.447 -3.5810  1.9941 -1.1575
 1471SOL     OW16045   2.495   2.739  10.694 -0.8421  0.1408  0.1174
 1471SOL    HW116046   2.515   2.833  10.696 -0.1877  0.0003  0.0093
 1471SOL    HW216047   2.502   2.727  10.789  1.1169 -0.3159 -0.0940
 1472SOL     OW16048   3.555   3.915   5.354 -0.0962  0.1758 -0.4064
 1472SOL    HW116049   3.576   4.008   5.348  2.9685 -0.5437 -0.9521
 1472SOL    HW216050   3.558   3.896   5.448  0.8837  0.4588 -0.3859
 1473SOL     OW16051   0.821   2.501  12.790  0.3197  0.3270  0.4534
 1473SOL    HW116052   0.914   2.488  12.771  0.7648  1.9312  1.5552
 1473SOL    HW216053   0.778   2.513  12.705 -1.3640  0.3928  1.3110
 1474SOL     OW16054   4.348   2.361   7.938  0.0792  0.1465 -0.5411
 1474SOL    HW116055   4.416   2.372   7.871  0.2472 -0.3411 -0.4522
 1474SOL    HW216056   4.370   2.425   8.006 -1.1018 -1.3672  1.2518
 1475SOL     OW16057   3.892   3.655   1.885 -0.0069  0.1824  0.6317
 1475SOL    HW116058   3.912   3.669   1.977 -0.8042  1.5164  0.6150
 1475SOL    HW216059   3.948   3.580   1.864  0.9136  1.0323  0.0598
 1476SOL     OW16060   2.106   3.733  11.736  0.0160  0.2710 -0.1874
 1476SOL    HW116061   2.174   3.795  11.711 -0.9500  1.1483 -0.6974
 1476SOL    HW216062   2.096   3.703  11.646 -1.6694  2.6440 -0.8028
 1477SOL     OW16063   1.667   2.331   1.263  0.0947 -0.0432 -0.4138
 1477SOL    HW116064   1.706   2.269   1.324  0.0707 -0.4514 -0.8139
 1477SOL    HW216065   1.576   2.300   1.257 -0.2672  1.1203 -1.0297
 1478SOL     OW16066   0.365   3.151  10.774 -0.7085 -0.1754  0.2908
 1478SOL    HW116067   0.432   3.182  10.835 -2.0039  0.7505  1.2630
 1478SOL    HW216068   0.422   3.106  10.712 -0.0346 -0.1302  0.8695
 1479SOL     OW16069   0.698   3.326   4.112  0.0891 -0.2944  0.3414
 1479SOL    HW116070   0.661   3.260   4.171  1.2317 -0.3947  0.9611
 1479SOL    HW216071   0.639   3.396   4.138 -2.7698 -1.7558 -2.2488
 1480SOL     OW16072   4.378   2.248  16.628 -0.1238  0.1583  0.0998
 1480SOL    HW116073   4.312   2.300  16.581  0.9542  1.3882 -0.0640
 1480SOL    HW216074   4.335   2.239  16.713 -0.5776  2.8862  0.1646
 1481SOL     OW16075   3.624   0.869   2.265 -0.3596  0.3918 -0.4599
 1481SOL    HW116076   3.655   0.857   2.355 -1.0603  0.3487 -0.2261
 1481SOL    HW216077   3.575   0.951   2.261 -1.8955 -0.5242 -0.4359
 1482SOL     OW16078   1.495   1.974   0.579  0.4205 -0.2226  0.2110
 1482SOL    HW116079   1.517   1.985   0.486  1.4464 -4.0392 -0.0024
 1482SOL    HW216080   1.507   2.063   0.612 -0.5858 -0.9004  2.3546
 1483SOL     OW16081   1.490   1.917   4.675 -0.2065 -0.4552  0.2778
 1483SOL    HW116082   1.560   1.863   4.713 -0.7157 -1.4032 -0.1339
 1483SOL    HW216083   1.413   1.896   4.728  0.1083 -2.4477 -0.0396
 1484SOL     OW16084   4.587   2.837   8.921 -0.4637 -0.4998  0.2063
 1484SOL    HW116085   4.513   2.897   8.932 -0.5127 -0.5274  0.0390
 1484SOL    HW216086   4.656   2.895   8.952  0.4698 -0.3955 -2.0720
 1485SOL     OW16087   0.737   1.393  10.851  0.3154  0.5760  0.0192
 1485SOL    HW116088   0.729   1.351  10.937 -1.0312  0.4467 -0.1619
 1485SOL    HW216089   0.649   1.374  10.817 -0.6990  1.2207  2.2854
 1486SOL     OW16090   0.109   3.089   8.518 -0.4186  0.1591  0.0396
 1486SOL    HW116091   0.093   3.146   8.443 -1.9489 -0.4489 -0.0867
 1486SOL    HW216092   0.063   3.136   8.587 -0.9494  1.5070 -1.2323
 1487SOL     OW16093   1.119   3.458   5.877  0.4015 -0.5512 -0.0439
 1487SOL    HW116094   1.187   3.448   5.809  0.1621 -1.7016 -0.1241
 1487SOL    HW216095   1.155   3.513   5.946 -2.1053  0.9929  0.0181
 1488SOL     OW16096   3.560   0.612   5.300 -0.2938  0.0584 -0.1389
 1488SOL    HW116097   3.518   0.627   5.384 -1.6688  1.8157 -1.1327
 1488SOL    HW216098   3.566   0.517   5.297 -0.3452  0.0090  1.5693
 1489SOL     OW16099   2.465   0.056   5.172 -0.1253 -0.3192  0.2519
 1489SOL    HW116100   2.433   4.728   5.236  0.0722 -0.1029  0.5670
 1489SOL    HW216101   2.544   0.084   5.218 -1.1279  0.2873  1.6008
 1490SOL     OW16102   1.116   1.388  13.092  0.0815  0.5982  0.0257
 1490SOL    HW116103   1.148   1.478  13.100  2.0943 -0.3280  2.5560
 1490SOL    HW216104   1.061   1.402  13.015  0.5897  1.4618 -0.1822
 1491SOL     OW16105   0.986   1.123   0.573 -0.1420  0.1141  0.5223
 1491SOL    HW116106   1.048   1.118   0.646 -0.9761 -1.8400  1.0927
 1491SOL    HW216107   0.982   1.218   0.560 -0.1372  0.0977  0.3987
 1492SOL     OW16108   1.528   3.444   9.468 -0.2198 -0.1282 -0.5379
 1492SOL    HW116109   1.446   3.395   9.472  1.0714 -2.3428 -1.3919
 1492SOL    HW216110   1.590   3.381   9.504 -1.2893 -1.7274 -1.4750
 1493SOL     OW16111   1.328   3.186  11.809 -0.7755 -0.2192 -0.4005
 1493SOL    HW116112   1.387   3.215  11.878  0.3390 -0.4544 -1.2459
 1493SOL    HW216113   1.256   3.248  11.820 -0.6264  0.2853 -2.2086
 1494SOL     OW16114   1.778   3.150   8.680  0.5573 -0.8980 -0.2621
 1494SOL    HW116115   1.809   3.085   8.743 -1.1311  0.2187  1.7573
 1494SOL    HW216116   1.685   3.158   8.701  1.3702  2.0328  2.2960
 1495SOL     OW16117   2.830   2.799  10.739  0.1236  0.6659  0.1980
 1495SOL    HW116118   2.821   2.805  10.644  1.7749 -0.2382 -0.0172
 1495SOL    HW216119   2.789   2.881  10.770 -1.9939 -0.0153 -0.8301
 1496SOL     OW16120   2.478   1.579   6.261 -0.2156  0.4505  0.3954
 1496SOL    HW116121   2.398   1.527   6.254  0.0027  0.2526 -0.7279
 1496SOL    HW216122   2.508   1.526   6.335 -0.5520 -1.8717 -1.1100
 1497SOL     OW16123   4.719   2.086   2.331 -0.4521  0.5108 -0.5777
 1497SOL    HW116124   4.705   1.999   2.367 -2.1729  0.4776 -1.3392
 1497SOL    HW216125   4.631   2.122   2.346 -1.6839 -1.5030 -3.0402
 1498SOL     OW16126   1.162   0.018  15.852  0.2290  0.1441  0.3014
 1498SOL    HW116127   1.230   0.061  15.904  0.5186  0.4793 -0.3469
 1498SOL    HW216128   1.137   0.094  15.800 -1.4631  0.1340  1.0936
 1499SOL     OW16129   0.108   4.015   6.701 -0.2398  0.2284  0.2980
 1499SOL    HW116130   0.112   3.979   6.789  0.9481  1.9196  0.9360
 1499SOL    HW216131   0.028   3.982   6.660  1.2484 -0.5131 -1.9962
 1500SOL     OW16132   1.863   4.250   0.592 -0.2982  0.0845 -0.2960
 1500SOL    HW116133   1.891   4.256   0.501 -0.9239  0.3631 -0.4701
 1500SOL    HW216134   1.769   4.266   0.581 -0.6721 -0.0085  2.7607
 1501SOL     OW16135   3.442   1.168   2.585 -0.1515 -0.1648  0.4900
 1501SOL    HW116136   3.411   1.220   2.511 -0.6862 -0.9317  0.1768
 1501SOL    HW216137   3.526   1.135   2.552  0.5928  1.7272  0.4912
 1502SOL     OW16138   4.140   2.491   7.161  0.6589 -0.3506 -0.0073
 1502SOL    HW116139   4.117   2.473   7.070  0.5042 -0.1621 -0.0046
 1502SOL    HW216140   4.236   2.483   7.162  0.9399  3.1158 -0.1264
 1503SOL     OW16141   1.006   3.773   4.311 -0.2888  0.5389  0.3747
 1503SOL    HW116142   1.085   3.729   4.278 -0.4925  0.2981  0.2116
 1503SOL    HW216143   0.951   3.698   4.290  0.8228  0.2428 -1.4769
 1504SOL     OW16144   4.612   3.180  10.138 -0.4348  0.2227 -0.5757
 1504SOL    HW116145   4.637   3.100  10.093 -1.5306 -1.3007  1.4958
 1504SOL    HW216146   4.557   3.130  10.199  1.1837  0.4666  1.0750
 1505SOL     OW16147   0.817   0.894   5.650  0.3672 -0.0039 -0.6346
 1505SOL    HW116148   0.831   0.905   5.556  1.1796  0.3921 -0.4661
 1505SOL    HW216149   0.831   0.800   5.648 -0.0442 -0.0649 -0.7371
 1506SOL     OW16150   3.510   4.200  11.822  0.1271 -0.6315 -0.5100
 1506SOL    HW116151   3.578   4.144  11.786 -0.7557 -2.6124  0.8714
 1506SOL    HW216152   3.461   4.224  11.744 -0.1316 -0.7600 -0.3896
 1507SOL     OW16153   1.273   1.114   1.839 -0.3597  0.0651  0.5220
 1507SOL    HW116154   1.315   1.083   1.919  0.1535 -1.6063 -0.3838
 1507SOL    HW216155   1.180   1.119   1.862 -0.4552  0.3789  0.0722
 1508SOL     OW16156   2.821   0.184  16.678 -0.3272 -0.6884 -0.2032
 1508SOL    HW116157   2.860   0.153  16.760 -1.8823  0.1076  0.8185
 1508SOL    HW216158   2.759   0.117  16.649 -0.8672 -0.3774  0.2414
 1509SOL     OW16159   3.398   0.783   4.795  0.3385 -0.0885 -0.1240
 1509SOL    HW116160   3.479   0.740   4.767  0.0264 -1.2157  0.6887
 1509SOL    HW216161   3.422   0.794   4.887 -0.5640  2.0464 -0.1372
 1510SOL     OW16162   4.248   3.072  13.050  0.7181 -0.6479 -0.0281
 1510SOL    HW116163   4.282   3.077  12.961  1.6986  0.6069  0.4262
 1510SOL    HW216164   4.302   3.004  13.090  1.5115  0.4291  0.7411
 1511SOL     OW16165   2.276   3.183   9.580 -0.4659 -0.1061 -0.0752
 1511SOL    HW116166   2.318   3.104   9.612  0.2347  0.5822  0.6874
 1511SOL    HW216167   2.320   3.188   9.495  0.5466  0.4659  0.4902
 1512SOL     OW16168   3.037   1.955   6.967 -0.3754  0.1801  0.2409
 1512SOL    HW116169   3.064   1.895   6.898  0.1581 -0.2201  0.8004
 1512SOL    HW216170   3.058   1.909   7.048  0.4399 -0.4265 -0.3163
 1513SOL     OW16171   2.792   3.633   5.251  0.2063 -0.1639  0.2426
 1513SOL    HW116172   2.825   3.549   5.219  1.5713 -0.0834  1.4620
 1513SOL    HW216173   2.721   3.660   5.192  1.2602  1.6764 -0.1932
 1514SOL     OW16174   3.817   3.233  17.339  0.6160  0.2488  0.4761
 1514SOL    HW116175   3.760   3.287  17.394  0.8377 -0.2281  1.1812
 1514SOL    HW216176   3.769   3.248  17.258  1.4410  1.3028  0.1806
 1515SOL     OW16177   1.450   3.510   9.208  0.6828  0.0522  0.4200
 1515SOL    HW116178   1.539   3.476   9.210  1.0364  0.9379 -0.1554
 1515SOL    HW216179   1.402   3.444   9.259 -0.6766  0.9191  0.2659
 1516SOL     OW16180   4.129   3.749   6.069  0.5247 -0.2187  0.2229
 1516SOL    HW116181   4.138   3.684   5.999  1.1440  0.4813 -0.3453
 1516SOL    HW216182   4.152   3.685   6.136  2.6699  0.4290  0.0981
 1517SOL     OW16183   1.912   2.847   0.976  0.1562  0.5449  0.1041
 1517SOL    HW116184   1.917   2.856   1.072 -0.6868 -1.0184  0.2833
 1517SOL    HW216185   1.945   2.758   0.967 -0.2723  0.4579 -0.5622
 1518SOL     OW16186   2.571   0.270   4.539 -0.0841 -0.0744 -0.4258
 1518SOL    HW116187   2.571   0.365   4.548  0.6868 -0.0517 -0.6569
 1518SOL    HW216188   2.644   0.250   4.480 -2.4294 -1.9340 -2.6811
 1519SOL     OW16189   2.269   4.028   1.279  0.3586  1.0111  0.0868
 1519SOL    HW116190   2.321   4.061   1.206 -0.3898  0.8583 -0.5109
 1519SOL    HW216191   2.254   3.936   1.259 -0.3394  1.6137 -2.1066
 1520SOL     OW16192   0.651   4.419  15.430 -0.1100 -0.0957 -0.6529
 1520SOL    HW116193   0.626   4.512  15.433  1.8018  0.4214 -0.6575
 1520SOL    HW216194   0.570   4.371  15.449  0.3096 -0.0380  1.3158
 1521SOL     OW16195   0.228   1.750   9.716  0.5776  0.0567 -0.1446
 1521SOL    HW116196   0.208   1.831   9.670 -3.5677 -0.5984  0.4961
 1521SOL    HW216197   0.263   1.779   9.800 -0.5924 -2.8420  1.3544
 1522SOL     OW16198   0.896   0.911   7.238  0.4976 -0.1143  0.2752
 1522SOL    HW116199   0.980   0.866   7.241  0.7701  0.4409  1.0431
 1522SOL    HW216200   0.898   0.965   7.318  1.7910  0.0369  0.1379
 1523SOL     OW16201   4.287   0.027   2.256  0.2310  0.2664  0.3100
 1523SOL    HW116202   4.332   0.040   2.339  1.7399 -0.9815 -0.3198
 1523SOL    HW216203   4.193   0.039   2.272 -0.0034  0.0148 -0.8372
 1524SOL     OW16204   0.315   1.621  15.508 -0.0386 -0.0656 -0.0232
 1524SOL    HW116205   0.317   1.646  15.601 -0.0460  0.0552 -0.0556
 1524SOL    HW216206   0.251   1.681  15.470 -0.9996 -1.4729 -0.6233
 1525SOL     OW16207   3.635   0.635   4.718 -0.1789 -0.4063 -0.3092
 1525SOL    HW116208   3.725   0.660   4.697 -0.2042  0.4050  0.5334
 1525SOL    HW216209   3.647   0.583   4.797 -0.4294 -0.3962 -0.2638
 1526SOL     OW16210   4.306   0.651  12.107  0.1362 -0.1460  0.7603
 1526SOL    HW116211   4.224   0.624  12.065  1.1542 -1.1580 -0.5888
 1526SOL    HW216212   4.308   0.746  12.100 -0.4828 -0.3857 -2.9929
 1527SOL     OW16213   3.963   1.656   5.463 -0.0155  0.1777 -0.5985
 1527SOL    HW116214   3.976   1.747   5.490  0.4013  0.4475 -1.7370
 1527SOL    HW216215   4.023   1.652   5.389  3.0746  1.5357  1.8264
 1528SOL     OW16216   2.446   0.788   2.589  0.2635 -0.2878 -0.1159
 1528SOL    HW116217   2.481   0.701   2.573  1.1212  0.2971 -1.4433
 1528SOL    HW216218   2.466   0.804   2.681  1.4143 -0.2674 -0.3781
 1529SOL     OW16219   3.259   0.057   3.846 -0.2935  0.4587  0.5120
 1529SOL    HW116220   3.179   0.007   3.828 -0.3272  1.1574 -1.3012
 1529SOL    HW216221   3.309   4.721   3.885 -0.3810  0.5863  0.8607
 1530SOL     OW16222   0.396   3.487   5.615  0.3109  0.7359  0.3150
 1530SOL    HW116223   0.482   3.462   5.581  0.0762 -0.1006  0.3467
 1530SOL    HW216224   0.394   3.583   5.614 -1.6481  0.7030  0.0113
 1531SOL     OW16225   2.418   2.974   6.979  0.1159 -0.1173 -0.5943
 1531SOL    HW116226   2.402   2.928   7.061  3.2366 -1.1320 -0.5665
 1531SOL    HW216227   2.334   2.961   6.935 -0.2483  1.0589 -0.2635
 1532SOL     OW16228   2.802   4.640   7.590 -0.0585 -0.4947 -0.0409
 1532SOL    HW116229   2.756   4.674   7.667 -1.7314 -0.8184 -0.8986
 1532SOL    HW216230   2.886   4.616   7.629  0.2592 -0.5729 -0.7691
 1533SOL     OW16231   0.185   4.171   4.018  0.4100 -0.6611  0.2284
 1533SOL    HW116232   0.173   4.265   4.007  0.9743 -0.6033  0.1444
 1533SOL    HW216233   0.205   4.177   4.111 -0.6923  1.7781  0.3086
 1534SOL     OW16234   0.321   0.473  12.346 -0.0632 -0.6106 -0.6243
 1534SOL    HW116235   0.334   0.499  12.255 -4.7582  0.1093 -1.0655
 1534SOL    HW216236   0.322   0.378  12.342  0.0829 -0.6906  1.3139
 1535SOL     OW16237   2.939   1.900   5.009  0.0244  0.3314 -0.3683
 1535SOL    HW116238   3.021   1.885   5.056 -0.1926 -2.9439 -1.0300
 1535SOL    HW216239   2.924   1.821   4.957  0.5147  0.4148 -0.6340
 1536SOL     OW16240   3.606   0.710  14.557 -0.5510 -0.1535  0.1290
 1536SOL    HW116241   3.622   0.773  14.627 -0.1112 -2.3348  1.9701
 1536SOL    HW216242   3.616   0.626  14.600 -0.3287 -0.4912 -0.5819
 1537SOL     OW16243   0.465   3.606   3.210  0.4250  0.0672 -0.4273
 1537SOL    HW116244   0.554   3.618   3.176  0.4333  0.0390 -0.4155
 1537SOL    HW216245   0.422   3.690   3.192 -1.2462 -0.4393  1.2846
 1538SOL     OW16246   0.067   1.597   5.749  0.2620 -0.6817  0.4708
 1538SOL    HW116247   0.032   1.685   5.757  0.5405 -0.5590  0.3295
 1538SOL    HW216248   0.064   1.566   5.839  1.0056  1.2592  1.1677
 1539SOL     OW16249   2.295   0.443   9.784  0.4562 -0.0074 -0.6383
 1539SOL    HW116250   2.375   0.494   9.796 -0.8329  1.6313  1.1625
 1539SOL    HW216251   2.327   0.385   9.715  0.4950 -3.1382  1.9836
 1540SOL     OW16252   0.425   1.720   5.694 -0.0641 -0.6471 -0.0311
 1540SOL    HW116253   0.423   1.625   5.706  0.9165 -1.0192 -2.7941
 1540SOL    HW216254   0.394   1.748   5.780  0.5773 -0.1440  0.0348
 1541SOL     OW16255   1.769   2.211   5.843  0.7604 -0.2764 -0.4568
 1541SOL    HW116256   1.862   2.231   5.850  1.0190 -1.7789  0.4111
 1541SOL    HW216257   1.728   2.241   5.924 -0.4764  1.5929 -1.7752
 1542SOL     OW16258   1.476   1.397   2.010 -0.2513  0.2641 -0.1022
 1542SOL    HW116259   1.537   1.361   2.074  0.4401 -0.7264 -1.3271
 1542SOL    HW216260   1.501   1.489   2.012  1.3352 -0.1670  0.2063
 1543SOL     OW16261   2.420   3.559  15.624 -0.4837 -0.4107 -0.3626
 1543SOL    HW116262   2.430   3.616  15.548 -1.6340  0.0574 -0.1540
 1543SOL    HW216263   2.346   3.502  15.602 -1.0120 -0.1954  0.8881
 1544SOL     OW16264   0.367   0.099   1.671 -0.0148 -0.2879 -0.1343
 1544SOL    HW116265   0.341   0.024   1.724 -0.9262  0.2110  0.1264
 1544SOL    HW216266   0.332   0.075   1.585  1.8577 -1.1992 -0.6342
 1545SOL     OW16267   4.395   2.231   7.600 -0.3282 -0.3078 -0.5251
 1545SOL    HW116268   4.455   2.262   7.667 -1.4523 -0.6399  0.6442
 1545SOL    HW216269   4.369   2.313   7.558 -1.5409 -0.8624 -0.8564
 1546SOL     OW16270   0.104   2.253  16.889 -0.5159  0.5479 -0.2640
 1546SOL    HW116271   0.093   2.160  16.910 -0.0163  0.4173 -0.5754
 1546SOL    HW216272   0.029   2.272  16.833 -2.6131 -1.6979  1.7553
 1547SOL     OW16273   0.545   2.982  12.571  0.0798 -0.1313  0.0851
 1547SOL    HW116274   0.476   2.917  12.584  0.6507 -0.5510  0.9856
 1547SOL    HW216275   0.513   3.039  12.640  2.7747  2.1570 -0.5404
 1548SOL     OW16276   2.928   2.342   8.646  0.1896 -0.1594 -0.1548
 1548SOL    HW116277   2.987   2.391   8.589 -1.9423 -0.9198 -2.9994
 1548SOL    HW216278   2.947   2.252   8.620 -0.6694 -0.9254  1.8033
 1549SOL     OW16279   4.707   3.678  16.448 -0.0251  0.4351 -0.2473
 1549SOL    HW116280   0.003   3.588  16.455  0.2515  0.4096 -1.9800
 1549SOL    HW216281   4.652   3.687  16.526 -1.2757  1.0505 -1.1980
 1550SOL     OW16282   3.961   2.935   8.543  0.0993 -0.4543  0.3506
 1550SOL    HW116283   4.023   2.994   8.585  0.3491 -0.7517  0.4027
 1550SOL    HW216284   3.994   2.923   8.453  0.3939 -1.1621  0.5494
 1551SOL     OW16285   4.223   2.150   2.631  0.6110 -0.4338  0.4135
 1551SOL    HW116286   4.220   2.245   2.631 -0.9841 -0.4886 -0.8315
 1551SOL    HW216287   4.175   2.128   2.551  2.3119 -0.6060 -0.5764
 1552SOL     OW16288   2.787   0.410  17.737  0.5800 -0.2905  0.9338
 1552SOL    HW116289   2.767   0.407   0.089 -0.3785  0.0847  0.7415
 1552SOL    HW216290   2.784   0.503  17.717  1.3367 -0.1461  1.5094
 1553SOL     OW16291   2.898   0.790   1.894  0.3824  0.0016 -0.5226
 1553SOL    HW116292   2.910   0.868   1.839  0.3738 -1.1665 -2.1896
 1553SOL    HW216293   2.809   0.804   1.925 -0.2519  0.1397 -2.3761
 1554SOL     OW16294   1.898   2.331  14.288 -0.4128 -0.3535 -0.0838
 1554SOL    HW116295   1.874   2.335  14.381  2.4997  1.1742  0.6014
 1554SOL    HW216296   1.841   2.399  14.252 -1.2403  0.2292  2.2772
 1555SOL     OW16297   4.357   3.086   5.399  0.0380 -0.6986 -0.0369
 1555SOL    HW116298   4.423   3.049   5.458 -1.2034 -1.9976  0.5412
 1555SOL    HW216299   4.408   3.109   5.321  0.3765 -1.8663 -0.1591
 1556SOL     OW16300   0.829   0.951   2.416 -0.2157 -0.4919  0.6649
 1556SOL    HW116301   0.846   0.872   2.365 -0.2013 -0.4009  0.5261
 1556SOL    HW216302   0.850   1.013   2.346  1.0278 -0.0706  1.4109
 1557SOL     OW16303   3.387   1.792   7.064 -0.1048  0.5552  0.2534
 1557SOL    HW116304   3.304   1.745   7.057  0.3199 -0.3881  1.8313
 1557SOL    HW216305   3.403   1.816   6.972  0.1382  0.1113  0.1813
 1558SOL     OW16306   2.236   2.346  14.681 -0.1122  0.1380  0.4501
 1558SOL    HW116307   2.317   2.385  14.716 -0.1622  0.6016  0.0569
 1558SOL    HW216308   2.250   2.334  14.587 -0.4939  3.0125  0.0159
 1559SOL     OW16309   0.838   2.199   1.566 -0.9544  0.0074 -0.3866
 1559SOL    HW116310   0.852   2.284   1.524 -3.0423 -0.2924 -1.6833
 1559SOL    HW216311   0.834   2.233   1.655  0.2586  0.6256 -0.5641
 1560SOL     OW16312   0.452   3.936   2.759  0.4783  0.2467 -0.1369
 1560SOL    HW116313   0.380   3.999   2.754  1.4918  1.4532  0.4133
 1560SOL    HW216314   0.468   3.944   2.853  2.8250 -3.7057 -0.2434
 1561SOL     OW16315   2.892   4.343   5.808  0.0364  0.5074  0.1814
 1561SOL    HW116316   2.855   4.284   5.874  0.2716 -0.3872 -0.4907
 1561SOL    HW216317   2.815   4.373   5.759 -0.7827 -0.8519  0.6485
 1562SOL     OW16318   2.518   0.297   5.019 -0.2850 -0.0726 -0.0562
 1562SOL    HW116319   2.505   0.220   5.074 -0.0606 -0.1511 -0.1128
 1562SOL    HW216320   2.611   0.295   4.994 -0.3919 -0.9462 -0.3733
 1563SOL     OW16321   2.255   4.159   8.373  0.1010  0.0403 -0.2753
 1563SOL    HW116322   2.211   4.188   8.293 -0.5254 -0.5056 -0.1320
 1563SOL    HW216323   2.212   4.224   8.428  0.4536  0.7235 -0.8064
 1564SOL     OW16324   1.705   3.344   9.205  0.1204 -0.4367  0.0748
 1564SOL    HW116325   1.766   3.277   9.236 -0.1464 -0.7578 -0.0911
 1564SOL    HW216326   1.620   3.300   9.212 -0.6471  0.9564 -0.4245
 1565SOL     OW16327   2.512   0.826   6.677 -0.1308 -0.4571 -0.4421
 1565SOL    HW116328   2.567   0.840   6.600  0.2528 -1.1683 -0.2989
 1565SOL    HW216329   2.426   0.844   6.640  0.2673  1.1416 -0.5853
 1566SOL     OW16330   0.024   0.157  13.279  0.3308  0.1547 -0.1756
 1566SOL    HW116331   4.706   0.219  13.328  2.3122 -0.3469  2.6797
 1566SOL    HW216332   0.024   0.207  13.197 -0.5817 -0.9263 -0.8327
 1567SOL     OW16333   2.141   1.514   9.107 -0.6300  0.0688 -0.2461
 1567SOL    HW116334   2.069   1.488   9.163 -1.0024 -0.6681 -1.0654
 1567SOL    HW216335   2.211   1.545   9.165  1.0049 -2.1711 -0.9966
 1568SOL     OW16336   1.019   2.668   1.053 -0.9227 -0.1987  0.5964
 1568SOL    HW116337   0.983   2.716   0.979 -0.7271  4.2823  3.4080
 1568SOL    HW216338   1.002   2.729   1.125  1.7902  1.6460 -0.3358
 1569SOL     OW16339   1.519   3.755  10.937 -0.3576 -0.3350 -0.3303
 1569SOL    HW116340   1.478   3.779  11.020  1.4859 -0.9756  0.7659
 1569SOL    HW216341   1.492   3.828  10.882  0.7442  2.2065  2.5135
 1570SOL     OW16342   3.778   4.069   3.877  0.1493 -0.1434 -0.5592
 1570SOL    HW116343   3.815   3.983   3.857 -0.3420 -0.5786  0.3916
 1570SOL    HW216344   3.717   4.042   3.946  0.9661 -2.5245 -0.7645
 1571SOL     OW16345   4.179   0.027   4.341 -0.0455  0.4078 -0.0858
 1571SOL    HW116346   4.117   0.096   4.362  1.4407  0.4631  4.1156
 1571SOL    HW216347   4.260   0.076   4.328  0.3738 -0.2499 -0.0096
 1572SOL     OW16348   2.045   1.769   3.592 -0.1630 -0.2039  0.4524
 1572SOL    HW116349   2.020   1.805   3.677  0.0935 -1.1534  0.9321
 1572SOL    HW216350   1.964   1.719   3.577 -0.4046  0.0304  0.9658
 1573SOL     OW16351   0.066   0.510   4.767 -0.1357 -0.6481  0.4346
 1573SOL    HW116352   0.110   0.501   4.683  0.7390 -3.1840  1.1759
 1573SOL    HW216353   0.113   0.448   4.822  0.1512 -0.4389  0.4225
 1574SOL     OW16354   3.873   3.950   4.685 -0.1230  0.1582  0.0707
 1574SOL    HW116355   3.839   3.971   4.772 -0.2115  1.8748 -0.3894
 1574SOL    HW216356   3.955   3.998   4.675  0.7839 -1.5915 -0.9335
 1575SOL     OW16357   4.002   2.981   5.831 -0.2630  0.4135  0.0843
 1575SOL    HW116358   3.948   2.951   5.904 -0.4502  0.1142 -0.1787
 1575SOL    HW216359   3.961   2.936   5.757 -1.6202 -2.0231  2.3452
 1576SOL     OW16360   4.676   4.143  13.415 -0.3619  0.2956  0.1358
 1576SOL    HW116361   4.733   4.181  13.482  1.5143 -0.4376 -1.0386
 1576SOL    HW216362   4.605   4.207  13.421 -0.3246  0.3997 -0.4942
 1577SOL     OW16363   2.053   4.215   0.997 -0.4437 -0.6904 -0.2149
 1577SOL    HW116364   2.068   4.182   1.086  2.3145 -1.7943 -1.0855
 1577SOL    HW216365   2.127   4.193   0.940 -0.7990  0.8003 -1.2365
 1578SOL     OW16366   2.093   2.564   1.255  0.1829 -0.5498  0.0422
 1578SOL    HW116367   2.089   2.468   1.253 -0.9932 -0.5496  1.9741
 1578SOL    HW216368   2.035   2.569   1.332 -1.5065  1.4343 -1.3501
 1579SOL     OW16369   0.654   4.096   5.685  0.2334  0.5307  0.5806
 1579SOL    HW116370   0.596   4.040   5.736  0.1885 -1.5573 -1.7993
 1579SOL    HW216371   0.685   4.033   5.621 -0.2357  0.2715  0.6095
 1580SOL     OW16372   2.977   1.889   0.342 -0.4611 -0.4125  0.0937
 1580SOL    HW116373   3.047   1.824   0.336  1.3397  1.7067 -1.8307
 1580SOL    HW216374   2.896   1.837   0.340 -1.1525  0.6627 -0.1454
 1581SOL     OW16375   3.208   2.466   0.531 -0.0846  0.2566 -0.0252
 1581SOL    HW116376   3.289   2.433   0.570  0.1961 -0.0286 -0.8332
 1581SOL    HW216377   3.226   2.558   0.547 -1.6995  0.2135  1.9768
 1582SOL     OW16378   2.875   1.917   5.625  0.0324  0.3481  0.7345
 1582SOL    HW116379   2.846   1.995   5.578 -2.2877  0.0933  1.7633
 1582SOL    HW216380   2.942   1.956   5.682  1.2009 -2.5804  1.3619
 1583SOL     OW16381   2.113   1.605   5.546  0.2344  1.0068  0.2854
 1583SOL    HW116382   2.086   1.522   5.586  1.5389  0.6003  0.3178
 1583SOL    HW216383   2.027   1.629   5.513  1.2181  0.4421 -2.7119
 1584SOL     OW16384   2.651   4.467   7.450 -0.3418 -0.4553  0.0288
 1584SOL    HW116385   2.707   4.517   7.509  1.4991 -0.8424 -1.3776
 1584SOL    HW216386   2.677   4.378   7.474  1.5053  0.2676  0.7753
 1585SOL     OW16387   0.183   4.602   3.545 -0.0508  0.5019  0.0452
 1585SOL    HW116388   0.117   4.644   3.601  0.9599  0.6190  1.1547
 1585SOL    HW216389   0.227   4.671   3.497  1.3625  0.4015  1.1642
 1586SOL     OW16390   1.441   3.374   2.849  0.3825 -0.0955 -0.0570
 1586SOL    HW116391   1.447   3.462   2.886 -0.8343  0.6597 -1.6505
 1586SOL    HW216392   1.383   3.388   2.774  0.1476 -0.6327  0.0263
 1587SOL     OW16393   0.005   3.999  12.509 -0.1007  0.0470  0.4326
 1587SOL    HW116394   0.009   4.070  12.573 -0.0419 -0.8563  1.4380
 1587SOL    HW216395   0.030   3.925  12.564  2.0330  0.3659 -0.1283
 1588SOL     OW16396   2.315   3.022  13.321 -0.5033 -0.0127 -0.0767
 1588SOL    HW116397   2.266   2.959  13.268  1.2044 -2.6962  1.5510
 1588SOL    HW216398   2.302   3.105  13.275  0.1673 -0.0262 -0.2869
 1589SOL     OW16399   1.956   0.764  15.108  0.4493  0.0747 -0.5459
 1589SOL    HW116400   2.036   0.711  15.105 -0.8284 -1.8902 -0.3285
 1589SOL    HW216401   1.986   0.832  15.168 -0.7236 -0.9323  1.1806
 1590SOL     OW16402   2.476   0.252   2.621 -0.3140 -0.1398  0.0557
 1590SOL    HW116403   2.417   0.183   2.651  3.3740 -3.5053 -0.4565
 1590SOL    HW216404   2.523   0.270   2.702  2.0542  1.4446 -1.6800
 1591SOL     OW16405   2.288   0.068   2.697 -0.6455 -0.7265 -0.3734
 1591SOL    HW116406   2.247   0.101   2.777 -1.2600 -1.9640 -0.1652
 1591SOL    HW216407   2.340   4.733   2.737 -1.1184 -1.5575 -1.2447
 1592SOL     OW16408   4.673   1.531   7.068 -0.5003 -0.0640 -0.0675
 1592SOL    HW116409   4.648   1.596   7.003 -2.5475  0.7287  1.5138
 1592SOL    HW216410   4.618   1.454   7.050 -0.1575 -0.1316 -0.8493
 1593SOL     OW16411   0.921   0.382  14.920 -0.0556 -0.2127 -0.2539
 1593SOL    HW116412   0.833   0.414  14.937  0.4340  0.4944  1.0041
 1593SOL    HW216413   0.918   0.296  14.962  2.3922  0.0416  0.4704
 1594SOL     OW16414   1.028   0.619  17.577  0.4632  0.0156  0.4174
 1594SOL    HW116415   1.026   0.604  17.671 -1.8931  0.5258  0.4443
 1594SOL    HW216416   1.072   0.704  17.570 -0.3055  0.3759 -0.0009
 1595SOL     OW16417   1.639   1.907   9.067 -0.1530 -0.1898 -0.2373
 1595SOL    HW116418   1.734   1.900   9.057 -0.4191 -0.8685 -2.3489
 1595SOL    HW216419   1.616   1.872   9.153 -0.7172  1.5755  0.3419
 1596SOL     OW16420   4.251   1.354   4.395  0.4232 -0.6724  0.4798
 1596SOL    HW116421   4.278   1.306   4.316  0.1349 -0.8300  0.4746
 1596SOL    HW216422   4.317   1.423   4.399  0.0937 -0.2966 -0.3526
 1597SOL     OW16423   4.246   1.665   4.975 -0.2325  0.5360  0.2214
 1597SOL    HW116424   4.340   1.651   4.973 -0.5629 -1.3483 -2.2700
 1597SOL    HW216425   4.244   1.751   5.018  1.0810  0.2853  0.7831
 1598SOL     OW16426   2.712   0.320  12.817  0.2213  0.0268 -0.1786
 1598SOL    HW116427   2.725   0.337  12.911  1.0608 -0.0315 -0.2811
 1598SOL    HW216428   2.618   0.337  12.811 -0.0824 -1.0428  1.8225
 1599SOL     OW16429   0.722   1.323   7.253  0.2054 -0.0886  0.1880
 1599SOL    HW116430   0.688   1.256   7.311 -1.3248  1.0271  0.5879
 1599SOL    HW216431   0.754   1.271   7.180 -4.9960 -1.3198 -1.2037
 1600SOL     OW16432   2.600   2.399   3.124  0.3229  0.1088 -0.5638
 1600SOL    HW116433   2.685   2.401   3.169  0.0672  2.1951 -0.1518
 1600SOL    HW216434   2.564   2.486   3.144  0.5677  0.4311 -1.5104
 1601SOL     OW16435   4.313   1.887  15.891 -0.7125 -0.4735  0.4767
 1601SOL    HW116436   4.391   1.917  15.844 -1.0388  2.4665  1.7497
 1601SOL    HW216437   4.280   1.817  15.836 -0.4407  0.7234 -1.2127
 1602SOL     OW16438   2.476   1.036   5.759 -0.5033 -0.6990  0.3360
 1602SOL    HW116439   2.554   1.044   5.704 -0.6949 -0.0247  0.1734
 1602SOL    HW216440   2.462   0.942   5.742  0.0005 -0.6284 -0.4781
 1603SOL     OW16441   1.427   3.295  10.736 -0.1558  0.0075  0.1020
 1603SOL    HW116442   1.333   3.286  10.720 -0.1773  1.2095 -0.4699
 1603SOL    HW216443   1.427   3.378  10.782  3.4859 -1.2597  2.3473
 1604SOL     OW16444   1.051   0.225   2.840  0.3578  0.0430 -0.0249
 1604SOL    HW116445   1.068   0.301   2.785  1.0023 -0.1616 -0.1072
 1604SOL    HW216446   0.994   0.262   2.907 -1.8445 -1.9478 -0.7895
 1605SOL     OW16447   4.359   3.294   6.705 -0.2227  0.2945 -0.2628
 1605SOL    HW116448   4.429   3.347   6.742  0.5683 -0.3245 -0.8851
 1605SOL    HW216449   4.294   3.327   6.767  1.5880 -1.3984  2.5278
 1606SOL     OW16450   4.298   3.553   2.454 -0.6237  0.0602 -0.2244
 1606SOL    HW116451   4.348   3.591   2.526 -0.9908  1.7726 -0.8817
 1606SOL    HW216452   4.227   3.616   2.445  0.1711  1.2203  1.8107
 1607SOL     OW16453   4.719   4.413  12.234 -0.0585  0.7315 -0.2264
 1607SOL    HW116454   4.626   4.437  12.230 -0.8368 -2.2690  0.1656
 1607SOL    HW216455   4.721   4.361  12.153  0.8855 -1.5460  1.2649
 1608SOL     OW16456   2.427   2.478   2.011  0.2081  0.0326  0.4912
 1608SOL    HW116457   2.456   2.548   2.070  1.4582  1.2076 -1.5320
 1608SOL    HW216458   2.445   2.399   2.063 -1.2296 -0.6689 -0.0912
 1609SOL     OW16459   3.178   3.532   5.703  0.2947  0.2384  0.1497
 1609SOL    HW116460   3.187   3.566   5.792 -1.6967  1.8299 -0.2480
 1609SOL    HW216461   3.148   3.442   5.715 -2.8768  1.6938  3.1385
 1610SOL     OW16462   2.777   0.588   8.793  0.3636  0.2268 -0.2968
 1610SOL    HW116463   2.872   0.576   8.801  0.4431 -1.0350 -3.3547
 1610SOL    HW216464   2.748   0.535   8.719  0.2629 -1.6021  1.0469
 1611SOL     OW16465   3.408   3.258   5.248  0.4302 -0.6083  0.4791
 1611SOL    HW116466   3.314   3.258   5.231  0.6004  0.3285 -0.4379
 1611SOL    HW216467   3.404   3.258   5.344 -0.7737  2.4829  0.4139
 1612SOL     OW16468   3.603   2.999   1.720 -0.3533  0.0000 -0.1003
 1612SOL    HW116469   3.621   2.908   1.742 -1.5883  0.0419  1.1507
 1612SOL    HW216470   3.631   3.038   1.803 -0.1293 -0.0297 -0.1641
 1613SOL     OW16471   1.722   1.763   8.609 -0.9302  0.2185 -0.2217
 1613SOL    HW116472   1.696   1.846   8.649  0.5244  1.0435 -0.9908
 1613SOL    HW216473   1.774   1.792   8.534  2.0543  1.2141  2.2365
 1614SOL     OW16474   2.952   1.613   6.325 -0.6687  0.4086  0.1619
 1614SOL    HW116475   2.910   1.545   6.273  0.5584 -0.3875  0.2069
 1614SOL    HW216476   2.991   1.667   6.257  1.1431 -0.5841  0.4019
 1615SOL     OW16477   0.185   2.556   2.691  0.6824 -0.0597 -0.2206
 1615SOL    HW116478   0.117   2.565   2.624 -0.1675  0.8454  0.7706
 1615SOL    HW216479   0.262   2.535   2.639  0.7699 -1.2205  0.3654
 1616SOL     OW16480   3.873   4.314   9.977 -0.0518 -0.1442 -0.3282
 1616SOL    HW116481   3.846   4.298   9.887 -1.8573 -1.3958  0.4372
 1616SOL    HW216482   3.921   4.231   9.987 -0.3865 -0.3337 -0.3028
 1617SOL     OW16483   0.579   1.943  14.517  0.3813  0.1686  0.2574
 1617SOL    HW116484   0.517   2.011  14.543  0.6075  1.1930 -1.9239
 1617SOL    HW216485   0.572   1.894  14.599  2.0590  1.2519  1.0592
 1618SOL     OW16486   4.127   1.958   9.552 -0.0105  0.5788 -0.0634
 1618SOL    HW116487   4.127   2.046   9.513 -0.0556  1.6101  2.2637
 1618SOL    HW216488   4.196   1.911   9.506 -0.0131  0.3098  0.2094
 1619SOL     OW16489   1.038   0.099   3.831 -0.4893 -0.1060  0.3259
 1619SOL    HW116490   0.970   0.073   3.769 -1.4937 -1.6615  2.0374
 1619SOL    HW216491   1.053   0.010   3.863 -2.2922 -0.2676  0.7741
 1620SOL     OW16492   0.315   4.497   3.754 -0.1398  0.2630  0.6063
 1620SOL    HW116493   0.255   4.425   3.773 -0.2556  0.6968  1.8945
 1620SOL    HW216494   0.263   4.550   3.694  0.1026  0.8411  0.9037
 1621SOL     OW16495   1.093   0.325   6.710 -0.0795 -0.4526 -0.6548
 1621SOL    HW116496   1.002   0.296   6.699 -0.5351  0.7858 -0.1996
 1621SOL    HW216497   1.132   0.282   6.633 -0.8680 -0.0383 -1.2830
 1622SOL     OW16498   3.599   4.074  12.153 -0.1069  0.3373 -0.0654
 1622SOL    HW116499   3.617   4.166  12.132  1.9119  0.0357  0.3561
 1622SOL    HW216500   3.504   4.081  12.148 -0.2133 -2.9232 -2.3103
 1623SOL     OW16501   2.141   3.159   7.262  0.1601 -0.4587  0.0743
 1623SOL    HW116502   2.102   3.168   7.175 -0.0528  0.0166  0.2181
 1623SOL    HW216503   2.175   3.246   7.281  1.0515 -0.2125 -2.6302
 1624SOL     OW16504   1.565   0.715   4.246 -0.0443  0.0916  0.1617
 1624SOL    HW116505   1.592   0.700   4.336 -0.3660  0.1331  0.2664
 1624SOL    HW216506   1.560   0.630   4.201  2.2008 -0.4836  1.0109
 1625SOL     OW16507   1.080   1.017   5.953 -0.0980 -0.2908 -0.0954
 1625SOL    HW116508   1.018   1.049   5.887  1.5555  2.1897 -0.4413
 1625SOL    HW216509   1.085   1.096   6.006  0.7385 -1.5853  1.7342
 1626SOL     OW16510   1.372   1.012   6.493  0.0292 -0.1276  0.1701
 1626SOL    HW116511   1.393   0.977   6.407  2.1716  1.3330  0.0857
 1626SOL    HW216512   1.449   0.993   6.547  1.9677  1.6219 -1.9847
 1627SOL     OW16513   3.173   1.515   7.493  0.1425 -0.3160 -0.3335
 1627SOL    HW116514   3.116   1.447   7.529 -1.2047  0.2843 -1.3255
 1627SOL    HW216515   3.181   1.475   7.406  1.1696 -0.0789 -0.3437
 1628SOL     OW16516   2.103   1.571   2.289  0.3573  0.3888 -0.1086
 1628SOL    HW116517   2.151   1.586   2.370  2.0229 -0.0150 -1.0248
 1628SOL    HW216518   2.171   1.523   2.242 -1.3946 -1.3026 -0.8896
 1629SOL     OW16519   1.999   0.666   8.171 -0.3286  0.0661 -0.0540
 1629SOL    HW116520   2.017   0.578   8.137 -0.0450  0.4613 -0.9196
 1629SOL    HW216521   1.972   0.711   8.091  0.3327 -0.2320 -0.4436
 1630SOL     OW16522   1.114   4.622  12.132  0.6174 -0.8060 -0.3325
 1630SOL    HW116523   1.104   4.542  12.184 -0.9088 -1.3590 -1.4514
 1630SOL    HW216524   1.166   4.661  12.202  0.6640 -0.9549 -0.2848
 1631SOL     OW16525   4.425   1.435   6.348 -0.0226  0.3259  0.1872
 1631SOL    HW116526   4.500   1.380   6.325  0.4853  0.9526  0.3091
 1631SOL    HW216527   4.351   1.376   6.356 -0.9054  1.3255 -0.6786
 1632SOL     OW16528   0.451   3.590   6.174  0.1495  0.2721 -0.3613
 1632SOL    HW116529   0.537   3.574   6.212 -0.1151 -0.0706  0.0997
 1632SOL    HW216530   0.396   3.587   6.253 -0.9561  1.7631 -1.0807
 1633SOL     OW16531   2.166   0.322   4.098 -0.6192 -0.3099 -0.8725
 1633SOL    HW116532   2.146   0.415   4.113 -0.4542 -0.4755  0.3867
 1633SOL    HW216533   2.085   0.282   4.131 -0.7148 -0.0985 -0.8510
 1634SOL     OW16534   2.853   0.392  14.703 -0.2623 -0.2156  0.2283
 1634SOL    HW116535   2.870   0.326  14.770 -3.6743 -1.1751  0.1268
 1634SOL    HW216536   2.902   0.463  14.745  0.0862  1.8175 -3.6320
 1635SOL     OW16537   0.349   0.112   8.798  0.1218  0.3820 -0.4350
 1635SOL    HW116538   0.308   0.103   8.712 -0.3986 -1.3077 -0.0039
 1635SOL    HW216539   0.415   0.044   8.784 -0.5358 -0.2597 -0.4270
 1636SOL     OW16540   2.098   1.668   9.470  0.1439 -0.2693  0.5401
 1636SOL    HW116541   2.188   1.684   9.442 -0.1367  3.0273  1.5268
 1636SOL    HW216542   2.060   1.746   9.430 -2.0215 -0.1441  2.8521
 1637SOL     OW16543   3.206   1.637   3.899  0.6286 -0.6689  0.0164
 1637SOL    HW116544   3.261   1.667   3.827 -2.6457  0.4211 -2.0319
 1637SOL    HW216545   3.230   1.694   3.972 -0.4847 -0.9214  0.5714
 1638SOL     OW16546   0.334   0.875   6.368 -0.1213  0.0623 -0.0773
 1638SOL    HW116547   0.422   0.912   6.381 -0.1799  0.1355  0.1111
 1638SOL    HW216548   0.303   0.927   6.294  2.5511 -3.2454 -3.5229
 1639SOL     OW16549   2.354   3.002  10.485 -0.0724  0.1933 -0.2863
 1639SOL    HW116550   2.366   3.083  10.436  0.8055 -0.0576 -0.4779
 1639SOL    HW216551   2.258   2.999  10.482 -0.1254  1.3449  0.1476
 1640SOL     OW16552   3.379   3.160   4.520  0.0356  0.1499  0.6331
 1640SOL    HW116553   3.321   3.212   4.464 -0.6316 -1.8048 -0.4951
 1640SOL    HW216554   3.334   3.162   4.605 -3.1357 -1.9110 -1.0066
 1641SOL     OW16555   1.926   4.306   1.631 -0.2706  0.7173  0.8035
 1641SOL    HW116556   2.019   4.287   1.615 -0.6626 -1.4709  1.0889
 1641SOL    HW216557   1.932   4.387   1.682 -1.2538  0.6734  0.9817
 1642SOL     OW16558   3.311   4.634   6.446  0.3597 -0.2604  0.5355
 1642SOL    HW116559   3.399   4.664   6.423 -0.2102 -0.0805 -1.4269
 1642SOL    HW216560   3.300   4.563   6.382  1.8581 -1.0718  1.1630
 1643SOL     OW16561   0.070   1.079  12.403  0.4734 -0.1680 -0.3268
 1643SOL    HW116562   0.043   1.092  12.312 -0.8506  0.2642  0.1370
 1643SOL    HW216563   0.039   0.991  12.424  1.7633  0.1179  2.7914
 1644SOL     OW16564   4.361   0.631   5.509  0.3261  0.1530 -0.3061
 1644SOL    HW116565   4.324   0.547   5.535  3.9466 -1.2385  0.4300
 1644SOL    HW216566   4.433   0.641   5.571 -0.7877 -2.1690  1.3517
 1645SOL     OW16567   4.243   0.308   7.535 -0.3730  0.0601 -0.1308
 1645SOL    HW116568   4.227   0.303   7.440  2.3915  1.9506 -0.6816
 1645SOL    HW216569   4.257   0.214   7.547  0.4269  0.5245  2.5221
 1646SOL     OW16570   3.786   0.871   3.436 -0.3101  0.4469 -0.0590
 1646SOL    HW116571   3.758   0.845   3.349  0.9338  0.2178 -0.3878
 1646SOL    HW216572   3.804   0.785   3.473  0.8464  0.6248 -0.2042
 1647SOL     OW16573   3.783   2.496   6.989  0.0366  0.1008 -0.2083
 1647SOL    HW116574   3.809   2.497   7.082 -0.2196 -1.3786 -0.1250
 1647SOL    HW216575   3.689   2.479   6.999 -0.0990  2.2324  2.3456
 1648SOL     OW16576   0.213   3.900   2.040 -0.7029 -0.0408 -0.1326
 1648SOL    HW116577   0.243   3.905   2.131 -1.9837  2.1056  0.1793
 1648SOL    HW216578   0.218   3.989   2.007  1.3658  0.9317  2.8654
 1649SOL     OW16579   2.898   0.991   9.072  0.2976 -0.0604  1.0270
 1649SOL    HW116580   2.845   1.036   9.138 -1.6751 -0.1690 -0.5094
 1649SOL    HW216581   2.837   0.934   9.025 -0.2224  0.8650  0.5973
 1650SOL     OW16582   3.333   0.465   6.946  0.1430  0.0668  0.1693
 1650SOL    HW116583   3.295   0.496   6.864 -0.3580  1.2310  0.8445
 1650SOL    HW216584   3.279   0.507   7.013  0.0773 -0.7116  0.6055
 1651SOL     OW16585   1.782   0.416   7.249  0.4212  0.2517  0.6330
 1651SOL    HW116586   1.739   0.440   7.331 -1.4137  0.7783 -0.5104
 1651SOL    HW216587   1.720   0.360   7.202  1.7585 -2.1604  1.7315
 1652SOL     OW16588   1.338   1.625   6.652 -0.0800 -0.0197 -0.4670
 1652SOL    HW116589   1.344   1.657   6.562  3.5990  0.3767 -0.0697
 1652SOL    HW216590   1.259   1.662   6.692  0.7119  0.1614  0.9111
 1653SOL     OW16591   2.730   0.231   3.717  0.1617 -0.8969  0.0284
 1653SOL    HW116592   2.778   0.246   3.799  2.7451 -1.8777 -1.3316
 1653SOL    HW216593   2.654   0.284   3.740  0.2545 -0.1418 -1.4474
 1654SOL     OW16594   2.900   4.096  16.303  0.1711 -0.4479 -0.0754
 1654SOL    HW116595   2.953   4.150  16.362 -0.2447 -0.8665  0.6831
 1654SOL    HW216596   2.862   4.018  16.343 -1.9129  1.1293  1.0532
 1655SOL     OW16597   0.729   4.709   4.404 -0.3990 -0.2844  0.0698
 1655SOL    HW116598   0.705   4.637   4.461 -0.8103  1.0374  1.5715
 1655SOL    HW216599   0.823   4.709   4.418 -0.7056 -0.4753  2.0544
 1656SOL     OW16600   1.635   0.370   2.170  0.2983  0.2731  0.1624
 1656SOL    HW116601   1.561   0.346   2.225  0.5594  2.2809  1.3688
 1656SOL    HW216602   1.636   0.465   2.183  1.4319  0.1417  1.0492
 1657SOL     OW16603   2.384   4.621   5.339  0.3444  0.7446  0.2625
 1657SOL    HW116604   2.411   4.535   5.373 -2.6433 -0.3621 -0.1558
 1657SOL    HW216605   2.336   4.652   5.416 -3.1860 -0.5709 -1.4184
 1658SOL     OW16606   3.708   2.279   7.430 -0.0386  0.0628  0.4225
 1658SOL    HW116607   3.767   2.252   7.500 -0.1861  0.2088  0.6029
 1658SOL    HW216608   3.627   2.228   7.437  0.4778 -0.7828  0.2102
 1659SOL     OW16609   3.130   0.360   0.818 -0.0812  0.0558  0.1708
 1659SOL    HW116610   3.115   0.453   0.799  1.4784  0.5772  1.4344
 1659SOL    HW216611   3.120   0.330   0.728 -2.5290 -0.0814  0.5034
 1660SOL     OW16612   3.304   2.862   2.089  0.3479  0.0638  0.3717
 1660SOL    HW116613   3.286   2.956   2.096  0.5934  0.2319 -1.0807
 1660SOL    HW216614   3.218   2.829   2.065 -0.2073  1.5928  0.2235
 1661SOL     OW16615   2.696   4.473   2.830 -0.0442  0.0282  0.5865
 1661SOL    HW116616   2.741   4.545   2.787 -0.0039 -0.1037  0.4099
 1661SOL    HW216617   2.763   4.406   2.828 -0.4860 -0.4278  0.8838
 1662SOL     OW16618   2.663   1.735   8.780 -0.0213 -0.4766  0.2408
 1662SOL    HW116619   2.750   1.742   8.820  1.1013 -1.0205 -2.1458
 1662SOL    HW216620   2.665   1.736   8.685  1.2297  1.1284  0.2746
 1663SOL     OW16621   3.655   3.613   5.404 -0.1326 -0.3889 -0.1858
 1663SOL    HW116622   3.628   3.586   5.316  0.0251 -0.8859 -0.0816
 1663SOL    HW216623   3.595   3.683   5.427 -0.5955 -0.5493 -0.9267
 1664SOL     OW16624   3.697   3.948   7.291 -0.3568 -0.1033  0.2989
 1664SOL    HW116625   3.652   3.867   7.265  1.2457 -0.0472 -2.5869
 1664SOL    HW216626   3.621   4.004   7.304  0.7064  1.2830  0.4836
 1665SOL     OW16627   3.440   3.308   4.125 -0.6787 -0.0925 -0.2233
 1665SOL    HW116628   3.458   3.215   4.110 -2.4534 -0.5771  0.6027
 1665SOL    HW216629   3.527   3.337   4.151 -0.6040 -1.2520  0.8286
 1666SOL     OW16630   0.438   4.260   7.703 -0.1224 -0.6661  0.3631
 1666SOL    HW116631   0.470   4.206   7.630 -1.3959 -1.5138  0.4370
 1666SOL    HW216632   0.512   4.256   7.764  0.7070  0.6538 -0.5415
 1667SOL     OW16633   1.010   0.604   7.662 -0.6978  0.1208 -0.1839
 1667SOL    HW116634   0.995   0.571   7.750 -0.6527 -0.3256 -0.3452
 1667SOL    HW216635   0.948   0.676   7.648 -1.0597  0.0710  1.1877
 1668SOL     OW16636   3.755   2.875  13.151 -0.6104  0.3864 -0.3186
 1668SOL    HW116637   3.690   2.890  13.082  0.3833  1.1606 -1.0951
 1668SOL    HW216638   3.820   2.940  13.124 -0.3778  1.2783  2.3725
 1669SOL     OW16639   2.888   2.590   2.082  0.1912 -0.3341 -0.2048
 1669SOL    HW116640   2.842   2.612   2.163 -1.3246  0.0346 -1.1715
 1669SOL    HW216641   2.972   2.562   2.117 -0.1482  0.3489  1.1776
 1670SOL     OW16642   0.453   2.023   8.898  0.0967 -0.1117  0.0294
 1670SOL    HW116643   0.406   2.027   8.815  1.5942  2.0930 -0.7039
 1670SOL    HW216644   0.411   2.096   8.944 -0.9172  0.2109 -1.4410
 1671SOL     OW16645   0.272   4.591   2.045 -0.5349 -0.2325  1.2489
 1671SOL    HW116646   0.187   4.581   2.002  1.0334 -0.4445 -1.8440
 1671SOL    HW216647   0.301   4.675   2.011 -2.2107 -1.1729 -2.5536
 1672SOL     OW16648   0.900   0.674   3.252 -0.0825  0.1738  0.0693
 1672SOL    HW116649   0.945   0.611   3.196  0.4263  0.1182  0.5419
 1672SOL    HW216650   0.974   0.709   3.302  0.9762 -2.8246  0.6040
 1673SOL     OW16651   1.162   2.386  13.159 -0.0333 -0.7215 -0.3464
 1673SOL    HW116652   1.160   2.419  13.069 -1.5847 -2.3930 -0.9259
 1673SOL    HW216653   1.234   2.323  13.158  0.5147 -0.1008  0.6358
 1674SOL     OW16654   3.051   2.804   8.182 -0.1046 -0.8695  0.5635
 1674SOL    HW116655   3.127   2.749   8.200  0.7211 -0.1191 -0.6532
 1674SOL    HW216656   2.994   2.768   8.250  0.4419  0.8523  1.9491
 1675SOL     OW16657   4.577   0.183   5.977  0.4180  0.1049  0.1972
 1675SOL    HW116658   4.598   0.176   6.071  2.6635 -1.6153 -0.4538
 1675SOL    HW216659   4.659   0.152   5.940  0.2538  1.2057 -1.0739
 1676SOL     OW16660   0.862   1.809   5.717  0.0269  0.0829  0.5288
 1676SOL    HW116661   0.957   1.796   5.724  0.3883  2.8693  0.5192
 1676SOL    HW216662   0.852   1.858   5.799 -0.1145  1.2663 -0.2130
 1677SOL     OW16663   0.331   4.314  13.491  0.3568 -0.2876 -0.1040
 1677SOL    HW116664   0.283   4.254  13.547 -0.2045 -0.8081 -1.1298
 1677SOL    HW216665   0.305   4.403  13.516 -0.2100 -0.4283 -0.1887
 1678SOL     OW16666   0.512   1.243   3.324 -0.6124 -0.3002 -0.0499
 1678SOL    HW116667   0.438   1.222   3.382  0.2449 -0.3106  1.0302
 1678SOL    HW216668   0.480   1.321   3.279  1.4043 -0.4436 -1.7277
 1679SOL     OW16669   0.251   2.904  10.565 -0.2861  0.3002  0.3516
 1679SOL    HW116670   0.320   2.946  10.615 -0.4888  2.0466 -0.8558
 1679SOL    HW216671   0.236   2.958  10.487  2.4208 -0.1086 -0.4469
 1680SOL     OW16672   4.484   3.289   2.421  0.9525  0.3343  0.2046
 1680SOL    HW116673   4.416   3.224   2.436  1.7821 -0.4814  0.4019
 1680SOL    HW216674   4.457   3.365   2.473  1.1705  0.2783  0.4010
 1681SOL     OW16675   0.192   4.019  15.807  0.1507 -0.7104  0.1709
 1681SOL    HW116676   0.098   4.037  15.813 -0.2975 -3.0603  0.2867
 1681SOL    HW216677   0.202   3.949  15.871  0.8776 -0.3865  0.3992
 1682SOL     OW16678   4.664   0.697   4.947 -0.2780  0.0501  0.3931
 1682SOL    HW116679   4.720   0.624   4.922 -0.1595  0.6814 -1.2156
 1682SOL    HW216680   4.703   0.768   4.896 -0.6785  0.5587  0.7973
 1683SOL     OW16681   2.226   1.358   9.670 -0.4157 -0.1204  0.3933
 1683SOL    HW116682   2.233   1.308   9.752  1.0789 -0.3990  0.0947
 1683SOL    HW216683   2.133   1.354   9.650  0.0625 -1.9149 -1.4520
 1684SOL     OW16684   0.219   3.587   2.802  0.5843 -0.0031 -0.7476
 1684SOL    HW116685   0.174   3.644   2.865  0.4987 -0.0103 -0.8016
 1684SOL    HW216686   0.314   3.597   2.808  0.4053  0.7621  0.7541
 1685SOL     OW16687   0.737   0.303   2.236  0.2009 -0.0412 -0.1028
 1685SOL    HW116688   0.741   0.368   2.166  0.3008  1.5752  1.3856
 1685SOL    HW216689   0.772   0.228   2.187  1.0998 -0.3448  1.0082
 1686SOL     OW16690   0.324   0.099   8.136  0.0915 -0.6757  0.1189
 1686SOL    HW116691   0.335   0.086   8.230 -0.5048  0.5343  0.3586
 1686SOL    HW216692   0.407   0.137   8.108  0.4667 -0.8567  0.9795
 1687SOL     OW16693   2.167   3.459   8.513 -0.0122  0.1923 -0.0756
 1687SOL    HW116694   2.143   3.391   8.577  3.0915  0.0610  0.9429
 1687SOL    HW216695   2.200   3.392   8.454 -2.0504  0.1421 -1.1328
 1688SOL     OW16696   1.895   2.082  15.406 -0.1850 -0.5417 -0.4563
 1688SOL    HW116697   1.898   2.152  15.472 -0.6243 -1.2372  0.2990
 1688SOL    HW216698   1.945   2.130  15.339 -0.0583 -0.2394 -0.1491
 1689SOL     OW16699   0.993   4.517   2.613  0.5585  0.9365  0.9889
 1689SOL    HW116700   1.042   4.585   2.660 -0.5639  0.5921  2.6608
 1689SOL    HW216701   1.019   4.515   2.521  1.0975  3.3306  1.0772
 1690SOL     OW16702   0.487   1.560   3.385 -0.1198 -0.2026  0.0867
 1690SOL    HW116703   0.456   1.558   3.295  2.8132 -2.4674 -0.8687
 1690SOL    HW216704   0.413   1.520   3.431 -0.1320 -1.3574 -0.9375
 1691SOL     OW16705   2.006   0.222   9.883  0.4598 -0.0076  0.3438
 1691SOL    HW116706   2.043   0.253   9.800 -0.5120 -2.9221 -1.1713
 1691SOL    HW216707   2.065   0.274   9.939  0.0786  0.7199  0.0727
 1692SOL     OW16708   3.417   1.345   8.250  0.0579 -0.0914 -0.8342
 1692SOL    HW116709   3.471   1.280   8.203 -0.5996 -2.0905  1.1744
 1692SOL    HW216710   3.326   1.324   8.227 -0.0089  1.7473 -2.2402
 1693SOL     OW16711   2.496   4.468   8.334  0.5351  0.2685  0.2962
 1693SOL    HW116712   2.530   4.381   8.314 -2.3474 -0.7940 -0.0483
 1693SOL    HW216713   2.473   4.448   8.425  0.1634 -0.9511 -0.0665
 1694SOL     OW16714   4.734   0.539   7.815 -0.1995 -0.3570 -0.5258
 1694SOL    HW116715   4.674   0.613   7.804 -2.2777 -1.6689  1.7914
 1694SOL    HW216716   0.022   0.557   7.906 -1.1073  0.3830 -0.4341
 1695SOL     OW16717   0.247   1.000   6.579 -0.1429 -0.4262 -0.0209
 1695SOL    HW116718   0.265   0.944   6.503  0.1545  0.3723 -0.5440
 1695SOL    HW216719   0.281   0.964   6.661 -2.2535  1.3551  1.6429
 1696SOL     OW16720   2.269   1.059   2.013  0.6577  0.0078  0.0872
 1696SOL    HW116721   2.281   0.982   1.958 -0.3881  0.1948 -0.3967
 1696SOL    HW216722   2.304   1.127   1.955 -0.6774  0.9327  0.3555
 1697SOL     OW16723   4.526   1.901  12.604  0.2119 -0.8122  0.1629
 1697SOL    HW116724   4.530   1.996  12.601 -0.1077 -0.8334 -1.1288
 1697SOL    HW216725   4.549   1.894  12.697  1.4274  0.9923 -0.0002
 1698SOL     OW16726   3.835   1.154   7.027 -0.1850 -0.2034 -0.1881
 1698SOL    HW116727   3.847   1.083   7.090 -0.0040  0.5873  0.6800
 1698SOL    HW216728   3.740   1.159   7.019 -0.1643 -1.3430 -1.1059
 1699SOL     OW16729   1.735   1.527   7.909  0.3505 -0.2267  0.1900
 1699SOL    HW116730   1.657   1.476   7.931 -0.2527  0.0395 -1.3312
 1699SOL    HW216731   1.696   1.614   7.916  1.1075  0.0997  0.3757
 1700SOL     OW16732   2.631   1.380  11.189  0.0567  0.2986  0.0492
 1700SOL    HW116733   2.624   1.371  11.284  2.1049  2.4180  0.3937
 1700SOL    HW216734   2.626   1.474  11.172 -1.6996  0.0688 -0.7014
 1701SOL     OW16735   3.077   2.941   7.925 -0.1060 -0.3405  0.1725
 1701SOL    HW116736   2.991   2.932   7.884 -0.2409  0.8171  0.1897
 1701SOL    HW216737   3.051   2.879   7.993 -2.0665 -1.0463 -1.2155
 1702SOL     OW16738   0.179   1.404   7.376 -0.6900 -0.1704  0.3294
 1702SOL    HW116739   0.103   1.443   7.420  0.7646  0.7722  2.0031
 1702SOL    HW216740   0.163   1.435   7.287 -1.1019  0.5574  0.6465
 1703SOL     OW16741   3.338   1.949   3.852 -0.7057  0.0536  0.2325
 1703SOL    HW116742   3.422   1.917   3.884  0.4731  1.9411 -0.9487
 1703SOL    HW216743   3.287   1.933   3.931 -0.8174  1.2190  0.4033
 1704SOL     OW16744   4.141   3.886  15.595  0.4588  0.6739 -0.1316
 1704SOL    HW116745   4.175   3.972  15.620  2.0772 -0.0578  0.1768
 1704SOL    HW216746   4.126   3.896  15.501  1.3218 -0.2800 -0.3709
 1705SOL     OW16747   3.776   2.035   2.186  0.0586 -0.0685  0.5091
 1705SOL    HW116748   3.785   2.016   2.093 -0.1196 -2.1499  0.9310
 1705SOL    HW216749   3.686   2.006   2.204  0.3986 -0.6012  1.3240
 1706SOL     OW16750   0.759   2.218   2.167  0.3354 -0.0515 -0.0406
 1706SOL    HW116751   0.684   2.272   2.191 -0.1418 -0.2718 -1.0159
 1706SOL    HW216752   0.804   2.211   2.251  1.4354 -2.4582 -0.8126
 1707SOL     OW16753   0.271   1.282   7.833 -0.4020 -0.0695  0.7884
 1707SOL    HW116754   0.242   1.242   7.751  4.1058 -0.5086 -0.5809
 1707SOL    HW216755   0.314   1.210   7.879 -0.7655 -0.3965  0.6127
 1708SOL     OW16756   2.858   0.093   1.729  0.4249 -0.5920 -0.6935
 1708SOL    HW116757   2.837   0.118   1.639  1.4987 -0.7543 -0.9954
 1708SOL    HW216758   2.822   0.159   1.788 -0.8755 -1.0368 -1.0022
 1709SOL     OW16759   1.486   1.029   4.779  0.8626 -0.4132 -1.3346
 1709SOL    HW116760   1.514   1.024   4.871  0.8003 -0.8423 -1.3404
 1709SOL    HW216761   1.391   1.034   4.787  1.0401  2.4310 -0.9637
 1710SOL     OW16762   2.426   3.743  13.390 -0.4004  0.5813 -0.2057
 1710SOL    HW116763   2.411   3.705  13.477 -1.8222 -0.8321 -1.0764
 1710SOL    HW216764   2.520   3.736  13.372 -0.1815  2.0275  0.3666
 1711SOL     OW16765   3.273   3.446   7.916  0.4491 -0.3333  0.0078
 1711SOL    HW116766   3.236   3.358   7.910 -1.1968  0.4601 -1.6091
 1711SOL    HW216767   3.338   3.444   7.986  0.4672 -1.5114 -0.0387
 1712SOL     OW16768   4.656   1.315   4.375  0.0301  0.5011 -0.1994
 1712SOL    HW116769   4.639   1.229   4.335  1.2145 -0.2069  0.8442
 1712SOL    HW216770   4.658   1.289   4.467  0.7523  1.2899  0.0074
 1713SOL     OW16771   3.548   0.859   1.765 -0.2924 -0.1856  0.4747
 1713SOL    HW116772   3.581   0.788   1.710 -0.0944 -0.1404  0.5366
 1713SOL    HW216773   3.480   0.808   1.809  0.9908 -0.5836  1.9766
 1714SOL     OW16774   1.764   2.809  11.300  0.2769 -0.5549 -0.7771
 1714SOL    HW116775   1.831   2.755  11.258  0.7827  1.1482 -2.1387
 1714SOL    HW216776   1.721   2.740  11.350 -3.3463  0.2815 -2.6688
 1715SOL     OW16777   1.534   0.716  10.134  0.5941  0.7755  0.2193
 1715SOL    HW116778   1.530   0.738  10.041 -0.1552 -1.4328 -0.2722
 1715SOL    HW216779   1.467   0.774  10.170  1.7591  1.2453  1.6213
 1716SOL     OW16780   1.949   1.051   3.205 -0.2667 -0.2002  0.3045
 1716SOL    HW116781   1.895   1.080   3.279  0.2539 -0.5988  0.8458
 1716SOL    HW216782   2.004   0.986   3.249 -0.4307 -2.0449 -2.2829
 1717SOL     OW16783   0.781   2.344   4.662 -0.0916  0.2046 -0.7893
 1717SOL    HW116784   0.767   2.433   4.693  0.7442 -0.1843  0.7165
 1717SOL    HW216785   0.850   2.354   4.597 -0.1783  1.0979 -0.7411
 1718SOL     OW16786   1.363   1.542   7.675 -0.1509  0.1472  0.1655
 1718SOL    HW116787   1.272   1.563   7.656 -0.7702 -0.6203  2.2738
 1718SOL    HW216788   1.385   1.608   7.741 -2.5010 -0.8639  1.9470
 1719SOL     OW16789   1.956   1.854   1.551 -0.3381  0.1024 -0.1677
 1719SOL    HW116790   2.005   1.927   1.590  1.1216  0.3105 -2.4110
 1719SOL    HW216791   1.896   1.905   1.497 -1.9018  0.7852  2.1835
 1720SOL     OW16792   4.503   0.844   2.612  0.2774 -0.1906 -0.0759
 1720SOL    HW116793   4.500   0.749   2.623 -0.4992 -0.2222 -0.5131
 1720SOL    HW216794   4.597   0.863   2.614  0.4763 -1.1893  0.2374
 1721SOL     OW16795   3.744   1.511  13.806  0.1376 -0.3103 -0.5363
 1721SOL    HW116796   3.703   1.543  13.886 -2.3927 -3.3207 -0.6317
 1721SOL    HW216797   3.730   1.583  13.745 -1.2643 -0.6339 -0.6124
 1722SOL     OW16798   3.168   2.759   9.159 -0.1996  0.3279  0.2211
 1722SOL    HW116799   3.215   2.704   9.221  0.2583 -0.2610 -0.6554
 1722SOL    HW216800   3.076   2.745   9.183  0.5909 -2.5682  1.4636
 1723SOL     OW16801   0.373   0.905   0.966 -0.4717  0.2807  0.0757
 1723SOL    HW116802   0.313   0.831   0.968 -1.7903  1.3150 -0.5237
 1723SOL    HW216803   0.331   0.966   0.905 -0.2778 -0.4456 -0.7776
 1724SOL     OW16804   4.404   0.444   6.380 -0.1813 -0.1504  0.2392
 1724SOL    HW116805   4.331   0.435   6.317  0.9783  1.9160 -1.3991
 1724SOL    HW216806   4.360   0.446   6.465 -0.2197  2.7509  0.1678
 1725SOL     OW16807   1.876   1.899  13.831  0.1683  0.6161 -0.3566
 1725SOL    HW116808   1.906   1.813  13.801  0.9044  0.9919 -0.7123
 1725SOL    HW216809   1.814   1.926  13.764  0.4258  0.3661 -0.6978
 1726SOL     OW16810   2.842   1.962  15.776  0.4256  0.3683  0.2016
 1726SOL    HW116811   2.929   1.996  15.797  0.1819  0.4725  1.0413
 1726SOL    HW216812   2.838   1.888  15.836 -1.4061  0.6743  0.4524
 1727SOL     OW16813   2.311   1.813   5.490  0.1260  0.5022  0.0018
 1727SOL    HW116814   2.385   1.829   5.548 -0.0520  1.0426  0.0800
 1727SOL    HW216815   2.253   1.756   5.540 -0.0108  0.6960  0.0625
 1728SOL     OW16816   3.843   3.598   6.397 -0.4258  0.1014 -0.1373
 1728SOL    HW116817   3.918   3.545   6.372 -0.7610 -0.3188 -0.2520
 1728SOL    HW216818   3.771   3.545   6.365  0.1662  0.3816 -1.9244
 1729SOL     OW16819   1.490   2.964  13.642 -0.8676  0.2351 -0.2335
 1729SOL    HW116820   1.578   2.978  13.677 -0.6353  1.5139 -1.3521
 1729SOL    HW216821   1.483   2.874  13.675 -0.2947  0.6841  1.0740
 1730SOL     OW16822   4.175   0.017   2.997 -0.1093  0.2591 -0.0232
 1730SOL    HW116823   4.110   0.032   3.065 -1.2049 -0.0164 -1.0116
 1730SOL    HW216824   4.253   0.009   3.052 -0.7594  0.5596  0.9405
 1731SOL     OW16825   4.075   4.175   5.769 -0.1434  0.5696  0.1293
 1731SOL    HW116826   4.034   4.155   5.853 -0.1039  0.5957  0.1550
 1731SOL    HW216827   4.024   4.250   5.739  0.9017  0.6699 -1.4393
 1732SOL     OW16828   2.535   1.696   2.955 -0.0377  0.2265  0.1082
 1732SOL    HW116829   2.557   1.761   3.022  1.2316 -0.2053  0.1112
 1732SOL    HW216830   2.492   1.636   3.016 -0.5329  0.9027  0.4169
 1733SOL     OW16831   1.043   1.226   3.174  0.4019  0.2566  0.3911
 1733SOL    HW116832   1.062   1.145   3.127  0.0785 -0.2763  1.1814
 1733SOL    HW216833   0.948   1.220   3.160  0.4394  0.2824  0.1216
 1734SOL     OW16834   1.177   1.673   5.974 -0.0161  0.2306  0.6090
 1734SOL    HW116835   1.259   1.678   6.024 -0.7158  0.0676  1.7938
 1734SOL    HW216836   1.110   1.707   6.033 -0.1184  1.2579 -0.0964
 1735SOL     OW16837   0.323   1.901   9.910 -0.3352  0.0276 -0.9650
 1735SOL    HW116838   0.294   1.992   9.909 -0.8215 -0.1232 -0.5762
 1735SOL    HW216839   0.406   1.898   9.861  0.4917  1.6929  0.3374
 1736SOL     OW16840   0.912   3.372   2.386  0.6169  0.2592 -0.1454
 1736SOL    HW116841   0.958   3.441   2.433  0.5543 -0.2008  0.5995
 1736SOL    HW216842   0.837   3.428   2.364  1.6350  1.3666 -0.7559
 1737SOL     OW16843   4.135   0.399  10.841 -0.3152 -0.0462  0.0507
 1737SOL    HW116844   4.107   0.352  10.763  1.4874 -0.7161 -0.1964
 1737SOL    HW216845   4.075   0.366  10.908  0.5064 -1.7658 -0.0623
 1738SOL     OW16846   0.697   1.581   8.648  0.0844  0.7451 -0.0721
 1738SOL    HW116847   0.641   1.619   8.716  1.1749  1.8967  0.2027
 1738SOL    HW216848   0.712   1.488   8.665 -0.1611  0.3384 -2.1031
 1739SOL     OW16849   3.658   1.932  16.076  0.3898 -0.6367  0.0988
 1739SOL    HW116850   3.724   1.966  16.015  0.1062  0.0129  0.1515
 1739SOL    HW216851   3.622   1.860  16.025 -2.2333  1.4244 -0.9835
 1740SOL     OW16852   2.798   2.287   5.296 -0.1952 -0.0315 -0.3115
 1740SOL    HW116853   2.840   2.265   5.212  1.9366  0.6723  0.5646
 1740SOL    HW216854   2.798   2.205   5.344 -1.2642  0.6840  0.9169
 1741SOL     OW16855   3.970   1.693   4.109 -0.2503  0.1939 -0.3763
 1741SOL    HW116856   4.033   1.633   4.069  0.4482  0.5390  0.1960
 1741SOL    HW216857   3.931   1.728   4.030 -0.1268  0.2020 -0.4340
 1742SOL     OW16858   0.465   1.028   2.752  0.1479 -0.0931  0.1100
 1742SOL    HW116859   0.523   1.036   2.676  1.6609  2.0865  1.4758
 1742SOL    HW216860   0.489   0.937   2.771  1.0693 -0.1490 -1.3163
 1743SOL     OW16861   3.803   0.856   3.121  0.1052 -0.2802  0.0509
 1743SOL    HW116862   3.727   0.914   3.121  0.0826 -0.3056  0.7120
 1743SOL    HW216863   3.775   0.785   3.064 -1.5504  1.5479 -1.4082
 1744SOL     OW16864   0.750   2.388   8.218  0.3095  0.2526 -0.2812
 1744SOL    HW116865   0.819   2.454   8.220  1.0834 -0.5704  0.5780
 1744SOL    HW216866   0.674   2.438   8.189 -1.1664 -1.5789  0.3640
 1745SOL     OW16867   1.537   1.451  12.194 -0.1909 -0.5164 -0.3604
 1745SOL    HW116868   1.627   1.450  12.163  0.2496 -0.5080  0.9151
 1745SOL    HW216869   1.544   1.426  12.286 -0.4118  0.5256 -0.0525
 1746SOL     OW16870   3.656   2.125   8.570 -0.4280 -0.3547 -0.1306
 1746SOL    HW116871   3.610   2.116   8.486 -0.1008 -1.8811 -0.1432
 1746SOL    HW216872   3.625   2.049   8.618 -3.2066  0.3040 -0.8576
 1747SOL     OW16873   4.633   3.357   4.913 -0.1801 -0.6102  0.4200
 1747SOL    HW116874   4.540   3.346   4.893 -0.4306  1.6059  0.3743
 1747SOL    HW216875   4.681   3.317   4.840  0.4130 -0.2320  0.6033
 1748SOL     OW16876   4.578   2.836  16.015  0.5325  0.2201 -0.3553
 1748SOL    HW116877   4.546   2.918  15.977  1.4209  0.2687 -0.9770
 1748SOL    HW216878   4.612   2.786  15.940  1.3940 -0.0592  0.2255
 1749SOL     OW16879   0.119   3.537   5.679  0.0107  0.4342 -0.0275
 1749SOL    HW116880   0.151   3.547   5.589 -0.0303 -0.8017 -0.1784
 1749SOL    HW216881   0.191   3.489   5.719 -0.3645  2.2528  2.8226
 1750SOL     OW16882   4.648   0.116   3.473  0.0014 -0.1385  0.1869
 1750SOL    HW116883   4.654   0.158   3.559  1.7535 -1.0110  0.4838
 1750SOL    HW216884   4.579   0.053   3.494  0.1159  0.2955  1.9342
 1751SOL     OW16885   0.414   1.079  12.323  0.2056 -0.1830 -0.3829
 1751SOL    HW116886   0.404   0.984  12.320 -2.1250  0.1362 -3.1587
 1751SOL    HW216887   0.509   1.087  12.327  0.4331 -1.9390 -1.7646
 1752SOL     OW16888   2.086   3.791   5.947 -0.3053  1.0456 -0.0179
 1752SOL    HW116889   2.118   3.708   5.912 -1.4954  0.4059  0.4368
 1752SOL    HW216890   1.998   3.769   5.979  0.7336 -0.2736  1.9775
 1753SOL     OW16891   1.552   0.655   0.126  0.3380 -0.2309 -0.0413
 1753SOL    HW116892   1.591   0.743   0.122 -0.2267  0.1472  2.4312
 1753SOL    HW216893   1.573   0.617   0.211 -3.5821 -1.2641  0.4679
 1754SOL     OW16894   3.095   1.962   1.210 -0.5471 -0.3873  0.6740
 1754SOL    HW116895   3.108   1.948   1.304  1.9841 -1.7958  0.0981
 1754SOL    HW216896   3.006   1.998   1.200  0.3392  1.6309 -0.0495
 1755SOL     OW16897   0.947   3.717  10.553  0.3735  0.3435  0.8360
 1755SOL    HW116898   0.944   3.811  10.570 -0.9307  0.5163 -0.3323
 1755SOL    HW216899   0.851   3.711  10.545  0.4986  0.6371 -1.0418
 1756SOL     OW16900   4.448   4.631  11.374  0.1633  0.0146  0.5265
 1756SOL    HW116901   4.539   4.662  11.376  0.2801 -0.2056 -1.6525
 1756SOL    HW216902   4.414   4.656  11.460  0.1821  1.5822  0.0818
 1757SOL     OW16903   4.241   4.398   2.253 -0.2598  0.6312 -0.4466
 1757SOL    HW116904   4.278   4.425   2.169 -2.4455  0.8980 -1.3225
 1757SOL    HW216905   4.221   4.483   2.293 -2.8127 -0.5637  0.8089
 1758SOL     OW16906   3.985   3.948   6.450  0.3681  0.0742  0.3462
 1758SOL    HW116907   3.904   3.995   6.467  1.8802  2.9898 -0.4977
 1758SOL    HW216908   3.953   3.868   6.408 -2.3101  0.1587  2.2429
 1759SOL     OW16909   2.698   3.568   4.785 -0.1440 -0.7660 -0.5662
 1759SOL    HW116910   2.698   3.583   4.691  1.8727  3.1679  0.0640
 1759SOL    HW216911   2.619   3.619   4.803  0.2406 -0.2629 -0.3016
 1760SOL     OW16912   2.802   2.698   8.795 -0.3007  0.0197  0.7329
 1760SOL    HW116913   2.763   2.613   8.778 -0.8757  0.6524 -1.0487
 1760SOL    HW216914   2.890   2.671   8.823  0.5219 -1.1094 -2.9561
 1761SOL     OW16915   1.637   2.100   3.695 -0.6826  0.4201  0.2614
 1761SOL    HW116916   1.562   2.126   3.748 -0.1143  0.2600  1.1473
 1761SOL    HW216917   1.583   2.034   3.653  0.3003  0.2133 -0.6755
 1762SOL     OW16918   0.573   1.236   1.791 -0.2053  0.2115 -0.8804
 1762SOL    HW116919   0.536   1.246   1.878  1.7492 -0.7302  0.0560
 1762SOL    HW216920   0.659   1.277   1.798 -0.4226  0.1236  2.0078
 1763SOL     OW16921   3.603   2.599  14.342  0.0685 -0.5305  0.3642
 1763SOL    HW116922   3.578   2.526  14.398 -0.2794  0.6329  1.7277
 1763SOL    HW216923   3.596   2.560  14.255 -2.8996  0.7682  0.0288
 1764SOL     OW16924   2.200   1.486   6.207 -0.2239  0.0049 -0.3768
 1764SOL    HW116925   2.105   1.485   6.194 -0.6885  1.6526  3.0640
 1764SOL    HW216926   2.220   1.421   6.139 -0.7565 -2.9545  2.2729
 1765SOL     OW16927   4.224   2.930  10.994  0.6360 -0.2227 -0.6047
 1765SOL    HW116928   4.260   2.989  10.928  0.0101  1.9897  1.0141
 1765SOL    HW216929   4.277   2.852  10.976  0.5553 -0.9495  2.3056
 1766SOL     OW16930   2.253   3.250   1.965 -0.7459  0.4743 -0.3086
 1766SOL    HW116931   2.330   3.306   1.960 -0.3860  0.1499  1.6931
 1766SOL    HW216932   2.263   3.207   2.050 -1.1452  1.4045  0.2091
 1767SOL     OW16933   2.575   2.286   4.825  0.6471  0.0020 -0.3572
 1767SOL    HW116934   2.501   2.286   4.764  0.3501  2.2057 -0.0228
 1767SOL    HW216935   2.548   2.363   4.877  1.0118  1.9471 -3.0580
 1768SOL     OW16936   3.340   4.510   3.620 -0.3364 -0.2405 -0.7489
 1768SOL    HW116937   3.297   4.585   3.578 -1.4023 -0.7522 -0.5588
 1768SOL    HW216938   3.291   4.438   3.582 -2.1386 -0.4227  1.9231
 1769SOL     OW16939   4.401   3.846   4.784 -0.5823 -0.1599 -0.0154
 1769SOL    HW116940   4.440   3.862   4.870 -0.1705 -0.6462 -0.1086
 1769SOL    HW216941   4.347   3.925   4.780  2.1989  1.6861 -0.4189
 1770SOL     OW16942   2.282   1.029   6.070 -0.2311 -0.2197  0.2435
 1770SOL    HW116943   2.375   1.046   6.052 -0.9189  2.5220 -0.7533
 1770SOL    HW216944   2.294   0.934   6.061  0.6090 -0.3936  3.1240
 1771SOL     OW16945   0.241   4.210   5.847  0.0906 -0.8903 -0.2362
 1771SOL    HW116946   0.174   4.236   5.910  0.9970  2.2235 -0.5690
 1771SOL    HW216947   0.268   4.297   5.818 -0.8367 -0.4823  0.1159
 1772SOL     OW16948   2.231   0.532   3.389  0.4843 -0.0163  0.1777
 1772SOL    HW116949   2.158   0.571   3.436  1.2170  4.3727 -2.3435
 1772SOL    HW216950   2.251   0.595   3.320 -0.4029 -1.2746 -1.2255
 1773SOL     OW16951   2.445   2.421  16.324 -0.1792  0.7288  0.4735
 1773SOL    HW116952   2.508   2.481  16.366  0.1248  0.6483  0.1309
 1773SOL    HW216953   2.421   2.367  16.399 -0.4268 -1.6865 -1.3576
 1774SOL     OW16954   1.026   1.596  10.725 -0.3945  0.3798  0.3908
 1774SOL    HW116955   1.019   1.690  10.712  0.5110  0.3040 -0.6370
 1774SOL    HW216956   1.032   1.569  10.634 -0.8357  1.1399  0.1389
 1775SOL     OW16957   4.377   1.404  16.526  0.0783  0.0732 -0.5652
 1775SOL    HW116958   4.292   1.447  16.535  0.0953  0.3653 -1.6957
 1775SOL    HW216959   4.407   1.402  16.617 -1.1119  2.0284 -0.1213
 1776SOL     OW16960   2.247   0.764   8.286  0.2698  1.0143 -0.1052
 1776SOL    HW116961   2.165   0.753   8.238 -0.4650 -0.5243  1.5126
 1776SOL    HW216962   2.319   0.765   8.223 -0.4736  1.3137 -0.9379
 1777SOL     OW16963   0.820   1.513   7.585  0.8653 -0.7295 -0.6366
 1777SOL    HW116964   0.746   1.522   7.525 -1.0139 -1.0805  1.6222
 1777SOL    HW216965   0.804   1.588   7.642 -1.1044 -1.9474  0.4094
 1778SOL     OW16966   3.309   3.772  12.842 -0.0313 -0.6232 -0.2591
 1778SOL    HW116967   3.216   3.765  12.822  0.0740  2.2277 -1.6955
 1778SOL    HW216968   3.340   3.682  12.851 -0.9430 -0.9588 -0.5076
 1779SOL     OW16969   1.118   1.424   4.746  0.5225 -0.2991  0.1236
 1779SOL    HW116970   1.064   1.491   4.703 -0.0533  0.4706  2.0178
 1779SOL    HW216971   1.048   1.369   4.780 -0.3644 -0.1317 -1.4493
 1780SOL     OW16972   2.436   4.611   2.842  0.6579  0.1780 -0.2537
 1780SOL    HW116973   2.462   4.564   2.920 -0.7935 -2.6160 -1.4614
 1780SOL    HW216974   2.510   4.593   2.784  1.4339  1.3801  0.3561
 1781SOL     OW16975   3.561   4.732   6.384  0.2610  0.1344 -0.3571
 1781SOL    HW116976   3.639   4.681   6.404  0.3938 -0.2679 -1.9621
 1781SOL    HW216977   3.589   0.087   6.397  0.4333 -0.1630  1.4767
 1782SOL     OW16978   2.322   1.391  13.642  0.1722  0.2245 -0.4288
 1782SOL    HW116979   2.392   1.448  13.609  0.6950 -1.8294 -2.8760
 1782SOL    HW216980   2.299   1.337  13.566 -0.2462  0.9041 -0.7890
 1783SOL     OW16981   1.203   2.312   1.750 -0.3918  0.3966 -0.0970
 1783SOL    HW116982   1.153   2.338   1.828 -1.0581  1.1827 -0.7821
 1783SOL    HW216983   1.221   2.399   1.714 -0.7852  1.1098  1.4387
 1784SOL     OW16984   3.669   1.105  15.718 -0.0680 -0.2331 -0.6551
 1784SOL    HW116985   3.629   1.190  15.699 -0.4283 -0.2219  0.1516
 1784SOL    HW216986   3.614   1.043  15.670  1.6186 -0.5355 -2.1889
 1785SOL     OW16987   2.385   4.105  17.638  0.0663 -0.6934 -0.1567
 1785SOL    HW116988   2.438   4.083  17.561  0.8264 -1.9811  0.7458
 1785SOL    HW216989   2.379   4.200  17.631 -0.2884 -0.6621  0.5517
 1786SOL     OW16990   2.459   4.694   0.296  0.0102  0.2487 -0.3380
 1786SOL    HW116991   2.368   4.700   0.266 -0.0336  1.1005 -0.0212
 1786SOL    HW216992   2.456   4.690   0.391 -2.1381  1.6358 -0.3497
 1787SOL     OW16993   0.445   0.518  12.088 -0.0722 -0.4039 -0.7718
 1787SOL    HW116994   0.437   0.430  12.052  0.4651 -1.2233  1.0949
 1787SOL    HW216995   0.534   0.531  12.056  0.8966  1.3300  2.6015
 1788SOL     OW16996   0.193   1.601  13.960 -0.0048 -0.1615  0.2043
 1788SOL    HW116997   0.214   1.664  14.029 -1.3636 -0.1498  0.6161
 1788SOL    HW216998   0.098   1.607  13.949 -0.1726 -0.9850  1.1653
 1789SOL     OW16999   1.345   1.754   0.674  0.5939  0.1947  0.1994
 1789SOL    HW117000   1.381   1.836   0.642 -1.9392  2.3796  2.9747
 1789SOL    HW217001   1.280   1.744   0.604  0.0147 -1.2652  0.9430
 1790SOL     OW17002   3.537   4.660   7.611  0.3393  0.2694  0.7652
 1790SOL    HW117003   3.451   4.702   7.614  0.4233  0.6254 -1.9192
 1790SOL    HW217004   3.586   4.706   7.680  0.8261  1.4929 -0.4076
 1791SOL     OW17005   1.217   1.718   8.972 -0.0850 -0.1520 -0.0577
 1791SOL    HW117006   1.306   1.732   8.939 -0.3474  0.4567 -0.5201
 1791SOL    HW217007   1.164   1.753   8.900 -0.2464 -1.7653 -0.7248
 1792SOL     OW17008   4.152   0.802   7.733 -0.3367  0.0813 -0.3697
 1792SOL    HW117009   4.196   0.740   7.791  4.2418 -0.2811 -4.2846
 1792SOL    HW217010   4.061   0.770   7.732  0.4151 -2.0977  0.5148
 1793SOL     OW17011   4.389   1.995   3.332 -0.1238 -0.2310  0.1350
 1793SOL    HW117012   4.325   2.017   3.399 -1.0068 -0.0036 -0.7909
 1793SOL    HW217013   4.345   1.913   3.307 -0.9954 -0.0836  1.1833
 1794SOL     OW17014   3.759   1.556   5.025  0.4683 -0.1080  0.3442
 1794SOL    HW117015   3.828   1.567   4.960  0.4624  0.9286  0.5093
 1794SOL    HW217016   3.692   1.515   4.971  0.6989  0.9868 -0.7687
 1795SOL     OW17017   2.580   1.882   7.407 -0.0813 -0.3290 -0.3609
 1795SOL    HW117018   2.492   1.918   7.412 -0.4595 -1.0481 -1.7512
 1795SOL    HW217019   2.633   1.954   7.374  0.6013  0.0668  1.6342
 1796SOL     OW17020   1.850   4.366  15.360  0.2293 -0.1841  0.9512
 1796SOL    HW117021   1.929   4.402  15.319  1.0846 -1.4885  1.4810
 1796SOL    HW217022   1.886   4.279  15.374  0.5614 -0.4622 -1.5995
 1797SOL     OW17023   3.545   3.350  15.737  0.2213 -0.3286  0.0491
 1797SOL    HW117024   3.606   3.278  15.720  0.1290 -0.5571  0.6737
 1797SOL    HW217025   3.466   3.337  15.685  0.7479  1.3244 -1.1525
 1798SOL     OW17026   4.545   3.647   5.167  0.3572  0.2145 -0.1086
 1798SOL    HW117027   4.630   3.620   5.132  0.2153  0.6813 -0.8122
 1798SOL    HW217028   4.499   3.563   5.168  0.0868  0.3704  0.9271
 1799SOL     OW17029   1.518   0.938  16.990 -0.6716  0.3154 -0.1278
 1799SOL    HW117030   1.424   0.921  16.998 -0.6925 -0.4391 -1.9901
 1799SOL    HW217031   1.533   0.896  16.905 -1.1802 -0.1905  0.0276
 1800SOL     OW17032   3.766   1.248   5.653 -0.8983 -0.1386  0.0141
 1800SOL    HW117033   3.832   1.216   5.591  1.4856  3.2800  0.8429
 1800SOL    HW217034   3.776   1.342   5.643  0.3696 -0.2660  0.0758
 1801SOL     OW17035   0.499   3.325  10.974  0.3922 -0.5373 -0.5027
 1801SOL    HW117036   0.511   3.420  10.977 -2.8941 -0.1967  1.5540
 1801SOL    HW217037   0.451   3.311  11.055  1.4271 -0.3113  0.1499
 1802SOL     OW17038   0.517   4.383   2.019 -0.2273  0.9544 -0.1080
 1802SOL    HW117039   0.583   4.437   1.976  1.3305 -0.4399  0.4930
 1802SOL    HW217040   0.461   4.439   2.072 -0.4815  0.4851  0.1205
 1803SOL     OW17041   4.137   4.573   1.032  0.4608  0.2866 -0.5546
 1803SOL    HW117042   4.130   4.655   0.982  1.1500 -0.6478 -2.1911
 1803SOL    HW217043   4.045   4.557   1.051  1.1659 -1.4745  1.3218
 1804SOL     OW17044   3.682   1.570   2.879  0.0807 -0.0165  0.5197
 1804SOL    HW117045   3.742   1.554   2.806  0.0813 -0.1054  0.5391
 1804SOL    HW217046   3.680   1.484   2.922  0.3251  0.0559  0.6729
 1805SOL     OW17047   2.134   3.612   2.888  0.2913 -0.1620  0.1045
 1805SOL    HW117048   2.110   3.705   2.881  0.5798 -0.1951 -1.4815
 1805SOL    HW217049   2.054   3.574   2.851 -0.1257  0.6219  0.2041
 1806SOL     OW17050   1.851   4.716  10.475 -0.7534 -0.2398 -0.4726
 1806SOL    HW117051   1.826   0.043  10.543 -0.1397 -1.1779  0.6213
 1806SOL    HW217052   1.881   0.036  10.404 -2.6060  1.3004 -0.0663
 1807SOL     OW17053   2.170   2.304   6.094 -0.4002 -0.3509 -0.0111
 1807SOL    HW117054   2.111   2.286   6.021  1.3072  3.0262 -2.2665
 1807SOL    HW217055   2.153   2.221   6.137  0.2416  0.1039  1.1156
 1808SOL     OW17056   3.196   2.390   5.268  0.1754 -0.6918  0.0999
 1808SOL    HW117057   3.128   2.373   5.333  0.1448 -0.6006  0.0923
 1808SOL    HW217058   3.209   2.301   5.236  0.0397 -1.0056  0.9329
 1809SOL     OW17059   0.239   2.505   2.071  0.1526 -0.7878 -0.0931
 1809SOL    HW117060   0.221   2.422   2.115 -1.9320 -1.6546 -2.6219
 1809SOL    HW217061   0.165   2.560   2.099  1.3625  1.0697 -0.5582
 1810SOL     OW17062   4.097   0.091   5.381 -0.0198  0.2768  0.2567
 1810SOL    HW117063   4.155   0.167   5.381 -1.2042  1.1801 -1.3592
 1810SOL    HW217064   4.151   0.023   5.422 -0.1374 -0.6877 -1.2022
 1811SOL     OW17065   1.973   2.279   1.322 -0.0880 -0.2296 -0.2184
 1811SOL    HW117066   2.047   2.221   1.340 -0.9913 -1.5574 -0.7649
 1811SOL    HW217067   1.896   2.236   1.359 -0.3940  0.2970 -0.2310
 1812SOL     OW17068   3.074   0.322   4.333  0.0213 -0.8311 -0.5654
 1812SOL    HW117069   2.980   0.332   4.349  0.0037  0.3121 -1.3828
 1812SOL    HW217070   3.081   0.342   4.240  1.5072 -1.6385 -0.6217
 1813SOL     OW17071   0.142   3.642   2.012  0.4190  0.5741  0.7204
 1813SOL    HW117072   0.175   3.731   2.027 -0.9925  1.2863 -0.3615
 1813SOL    HW217073   0.108   3.638   1.923  1.1900 -1.0467  0.4901
 1814SOL     OW17074   1.267   2.283   7.690 -0.1256  0.4931  0.1391
 1814SOL    HW117075   1.315   2.321   7.617  0.9985 -0.8742  0.1815
 1814SOL    HW217076   1.180   2.304   7.654 -1.0930  0.4139  2.4014
 1815SOL     OW17077   1.314   3.601   2.943 -0.6839  0.2452 -0.5001
 1815SOL    HW117078   1.266   3.573   3.021 -0.9995 -1.0776 -1.1738
 1815SOL    HW217079   1.357   3.678   2.980 -0.3289  0.3690 -1.1717
 1816SOL     OW17080   3.436   0.617  11.639  0.3473 -0.0712  0.6331
 1816SOL    HW117081   3.429   0.584  11.728 -1.4123  2.9143  1.5830
 1816SOL    HW217082   3.346   0.598  11.614  0.1859 -0.8860  1.8473
 1817SOL     OW17083   0.354   1.982   4.454 -0.1203  0.5376  0.5725
 1817SOL    HW117084   0.314   2.060   4.416 -0.6117 -0.9338 -1.9086
 1817SOL    HW217085   0.446   2.003   4.439 -0.0005  1.1616  2.1594
 1818SOL     OW17086   0.469   2.500  14.142 -0.0417 -0.6495  0.0655
 1818SOL    HW117087   0.456   2.425  14.085  0.8972 -2.6524  2.5219
 1818SOL    HW217088   0.481   2.453  14.225  0.3214 -0.6931 -0.0100
 1819SOL     OW17089   0.219   3.909   0.128 -0.0732  0.8383 -0.1685
 1819SOL    HW117090   0.310   3.895   0.104  0.3841  0.1374  2.0223
 1819SOL    HW217091   0.210   3.871   0.215  0.5813  0.4082 -0.2965
 1820SOL     OW17092   3.664   4.038  14.273 -0.5554 -0.2467 -0.0631
 1820SOL    HW117093   3.716   4.093  14.214 -1.2737  0.3037 -0.1674
 1820SOL    HW217094   3.711   3.954  14.265 -1.8304 -0.8591 -1.1160
 1821SOL     OW17095   0.273   0.493   5.017  0.0036 -0.5908 -0.2859
 1821SOL    HW117096   0.213   0.503   5.091  0.9126 -0.7664  0.4772
 1821SOL    HW217097   0.285   0.399   5.008  3.5823  0.0259 -2.2888
 1822SOL     OW17098   2.264   4.148   2.062 -0.4720 -0.6907 -0.2609
 1822SOL    HW117099   2.299   4.090   1.994 -1.0235 -1.0666 -0.2222
 1822SOL    HW217100   2.315   4.124   2.139  0.5423  1.0130 -0.4177
 1823SOL     OW17101   4.200   3.498   2.181 -0.5485  0.1073  0.0355
 1823SOL    HW117102   4.252   3.429   2.140  0.0042  0.2511  0.4850
 1823SOL    HW217103   4.247   3.509   2.264 -1.2633 -1.7348  0.6868
 1824SOL     OW17104   0.114   0.753  12.899 -0.2501  0.9282  0.4284
 1824SOL    HW117105   0.112   0.780  12.990 -1.9960 -0.1516  0.7049
 1824SOL    HW217106   0.207   0.765  12.878 -0.9870  0.7919 -2.8850
 1825SOL     OW17107   3.662   4.407  17.672  0.1996 -0.4487  0.3071
 1825SOL    HW117108   3.692   4.498  17.674 -0.7059 -0.1226 -1.1795
 1825SOL    HW217109   3.750   4.370  17.658  0.3982  0.9716 -2.1565
 1826SOL     OW17110   0.731   0.492   6.834  0.2246  0.0457 -0.4260
 1826SOL    HW117111   0.786   0.565   6.804  0.4010 -0.0035 -0.2266
 1826SOL    HW217112   0.742   0.426   6.766  3.4576  2.1221 -1.9200
 1827SOL     OW17113   2.269   4.136   5.117 -0.6856  0.2464  0.1780
 1827SOL    HW117114   2.265   4.114   5.210 -3.1916  4.7140  1.1336
 1827SOL    HW217115   2.178   4.131   5.091 -0.8251  0.5721  0.5932
 1828SOL     OW17116   0.809   2.657  16.632 -0.7645 -0.0693  0.1338
 1828SOL    HW117117   0.747   2.593  16.600 -0.3987 -1.8514  2.9435
 1828SOL    HW217118   0.751   2.724  16.670 -1.5208 -0.9357  0.4853
 1829SOL     OW17119   4.724   2.947   3.161  0.1456  0.1895 -0.0884
 1829SOL    HW117120   4.717   3.011   3.232 -0.2766  0.8424 -0.7022
 1829SOL    HW217121   4.670   2.989   3.093  0.7899  3.1463  1.2226
 1830SOL     OW17122   3.683   2.166  10.506  0.2100 -0.0771 -0.3872
 1830SOL    HW117123   3.707   2.076  10.487 -2.0609 -0.6214 -0.6272
 1830SOL    HW217124   3.656   2.154  10.597  1.5136 -1.1148 -0.1420
 1831SOL     OW17125   3.118   2.125   7.186 -0.1020 -0.2876 -0.0436
 1831SOL    HW117126   3.078   2.096   7.104  0.1824 -0.5473 -0.0877
 1831SOL    HW217127   3.190   2.180   7.154  2.0849 -2.2516  1.6295
 1832SOL     OW17128   2.533   3.733   2.064 -0.0643 -0.0381 -0.3402
 1832SOL    HW117129   2.568   3.659   2.113 -1.3498  0.2553  0.9853
 1832SOL    HW217130   2.457   3.755   2.117 -0.8347  0.2580 -1.5615
 1833SOL     OW17131   0.226   4.425  14.810  0.5250 -0.0135  0.5956
 1833SOL    HW117132   0.244   4.350  14.753  1.5859 -1.0462  2.2574
 1833SOL    HW217133   0.143   4.464  14.784  1.7364  1.5397 -0.9194
 1834SOL     OW17134   4.431   3.664   0.527  0.1065  0.3645  0.4032
 1834SOL    HW117135   4.359   3.726   0.519 -1.0954 -0.8803  1.5699
 1834SOL    HW217136   4.397   3.618   0.604  0.0651  2.9839  1.9591
 1835SOL     OW17137   1.791   2.319   7.794  0.0326 -0.5276 -0.2525
 1835SOL    HW117138   1.824   2.268   7.720  0.9971  0.4453 -0.4912
 1835SOL    HW217139   1.735   2.251   7.832 -2.3817  0.8377 -1.3993
 1836SOL     OW17140   3.076   2.314   4.695 -0.0730  0.4836  1.1423
 1836SOL    HW117141   2.984   2.332   4.715 -0.3383  0.1446  0.2444
 1836SOL    HW217142   3.089   2.232   4.742  1.8129 -1.1579 -2.2120
 1837SOL     OW17143   4.052   3.083   7.600 -0.1681 -0.0483 -0.2507
 1837SOL    HW117144   4.135   3.124   7.623  0.2139 -1.4542  0.8830
 1837SOL    HW217145   3.990   3.156   7.602 -0.7446 -0.6115  1.9425
 1838SOL     OW17146   4.539   4.493   7.256 -0.0392  0.0722  0.0051
 1838SOL    HW117147   4.586   4.514   7.175 -0.5519 -0.4994 -0.4451
 1838SOL    HW217148   4.602   4.513   7.325  2.0139 -1.1801 -1.4976
 1839SOL     OW17149   3.511   0.961   1.174  0.0510  0.3818 -0.7660
 1839SOL    HW117150   3.573   0.891   1.154 -0.6311 -0.3269 -0.3977
 1839SOL    HW217151   3.562   1.021   1.228 -2.9585  1.4901  0.7763
 1840SOL     OW17152   0.444   1.860   9.408 -0.0062 -0.0809  0.2293
 1840SOL    HW117153   0.467   1.888   9.320  0.5149 -2.4434 -0.3872
 1840SOL    HW217154   0.353   1.886   9.420  0.0122 -0.0478  0.3002
 1841SOL     OW17155   3.079   4.613   5.453  0.7535  0.3936  0.4288
 1841SOL    HW117156   3.154   4.667   5.478  0.8824  0.6668 -0.5281
 1841SOL    HW217157   3.112   4.524   5.466 -0.1822  0.0235  0.2173
 1842SOL     OW17158   1.727   4.062   5.113  0.4611 -0.0898 -0.3749
 1842SOL    HW117159   1.675   4.057   5.193  0.7407 -0.6586 -0.2316
 1842SOL    HW217160   1.707   3.979   5.071  1.5077  0.4460 -1.9433
 1843SOL     OW17161   0.491   4.605  17.160 -0.2385  0.0471  0.1507
 1843SOL    HW117162   0.520   4.690  17.192 -0.8735  0.9952 -1.7738
 1843SOL    HW217163   0.573   4.558  17.144 -1.4073 -1.3123 -1.9416
 1844SOL     OW17164   2.524   1.534  13.533  0.0528  0.7967 -0.0870
 1844SOL    HW117165   2.590   1.519  13.601 -0.9154  3.2864  1.3861
 1844SOL    HW217166   2.568   1.511  13.451  1.5186  2.2626  0.2919
 1845SOL     OW17167   0.368   4.446   8.003  0.1462 -0.4698  0.0313
 1845SOL    HW117168   0.392   4.496   7.925  1.1019  0.5563  0.9762
 1845SOL    HW217169   0.411   4.493   8.074  1.4941 -1.7111  0.0531
 1846SOL     OW17170   2.923   2.968  16.260  0.6474  0.4401  0.3961
 1846SOL    HW117171   2.975   2.927  16.192  1.1411  1.4275  0.1694
 1846SOL    HW217172   2.839   2.927  16.238  0.2486 -0.0618  2.9047
 1847SOL     OW17173   0.328   2.469  13.436  0.0563  0.3687 -0.4277
 1847SOL    HW117174   0.285   2.499  13.516  0.5895 -2.7130  1.0155
 1847SOL    HW217175   0.292   2.527  13.369  3.0799 -0.0741 -2.4419
 1848SOL     OW17176   1.974   3.383   2.801 -0.5596 -0.5464 -0.0814
 1848SOL    HW117177   2.030   3.317   2.842  1.7535  1.0414 -0.6918
 1848SOL    HW217178   1.922   3.323   2.747 -1.2881  0.0915 -0.0820
 1849SOL     OW17179   1.884   3.726   3.502  0.3380 -0.0359  0.0287
 1849SOL    HW117180   1.797   3.766   3.497 -0.3510 -1.6238 -0.7568
 1849SOL    HW217181   1.872   3.669   3.578  0.9087 -1.1217 -0.6892
 1850SOL     OW17182   3.971   4.696   5.185  0.4622  0.1252  0.0830
 1850SOL    HW117183   4.004   4.730   5.268  0.7095  0.9357 -0.3418
 1850SOL    HW217184   3.891   0.014   5.180 -0.2619 -0.8832  0.8354
 1851SOL     OW17185   2.385   1.277   8.689 -0.3402  0.2192  0.8907
 1851SOL    HW117186   2.364   1.281   8.782 -0.8542 -3.2515  0.9336
 1851SOL    HW217187   2.465   1.330   8.694  0.0502 -0.2583 -0.3271
 1852SOL     OW17188   0.985   1.775   2.087 -0.0472  0.0863  0.0709
 1852SOL    HW117189   0.892   1.755   2.074  0.0484  0.0901 -0.6080
 1852SOL    HW217190   0.978   1.870   2.099 -1.7940 -0.1681  1.1994
 1853SOL     OW17191   3.442   0.031  10.947  0.2662  0.1985  0.3410
 1853SOL    HW117192   3.379   0.019  10.876 -0.9091  1.0323  1.2437
 1853SOL    HW217193   3.476   0.118  10.923 -2.5937  1.1498 -0.2287
 1854SOL     OW17194   2.486   0.184   1.246 -0.1224  0.0242 -0.0158
 1854SOL    HW117195   2.566   0.179   1.194 -0.7564 -2.3809 -0.7194
 1854SOL    HW217196   2.507   0.131   1.322 -0.7230  0.7993  0.6949
 1855SOL     OW17197   0.833   1.460   2.151  0.2666 -0.0156  0.1916
 1855SOL    HW117198   0.803   1.518   2.080  3.6365  0.1343 -1.1166
 1855SOL    HW217199   0.847   1.512   2.230 -0.8445  1.4542 -0.5960
 1856SOL     OW17200   4.377   4.061   4.132 -0.2271  0.0392  0.0037
 1856SOL    HW117201   4.458   4.049   4.081 -0.5193 -0.5690 -0.3151
 1856SOL    HW217202   4.352   3.970   4.149  0.8913 -0.4205 -0.7511
 1857SOL     OW17203   2.954   1.733   2.650  0.6886  0.0220  0.6043
 1857SOL    HW117204   2.994   1.647   2.632 -0.2715 -0.6691  1.7413
 1857SOL    HW217205   2.961   1.729   2.746 -2.5384 -0.3487  0.7961
 1858SOL     OW17206   1.494   1.030  15.131  0.1789 -0.6817  0.1193
 1858SOL    HW117207   1.564   0.965  15.134  0.7367 -0.0904 -0.1824
 1858SOL    HW217208   1.449   1.035  15.215 -0.1593  1.2809 -0.1794
 1859SOL     OW17209   4.006   3.067   8.201 -0.1331 -0.4730  0.2955
 1859SOL    HW117210   4.025   3.160   8.214  2.1588 -0.8679 -0.1777
 1859SOL    HW217211   3.927   3.081   8.149 -0.2594 -4.7988 -0.6890
 1860SOL     OW17212   1.048   2.148   5.347 -0.1657 -0.1375 -0.1714
 1860SOL    HW117213   1.052   2.056   5.371 -1.6882 -0.3329 -0.6809
 1860SOL    HW217214   1.098   2.177   5.424  2.5399 -1.5220 -1.4134
 1861SOL     OW17215   4.131   1.251  16.730  0.6891 -0.7933  0.3163
 1861SOL    HW117216   4.202   1.298  16.773 -0.3248  1.1812 -0.1758
 1861SOL    HW217217   4.133   1.165  16.773 -0.9058 -2.0606 -2.0929
 1862SOL     OW17218   0.823   1.002   3.888  0.4008 -0.0470  0.6238
 1862SOL    HW117219   0.917   1.013   3.903  0.4662 -1.6592  1.3835
 1862SOL    HW217220   0.783   1.087   3.873  0.6255 -0.2333 -1.0244
 1863SOL     OW17221   2.945   3.426   6.497 -0.8504  0.4318 -0.0036
 1863SOL    HW117222   2.973   3.365   6.566  1.3639 -0.0921 -1.3619
 1863SOL    HW217223   3.011   3.495   6.506  0.4345 -0.8627  0.5415
 1864SOL     OW17224   0.800   0.428   4.474  0.8318  0.3186  0.3190
 1864SOL    HW117225   0.847   0.346   4.461 -0.3609 -0.1941 -0.7705
 1864SOL    HW217226   0.769   0.406   4.562 -1.0097 -0.0262 -0.4183
 1865SOL     OW17227   2.207   2.123   8.642 -0.8105  0.0917  0.1634
 1865SOL    HW117228   2.195   2.109   8.736  1.5757 -0.9780  0.2981
 1865SOL    HW217229   2.127   2.163   8.609  1.2358  2.7054 -1.6256
 1866SOL     OW17230   1.786   1.256   4.045 -0.3727 -0.2076 -0.2717
 1866SOL    HW117231   1.723   1.229   4.112  0.0429 -1.2420 -0.3003
 1866SOL    HW217232   1.750   1.343   4.028 -0.4054 -0.1717 -0.0251
 1867SOL     OW17233   4.067   1.613   8.749 -0.0339 -0.0659  0.3672
 1867SOL    HW117234   4.128   1.630   8.677  0.7994 -2.1454  0.5571
 1867SOL    HW217235   4.138   1.589   8.809  0.1502 -2.8593 -0.9216
 1868SOL     OW17236   1.276   1.131   3.625 -0.1588 -0.4163  0.6318
 1868SOL    HW117237   1.313   1.219   3.637  0.6301 -0.8051  1.0530
 1868SOL    HW217238   1.238   1.135   3.537  0.9422  0.4933  0.2042
 1869SOL     OW17239   2.856   3.977   7.305  0.2583 -0.3042 -0.0435
 1869SOL    HW117240   2.777   4.028   7.286  0.4576  0.1973  0.4793
 1869SOL    HW217241   2.898   4.042   7.361  0.7513 -1.2740  0.7037
 1870SOL     OW17242   3.503   4.452   6.943  0.0922  0.0868  0.1440
 1870SOL    HW117243   3.546   4.523   6.990  0.3814  1.8555 -2.8326
 1870SOL    HW217244   3.480   4.487   6.857 -0.3204 -1.0372 -0.2015
 1871SOL     OW17245   4.687   1.886  14.355 -0.3802 -0.2446 -0.0463
 1871SOL    HW117246   4.715   1.975  14.378  0.5510 -0.4566 -0.3859
 1871SOL    HW217247   0.037   1.844  14.354 -0.7726 -1.0306 -0.5839
 1872SOL     OW17248   3.143   1.160   3.300 -0.1327 -0.2814  0.0762
 1872SOL    HW117249   3.160   1.224   3.369 -1.1757 -0.1729  0.2370
 1872SOL    HW217250   3.217   1.100   3.300 -0.9407 -1.2796  1.9753
 1873SOL     OW17251   1.858   1.766  15.438 -0.4637 -0.1356  0.3803
 1873SOL    HW117252   1.877   1.848  15.394  1.0421 -0.4289  0.4786
 1873SOL    HW217253   1.935   1.746  15.492 -0.1852 -1.2573 -0.4270
 1874SOL     OW17254   1.134   0.239   0.238  0.3137  0.0015  0.2757
 1874SOL    HW117255   1.169   0.252   0.150  1.1320 -2.3497  0.2544
 1874SOL    HW217256   1.049   0.199   0.215  0.1862 -1.8885  4.1056
 1875SOL     OW17257   3.943   4.419   5.740  0.2323 -0.3533 -0.2171
 1875SOL    HW117258   3.893   4.458   5.812  2.7026  2.2955  0.0829
 1875SOL    HW217259   4.025   4.469   5.742 -1.0328  1.7811 -1.9665
 1876SOL     OW17260   3.194   4.488   1.471  0.3252 -0.2553 -0.2712
 1876SOL    HW117261   3.143   4.568   1.480  2.8393  1.5951 -2.8345
 1876SOL    HW217262   3.129   4.421   1.447 -0.7799  0.6768  0.1204
 1877SOL     OW17263   2.931   0.888   2.805  0.1550  0.1692  0.3656
 1877SOL    HW117264   3.021   0.872   2.831  0.4163  0.2009 -0.4998
 1877SOL    HW217265   2.908   0.970   2.848 -2.1370 -1.1716  1.7217
 1878SOL     OW17266   1.201   2.189   6.328  0.2344  0.1049  0.7428
 1878SOL    HW117267   1.108   2.181   6.350  0.0722  0.2055  0.0748
 1878SOL    HW217268   1.208   2.283   6.342 -1.4172  0.0708  1.7737
 1879SOL     OW17269   0.058   1.022  17.112 -0.1737 -0.2807 -0.0519
 1879SOL    HW117270   0.103   1.062  17.038 -2.0450 -2.7211 -2.5338
 1879SOL    HW217271   0.130   0.967  17.144  0.4449  2.4845  3.3157
 1880SOL     OW17272   1.730   1.607   4.987 -0.2841 -0.9810  1.1421
 1880SOL    HW117273   1.670   1.605   4.912 -0.2133 -0.0008  1.0583
 1880SOL    HW217274   1.699   1.684   5.034  2.1298  1.4655 -1.2952
 1881SOL     OW17275   2.665   2.480   4.023  0.2525 -0.7202  0.4646
 1881SOL    HW117276   2.628   2.538   3.956 -0.9648 -2.9631 -0.7868
 1881SOL    HW217277   2.616   2.399   4.008 -2.5260  0.6005  2.3325
 1882SOL     OW17278   2.867   4.520  10.636 -0.6913  0.4762  0.0436
 1882SOL    HW117279   2.873   4.486  10.547 -1.0229 -1.2181  0.6560
 1882SOL    HW217280   2.848   4.611  10.614 -0.7739  0.6338  0.7424
 1883SOL     OW17281   1.868   4.562  11.393  0.1422  0.3224  0.4014
 1883SOL    HW117282   1.807   4.594  11.327  0.3749 -0.3709 -0.1456
 1883SOL    HW217283   1.816   4.569  11.474 -1.9509 -1.8240 -0.7587
 1884SOL     OW17284   0.980   0.457   4.117  0.4387 -0.4359 -0.2124
 1884SOL    HW117285   1.023   0.458   4.203  1.8480 -0.1026 -0.9185
 1884SOL    HW217286   0.896   0.497   4.141  0.8130  0.2345 -0.0146
 1885SOL     OW17287   1.276   3.504   6.151 -0.0024 -0.5024  0.2088
 1885SOL    HW117288   1.337   3.431   6.139 -0.6239 -0.6271 -2.1174
 1885SOL    HW217289   1.329   3.583   6.155  1.6043 -1.4981 -1.4172
 1886SOL     OW17290   3.394   0.449   4.621 -0.2248 -0.4557  0.1004
 1886SOL    HW117291   3.428   0.529   4.582  0.9681  0.4345  2.9704
 1886SOL    HW217292   3.420   0.398   4.544  1.2041  2.0524 -1.0451
 1887SOL     OW17293   0.789   1.856   5.380  0.4385 -0.0502 -0.1609
 1887SOL    HW117294   0.703   1.847   5.421  0.9722 -0.8336  0.7784
 1887SOL    HW217295   0.805   1.949   5.396 -2.8309  0.3265  0.8967
 1888SOL     OW17296   2.440   0.073   9.481  0.1360 -0.3437 -0.2594
 1888SOL    HW117297   2.518   0.022   9.460  0.5668  1.1225 -2.2961
 1888SOL    HW217298   2.375   0.022   9.432  0.3354 -0.8893  0.0469
 1889SOL     OW17299   3.516   3.480  13.665 -0.4476  0.0677 -1.1549
 1889SOL    HW117300   3.454   3.427  13.615 -0.7562  1.8561 -2.6899
 1889SOL    HW217301   3.495   3.446  13.752  1.5585  1.4716 -0.1143
 1890SOL     OW17302   1.841   3.371  14.681 -0.2392 -0.1620  0.1396
 1890SOL    HW117303   1.865   3.378  14.589  0.0490 -0.2613  0.2066
 1890SOL    HW217304   1.925   3.382  14.727 -1.5788  2.4830  1.9519
 1891SOL     OW17305   3.007   4.589   7.938 -0.4672  0.1859 -0.0785
 1891SOL    HW117306   2.964   4.659   7.986 -2.0176 -0.2188 -0.8893
 1891SOL    HW217307   3.052   4.642   7.872 -1.6854  0.8494 -0.3709
 1892SOL     OW17308   2.080   3.452   5.680  0.3198  0.1980  0.0639
 1892SOL    HW117309   2.107   3.485   5.594  0.4993  2.7193  1.0805
 1892SOL    HW217310   2.164   3.430   5.720 -0.4319 -0.9648  1.0321
 1893SOL     OW17311   0.130   3.709   8.310  0.1466 -0.5044 -0.0802
 1893SOL    HW117312   0.170   3.668   8.387  0.6943 -0.8955 -0.5773
 1893SOL    HW217313   0.208   3.752   8.275 -0.3064  0.1995 -0.2297
 1894SOL     OW17314   1.536   1.878   4.091  0.4557 -0.7361 -0.7236
 1894SOL    HW117315   1.580   1.961   4.075 -0.2455 -0.7431 -2.7774
 1894SOL    HW217316   1.601   1.819   4.130 -1.9932 -1.0063  2.8421
 1895SOL     OW17317   2.610   3.929   9.996 -0.1205  0.0741 -0.2325
 1895SOL    HW117318   2.547   3.859   9.981  1.3139 -1.1611 -0.4231
 1895SOL    HW217319   2.689   3.901   9.950 -0.5854  1.6868 -2.0301
 1896SOL     OW17320   2.595   3.289   4.516  0.2989 -0.3937 -0.0652
 1896SOL    HW117321   2.542   3.304   4.594  2.6196  2.4287  0.9557
 1896SOL    HW217322   2.589   3.194   4.511  2.6672 -0.4267 -1.9683
 1897SOL     OW17323   0.573   2.188   2.971  0.3068 -0.3728  0.2387
 1897SOL    HW117324   0.567   2.163   3.063 -1.4143 -1.7748 -0.2607
 1897SOL    HW217325   0.639   2.258   2.972  0.5026 -0.6082  3.2950
 1898SOL     OW17326   0.581   1.366   3.617  0.0753  0.3990 -0.0128
 1898SOL    HW117327   0.630   1.343   3.538  0.1598  0.4941  0.0131
 1898SOL    HW217328   0.509   1.304   3.604 -0.0961  0.6334 -0.1819
 1899SOL     OW17329   1.191   4.465   5.325  0.1344 -0.5928 -0.2129
 1899SOL    HW117330   1.130   4.406   5.369 -1.9734  1.7156 -0.0719
 1899SOL    HW217331   1.250   4.489   5.397  0.0541  1.1677 -0.7377
 1900SOL     OW17332   3.148   1.294   6.676  0.0513 -0.6779 -0.3491
 1900SOL    HW117333   3.137   1.365   6.613 -1.5343 -0.3514  0.2860
 1900SOL    HW217334   3.067   1.307   6.725 -1.1798 -1.4921 -2.1873
 1901SOL     OW17335   1.158   1.728  16.801  0.4019 -0.0331 -0.0875
 1901SOL    HW117336   1.226   1.663  16.782  1.3117  0.7074  0.6019
 1901SOL    HW217337   1.119   1.679  16.873  1.2594  0.0755  0.4535
 1902SOL     OW17338   2.613   3.645   8.130  0.0844 -1.6158 -0.6216
 1902SOL    HW117339   2.573   3.682   8.208 -1.0445  2.6063 -3.2257
 1902SOL    HW217340   2.642   3.723   8.084  0.7186 -1.7902 -0.5173
 1903SOL     OW17341   0.074   1.435   9.048 -0.0191  0.0700  0.7798
 1903SOL    HW117342   0.157   1.442   9.095  2.0466 -0.8510 -2.7750
 1903SOL    HW217343   0.046   1.349   9.081 -0.8316  0.3582  0.8420
 1904SOL     OW17344   0.381   1.558   7.839 -0.1142 -0.0561 -0.5840
 1904SOL    HW117345   0.319   1.486   7.848 -0.0044  0.1637  2.0105
 1904SOL    HW217346   0.435   1.529   7.766  0.5096 -1.7084  0.5344
 1905SOL     OW17347   4.701   3.105   7.993  0.1570  0.3085 -0.3047
 1905SOL    HW117348   0.003   3.035   7.940  0.2187  0.1679 -0.0778
 1905SOL    HW217349   4.610   3.079   7.979  0.7756 -1.1238 -1.7057
 1906SOL     OW17350   3.823   0.268   8.866  0.3886 -0.0013 -0.0646
 1906SOL    HW117351   3.869   0.341   8.909  1.9204 -1.6470  1.0825
 1906SOL    HW217352   3.735   0.286   8.900 -0.1904 -2.1372 -0.4372
 1907SOL     OW17353   2.639   0.023   8.334 -0.3741 -0.5194 -0.0981
 1907SOL    HW117354   2.616   4.689   8.395 -0.1453 -1.5251 -1.1590
 1907SOL    HW217355   2.554   0.032   8.290 -0.2628  2.8221  0.3244
 1908SOL     OW17356   3.144   3.326   5.249  0.5173 -0.0237 -0.2123
 1908SOL    HW117357   3.181   3.410   5.222  0.0786  0.2020 -0.1024
 1908SOL    HW217358   3.108   3.352   5.334  0.8103  0.8439 -0.3592
 1909SOL     OW17359   2.480   0.329  15.844  0.0366  0.2452 -0.1566
 1909SOL    HW117360   2.565   0.365  15.871 -1.1352  1.1789  2.3698
 1909SOL    HW217361   2.430   0.410  15.830  0.4757  0.1958 -1.9479
 1910SOL     OW17362   3.541   0.094   5.662  0.3431 -0.1068 -0.0809
 1910SOL    HW117363   3.547   0.061   5.752 -2.9635 -1.5496 -0.4016
 1910SOL    HW217364   3.567   0.020   5.607 -1.5594 -0.2773 -0.7408
 1911SOL     OW17365   2.178   3.532   2.197 -0.1146  0.6775  0.4715
 1911SOL    HW117366   2.103   3.473   2.185 -0.2460  0.7874  0.7611
 1911SOL    HW217367   2.244   3.467   2.220  0.3835  0.7374 -0.7735
 1912SOL     OW17368   0.449   1.383  10.704 -0.1928  0.0374 -0.1624
 1912SOL    HW117369   0.417   1.421  10.622 -1.5570  1.5678  1.0779
 1912SOL    HW217370   0.426   1.447  10.772 -1.9710 -1.8756  1.0620
 1913SOL     OW17371   4.555   2.286  12.888 -0.4648  0.1543  0.5648
 1913SOL    HW117372   4.540   2.270  12.795 -2.2308  0.0537  0.8618
 1913SOL    HW217373   4.503   2.210  12.916  1.3454 -1.2721  0.0701
 1914SOL     OW17374   0.138   1.327   6.544 -0.3293 -0.3153 -0.2163
 1914SOL    HW117375   0.126   1.350   6.452  1.2960 -0.8934 -0.5595
 1914SOL    HW217376   0.129   1.416   6.578  1.0191  0.1306 -1.0568
 1915SOL     OW17377   3.120   1.790   6.115 -0.5058  0.2457 -0.1245
 1915SOL    HW117378   3.032   1.817   6.088 -0.2437 -0.3253 -1.5628
 1915SOL    HW217379   3.173   1.863   6.082  1.6581 -0.7018  1.2787
 1916SOL     OW17380   4.045   2.925   2.027  0.3061  0.0273  0.2910
 1916SOL    HW117381   4.135   2.922   1.994 -0.4833 -1.7280 -1.6690
 1916SOL    HW217382   4.064   2.926   2.121 -1.9602 -2.0672  0.7426
 1917SOL     OW17383   1.847   1.140   9.342  0.2345  1.0989 -0.2862
 1917SOL    HW117384   1.856   1.196   9.264  0.1239  0.9895 -0.3773
 1917SOL    HW217385   1.759   1.168   9.367  0.9029  0.3149  2.9425
 1918SOL     OW17386   1.970   0.820   9.482  0.2995  0.4260 -0.4693
 1918SOL    HW117387   2.012   0.901   9.452 -2.3705  1.5279 -1.2621
 1918SOL    HW217388   1.900   0.800   9.419 -1.8367  3.4092  0.9383
 1919SOL     OW17389   3.621   0.015   2.884  0.2856  0.6851 -0.2366
 1919SOL    HW117390   3.547   4.690   2.883  0.2745  0.7161 -1.9401
 1919SOL    HW217391   3.691   4.686   2.894  1.4292  1.9983  0.3623
 1920SOL     OW17392   1.753   1.876   7.560 -0.2851 -0.0785  0.2131
 1920SOL    HW117393   1.731   1.823   7.483 -1.1184 -0.7192  0.8902
 1920SOL    HW217394   1.679   1.937   7.562  0.4785  0.8671 -0.0271
 1921SOL     OW17395   0.860   3.181  12.288 -0.1368 -0.2969 -0.3580
 1921SOL    HW117396   0.927   3.249  12.300  0.2163 -0.9649  1.5169
 1921SOL    HW217397   0.816   3.189  12.373  3.1101  0.5193  1.2608
 1922SOL     OW17398   4.446   1.947   1.884 -0.3742 -0.5205 -0.4490
 1922SOL    HW117399   4.480   1.864   1.850  1.5626  0.0244  0.1368
 1922SOL    HW217400   4.417   1.991   1.804 -0.7825  0.0240  0.0033
 1923SOL     OW17401   2.537   2.702   7.715  0.5720 -0.2848 -0.0808
 1923SOL    HW117402   2.532   2.726   7.808  1.0678 -4.1993  0.9335
 1923SOL    HW217403   2.473   2.763   7.677  0.9722  0.8659  1.0613
 1924SOL     OW17404   2.261   1.776   7.413  0.1574 -0.3016 -0.0794
 1924SOL    HW117405   2.324   1.846   7.397  0.0024  0.4957  2.7506
 1924SOL    HW217406   2.262   1.761   7.508 -2.2572 -1.0096 -0.1668
 1925SOL     OW17407   4.564   0.093   4.659  0.0049  0.0394  0.0484
 1925SOL    HW117408   4.595   0.058   4.576  4.0945  0.8299  1.2167
 1925SOL    HW217409   4.486   0.039   4.673 -1.0310  1.4226 -0.3324
 1926SOL     OW17410   0.923   2.163   5.991  0.2158  0.0442  0.4015
 1926SOL    HW117411   0.874   2.113   6.056  0.4289 -0.6115  0.0527
 1926SOL    HW217412   1.012   2.133   6.004  0.7132  0.9321 -1.0129
 1927SOL     OW17413   2.734   3.545  12.895  0.1020 -0.1437 -0.2038
 1927SOL    HW117414   2.701   3.633  12.915  1.7823  0.1180  1.4722
 1927SOL    HW217415   2.764   3.522  12.983  1.2506  0.7068 -0.3787
 1928SOL     OW17416   2.973   0.217   2.033 -0.3817  0.6873 -0.4391
 1928SOL    HW117417   3.047   0.272   2.010  0.3377  0.0194  0.3035
 1928SOL    HW217418   2.979   0.142   1.974 -0.3857 -0.0077  0.4486
 1929SOL     OW17419   4.459   0.715  10.828  0.1726  0.0857 -0.1570
 1929SOL    HW117420   4.506   0.687  10.907 -1.9488 -1.6899  0.4762
 1929SOL    HW217421   4.531   0.756  10.781  0.9655 -0.6374  0.4160
 1930SOL     OW17422   2.765   3.659   8.556 -0.3920 -0.5224  0.0201
 1930SOL    HW117423   2.808   3.723   8.498  1.7719 -2.2936 -0.3240
 1930SOL    HW217424   2.719   3.603   8.494  0.7699  0.3837 -1.6740
 1931SOL     OW17425   0.449   2.271   9.962  0.5792  0.0361 -0.0013
 1931SOL    HW117426   0.394   2.312  10.029 -1.0838 -0.2516 -1.1856
 1931SOL    HW217427   0.379   2.226   9.914  0.2412 -1.9061  2.3421
 1932SOL     OW17428   2.484   3.705   0.787 -0.1217  0.0874  0.1468
 1932SOL    HW117429   2.519   3.777   0.735 -1.5220  0.9165  0.3560
 1932SOL    HW217430   2.425   3.751   0.846  1.2054 -0.4619  1.9146
 1933SOL     OW17431   4.631   1.583   2.720  0.1045 -0.1085 -1.2520
 1933SOL    HW117432   4.655   1.579   2.812  2.1987 -0.3711 -1.7977
 1933SOL    HW217433   4.631   1.679   2.708  1.7095  0.0142 -0.1993
 1934SOL     OW17434   4.185   3.542   9.132 -0.4962 -0.1120  0.4930
 1934SOL    HW117435   4.177   3.573   9.222  0.4311 -2.0123  1.2317
 1934SOL    HW217436   4.267   3.493   9.132 -0.9867 -0.9630 -1.3073
 1935SOL     OW17437   3.992   4.360   6.474  0.4703  0.3097 -0.0487
 1935SOL    HW117438   3.990   4.299   6.549 -2.7235 -0.4425 -0.7575
 1935SOL    HW217439   4.011   4.300   6.403  1.7730 -1.4621  1.7788
 1936SOL     OW17440   4.545   1.868   7.098  0.2925 -0.1714 -0.2725
 1936SOL    HW117441   4.469   1.847   7.152  0.0717 -1.7881 -1.1874
 1936SOL    HW217442   4.613   1.847   7.162 -1.4930  0.5261  1.8616
 1937SOL     OW17443   4.031   3.598   0.575  0.2099  0.0481  0.7088
 1937SOL    HW117444   4.054   3.539   0.647  0.0370 -0.9335 -0.0460
 1937SOL    HW217445   3.937   3.612   0.584  0.2541  1.3547 -0.9562
 1938SOL     OW17446   3.561   4.732   5.946  0.1954  0.8951  0.0605
 1938SOL    HW117447   3.496   4.698   6.009  1.7800 -0.2467  1.0762
 1938SOL    HW217448   3.640   4.709   5.995 -0.1193  0.7101  0.4821
 1939SOL     OW17449   1.465   0.268  15.640 -0.4922 -0.4477  0.3562
 1939SOL    HW117450   1.481   0.186  15.594  0.1265 -1.1667  1.8420
 1939SOL    HW217451   1.404   0.307  15.578  0.8035  0.8792 -0.0883
 1940SOL     OW17452   3.879   1.785   8.059 -0.1003  0.3658  0.2230
 1940SOL    HW117453   3.893   1.802   7.965 -1.6528  0.1105 -0.0472
 1940SOL    HW217454   3.972   1.776   8.080  0.5728  2.1089 -1.9352
 1941SOL     OW17455   1.184   4.558   1.985  0.0178  0.1057  0.5219
 1941SOL    HW117456   1.235   4.606   1.919 -0.9654  1.4462  0.7380
 1941SOL    HW217457   1.240   4.484   2.007  0.6269  0.4547  0.1774
 1942SOL     OW17458   2.420   4.136   1.795  0.5665 -0.4178  0.3429
 1942SOL    HW117459   2.429   4.145   1.700 -0.7672  0.3744  0.2784
 1942SOL    HW217460   2.512   4.123   1.817  0.8703  1.7310  0.3759
 1943SOL     OW17461   4.685   0.463   4.127 -0.1415 -0.1983 -0.7502
 1943SOL    HW117462   0.029   0.497   4.086 -0.1378  0.8641  0.1299
 1943SOL    HW217463   4.619   0.532   4.111  0.2628  0.2000 -0.7001
 1944SOL     OW17464   1.645   0.021   2.787  0.0035 -0.4835 -0.1367
 1944SOL    HW117465   1.669   0.081   2.858  0.0546  0.2994 -0.8176
 1944SOL    HW217466   1.726   0.031   2.736  0.5892  0.3374  0.9392
 1945SOL     OW17467   2.277   1.056  13.224 -0.2413 -0.1032 -0.0086
 1945SOL    HW117468   2.319   0.980  13.185  0.0380 -0.2654  0.6197
 1945SOL    HW217469   2.241   1.019  13.305 -0.4592  0.5961  0.2160
 1946SOL     OW17470   2.420   2.426   4.436  0.3321 -0.4646  0.1001
 1946SOL    HW117471   2.329   2.442   4.459  0.7090 -0.2628  1.4401
 1946SOL    HW217472   2.406   2.391   4.348  1.2372 -0.5370 -0.0249
 1947SOL     OW17473   2.862   3.124   8.716  0.1837  0.3249  0.0796
 1947SOL    HW117474   2.886   3.208   8.676 -0.7879 -0.6865 -2.5959
 1947SOL    HW217475   2.929   3.117   8.784 -1.1420  0.0869  1.3784
 1948SOL     OW17476   3.133   0.361   5.470 -0.3241 -0.4632 -0.3191
 1948SOL    HW117477   3.131   0.273   5.434 -0.1126 -0.6359  0.0961
 1948SOL    HW217478   3.059   0.397   5.421 -0.2738 -1.6031 -1.2244
 1949SOL     OW17479   1.915   0.290   6.363 -0.1481  0.3271  0.2541
 1949SOL    HW117480   1.960   0.375   6.372  1.3675 -0.4550  0.1914
 1949SOL    HW217481   1.955   0.242   6.436 -0.6453  1.5719  1.3498
 1950SOL     OW17482   0.342   3.810   1.716 -0.4717  0.4061 -0.2707
 1950SOL    HW117483   0.276   3.874   1.745 -0.5457 -0.7518  2.1042
 1950SOL    HW217484   0.425   3.827   1.762  0.2096  2.1119 -2.1346
 1951SOL     OW17485   4.074   0.298   4.008 -0.0068  0.7238  0.4846
 1951SOL    HW117486   3.990   0.297   4.054 -0.8922 -1.1930 -1.1805
 1951SOL    HW217487   4.119   0.366   4.058  2.4497  0.7502 -1.7662
 1952SOL     OW17488   4.442   2.756  15.740  0.1482 -0.1749  0.0490
 1952SOL    HW117489   4.509   2.690  15.725  0.1434 -0.2290  0.2587
 1952SOL    HW217490   4.378   2.750  15.669  1.2536  2.4332 -1.1456
 1953SOL     OW17491   3.312   1.819  12.495  0.9464 -0.6690  0.0106
 1953SOL    HW117492   3.315   1.734  12.537 -2.4576 -0.9196 -0.2213
 1953SOL    HW217493   3.391   1.799  12.444  1.3502  0.3623  0.2307
 1954SOL     OW17494   1.519   2.887   5.210  0.2086  0.5838  0.2755
 1954SOL    HW117495   1.442   2.922   5.166  0.0764 -0.4242 -0.3026
 1954SOL    HW217496   1.482   2.823   5.270 -1.1372  1.5151  0.4524
 1955SOL     OW17497   3.734   1.107   6.228  0.0676 -0.2501 -0.1583
 1955SOL    HW117498   3.796   1.068   6.167  0.4139 -1.8790  1.2126
 1955SOL    HW217499   3.789   1.177   6.265  0.2015 -0.4317 -0.0124
 1956SOL     OW17500   4.569   4.613  13.407 -0.0932 -0.5860  0.4497
 1956SOL    HW117501   4.565   4.703  13.377  1.5677 -0.8454 -0.5246
 1956SOL    HW217502   4.514   4.571  13.342  0.0933 -1.2380  0.7074
 1957SOL     OW17503   3.495   1.640   9.134  0.1839 -0.6787 -0.0925
 1957SOL    HW117504   3.535   1.647   9.047 -2.8236  1.5656 -1.3225
 1957SOL    HW217505   3.412   1.599   9.107  1.5282 -1.5689 -2.8541
 1958SOL     OW17506   1.289   2.943   7.869 -0.2988 -0.3619 -0.3143
 1958SOL    HW117507   1.207   2.933   7.821  0.0094  3.7215 -1.6462
 1958SOL    HW217508   1.319   2.853   7.855 -0.6261 -0.1342 -2.4542
 1959SOL     OW17509   1.271   4.296   1.645 -0.2100 -0.5717  0.7606
 1959SOL    HW117510   1.284   4.207   1.677  0.7165 -1.9923 -3.5296
 1959SOL    HW217511   1.333   4.330   1.709  1.8611  0.2823 -1.6998
 1960SOL     OW17512   1.034   1.330   4.233  0.1450 -0.5191  0.0191
 1960SOL    HW117513   0.947   1.331   4.272 -0.0417  0.9184 -0.4600
 1960SOL    HW217514   1.013   1.384   4.157  0.1119  0.3884  0.6839
 1961SOL     OW17515   1.269   1.976  16.446  0.3475  0.0090  0.2675
 1961SOL    HW117516   1.228   2.045  16.394  0.7362 -0.5732 -0.8146
 1961SOL    HW217517   1.336   1.940  16.387  1.3337  2.1071  0.0947
 1962SOL     OW17518   1.412   0.495  15.976  0.1492  0.2236  0.6195
 1962SOL    HW117519   1.401   0.503  16.071  0.4956  2.0867  0.4934
 1962SOL    HW217520   1.376   0.407  15.965  0.3693  0.5172 -2.2335
 1963SOL     OW17521   0.689   1.050   6.659  0.7007 -0.9828  0.5548
 1963SOL    HW117522   0.654   1.136   6.681  0.4516 -1.1029  0.6365
 1963SOL    HW217523   0.627   0.993   6.705 -0.9137  1.6063  1.5520
 1964SOL     OW17524   0.473   1.397  15.310 -0.6570 -0.0905 -0.2400
 1964SOL    HW117525   0.464   1.484  15.271 -3.0546 -1.5732 -3.0280
 1964SOL    HW217526   0.549   1.412  15.367  0.8080  1.0386 -2.5242
 1965SOL     OW17527   3.252   0.199   6.429 -0.2967  0.2495 -0.5089
 1965SOL    HW117528   3.250   0.172   6.521  1.5394  2.7023  0.2430
 1965SOL    HW217529   3.258   0.111   6.392  0.3079 -0.7049  1.8552
 1966SOL     OW17530   3.102   0.292   2.344 -0.9306  0.1162  0.2418
 1966SOL    HW117531   3.036   0.360   2.354  0.1655  1.3510 -0.9514
 1966SOL    HW217532   3.054   0.229   2.291  0.1610  0.3602 -1.0258
 1967SOL     OW17533   3.897   4.059   6.971  0.5166  0.1184  0.0389
 1967SOL    HW117534   3.810   4.090   6.944  0.5409 -1.6982 -2.1881
 1967SOL    HW217535   3.932   4.006   6.898 -1.2573 -1.1655  0.1236
 1968SOL     OW17536   0.560   0.811   2.892 -0.6360  0.2533  0.0656
 1968SOL    HW117537   0.649   0.788   2.919  0.5802  1.7198 -2.6889
 1968SOL    HW217538   0.503   0.743   2.929 -0.0178 -1.0769 -1.3789
 1969SOL     OW17539   0.180   3.994   9.161  0.7942  0.5216 -0.1361
 1969SOL    HW117540   0.091   3.959   9.169  1.5130 -1.2031  0.2757
 1969SOL    HW217541   0.220   3.968   9.244 -0.4691 -1.7044 -0.2303
 1970SOL     OW17542   4.192   0.702   7.050 -0.5089 -0.3006 -0.4217
 1970SOL    HW117543   4.169   0.669   7.137 -2.0004  0.3263 -0.5798
 1970SOL    HW217544   4.120   0.667   6.997  0.6531  1.4424 -3.1193
 1971SOL     OW17545   3.140   2.497   6.810  0.0367  0.5037  0.6126
 1971SOL    HW117546   3.046   2.506   6.826  0.2672  0.2519  2.1890
 1971SOL    HW217547   3.141   2.422   6.751  0.7019 -0.6389  2.0557
 1972SOL     OW17548   2.347   4.382   5.094 -0.0086 -0.3226  0.4400
 1972SOL    HW117549   2.440   4.364   5.106  0.0091  0.1484  0.9691
 1972SOL    HW217550   2.312   4.295   5.117  1.6191 -1.1557 -0.2100
 1973SOL     OW17551   1.679   4.659  14.568  0.0774 -0.1074 -0.5558
 1973SOL    HW117552   1.652   4.624  14.483 -2.4661  0.5779 -0.0239
 1973SOL    HW217553   1.671   4.573  14.609  1.7613  0.6105  1.2672
 1974SOL     OW17554   4.439   1.298   7.681  0.0811 -0.2019  0.6764
 1974SOL    HW117555   4.527   1.291   7.644 -1.5028 -2.2854 -2.6826
 1974SOL    HW217556   4.428   1.392   7.662 -0.1693 -0.4650 -0.5081
 1975SOL     OW17557   0.861   1.543   4.679 -0.2377  0.0078  0.1955
 1975SOL    HW117558   0.836   1.493   4.757  0.0492 -0.3107  0.0832
 1975SOL    HW217559   0.783   1.562   4.628  0.6012  1.1139 -0.6461
 1976SOL     OW17560   3.071   0.185   2.846 -0.2715 -0.3982 -0.3630
 1976SOL    HW117561   3.095   0.124   2.777  2.2020  3.2559 -2.6880
 1976SOL    HW217562   2.976   0.174   2.839 -0.5831  1.8699  0.1839
 1977SOL     OW17563   1.988   1.817   7.654 -0.7063 -0.6701  0.0937
 1977SOL    HW117564   1.960   1.847   7.741  0.3371  2.1013 -0.5398
 1977SOL    HW217565   1.906   1.826   7.604  0.1315 -1.7629 -1.4751
 1978SOL     OW17566   1.244   3.116   3.394 -0.3302 -0.2387 -0.5334
 1978SOL    HW117567   1.337   3.097   3.392 -0.3128 -0.3426  2.5321
 1978SOL    HW217568   1.236   3.208   3.418  1.1713 -0.5443  1.1011
 1979SOL     OW17569   4.658   1.466  11.123  0.0035  0.1737 -0.4032
 1979SOL    HW117570   4.582   1.509  11.161 -1.5652 -2.2388 -0.8070
 1979SOL    HW217571   4.707   1.444  11.202 -2.2536  0.7562  1.1277
 1980SOL     OW17572   1.245   1.682  12.758 -0.0722  0.1485  0.5389
 1980SOL    HW117573   1.254   1.595  12.717 -2.5033 -0.8070  2.0615
 1980SOL    HW217574   1.252   1.734  12.678  3.1402 -0.3215  0.5001
 1981SOL     OW17575   1.810   4.270   7.018 -0.2314  0.5079 -0.6888
 1981SOL    HW117576   1.834   4.178   7.007  0.6608  0.7386 -0.6711
 1981SOL    HW217577   1.777   4.293   6.931  5.5438  0.3301 -2.9262
 1982SOL     OW17578   4.708   4.095   3.332 -0.2710 -0.3706 -0.2744
 1982SOL    HW117579   4.705   4.159   3.403 -0.8850 -1.0857  0.3595
 1982SOL    HW217580   4.678   4.146   3.257  1.2378 -0.8295 -1.1976
 1983SOL     OW17581   0.443   1.185   4.501  1.0413 -0.2451  0.1794
 1983SOL    HW117582   0.392   1.213   4.577  0.5755 -0.0816 -0.2021
 1983SOL    HW217583   0.436   1.090   4.508  0.0733 -0.1812 -0.0705
 1984SOL     OW17584   4.675   3.862  15.120  0.1004 -0.0755 -0.1311
 1984SOL    HW117585   4.658   3.820  15.205  0.1276  0.6279  0.2220
 1984SOL    HW217586   4.614   3.936  15.120  0.5397  0.2876 -1.9036
 1985SOL     OW17587   1.897   3.979   4.818 -0.9025 -0.3249  0.9470
 1985SOL    HW117588   1.961   3.909   4.804  0.6457  0.8459  2.1386
 1985SOL    HW217589   1.817   3.928   4.806 -1.9131  1.8088 -1.5413
 1986SOL     OW17590   0.821   1.223   4.396 -0.5816 -0.8379  0.4137
 1986SOL    HW117591   0.774   1.147   4.363  1.3353 -1.8345  0.0050
 1986SOL    HW217592   0.896   1.187   4.442  0.0992 -0.1384 -0.1466
 1987SOL     OW17593   2.151   0.723   6.224  0.4996 -0.3295 -0.1697
 1987SOL    HW117594   2.222   0.681   6.273 -0.7035 -0.6792  1.2692
 1987SOL    HW217595   2.191   0.738   6.138  0.5859  1.5399  0.2025
 1988SOL     OW17596   1.555   1.439   7.512 -0.0593 -0.1473 -0.5087
 1988SOL    HW117597   1.623   1.476   7.568  0.4487 -0.9307 -0.6073
 1988SOL    HW217598   1.474   1.467   7.556 -0.8310 -1.0894 -1.3328
 1989SOL     OW17599   4.688   3.947   3.731  0.5834 -0.6696 -0.2766
 1989SOL    HW117600   4.667   3.916   3.643  0.5979  1.2256 -0.9534
 1989SOL    HW217601   0.025   3.886   3.747 -0.6605 -2.0037  0.2329
 1990SOL     OW17602   1.237   0.489   5.178 -0.5588 -0.0403  0.2893
 1990SOL    HW117603   1.300   0.532   5.121 -0.3578 -0.0706  0.4897
 1990SOL    HW217604   1.244   0.548   5.253 -1.4112 -0.7177  0.9061
 1991SOL     OW17605   3.809   0.284  16.905  0.3847 -0.0672  0.1883
 1991SOL    HW117606   3.884   0.331  16.944  0.2411 -0.2143  0.6462
 1991SOL    HW217607   3.841   0.195  16.895  0.7280  0.1624 -0.7418
 1992SOL     OW17608   4.481   3.323  12.882  0.2279  0.8471  0.2052
 1992SOL    HW117609   4.415   3.326  12.951 -3.0771  1.8297 -3.0046
 1992SOL    HW217610   4.499   3.415  12.862  1.3271  0.4243 -0.7569
 1993SOL     OW17611   0.166   0.777   9.876  0.4725 -0.9108 -0.0001
 1993SOL    HW117612   0.153   0.724   9.955 -0.3181 -0.2966  0.2812
 1993SOL    HW217613   0.225   0.726   9.820  2.5787  2.5642 -0.9584
 1994SOL     OW17614   3.866   3.411   4.551 -0.4852 -0.0587  0.6639
 1994SOL    HW117615   3.796   3.475   4.561  0.5989  1.3338 -0.4834
 1994SOL    HW217616   3.816   3.331   4.564 -1.0970  0.5050  1.7484
 1995SOL     OW17617   1.122   4.176  14.037 -0.5399 -0.4020 -0.5406
 1995SOL    HW117618   1.105   4.176  13.943  2.2400 -0.9874 -1.0255
 1995SOL    HW217619   1.196   4.117  14.043  0.2373  0.7988  1.6002
 1996SOL     OW17620   2.379   0.331  16.985  0.7962  0.2462  0.7325
 1996SOL    HW117621   2.440   0.296  16.920 -0.5683  1.1138 -1.0235
 1996SOL    HW217622   2.429   0.324  17.067  1.4442  0.1752  0.3326
 1997SOL     OW17623   4.020   0.033   7.996 -0.5311 -0.5375 -0.0654
 1997SOL    HW117624   3.938   4.720   7.986  1.2707 -3.6547  0.3729
 1997SOL    HW217625   4.067   0.002   7.919  1.2023  0.1136  0.7498
 1998SOL     OW17626   2.659   0.160   1.034 -0.8155 -0.0600 -0.2867
 1998SOL    HW117627   2.753   0.175   1.045 -0.7228 -1.1286  0.3357
 1998SOL    HW217628   2.667   0.112   0.952  0.6546 -0.3664  0.0413
 1999SOL     OW17629   4.679   1.958   3.379 -0.0022  0.1914 -0.8538
 1999SOL    HW117630   4.585   1.946   3.389  0.0486 -1.6116 -2.6617
 1999SOL    HW217631   4.702   1.887   3.438 -0.3002  2.0620  1.5367
 2000SOL     OW17632   1.229   0.232  14.325 -0.3732 -0.6970 -0.3773
 2000SOL    HW117633   1.181   0.233  14.407 -1.8486 -2.6170 -1.2088
 2000SOL    HW217634   1.311   0.276  14.348  0.5948 -1.0756 -3.0386
 2001SOL     OW17635   1.961   0.759  10.961  0.2239 -0.8037  0.2995
 2001SOL    HW117636   1.877   0.723  10.933 -1.7145  3.2014  0.8740
 2001SOL    HW217637   1.928   0.804  11.039 -1.0068  2.3854 -2.0363
 2002SOL     OW17638   0.946   0.774   4.214  0.8118 -0.4442  0.8077
 2002SOL    HW117639   0.902   0.849   4.175 -1.7543 -2.9227 -1.0210
 2002SOL    HW217640   0.882   0.703   4.217  1.2179 -0.7402  2.7782
 2003SOL     OW17641   1.826   1.532  16.029  0.1442  0.1448  0.1560
 2003SOL    HW117642   1.810   1.552  15.937 -2.1116  0.3101  0.5943
 2003SOL    HW217643   1.746   1.483  16.041  0.7034 -0.8507 -0.2362
 2004SOL     OW17644   1.884   2.892   2.902  0.0359 -0.1328 -0.1712
 2004SOL    HW117645   1.834   2.815   2.872 -0.4908 -0.2856  1.0826
 2004SOL    HW217646   1.823   2.965   2.898 -0.7764 -0.9231 -2.2565
 2005SOL     OW17647   0.086   2.422   3.097  0.5702  0.2285 -0.4695
 2005SOL    HW117648   0.027   2.491   3.066 -0.1033  0.6580  1.7833
 2005SOL    HW217649   0.136   2.398   3.019  0.2015 -1.0856 -0.2869
 2006SOL     OW17650   3.516   2.392   6.773  0.0771  0.0186  0.2085
 2006SOL    HW117651   3.606   2.361   6.765 -1.0057 -2.5646 -1.9410
 2006SOL    HW217652   3.516   2.418   6.865 -1.0087 -0.3779  0.3171
 2007SOL     OW17653   4.354   3.291   2.073  0.9463  0.2560 -0.3265
 2007SOL    HW117654   4.427   3.230   2.062  1.3795  0.6571  0.3602
 2007SOL    HW217655   4.287   3.223   2.084  0.6310  0.5120 -0.6815
 2008SOL     OW17656   4.456   2.488   0.560 -0.3485  0.3550 -0.4487
 2008SOL    HW117657   4.500   2.409   0.590  1.3186  1.9688  1.4088
 2008SOL    HW217658   4.431   2.533   0.641  1.6006  2.0039 -0.7722
 2009SOL     OW17659   0.305   3.737  12.373 -0.0389 -0.3488  0.5570
 2009SOL    HW117660   0.398   3.751  12.391 -0.2518 -1.8130  2.7591
 2009SOL    HW217661   0.265   3.821  12.395  0.5532  0.3418 -1.0199
 2010SOL     OW17662   2.465   1.525   7.689 -0.0624  0.2829  0.1823
 2010SOL    HW117663   2.511   1.606   7.708 -1.3294  1.0650 -0.1306
 2010SOL    HW217664   2.463   1.526   7.593 -0.3482  0.1876  0.1890
 2011SOL     OW17665   4.030   4.497   8.651  0.4957  0.3369 -0.1171
 2011SOL    HW117666   4.035   4.574   8.595  0.6552  0.0299 -0.5205
 2011SOL    HW217667   4.116   4.456   8.641  0.1721 -0.2368 -0.4910
 2012SOL     OW17668   2.741   2.901   9.445 -0.6778  0.2343 -0.2875
 2012SOL    HW117669   2.732   2.974   9.506 -0.6541  0.0305 -0.0396
 2012SOL    HW217670   2.668   2.918   9.386 -0.8545  0.6377  0.0440
 2013SOL     OW17671   0.282   1.826   8.435 -0.1169  0.1908  0.6101
 2013SOL    HW117672   0.218   1.897   8.443 -0.8252 -0.4156  0.4065
 2013SOL    HW217673   0.230   1.746   8.441  0.3841 -0.1561  0.2798
 2014SOL     OW17674   2.278   1.303   5.278  0.1934  0.0575  0.4221
 2014SOL    HW117675   2.371   1.321   5.296 -0.1771  0.8119  1.6432
 2014SOL    HW217676   2.246   1.393   5.284  2.4673  0.9205 -0.2171
 2015SOL     OW17677   1.381   4.729   7.342  0.3460 -0.4351  0.1224
 2015SOL    HW117678   1.461   0.039   7.314  0.1152  0.1373  0.3932
 2015SOL    HW217679   1.368   4.673   7.266  1.2183 -1.6475  0.8679
 2016SOL     OW17680   4.207   2.972   1.056 -0.1033 -0.2720  0.4095
 2016SOL    HW117681   4.168   2.921   0.984 -0.0933 -0.5350  0.5890
 2016SOL    HW217682   4.128   2.998   1.102 -0.6438 -1.0510 -0.0580
 2017SOL     OW17683   2.748   4.720   2.624 -0.1059 -0.6908  0.1175
 2017SOL    HW117684   2.742   0.047   2.552 -0.2963  0.8075  1.4370
 2017SOL    HW217685   2.662   4.677   2.625  0.4536 -1.8046 -0.7758
 2018SOL     OW17686   1.779   0.283   2.476  0.3020 -0.1324  0.1631
 2018SOL    HW117687   1.736   0.355   2.522  0.8509  0.8097 -0.8002
 2018SOL    HW217688   1.734   0.206   2.510 -0.2450 -0.0859 -0.4459
 2019SOL     OW17689   2.662   1.255  15.373 -0.0799 -0.3466  0.4081
 2019SOL    HW117690   2.691   1.301  15.452 -2.2352  1.0057  0.4092
 2019SOL    HW217691   2.567   1.256  15.382 -0.3229  0.5182 -2.2116
 2020SOL     OW17692   2.610   0.221  16.901 -0.2539 -0.1227 -0.0079
 2020SOL    HW117693   2.641   0.229  16.811  1.0647  0.1490  0.4709
 2020SOL    HW217694   2.654   0.277  16.965 -0.1325  0.2935 -0.4550
 2021SOL     OW17695   3.672   1.675   8.182  0.3406 -0.2250 -0.3521
 2021SOL    HW117696   3.738   1.705   8.120  1.5200 -1.6084  0.2508
 2021SOL    HW217697   3.603   1.657   8.118 -1.0557  1.9254  0.5393
 2022SOL     OW17698   4.022   2.028   8.860 -0.3226 -0.9748 -0.3401
 2022SOL    HW117699   4.112   2.051   8.884 -1.0360  1.0690  0.4222
 2022SOL    HW217700   3.992   2.114   8.833 -0.5824 -0.5502  1.2765
 2023SOL     OW17701   2.069   1.252   0.236  0.3056  0.0621  0.0509
 2023SOL    HW117702   2.159   1.267   0.208  0.6100 -1.3442  0.3008
 2023SOL    HW217703   2.028   1.319   0.181  0.2150 -0.4597 -0.5133
 2024SOL     OW17704   4.085   4.539   2.635  0.3237 -0.1331  1.1161
 2024SOL    HW117705   4.142   4.611   2.611 -1.3017  0.7271 -0.1421
 2024SOL    HW217706   4.045   4.568   2.716  1.0383 -2.8527  2.4418
 2025SOL     OW17707   2.655   3.012  11.764  0.0066  0.4207  0.7807
 2025SOL    HW117708   2.576   3.041  11.718 -0.8480 -2.4013  0.4740
 2025SOL    HW217709   2.621   2.971  11.843  1.3034  0.0817  1.1640
 2026SOL     OW17710   3.102   0.843   0.637 -0.3771 -0.3500  0.2751
 2026SOL    HW117711   3.138   0.925   0.602  0.9814 -0.2790  1.8235
 2026SOL    HW217712   3.169   0.782   0.606  0.0128  1.4814 -2.5018
 2027SOL     OW17713   4.725   2.471   5.849  0.2046  0.4752  0.3746
 2027SOL    HW117714   4.639   2.476   5.892  0.7404 -0.3279  1.5684
 2027SOL    HW217715   4.687   2.472   5.761  0.3891 -0.0058  0.2889
 2028SOL     OW17716   4.701   2.394   4.076  0.8869  0.4431 -0.3803
 2028SOL    HW117717   4.731   2.328   4.014 -2.4251 -1.2777 -0.2008
 2028SOL    HW217718   4.610   2.364   4.076  0.7447  0.8655  0.8794
 2029SOL     OW17719   0.247   3.994  12.383 -0.6342 -0.0663 -0.2768
 2029SOL    HW117720   0.161   3.985  12.423 -1.1284  2.5628 -0.7710
 2029SOL    HW217721   0.250   4.087  12.360  1.4575 -0.4977 -1.7443
 2030SOL     OW17722   0.524   1.960   8.533  0.5098  0.0336  0.0723
 2030SOL    HW117723   0.485   1.874   8.518 -0.6466  0.4992  0.4366
 2030SOL    HW217724   0.607   1.935   8.575  1.7271  3.4256 -0.3099
 2031SOL     OW17725   1.403   1.804   8.057  0.0573  0.3796 -0.0515
 2031SOL    HW117726   1.381   1.714   8.084 -2.1564  1.0480  0.3942
 2031SOL    HW217727   1.395   1.797   7.962  0.8440  1.0411 -0.1621
 2032SOL     OW17728   0.336   4.428  15.776  0.2134  0.1635 -0.1576
 2032SOL    HW117729   0.253   4.379  15.782  0.0883  0.3661 -0.2427
 2032SOL    HW217730   0.382   4.380  15.845  0.5368  0.1498 -0.3822
 2033SOL     OW17731   4.561   3.560  11.630 -0.0608 -0.0428  1.0430
 2033SOL    HW117732   4.512   3.641  11.642 -0.9576 -0.3260 -0.7482
 2033SOL    HW217733   4.485   3.502  11.634 -0.1484 -0.0416 -0.9951
 2034SOL     OW17734   1.306   1.006   5.086  0.5881  0.2038 -0.0577
 2034SOL    HW117735   1.371   1.076   5.092 -1.1814  2.0068 -1.6614
 2034SOL    HW217736   1.288   0.987   5.178  0.6234  4.0560  0.7294
 2035SOL     OW17737   0.584   2.213   8.595 -0.2908 -0.2564 -0.3828
 2035SOL    HW117738   0.535   2.259   8.526 -1.0888 -1.9804 -0.9440
 2035SOL    HW217739   0.560   2.122   8.578  1.9283 -0.5775 -1.8302
 2036SOL     OW17740   4.561   2.367  15.080  0.1369  0.2353 -0.3094
 2036SOL    HW117741   4.526   2.434  15.021 -0.5216 -1.0626 -1.3899
 2036SOL    HW217742   4.490   2.365  15.144  1.2363  3.6277  1.0185
 2037SOL     OW17743   2.072   4.717   7.264 -0.0740 -0.3987  0.8709
 2037SOL    HW117744   1.978   4.734   7.263 -0.2576 -1.3445  2.4710
 2037SOL    HW217745   2.067   4.632   7.308  3.2375 -1.2058 -0.3536
 2038SOL     OW17746   4.692   1.606  15.336 -0.1492  0.1106  0.1328
 2038SOL    HW117747   0.005   1.688  15.329 -0.7480  0.6387  2.1576
 2038SOL    HW217748   4.607   1.636  15.304  0.1797  1.6375  0.6998
 2039SOL     OW17749   1.997   4.208   5.398 -0.0282 -0.1620 -0.1172
 2039SOL    HW117750   2.083   4.250   5.402  0.8199 -2.0500  1.0175
 2039SOL    HW217751   1.941   4.286   5.398  1.8938  1.2291 -0.3648
 2040SOL     OW17752   4.365   4.709  11.619 -0.0215 -0.3161  0.4103
 2040SOL    HW117753   4.344   4.638  11.679  0.2431  0.2491  1.1685
 2040SOL    HW217754   4.402   0.038  11.679 -1.3335  0.8118 -0.0158
 2041SOL     OW17755   2.319   2.272  14.430 -0.0564  0.0069 -0.2516
 2041SOL    HW117756   2.311   2.184  14.396 -0.3067 -0.1753  0.2827
 2041SOL    HW217757   2.354   2.324  14.358 -1.8133 -1.6360 -2.2682
 2042SOL     OW17758   4.102   0.001   8.543  0.2186  0.2390 -0.1186
 2042SOL    HW117759   4.052   0.064   8.594  1.7798  1.3144  0.0949
 2042SOL    HW217760   4.095   0.043   8.458  0.2947 -1.2347 -0.8593
 2043SOL     OW17761   0.378   0.001  12.449  0.4910 -0.4546  0.3531
 2043SOL    HW117762   0.423   4.662  12.488  1.1243 -0.5421 -0.5480
 2043SOL    HW217763   0.287   4.716  12.473 -0.3820 -0.2850 -2.8087
 2044SOL     OW17764   3.428   2.499   4.992 -0.1674 -0.4158 -0.4946
 2044SOL    HW117765   3.515   2.540   4.997 -0.2541 -0.4949  1.6942
 2044SOL    HW217766   3.444   2.405   4.997  0.4447 -0.2880 -0.0212
 2045SOL     OW17767   2.920   2.446   5.701  0.5046  0.2919 -0.7719
 2045SOL    HW117768   2.862   2.523   5.700 -0.7012 -0.5905  1.7915
 2045SOL    HW217769   2.981   2.478   5.768  0.0136  1.1958 -0.7582
 2046SOL     OW17770   2.688   0.483   3.470  0.1658  0.1018  0.3845
 2046SOL    HW117771   2.715   0.522   3.387  0.6881  0.1154  0.5594
 2046SOL    HW217772   2.600   0.456   3.443  0.6509  1.0073 -2.1036
 2047SOL     OW17773   0.147   3.359   2.436  1.0932  0.1833 -0.2905
 2047SOL    HW117774   0.132   3.387   2.346 -1.4411 -1.1587 -0.2758
 2047SOL    HW217775   0.229   3.405   2.456  1.6976 -1.3337  0.7377
 2048SOL     OW17776   1.170   0.213  12.679  0.5135 -0.1511 -0.1431
 2048SOL    HW117777   1.142   0.136  12.729 -1.1565  0.8676  0.4959
 2048SOL    HW217778   1.260   0.184  12.663  0.1446 -1.3025 -0.1556
 2049SOL     OW17779   1.200   1.629   4.008  0.5785  0.0462 -0.2092
 2049SOL    HW117780   1.196   1.618   3.913 -0.8234 -0.6580 -0.0769
 2049SOL    HW217781   1.126   1.571   4.028 -0.4352  0.4975 -2.6413
 2050SOL     OW17782   3.304   3.903  13.490 -0.5755  0.3280  0.2132
 2050SOL    HW117783   3.226   3.859  13.455 -0.3872  1.1513 -1.2525
 2050SOL    HW217784   3.322   3.856  13.571 -0.3899 -1.4469 -0.8678
 2051SOL     OW17785   1.488   4.427  13.842 -0.4729 -0.1534 -0.0002
 2051SOL    HW117786   1.518   4.482  13.914  1.4850 -2.2674  0.7694
 2051SOL    HW217787   1.516   4.476  13.764 -1.6431  1.9574  0.8871
 2052SOL     OW17788   4.245   0.291   3.763  0.2567 -1.0647  0.5040
 2052SOL    HW117789   4.298   0.290   3.842 -0.9325  1.4481  1.3494
 2052SOL    HW217790   4.170   0.242   3.796  0.6267 -0.9671  1.4699
 2053SOL     OW17791   1.734   4.726   2.472 -0.1215  0.3476 -0.6059
 2053SOL    HW117792   1.825   4.722   2.442  0.0104  1.4075 -0.3494
 2053SOL    HW217793   1.714   4.633   2.479 -1.0970  0.6392  0.5697
 2054SOL     OW17794   3.377   3.316  14.349  0.2927 -0.0024  0.4558
 2054SOL    HW117795   3.388   3.222  14.335 -0.5385 -0.3279  1.9240
 2054SOL    HW217796   3.436   3.334  14.276 -0.7902 -0.2557 -0.4864
 2055SOL     OW17797   4.123   1.244   1.904 -0.1371 -0.2113  0.4493
 2055SOL    HW117798   4.048   1.196   1.870 -0.7789  0.0864  1.4373
 2055SOL    HW217799   4.182   1.172   1.924 -0.3748 -0.2139  1.1159
 2056SOL     OW17800   2.158   3.731   3.532 -0.6615  0.2025  0.2007
 2056SOL    HW117801   2.174   3.678   3.454  0.1868  0.2308  0.3566
 2056SOL    HW217802   2.083   3.682   3.564  0.6703 -1.1253  1.3054
 2057SOL     OW17803   3.190   2.605   7.643 -0.3269 -0.4486  0.1128
 2057SOL    HW117804   3.215   2.667   7.711 -0.0723  1.4544 -1.7036
 2057SOL    HW217805   3.251   2.635   7.576 -2.1019 -1.6385 -2.0400
 2058SOL     OW17806   1.117   3.925   2.430 -0.3875 -0.0902  0.0420
 2058SOL    HW117807   1.111   3.884   2.517 -0.3073 -3.9268 -1.7429
 2058SOL    HW217808   1.185   3.867   2.396  1.1764  0.3242  2.4381
 2059SOL     OW17809   0.054   2.586  17.570 -0.1283  0.4203 -0.1948
 2059SOL    HW117810   0.098   2.671  17.576  0.9603 -0.1013 -0.7865
 2059SOL    HW217811   4.705   2.595  17.614 -0.9645  2.1863 -2.1359
 2060SOL     OW17812   4.318   1.585   8.856  0.3058  0.2447  0.6200
 2060SOL    HW117813   4.370   1.510   8.826 -0.1761 -0.4306  1.4838
 2060SOL    HW217814   4.347   1.607   8.944 -1.9161 -2.2476  1.9684
 2061SOL     OW17815   3.249   2.384   7.840  0.2679 -0.0815 -0.1400
 2061SOL    HW117816   3.228   2.444   7.768 -0.9398  0.2184  0.4646
 2061SOL    HW217817   3.175   2.326   7.857 -0.7336  0.7195 -1.7065
 2062SOL     OW17818   0.271   0.520   2.189  0.1917  0.7097  0.1527
 2062SOL    HW117819   0.182   0.548   2.169 -0.4925 -0.7019  1.1609
 2062SOL    HW217820   0.322   0.575   2.130  1.6630 -0.8269 -0.0124
 2063SOL     OW17821   3.813   1.955   3.415 -0.4092  0.0636  0.1285
 2063SOL    HW117822   3.726   1.953   3.375 -1.0581 -1.6293  1.6033
 2063SOL    HW217823   3.806   1.930   3.507  1.4964 -1.9754 -0.2661
 2064SOL     OW17824   2.900   1.718   2.930  0.0484  0.1624 -0.3170
 2064SOL    HW117825   2.969   1.687   2.989  1.7581  1.7449 -1.4723
 2064SOL    HW217826   2.871   1.799   2.972 -1.9017  0.5070 -2.3235
 2065SOL     OW17827   0.458   1.763   3.558 -0.3152  0.0317 -0.6069
 2065SOL    HW117828   0.447   1.687   3.614 -0.3505 -0.8979 -1.8902
 2065SOL    HW217829   0.478   1.722   3.474 -0.3897  0.1590 -0.6866
 2066SOL     OW17830   1.301   0.593   9.811  0.1086  0.1660  0.2064
 2066SOL    HW117831   1.213   0.569   9.782  0.2511 -1.9293  1.5222
 2066SOL    HW217832   1.306   0.526   9.879  0.5069 -1.3102 -1.2729
 2067SOL     OW17833   3.068   1.795   3.504 -0.7031 -0.6490 -0.0157
 2067SOL    HW117834   3.088   1.818   3.594  1.2557 -0.4837 -0.4922
 2067SOL    HW217835   3.104   1.707   3.495  1.0547  0.0574 -0.0588
 2068SOL     OW17836   4.528   0.600   9.635  0.3485 -0.1507  0.3653
 2068SOL    HW117837   4.483   0.533   9.584  2.0580 -0.6810 -0.4561
 2068SOL    HW217838   4.610   0.597   9.586 -0.1584 -0.1640 -0.4840
 2069SOL     OW17839   2.457   1.685   6.992  0.4545  0.0744  0.0830
 2069SOL    HW117840   2.489   1.658   7.078  0.2824 -0.0067  0.1214
 2069SOL    HW217841   2.473   1.606   6.940 -2.3143 -0.3679 -0.1064
 2070SOL     OW17842   0.023   2.355   7.866  0.1065  0.5809  0.2204
 2070SOL    HW117843   0.052   2.427   7.922  1.2986 -1.0315  1.6861
 2070SOL    HW217844   0.004   2.285   7.928  0.5090  2.6172  2.6289
 2071SOL     OW17845   4.647   4.405   6.355  0.4366  0.6341  0.0295
 2071SOL    HW117846   4.667   4.312   6.366 -1.1922  0.1183 -1.4706
 2071SOL    HW217847   4.735   4.437   6.336  1.5624 -0.5330  3.2055
 2072SOL     OW17848   3.237   1.264  16.461 -0.0116  0.7762  0.3839
 2072SOL    HW117849   3.182   1.245  16.537 -0.7831  2.3407  0.2184
 2072SOL    HW217850   3.315   1.214  16.485 -0.1656 -1.0552 -2.9516
 2073SOL     OW17851   3.275   1.812   3.198  0.2447  0.2883 -0.1004
 2073SOL    HW117852   3.348   1.841   3.144  0.2215  3.1255  1.3896
 2073SOL    HW217853   3.296   1.851   3.283 -1.6719  2.3058 -0.5664
 2074SOL     OW17854   0.710   0.560   2.495  0.6130 -0.3914  0.6698
 2074SOL    HW117855   0.747   0.608   2.421 -0.5217 -0.6731 -0.0644
 2074SOL    HW217856   0.616   0.570   2.481  0.4869  1.8578  3.0648
 2075SOL     OW17857   0.010   2.919   6.657  0.1451 -0.0023  0.0413
 2075SOL    HW117858   0.017   2.844   6.598  1.9382 -0.0491  0.3034
 2075SOL    HW217859   0.051   2.892   6.740  0.8866  2.0485  0.3320
 2076SOL     OW17860   1.186   1.166   3.905  0.1170 -0.0716  0.2321
 2076SOL    HW117861   1.109   1.218   3.880  0.3959 -0.2510 -0.9842
 2076SOL    HW217862   1.223   1.145   3.819  0.5989  0.3745  0.3309
 2077SOL     OW17863   0.945   2.443  12.045  0.1854  0.6860  0.0168
 2077SOL    HW117864   0.983   2.530  12.061  0.9077  0.3017  0.3893
 2077SOL    HW217865   0.851   2.460  12.047  0.1382  0.6862 -1.9531
 2078SOL     OW17866   1.344   0.446   5.526 -0.0142 -0.1619 -0.1867
 2078SOL    HW117867   1.395   0.411   5.453  0.2662 -1.1512  0.4757
 2078SOL    HW217868   1.374   0.389   5.597 -0.1349 -0.9532 -0.7755
 2079SOL     OW17869   1.108   1.245   6.084 -0.1857 -0.5219  0.0863
 2079SOL    HW117870   1.113   1.319   6.024 -2.6397 -0.1544  0.3493
 2079SOL    HW217871   1.195   1.243   6.125 -0.5123 -2.4625  0.6490
 2080SOL     OW17872   3.116   2.421   3.360 -0.3902 -0.9618 -0.4030
 2080SOL    HW117873   3.115   2.429   3.456  2.6611 -1.6132 -0.3235
 2080SOL    HW217874   3.163   2.501   3.337 -1.6919 -0.7256 -2.1913
 2081SOL     OW17875   2.145   2.031   7.228  0.0483  0.3330 -0.2738
 2081SOL    HW117876   2.208   2.065   7.291  0.8860  0.6955 -1.3087
 2081SOL    HW217877   2.171   1.939   7.219  0.4057  0.2902  1.2806
 2082SOL     OW17878   2.890   2.249  13.778 -0.4807  0.1793 -0.0098
 2082SOL    HW117879   2.915   2.322  13.835  0.0198 -1.8175  2.3396
 2082SOL    HW217880   2.974   2.223  13.740 -0.8841 -0.0368 -0.7527
 2083SOL     OW17881   2.120   3.146   3.523 -0.6123 -0.7771 -0.1673
 2083SOL    HW117882   2.126   3.051   3.510  0.8047 -0.3547 -2.5123
 2083SOL    HW217883   2.101   3.167   3.432 -0.4731  0.9222  0.2080
 2084SOL     OW17884   3.681   0.856  15.134  0.2708  0.3078  1.0568
 2084SOL    HW117885   3.601   0.823  15.174 -1.1289  0.2086 -1.8527
 2084SOL    HW217886   3.636   0.917  15.075  0.2258 -1.6078 -0.8797
 2085SOL     OW17887   2.056   1.520   0.090  0.0867 -0.0593  0.0836
 2085SOL    HW117888   2.009   1.465   0.027 -0.9803  1.1926 -0.2040
 2085SOL    HW217889   2.134   1.542   0.039 -0.1029  1.2989  0.3668
 2086SOL     OW17890   3.695   0.858   6.774 -0.3989  0.4198 -0.0287
 2086SOL    HW117891   3.695   0.777   6.724 -0.9010 -0.7508  1.8800
 2086SOL    HW217892   3.608   0.891   6.754 -0.2056 -0.5833 -2.5076
 2087SOL     OW17893   2.828   2.386   4.761 -0.3782 -0.3654  0.6310
 2087SOL    HW117894   2.850   2.421   4.847  0.0266  2.6652 -0.7075
 2087SOL    HW217895   2.736   2.361   4.773 -0.4965 -1.5492 -2.8551
 2088SOL     OW17896   2.822   1.444   1.784  0.0069 -0.1995 -0.2516
 2088SOL    HW117897   2.833   1.354   1.753  0.2138 -0.8806  1.8007
 2088SOL    HW217898   2.800   1.427   1.875  1.1974 -1.2827 -0.1629
 2089SOL     OW17899   3.678   0.829   5.937  0.3554  0.0191  0.4457
 2089SOL    HW117900   3.673   0.909   5.885  1.9952  0.1973  0.5351
 2089SOL    HW217901   3.634   0.775   5.872 -1.1136  1.8274 -0.0479
 2090SOL     OW17902   3.218   0.335   1.074  0.2328  0.2725 -0.0196
 2090SOL    HW117903   3.179   0.325   0.988  2.2530 -1.1378 -0.7755
 2090SOL    HW217904   3.243   0.428   1.066 -0.9523  0.6966  1.1717
 2091SOL     OW17905   0.670   1.723   2.635 -0.1618 -0.2931 -0.0799
 2091SOL    HW117906   0.664   1.638   2.679 -0.5281 -1.3264 -2.1400
 2091SOL    HW217907   0.659   1.769   2.718 -3.5426  2.1747 -1.8922
 2092SOL     OW17908   0.232   0.122  13.442  0.0207 -0.0251  0.0540
 2092SOL    HW117909   0.143   0.102  13.412  0.4321  1.0900 -1.8872
 2092SOL    HW217910   0.235   0.215  13.416  3.7585  0.2240  1.4353
 2093SOL     OW17911   4.380   3.046   8.889 -0.1372 -0.1994 -0.1232
 2093SOL    HW117912   4.385   3.140   8.911 -0.1321 -0.7599  2.3105
 2093SOL    HW217913   4.338   3.018   8.970 -0.0822  0.0859  0.0074
 2094SOL     OW17914   0.727   4.408   7.614 -0.2247 -0.2164  0.2000
 2094SOL    HW117915   0.809   4.359   7.606 -0.2025 -0.3362  1.2179
 2094SOL    HW217916   0.736   4.448   7.700  0.7924 -0.7796  0.3534
 2095SOL     OW17917   4.201   0.145  10.590 -0.8398  0.1552  0.0021
 2095SOL    HW117918   4.171   0.099  10.668 -0.4503  0.3103  0.2431
 2095SOL    HW217919   4.124   0.200  10.576  0.5231  1.2228 -3.3702
 2096SOL     OW17920   2.950   1.185   5.034  1.0843  0.3508 -0.3107
 2096SOL    HW117921   2.954   1.172   5.129  0.5476 -1.9110 -0.5944
 2096SOL    HW217922   3.023   1.135   4.999  0.4706  0.3585 -1.6180
 2097SOL     OW17923   2.643   1.930  10.627  0.6136 -0.0584  0.0616
 2097SOL    HW117924   2.713   1.955  10.687 -1.3368  2.1293  1.4547
 2097SOL    HW217925   2.626   2.012  10.580  1.9635  1.2350  1.8170
 2098SOL     OW17926   2.841   3.012   6.511  0.1799 -0.1869 -0.2880
 2098SOL    HW117927   2.850   3.089   6.456  2.0397 -0.5042 -0.4402
 2098SOL    HW217928   2.835   3.052   6.598  0.8814 -0.7774  0.0393
 2099SOL     OW17929   2.630   3.454   6.521  0.1273 -0.0288 -0.2667
 2099SOL    HW117930   2.617   3.466   6.427 -1.6487  2.9561  0.3505
 2099SOL    HW217931   2.723   3.442   6.543  0.5703  3.6211 -0.1432
 2100SOL     OW17932   1.858   4.231   7.884  0.0058  0.1764 -0.1988
 2100SOL    HW117933   1.947   4.204   7.862 -0.1717  0.6751 -1.4982
 2100SOL    HW217934   1.818   4.147   7.911  2.8930 -1.2832 -0.4860
 2101SOL     OW17935   0.956   3.112   2.434  0.7275 -0.0439 -0.0389
 2101SOL    HW117936   0.934   3.200   2.402 -2.6397 -0.4573  1.1661
 2101SOL    HW217937   1.047   3.127   2.458  0.7444  0.3808 -0.3716
 2102SOL     OW17938   1.498   2.413   8.827  0.1490  0.3005 -0.0679
 2102SOL    HW117939   1.554   2.465   8.886 -0.0894 -0.0301  0.4531
 2102SOL    HW217940   1.430   2.380   8.886 -0.1891 -0.9293 -1.1492
 2103SOL     OW17941   1.215   0.656  10.358  0.3528 -0.0213  0.5067
 2103SOL    HW117942   1.251   0.739  10.327  0.9850 -0.4063  0.2182
 2103SOL    HW217943   1.121   0.672  10.363  0.3823  0.6501 -0.9269
 2104SOL     OW17944   3.192   3.241   8.497  0.2642  0.0050 -0.0987
 2104SOL    HW117945   3.261   3.195   8.546 -0.1198  1.0244  1.4012
 2104SOL    HW217946   3.197   3.190   8.416 -1.6538 -3.3650  1.9132
 2105SOL     OW17947   3.488   3.603   5.685 -0.2884 -0.4591  0.4083
 2105SOL    HW117948   3.456   3.590   5.596 -0.3007 -3.9842  0.9374
 2105SOL    HW217949   3.549   3.676   5.675  1.6851 -1.9404  1.8031
 2106SOL     OW17950   0.934   1.542  17.362 -0.7281  0.3388 -0.3320
 2106SOL    HW117951   0.853   1.492  17.368 -1.3472  1.2457 -1.0882
 2106SOL    HW217952   0.955   1.545  17.455  0.8197  1.3677 -0.7112
 2107SOL     OW17953   2.532   3.826   2.399  0.3227 -0.3891 -0.0725
 2107SOL    HW117954   2.488   3.745   2.426  0.0378 -0.7109 -1.5157
 2107SOL    HW217955   2.587   3.841   2.476  0.3449 -0.6509 -0.0369
 2108SOL     OW17956   1.445   0.528  10.346 -0.2321  0.0348 -0.0656
 2108SOL    HW117957   1.360   0.567  10.367  1.0075  0.9888  3.3145
 2108SOL    HW217958   1.465   0.581  10.269 -0.7532 -0.4067 -0.5004
 2109SOL     OW17959   1.512   2.401   9.881 -0.6066  0.1825 -0.2213
 2109SOL    HW117960   1.556   2.338   9.937 -1.2202 -0.3330 -0.3177
 2109SOL    HW217961   1.448   2.346   9.836 -0.2222  0.4157 -1.0575
 2110SOL     OW17962   1.366   2.697  11.157 -0.0996 -0.4332  0.4376
 2110SOL    HW117963   1.364   2.792  11.146  2.0015  0.0201  3.8465
 2110SOL    HW217964   1.361   2.692  11.253  1.1963  0.8932  0.5761
 2111SOL     OW17965   0.121   3.691  14.971 -0.1087 -0.3223  0.4149
 2111SOL    HW117966   0.071   3.722  15.046  0.5106 -0.1392  0.7477
 2111SOL    HW217967   0.079   3.607  14.951 -0.3108  0.3184 -1.8544
 2112SOL     OW17968   3.852   3.585   7.389  0.0251 -0.3271  0.2311
 2112SOL    HW117969   3.778   3.553   7.337  0.0735 -0.0525 -0.0056
 2112SOL    HW217970   3.807   3.592   7.473  0.7669 -1.4860  0.7263
 2113SOL     OW17971   3.613   3.035  12.495  0.3561  0.0369 -0.1425
 2113SOL    HW117972   3.700   2.999  12.480  1.3363  2.3853 -0.0928
 2113SOL    HW217973   3.562   2.954  12.496 -1.3062  1.0864 -0.0538
 2114SOL     OW17974   1.983   2.376   2.043 -0.0658  0.2682  0.1137
 2114SOL    HW117975   2.041   2.302   2.059 -0.5119 -0.0701  0.1816
 2114SOL    HW217976   2.042   2.445   2.013  0.6338  1.5064  4.3418
 2115SOL     OW17977   4.224   0.369   8.736  0.8579  0.4432  0.1907
 2115SOL    HW117978   4.202   0.321   8.656  1.7884  0.4986 -0.1017
 2115SOL    HW217979   4.138   0.390   8.771  0.1157  0.4431 -1.6683
 2116SOL     OW17980   1.692   0.041   1.569  0.2660 -0.2689 -0.1663
 2116SOL    HW117981   1.732   0.116   1.614  0.3175 -0.6415  0.4154
 2116SOL    HW217982   1.743   0.020   1.492  0.0037 -3.5634  0.5518
 2117SOL     OW17983   2.142   1.048   0.637  0.1253  0.0846 -0.4194
 2117SOL    HW117984   2.124   0.955   0.652 -0.5758  0.1203 -1.0106
 2117SOL    HW217985   2.114   1.093   0.717  2.1119  1.9422 -0.7832
 2118SOL     OW17986   3.593   4.278  16.022  0.0840 -0.5615 -0.0356
 2118SOL    HW117987   3.681   4.274  15.986  0.2269 -2.4387  0.5161
 2118SOL    HW217988   3.552   4.291  15.937 -0.0655 -2.3911 -0.2345
 2119SOL     OW17989   1.696   1.968   5.942 -0.0422  1.0644 -0.1083
 2119SOL    HW117990   1.693   1.984   6.036 -1.5763 -3.5767  0.6284
 2119SOL    HW217991   1.714   2.057   5.912  1.8276  1.0685  1.0396
 2120SOL     OW17992   2.840   0.821   4.388  0.6405  0.2459  0.2374
 2120SOL    HW117993   2.901   0.856   4.452  0.4314 -0.5549  0.8780
 2120SOL    HW217994   2.763   0.810   4.444  0.1679  1.6282 -0.1498
 2121SOL     OW17995   4.092   2.658   7.468 -0.1684 -0.7481  0.1239
 2121SOL    HW117996   4.072   2.668   7.561  1.0678  0.4187  0.2773
 2121SOL    HW217997   4.135   2.742   7.450  1.0781 -0.5755  4.0878
 2122SOL     OW17998   0.978   0.107  12.003 -0.8193  0.7051 -0.0160
 2122SOL    HW117999   1.033   0.040  12.041 -1.8398  1.5486  2.9338
 2122SOL    HW218000   1.006   0.095  11.912  1.4021 -0.6185  0.8549
 2123SOL     OW18001   1.433   1.298   2.331 -0.2771 -0.4344  0.4325
 2123SOL    HW118002   1.424   1.208   2.362 -1.8492 -0.2914  0.3704
 2123SOL    HW218003   1.418   1.351   2.409  0.2649  1.3869 -0.6774
 2124SOL     OW18004   4.689   4.655   9.391 -0.0411  0.6169 -0.6101
 2124SOL    HW118005   4.671   4.714   9.465 -0.2887 -0.8028  0.4538
 2124SOL    HW218006   4.686   4.717   9.318  1.0505  2.4983  0.9569
 2125SOL     OW18007   3.877   2.482   3.480  0.4104 -0.7237 -0.9787
 2125SOL    HW118008   3.923   2.531   3.412 -1.5434 -0.3855 -2.0298
 2125SOL    HW218009   3.798   2.445   3.442 -0.2673 -0.0838 -0.1801
 2126SOL     OW18010   0.057   4.015   2.789  0.4283 -0.1121  0.1204
 2126SOL    HW118011   0.122   4.071   2.748  0.5431 -1.4359 -1.4941
 2126SOL    HW218012   0.036   3.952   2.720 -0.5182 -0.1227  0.4148
 2127SOL     OW18013   0.733   2.299   6.735 -0.2631 -0.7384  0.2025
 2127SOL    HW118014   0.802   2.365   6.747  1.8240 -2.6898 -0.9001
 2127SOL    HW218015   0.735   2.275   6.643  1.0970  2.1875 -0.4999
 2128SOL     OW18016   4.694   4.734  11.452 -0.1568 -0.8146 -0.1944
 2128SOL    HW118017   0.029   4.724  11.388  0.3401  1.8757 -0.0852
 2128SOL    HW218018   4.732   4.675  11.517 -0.1798 -0.7913 -0.1600
 2129SOL     OW18019   3.894   1.503   9.457 -0.2144 -0.2834 -0.4057
 2129SOL    HW118020   3.823   1.533   9.400 -1.0121 -0.3426  0.5656
 2129SOL    HW218021   3.883   1.569   9.525 -0.7318 -0.1871 -0.5864
 2130SOL     OW18022   4.335   0.168  12.103  0.1284  0.1358 -0.5383
 2130SOL    HW118023   4.305   0.259  12.107 -1.1739 -0.2957 -0.5731
 2130SOL    HW218024   4.299   0.133  12.022 -0.8062 -2.2445  0.9183
 2131SOL     OW18025   1.823   4.683   5.769  0.2501  0.0007 -0.1173
 2131SOL    HW118026   1.894   4.626   5.742  0.4758  0.1466  0.1720
 2131SOL    HW218027   1.793   4.639   5.848  0.1136  3.3095  1.6892
 2132SOL     OW18028   3.484   0.218  14.967  0.0754 -0.1221 -0.1221
 2132SOL    HW118029   3.458   0.185  14.881 -0.5282 -0.1452  0.0684
 2132SOL    HW218030   3.578   0.225  14.954 -0.4431  3.0090 -2.2390
 2133SOL     OW18031   0.847   1.865   7.342  0.3124  0.0409  0.1336
 2133SOL    HW118032   0.808   1.950   7.320 -1.3137 -0.6786  0.2131
 2133SOL    HW218033   0.908   1.859   7.268  0.5079 -0.1137  0.3071
 2134SOL     OW18034   3.606   4.197   3.405  0.2139  0.1911 -0.4700
 2134SOL    HW118035   3.536   4.235   3.351  1.5763  1.0497 -1.6345
 2134SOL    HW218036   3.651   4.280   3.423 -0.5038  0.8889 -1.8444
 2135SOL     OW18037   3.723   0.838   2.534  0.1673  0.9495 -0.0090
 2135SOL    HW118038   3.810   0.812   2.563  0.5798  1.9722 -0.3370
 2135SOL    HW218039   3.673   0.814   2.613 -1.6300  3.6056 -0.3041
 2136SOL     OW18040   4.730   1.094   7.331  0.9607  0.4462  0.0938
 2136SOL    HW118041   4.686   1.015   7.363 -1.3430  1.4231 -0.6960
 2136SOL    HW218042   4.667   1.162   7.356  0.6183 -0.1219  0.8072
 2137SOL     OW18043   3.141   1.478   6.484 -0.2370 -0.2669  0.2956
 2137SOL    HW118044   3.063   1.519   6.447  0.3837 -1.0345 -1.8755
 2137SOL    HW218045   3.203   1.536   6.440 -1.5443  0.3307 -0.7554
 2138SOL     OW18046   2.501   0.611   0.848 -0.6504 -0.3388 -0.0173
 2138SOL    HW118047   2.413   0.579   0.828 -1.0931  1.2464 -0.6105
 2138SOL    HW218048   2.499   0.707   0.847  2.0365 -0.2813  1.2746
 2139SOL     OW18049   1.392   3.567   3.410  0.0151 -0.4637 -0.6909
 2139SOL    HW118050   1.479   3.527   3.418 -0.0692 -0.4297  0.3728
 2139SOL    HW218051   1.417   3.659   3.406  0.4048 -0.5811 -1.0344
 2140SOL     OW18052   0.710   3.732   5.808  0.0294 -0.7092  0.3593
 2140SOL    HW118053   0.734   3.639   5.806  4.5504  0.3808  2.7324
 2140SOL    HW218054   0.618   3.725   5.833  0.1851  1.7885  1.5568
 2141SOL     OW18055   4.264   2.129   8.281 -0.0522  0.3303  0.4194
 2141SOL    HW118056   4.276   2.216   8.319 -0.4642  0.9879 -0.9351
 2141SOL    HW218057   4.206   2.082   8.340  0.5431 -0.2163  0.5739
 2142SOL     OW18058   4.111   1.052   8.443 -0.8397 -0.4117 -0.4692
 2142SOL    HW118059   4.036   1.068   8.501 -1.5163 -0.7534 -1.2560
 2142SOL    HW218060   4.084   1.111   8.372 -1.8105 -3.3327 -2.5426
 2143SOL     OW18061   1.496   3.920   6.761 -0.1418 -0.0563 -0.2182
 2143SOL    HW118062   1.471   4.001   6.716  1.2025  1.2171  1.3167
 2143SOL    HW218063   1.412   3.878   6.779 -0.0902 -0.4149 -0.8438
 2144SOL     OW18064   0.023   0.753   5.491  0.1273  0.5076  0.1680
 2144SOL    HW118065   0.113   0.719   5.489 -0.1627 -0.3027  0.7206
 2144SOL    HW218066   0.003   0.703   5.571  0.5803 -0.1400 -0.1192
 2145SOL     OW18067   2.878   2.576   7.941  0.0719 -0.0420 -0.0983
 2145SOL    HW118068   2.821   2.503   7.920  0.4144 -0.0220 -1.1097
 2145SOL    HW218069   2.956   2.530   7.971 -0.1239 -0.1269  0.2811
 2146SOL     OW18070   1.520   3.966   1.450  0.0812  0.4205  0.4224
 2146SOL    HW118071   1.491   4.022   1.523 -1.6497 -3.1841  2.4860
 2146SOL    HW218072   1.612   3.986   1.436 -0.6326  2.3149 -1.5353
 2147SOL     OW18073   3.622   3.853  17.604  0.0607  0.0923  0.0083
 2147SOL    HW118074   3.550   3.792  17.621  1.1076 -1.1239  0.0500
 2147SOL    HW218075   3.574   3.928  17.569 -1.0725 -0.6624 -0.0804
 2148SOL     OW18076   4.243   0.960  13.100 -0.0283  0.4825 -0.2114
 2148SOL    HW118077   4.288   1.037  13.062  2.4683 -0.2691  1.1917
 2148SOL    HW218078   4.174   1.013  13.140  0.4210  1.6399 -0.9431
 2149SOL     OW18079   0.889   0.464  12.329 -0.4860  0.2497 -0.2723
 2149SOL    HW118080   0.983   0.453  12.344 -1.0685 -3.0821  1.1395
 2149SOL    HW218081   0.892   0.429  12.240 -2.1503 -2.1688  0.6285
 2150SOL     OW18082   2.896   1.738   4.071 -0.2933 -0.3749  0.2887
 2150SOL    HW118083   2.950   1.810   4.037 -2.2257 -0.3254 -2.7307
 2150SOL    HW218084   2.902   1.680   3.996 -0.5772 -0.1356  0.0814
 2151SOL     OW18085   3.909   3.889  15.102 -0.3729 -0.5762 -0.4824
 2151SOL    HW118086   3.961   3.831  15.046  1.6378  1.4309 -0.7261
 2151SOL    HW218087   3.861   3.947  15.043 -0.4876 -0.7772 -0.5888
 2152SOL     OW18088   1.717   0.105   4.702 -0.1458 -0.7313 -0.1988
 2152SOL    HW118089   1.736   0.199   4.709 -1.4249 -0.5557  0.7691
 2152SOL    HW218090   1.623   0.113   4.717  0.0453 -1.2561  1.2835
 2153SOL     OW18091   1.185   2.165   5.000  0.3834 -0.0844  0.3067
 2153SOL    HW118092   1.098   2.170   4.960  0.8309  0.3257 -0.6048
 2153SOL    HW218093   1.233   2.231   4.950  1.7133 -0.8602  0.5681
 2154SOL     OW18094   2.154   2.125   1.411 -0.4727 -0.0712 -0.1569
 2154SOL    HW118095   2.238   2.146   1.452 -0.1912 -2.6254  0.5833
 2154SOL    HW218096   2.196   2.069   1.345 -0.4952  0.8334 -0.9407
 2155SOL     OW18097   1.023   2.400  16.940 -0.2230 -0.3483 -0.6195
 2155SOL    HW118098   0.931   2.404  16.916 -0.8955 -0.9491  1.8570
 2155SOL    HW218099   1.016   2.338  17.013  1.9723 -0.8514 -0.8341
 2156SOL     OW18100   1.291   1.382   1.784 -0.5772 -0.6807  0.4244
 2156SOL    HW118101   1.325   1.406   1.871 -0.3906  1.0672 -0.1458
 2156SOL    HW218102   1.280   1.287   1.794  2.9499 -1.1876 -0.5225
 2157SOL     OW18103   0.164   0.586   6.732  0.7082  0.4925  0.1148
 2157SOL    HW118104   0.253   0.614   6.707  1.3757 -0.7948  1.0846
 2157SOL    HW218105   0.125   0.658   6.782  1.2235  0.1989  0.9447
 2158SOL     OW18106   0.881   0.131  13.781  0.0399 -0.6794  0.3080
 2158SOL    HW118107   0.925   0.099  13.859  1.9348 -0.0812 -0.5103
 2158SOL    HW218108   0.950   0.125  13.715  1.0491  4.0762  0.9410
 2159SOL     OW18109   0.303   2.416   8.459  0.0657 -0.7238  0.0801
 2159SOL    HW118110   0.318   2.323   8.442 -1.2814 -0.7928 -0.7119
 2159SOL    HW218111   0.212   2.429   8.432  0.1961 -0.2423 -0.1369
 2160SOL     OW18112   3.414   3.272   7.718 -0.1039  0.7126  0.3597
 2160SOL    HW118113   3.402   3.282   7.624  0.6248 -1.1730  0.0824
 2160SOL    HW218114   3.381   3.356   7.751 -0.5714  0.4508  0.5605
 2161SOL     OW18115   3.684   2.927   4.698  0.2298 -0.3273  0.6961
 2161SOL    HW118116   3.602   2.914   4.745 -0.7821  0.4208 -0.8365
 2161SOL    HW218117   3.695   3.022   4.697  0.0400 -0.3021  1.0919
 2162SOL     OW18118   2.792   4.248   7.524  0.2244  0.2081 -0.0206
 2162SOL    HW118119   2.885   4.236   7.506  0.2067  1.3296 -0.9122
 2162SOL    HW218120   2.782   4.210   7.611  2.9537  0.2678  0.3203
 2163SOL     OW18121   1.846   1.413   9.699 -0.1237 -0.2276 -0.5022
 2163SOL    HW118122   1.886   1.334   9.664 -2.3961 -1.2715 -0.7924
 2163SOL    HW218123   1.834   1.394   9.792  1.3903 -0.1915 -0.2984
 2164SOL     OW18124   3.056   1.085   5.631  0.2461 -0.2437 -0.1107
 2164SOL    HW118125   3.149   1.075   5.610  0.3276  1.2295 -0.4537
 2164SOL    HW218126   3.015   1.003   5.601 -2.1322 -0.1730  2.9083
 2165SOL     OW18127   1.901   1.589  14.016 -0.1801 -0.3663 -0.4344
 2165SOL    HW118128   1.814   1.627  14.008 -0.2044 -0.5115 -0.8416
 2165SOL    HW218129   1.903   1.517  13.953  1.4907  1.2501 -2.2178
 2166SOL     OW18130   1.790   3.202   1.279 -0.2812  0.5799 -0.0433
 2166SOL    HW118131   1.761   3.285   1.242  1.8663  1.0407 -0.6766
 2166SOL    HW218132   1.716   3.182   1.336  0.5393  1.9488  1.4893
 2167SOL     OW18133   1.526   1.448  10.355  0.4052  0.1175 -0.0338
 2167SOL    HW118134   1.440   1.482  10.380  0.5140  1.0913 -0.9646
 2167SOL    HW218135   1.591   1.483  10.416 -0.9170  1.6942  0.4846
 2168SOL     OW18136   1.026   0.338   5.273 -0.2513  0.4032 -0.3055
 2168SOL    HW118137   1.106   0.379   5.240  1.4668 -2.2120  0.6032
 2168SOL    HW218138   0.974   0.413   5.303  1.0359  1.3830 -0.4706
 2169SOL     OW18139   4.440   3.368   9.959  0.0939  0.4467  0.3549
 2169SOL    HW118140   4.368   3.425   9.985  1.6457  2.3133  0.5464
 2169SOL    HW218141   4.452   3.304  10.030 -4.4447 -0.3177  0.4129
 2170SOL     OW18142   3.991   4.722   2.803 -0.1476 -0.2271 -0.1147
 2170SOL    HW118143   4.051   4.729   2.877 -1.0585 -1.1804  0.7196
 2170SOL    HW218144   3.924   4.669   2.846  0.0082  0.1528  0.6067
 2171SOL     OW18145   1.794   3.235   0.224 -0.9865  0.6695 -0.3381
 2171SOL    HW118146   1.875   3.267   0.184 -0.7052  2.0568  1.3287
 2171SOL    HW218147   1.832   3.205   0.307  0.9860  2.0385 -0.7438
 2172SOL     OW18148   3.903   0.102   7.307  0.1129  0.0077  0.0284
 2172SOL    HW118149   3.958   0.154   7.365 -0.5952  1.1397 -0.3136
 2172SOL    HW218150   3.817   0.113   7.348  0.7731  2.1259  0.8226
 2173SOL     OW18151   1.314   1.841   6.443  0.3050 -0.1242  0.8767
 2173SOL    HW118152   1.335   1.906   6.376 -1.3408 -0.3028  0.2046
 2173SOL    HW218153   1.314   1.891   6.524 -0.6437  0.8508  0.2629
 2174SOL     OW18154   4.243   3.989   6.125 -0.1123 -0.7562  0.0231
 2174SOL    HW118155   4.189   3.920   6.086  1.7082 -1.7434 -0.7570
 2174SOL    HW218156   4.320   3.993   6.070 -1.4905  1.3162 -1.7337
 2175SOL     OW18157   1.553   0.081   3.387 -0.5555 -0.1850  0.0924
 2175SOL    HW118158   1.562   4.723   3.406 -1.4608 -0.4538 -0.8287
 2175SOL    HW218159   1.548   0.125   3.472  1.9745 -0.7990  0.5510
 2176SOL     OW18160   3.943   4.079   3.306  0.5226  0.2817  0.1307
 2176SOL    HW118161   3.991   4.042   3.232 -3.0759 -2.7665 -0.6665
 2176SOL    HW218162   3.860   4.034   3.294  1.2013 -0.7743 -0.5604
 2177SOL     OW18163   3.484   3.307   0.752  0.0186 -1.0223  0.3173
 2177SOL    HW118164   3.467   3.260   0.833  0.2437 -1.5165  0.0789
 2177SOL    HW218165   3.529   3.245   0.693 -0.6652 -1.4425  0.2375
 2178SOL     OW18166   3.613   1.912  11.106  0.5566 -0.0089  0.1071
 2178SOL    HW118167   3.591   1.994  11.062 -0.9807 -0.1342  0.6201
 2178SOL    HW218168   3.662   1.939  11.183  2.4146 -0.5893 -0.8675
 2179SOL     OW18169   0.611   3.741   0.815  0.0305  0.5394 -0.0204
 2179SOL    HW118170   0.571   3.727   0.901  1.0096  1.6559  0.6084
 2179SOL    HW218171   0.640   3.832   0.820 -2.5408  1.5029 -2.6159
 2180SOL     OW18172   2.464   2.054   3.290 -0.7350 -0.1882  0.0746
 2180SOL    HW118173   2.464   2.111   3.213  2.0719 -0.4673 -0.1348
 2180SOL    HW218174   2.555   2.058   3.318 -0.7604 -0.1137  0.1466
 2181SOL     OW18175   0.907   1.950   2.893 -0.4877  0.1753 -0.4420
 2181SOL    HW118176   0.918   1.861   2.926 -0.6929  0.6297  0.8200
 2181SOL    HW218177   0.947   1.939   2.806 -0.2513 -2.3351 -0.0234
 2182SOL     OW18178   4.157   3.528   5.314  0.4838  0.5032 -0.0656
 2182SOL    HW118179   4.078   3.581   5.322  0.5901  0.7680 -0.8059
 2182SOL    HW218180   4.169   3.502   5.406 -0.6161  1.7564  0.4307
 2183SOL     OW18181   3.196   2.114  15.254 -0.1912 -0.5217 -0.1076
 2183SOL    HW118182   3.162   2.101  15.165  3.3254  3.3885 -2.0184
 2183SOL    HW218183   3.283   2.074  15.247 -0.9523 -2.1071 -0.6263
 2184SOL     OW18184   1.691   3.924  14.124 -0.1253 -0.5779  0.0523
 2184SOL    HW118185   1.748   3.963  14.191 -0.6003  0.5886 -0.2193
 2184SOL    HW218186   1.731   3.837  14.118  0.3215 -0.2904 -1.2803
 2185SOL     OW18187   0.911   4.141   7.890  0.5199 -0.1527 -0.2084
 2185SOL    HW118188   0.984   4.154   7.829  0.2740  2.3212  0.0639
 2185SOL    HW218189   0.840   4.186   7.845  1.9578  1.7671 -0.5260
 2186SOL     OW18190   4.440   3.414   9.644  0.0104 -0.0464 -0.1290
 2186SOL    HW118191   4.381   3.340   9.629 -0.5158  0.1572  0.8816
 2186SOL    HW218192   4.379   3.486   9.662  0.1246 -0.0410  0.2472
 2187SOL     OW18193   2.010   3.947   3.120 -0.0735 -0.0074 -0.2504
 2187SOL    HW118194   2.045   4.033   3.144  0.1826 -1.2625  3.7157
 2187SOL    HW218195   1.920   3.957   3.152 -0.7827  0.5607 -2.4012
 2188SOL     OW18196   1.109   3.217   2.863  0.2659  0.3359 -0.5618
 2188SOL    HW118197   1.114   3.139   2.807 -0.2336 -1.5208  1.9801
 2188SOL    HW218198   1.151   3.171   2.936 -1.5409  0.0812  0.3050
 2189SOL     OW18199   4.727   0.793   6.404  0.7445 -0.3839 -0.0240
 2189SOL    HW118200   4.690   0.880   6.422  1.8127  0.1253 -0.2729
 2189SOL    HW218201   4.702   0.749   6.485 -1.4520  2.2284  0.7269
 2190SOL     OW18202   2.380   1.553   9.274 -0.0054 -0.5826  0.0278
 2190SOL    HW118203   2.388   1.478   9.333 -0.4322 -0.5403  0.1418
 2190SOL    HW218204   2.437   1.532   9.199 -1.5952 -1.0117 -1.0705
 2191SOL     OW18205   0.907   0.896  14.605 -0.3140  0.2567 -0.1292
 2191SOL    HW118206   0.992   0.892  14.649  0.0614 -5.5887 -1.3358
 2191SOL    HW218207   0.875   0.805  14.602 -1.0295  0.5088 -0.1225
 2192SOL     OW18208   3.388   4.120   6.293  0.3073 -0.2996  0.3781
 2192SOL    HW118209   3.310   4.111   6.349  1.4611  3.3239  2.5791
 2192SOL    HW218210   3.391   4.038   6.244 -0.0680  0.5148 -0.9904
 2193SOL     OW18211   2.308   0.766   5.995 -0.4347  0.1626  0.0324
 2193SOL    HW118212   2.254   0.804   5.925 -1.3838 -0.1631  0.5893
 2193SOL    HW218213   2.366   0.712   5.942  0.2401  0.0650  0.8835
 2194SOL     OW18214   2.250   1.881  14.521  0.7441  0.5687 -0.0042
 2194SOL    HW118215   2.284   1.884  14.610  0.2669 -1.2072  0.2421
 2194SOL    HW218216   2.223   1.790  14.512  1.4322  0.2815  0.9011
 2195SOL     OW18217   0.479   1.526   6.719 -0.1194  0.4733  0.3481
 2195SOL    HW118218   0.443   1.589   6.781 -1.3145  3.4078 -3.2925
 2195SOL    HW218219   0.411   1.542   6.653 -1.3806 -1.1383  1.2497
 2196SOL     OW18220   2.107   2.036   3.097  0.3656 -0.2547 -0.2950
 2196SOL    HW118221   2.201   2.028   3.112 -0.1472  2.0781  3.9587
 2196SOL    HW218222   2.092   1.954   3.050  1.0422  0.4452 -1.7329
 2197SOL     OW18223   2.098   2.000   2.722  0.0821  0.3129  0.1026
 2197SOL    HW118224   2.123   1.948   2.645 -2.7854  0.9480 -1.2679
 2197SOL    HW218225   2.003   1.988   2.724  0.1040 -0.3379 -2.3686
 2198SOL     OW18226   0.966   3.470  15.264  0.0330 -0.2650  0.3915
 2198SOL    HW118227   0.888   3.437  15.221  1.1221 -2.4956  0.1235
 2198SOL    HW218228   0.935   3.493  15.352 -0.9067 -0.7985  0.2023
 2199SOL     OW18229   1.501   0.003   5.250  0.2060  0.4545  0.3937
 2199SOL    HW118230   1.582   4.729   5.300  0.8794 -2.9863 -1.3642
 2199SOL    HW218231   1.532   0.053   5.175 -0.9475 -0.8296 -0.9315
 2200SOL     OW18232   3.137   4.154   6.382  0.1710  0.5630 -0.4332
 2200SOL    HW118233   3.086   4.077   6.407  0.7259 -0.7961 -3.5869
 2200SOL    HW218234   3.120   4.219   6.450 -1.2592  0.5749 -0.7990
 2201SOL     OW18235   4.279   2.350   2.221 -0.0535  0.2611 -0.3238
 2201SOL    HW118236   4.282   2.416   2.152 -0.4353  1.5581  0.9232
 2201SOL    HW218237   4.371   2.331   2.239 -0.4045 -1.4365 -0.2495
 2202SOL     OW18238   0.675   3.064   4.594  0.2612 -0.4833 -0.2276
 2202SOL    HW118239   0.686   3.147   4.639 -1.4337 -0.0384 -0.6630
 2202SOL    HW218240   0.591   3.031   4.625  0.8537 -3.1371 -1.4076
 2203SOL     OW18241   2.522   3.095   4.869  0.1570 -0.4013  0.2193
 2203SOL    HW118242   2.539   3.079   4.961  1.8111 -0.0125 -0.0349
 2203SOL    HW218243   2.462   3.021   4.855  0.1881 -0.5123  0.6752
 2204SOL     OW18244   1.479   2.839  17.719  0.1043 -0.3736  0.5737
 2204SOL    HW118245   1.406   2.889   0.015 -0.5249  1.6890 -3.3924
 2204SOL    HW218246   1.537   2.914  17.726  0.1198 -0.5312  2.3360
 2205SOL     OW18247   0.843   1.754   5.120  0.4840  0.0024  0.4577
 2205SOL    HW118248   0.758   1.758   5.078  0.1056 -1.4926  1.0832
 2205SOL    HW218249   0.822   1.797   5.203 -0.0732 -0.4486  0.5445
 2206SOL     OW18250   0.703   3.304   4.710  0.0213 -0.5276 -0.2788
 2206SOL    HW118251   0.670   3.377   4.762 -2.1072  0.0172 -2.4074
 2206SOL    HW218252   0.797   3.306   4.730  0.0605  1.0640 -0.6396
 2207SOL     OW18253   2.681   1.113  14.892 -0.0594  0.1243 -0.4159
 2207SOL    HW118254   2.762   1.063  14.903  0.1589  0.7238  0.7356
 2207SOL    HW218255   2.657   1.098  14.800  0.4562  0.1423 -0.5569
 2208SOL     OW18256   3.688   4.492   1.786  0.0266 -0.2501  0.1027
 2208SOL    HW118257   3.616   4.491   1.723 -0.8990 -2.9195  1.1944
 2208SOL    HW218258   3.755   4.521   1.723  0.6021  0.9713  1.2567
 2209SOL     OW18259   1.699   2.198   2.943  0.0297 -0.3947  0.1842
 2209SOL    HW118260   1.694   2.103   2.928 -0.7808 -0.1153 -1.2237
 2209SOL    HW218261   1.694   2.225   2.852  0.0405 -0.2393  0.2291
 2210SOL     OW18262   1.642   3.294  12.419  0.4555  0.4386  0.3507
 2210SOL    HW118263   1.559   3.333  12.390  0.6371 -0.1189 -0.8885
 2210SOL    HW218264   1.618   3.232  12.489  0.0292  0.9637  0.6682
 2211SOL     OW18265   3.570   2.653   1.481 -0.0569  0.8558  0.8525
 2211SOL    HW118266   3.577   2.688   1.392 -0.0154  1.4463  1.0864
 2211SOL    HW218267   3.641   2.589   1.480  0.1577  1.0519  3.8392
 2212SOL     OW18268   1.346   4.008   4.807  0.5896 -0.3245  0.4517
 2212SOL    HW118269   1.327   4.003   4.900  4.5008 -0.7066  1.2197
 2212SOL    HW218270   1.392   4.092   4.803  0.4631 -0.2873 -0.2174
 2213SOL     OW18271   3.683   0.095   8.112 -0.3918  0.3623 -0.3045
 2213SOL    HW118272   3.716   0.047   8.188 -1.7231  1.3151  0.8615
 2213SOL    HW218273   3.750   0.162   8.095 -2.2413  2.4615  0.6627
 2214SOL     OW18274   2.522   2.011   6.033 -0.0162  0.3528  0.2820
 2214SOL    HW118275   2.536   2.037   6.124  1.6045  1.3724 -0.2610
 2214SOL    HW218276   2.507   1.918   6.054  0.3498  0.0691 -0.7128
 2215SOL     OW18277   0.888   4.477   6.985 -0.3080  0.4890 -1.2037
 2215SOL    HW118278   0.929   4.424   6.916 -1.0851  0.1543 -1.4157
 2215SOL    HW218279   0.799   4.483   6.948 -0.1588 -2.2185 -2.0232
 2216SOL     OW18280   4.009   0.049   2.283 -0.3471 -0.5645 -0.6051
 2216SOL    HW118281   3.935   4.727   2.303  0.9345 -1.8805  0.3783
 2216SOL    HW218282   3.968   0.115   2.228 -1.6901 -0.3404  0.6582
 2217SOL     OW18283   4.121   3.791   9.476  0.5639 -0.5610  0.0039
 2217SOL    HW118284   4.208   3.830   9.484 -0.0293  0.5787  0.9221
 2217SOL    HW218285   4.059   3.863   9.468  0.9945 -0.0234  1.5049
 2218SOL     OW18286   4.062   2.247  11.635  0.0888 -0.2793 -0.9659
 2218SOL    HW118287   4.072   2.244  11.730 -1.8943 -4.4728 -0.8864
 2218SOL    HW218288   4.036   2.338  11.620  2.2874  0.7268  1.2622
 2219SOL     OW18289   0.877   0.438  11.662 -0.3428 -0.1252 -0.1028
 2219SOL    HW118290   0.917   0.407  11.581 -0.6566  0.3800 -0.4460
 2219SOL    HW218291   0.836   0.518  11.629 -0.1347  0.5053  1.1346
 2220SOL     OW18292   2.896   1.950   9.486 -0.4152  0.5229  0.3756
 2220SOL    HW118293   2.946   1.927   9.565 -1.1175 -1.1740  0.3414
 2220SOL    HW218294   2.808   1.944   9.522 -0.5518 -0.1093 -0.0510
 2221SOL     OW18295   0.681   1.624   5.655 -0.4257  0.7356  0.4372
 2221SOL    HW118296   0.754   1.681   5.677 -0.8955  1.3286  0.4509
 2221SOL    HW218297   0.607   1.684   5.661 -0.4610  0.7462 -0.0448
 2222SOL     OW18298   2.434   4.384   1.097 -0.2365 -0.4603 -0.2236
 2222SOL    HW118299   2.517   4.364   1.139  0.0968  1.6215  0.1215
 2222SOL    HW218300   2.453   4.471   1.064 -0.8101  0.0820  0.8692
 2223SOL     OW18301   0.790   4.446   4.567 -0.0942  0.0332 -0.4528
 2223SOL    HW118302   0.819   4.417   4.653 -2.3865  0.9272  0.6438
 2223SOL    HW218303   0.872   4.450   4.519  0.1622 -0.3210 -0.0447
 2224SOL     OW18304   3.662   2.439  11.209 -0.0689  0.4615 -0.3384
 2224SOL    HW118305   3.748   2.468  11.238  0.2307  0.4569 -1.2099
 2224SOL    HW218306   3.616   2.446  11.293  0.0090 -0.6677 -0.2117
 2225SOL     OW18307   4.194   0.274   2.888 -0.0300  0.0046 -0.4998
 2225SOL    HW118308   4.162   0.327   2.961  0.8590 -1.4009  0.8878
 2225SOL    HW218309   4.172   0.186   2.918  3.2596 -0.6938 -0.2138
 2226SOL     OW18310   4.079   2.965   9.059  0.2919  0.2898  0.1139
 2226SOL    HW118311   4.012   2.948   8.993 -0.0856  2.1140  0.0352
 2226SOL    HW218312   4.119   2.879   9.075 -0.9465  0.1349  2.4155
 2227SOL     OW18313   3.058   4.696   0.016 -0.2153 -0.5576  0.6547
 2227SOL    HW118314   3.132   0.008  17.720 -2.5120  3.0767  0.8396
 2227SOL    HW218315   2.984   0.019   0.007  2.2760  2.5714  0.8030
 2228SOL     OW18316   1.506   3.143   1.391 -0.1746  0.0278 -0.6035
 2228SOL    HW118317   1.422   3.135   1.437  0.8534  0.4375  1.3462
 2228SOL    HW218318   1.512   3.237   1.375 -2.2449  0.2249 -0.2610
 2229SOL     OW18319   1.904   0.551   6.107  0.4783 -0.1824 -0.2634
 2229SOL    HW118320   1.990   0.593   6.104  0.0354  0.7182 -0.3106
 2229SOL    HW218321   1.853   0.609   6.050 -1.6741 -1.5094  0.3246
 2230SOL     OW18322   0.533   1.386  13.954 -0.3502 -0.2330  0.0325
 2230SOL    HW118323   0.551   1.480  13.956  1.7222 -0.6115 -1.0640
 2230SOL    HW218324   0.603   1.360  14.013  1.3742  1.8000 -1.1593
 2231SOL     OW18325   1.409   3.108  12.564  0.0280 -0.2197 -0.1702
 2231SOL    HW118326   1.324   3.153  12.566  0.3661  0.4320 -0.5797
 2231SOL    HW218327   1.402   3.055  12.484 -0.4119 -0.4949  0.0482
 2232SOL     OW18328   3.739   4.276  15.788  0.1133  0.5658 -0.2316
 2232SOL    HW118329   3.779   4.364  15.790 -1.4181  1.2037  1.9639
 2232SOL    HW218330   3.715   4.281  15.695  1.8514  0.6473 -0.6873
 2233SOL     OW18331   1.509   1.620   8.639 -0.1155 -0.3778  0.2023
 2233SOL    HW118332   1.475   1.659   8.720 -0.5863 -0.1932 -0.0822
 2233SOL    HW218333   1.593   1.665   8.633 -0.6993  0.7019  0.1192
 2234SOL     OW18334   4.607   0.290   7.849  0.4963  0.2741 -0.5234
 2234SOL    HW118335   4.632   0.236   7.775 -1.0600 -2.2875  0.8320
 2234SOL    HW218336   4.663   0.366   7.831  0.3829  0.3836 -0.4184
 2235SOL     OW18337   2.619   2.738   3.582 -0.1852  0.1616 -0.3070
 2235SOL    HW118338   2.626   2.667   3.519  1.5002  0.5724 -0.5728
 2235SOL    HW218339   2.709   2.749   3.612 -0.0032 -0.5600 -0.5976
 2236SOL     OW18340   1.220   2.433  11.900  0.3237 -0.0150 -0.3557
 2236SOL    HW118341   1.254   2.512  11.941  0.2676  0.8339 -1.9364
 2236SOL    HW218342   1.297   2.376  11.903 -0.3100 -0.6438  3.1457
 2237SOL     OW18343   2.013   0.635  16.709 -0.2139  0.0497 -0.1449
 2237SOL    HW118344   2.002   0.707  16.771  1.6205  0.7071 -0.5838
 2237SOL    HW218345   2.074   0.581  16.759 -1.2178 -1.0793 -0.1321
 2238SOL     OW18346   2.311   2.666  10.306  0.1898 -1.1111  0.0459
 2238SOL    HW118347   2.291   2.686  10.215  2.0936  0.5580  0.0112
 2238SOL    HW218348   2.267   2.581  10.298  2.2528 -2.2743  0.9311
 2239SOL     OW18349   1.759   2.987  13.686 -0.2862  0.2071 -0.1902
 2239SOL    HW118350   1.841   2.937  13.682 -1.2133 -1.3931  0.6077
 2239SOL    HW218351   1.790   3.075  13.665 -1.1931  0.0374 -2.2075
 2240SOL     OW18352   3.814   3.363   8.792 -0.1818  0.6029  0.2537
 2240SOL    HW118353   3.758   3.406   8.727 -0.0419 -0.7612 -0.7640
 2240SOL    HW218354   3.847   3.441   8.836  0.7047 -0.7463  1.9876
 2241SOL     OW18355   3.213   1.276  16.187  0.3790 -0.7252  0.3758
 2241SOL    HW118356   3.133   1.238  16.151 -0.1433  1.2944 -0.5601
 2241SOL    HW218357   3.207   1.247  16.278  0.7032 -1.3457  0.1985
 2242SOL     OW18358   0.192   1.138  11.863 -0.3023  0.5415  0.6498
 2242SOL    HW118359   0.283   1.167  11.865 -0.2361  0.4478 -1.1680
 2242SOL    HW218360   0.191   1.108  11.772 -0.2461 -2.1063  1.5532
 2243SOL     OW18361   0.325   3.749   7.810 -0.4413 -0.4671 -0.0983
 2243SOL    HW118362   0.278   3.798   7.878 -0.2528  1.4519 -1.3546
 2243SOL    HW218363   0.257   3.687   7.787 -1.3479  0.4345  0.1438
 2244SOL     OW18364   1.743   1.524   9.014  0.4639 -0.5773 -0.0153
 2244SOL    HW118365   1.728   1.454   8.950 -3.8301  1.5545 -1.3666
 2244SOL    HW218366   1.790   1.588   8.962 -0.2967  0.7190  0.9029
 2245SOL     OW18367   0.674   2.717   5.337 -0.6967 -0.2282  0.4054
 2245SOL    HW118368   0.663   2.691   5.428 -2.3223  0.6520  0.4476
 2245SOL    HW218369   0.770   2.719   5.336 -0.7466  2.3154  0.8356
 2246SOL     OW18370   3.306   4.220   4.693 -0.1512 -0.1454  0.2678
 2246SOL    HW118371   3.269   4.226   4.605 -0.7156 -0.3773  0.4880
 2246SOL    HW218372   3.362   4.144   4.675  0.3087 -0.3245  2.5218
 2247SOL     OW18373   0.333   0.295   3.720 -0.6578 -0.8612  0.1729
 2247SOL    HW118374   0.267   0.229   3.741  1.1340 -2.6941  0.1236
 2247SOL    HW218375   0.286   0.378   3.723 -0.7206 -0.8518 -0.9944
 2248SOL     OW18376   1.259   2.443   6.087 -0.0183 -0.1949  0.1330
 2248SOL    HW118377   1.224   2.360   6.054 -0.1218 -0.2406  0.3580
 2248SOL    HW218378   1.344   2.417   6.122 -0.7353 -0.4819  1.6694
 2249SOL     OW18379   4.108   1.826  13.075 -0.4420  0.1892 -0.1165
 2249SOL    HW118380   4.183   1.785  13.118  0.3331  0.5400 -1.1360
 2249SOL    HW218381   4.116   1.920  13.087 -1.5124  0.0924  1.2790
 2250SOL     OW18382   1.211   3.358   9.278  0.1842  0.0257 -0.2548
 2250SOL    HW118383   1.143   3.423   9.264 -0.8224 -1.4662 -2.3107
 2250SOL    HW218384   1.234   3.362   9.371  1.6920 -1.0304 -0.5718
 2251SOL     OW18385   1.377   1.371   3.770  0.2497  0.0498  0.1023
 2251SOL    HW118386   1.375   1.365   3.866  1.2380  1.3375  0.1984
 2251SOL    HW218387   1.331   1.455   3.766 -0.8030 -0.4921  0.8119
 2252SOL     OW18388   0.718   3.971   2.337 -0.0045  0.2348  0.1679
 2252SOL    HW118389   0.760   3.888   2.358 -2.7985 -1.0498  0.6990
 2252SOL    HW218390   0.632   3.962   2.378  0.0911  0.2522  0.3717
 2253SOL     OW18391   3.020   1.624  15.212 -0.3863 -0.0601 -0.2433
 2253SOL    HW118392   2.947   1.622  15.150 -1.2663 -0.6565  0.8171
 2253SOL    HW218393   2.984   1.676  15.283 -1.2859  0.5308 -1.1345
 2254SOL     OW18394   1.747   3.541   8.263 -0.7039 -0.7602 -0.4847
 2254SOL    HW118395   1.813   3.560   8.331 -2.8474 -0.6466  1.5758
 2254SOL    HW218396   1.800   3.496   8.197  0.5010 -0.5888  0.3538
 2255SOL     OW18397   1.203   2.425   9.179  0.4230 -0.0662 -0.3231
 2255SOL    HW118398   1.138   2.494   9.196  1.2340  0.0619  2.2465
 2255SOL    HW218399   1.180   2.355   9.239  0.0554  1.4195  1.2710
 2256SOL     OW18400   2.569   2.069  16.271  0.2001  0.4444 -0.1560
 2256SOL    HW118401   2.664   2.063  16.256 -0.2567  1.7800 -3.5947
 2256SOL    HW218402   2.536   2.109  16.190  1.1001  1.4130 -0.0462
 2257SOL     OW18403   2.573   1.414   5.259 -0.2726  0.2586  0.0742
 2257SOL    HW118404   2.619   1.490   5.293  0.6551 -0.8188  1.2315
 2257SOL    HW218405   2.547   1.445   5.172  0.1235 -0.4989 -0.3200
 2258SOL     OW18406   4.291   1.015   3.138 -0.0482  0.0889 -0.0391
 2258SOL    HW118407   4.293   1.028   3.043  1.9497  0.9980  0.1227
 2258SOL    HW218408   4.251   1.098   3.165  2.1116  0.8834  0.7546
 2259SOL     OW18409   3.848   2.951   5.075 -0.4886  0.4629  0.3067
 2259SOL    HW118410   3.752   2.947   5.080 -0.3583 -0.0777  2.2667
 2259SOL    HW218411   3.868   2.944   5.168 -0.2942  2.1328  0.3980
 2260SOL     OW18412   0.298   3.332   2.052  0.5808 -0.0928 -0.1955
 2260SOL    HW118413   0.248   3.364   2.127  1.1005 -0.2726  0.2305
 2260SOL    HW218414   0.229   3.327   1.986  1.3162  0.6031 -1.0244
 2261SOL     OW18415   1.395   1.816   7.523  0.4263 -0.1344 -0.1666
 2261SOL    HW118416   1.395   1.723   7.502 -0.0060 -0.3908  1.0121
 2261SOL    HW218417   1.306   1.839   7.496  1.8181  3.2178 -2.0207
 2262SOL     OW18418   2.959   0.555  14.529  0.5265  0.0398  0.2588
 2262SOL    HW118419   2.891   0.621  14.539 -2.1683 -2.3507 -2.0679
 2262SOL    HW218420   2.927   0.481  14.581  1.9939 -0.8648 -0.1228
 2263SOL     OW18421   4.252   1.230   3.901 -0.1361 -0.0463  0.3027
 2263SOL    HW118422   4.331   1.264   3.942  0.8959 -1.1741 -0.7315
 2263SOL    HW218423   4.291   1.202   3.818 -3.8612 -1.2573 -1.0459
 2264SOL     OW18424   3.260   1.005   5.452 -0.1053  0.0305  0.2067
 2264SOL    HW118425   3.189   1.032   5.393 -0.6843 -1.9586  0.0173
 2264SOL    HW218426   3.273   0.912   5.435  0.4850 -0.4347  3.1939
 2265SOL     OW18427   4.092   2.495   5.714  0.2533  0.5410  0.2296
 2265SOL    HW118428   4.023   2.486   5.648 -0.6579  2.3435  0.9466
 2265SOL    HW218429   4.052   2.458   5.793 -0.6985  0.6722 -0.1848
 2266SOL     OW18430   1.333   1.614   2.995 -0.1213  0.3245  0.7550
 2266SOL    HW118431   1.284   1.610   2.913  1.4769 -2.7089 -0.0390
 2266SOL    HW218432   1.311   1.704   3.019  0.3460  0.5774  0.2230
 2267SOL     OW18433   0.545   1.958   7.456 -0.4153  0.7199 -0.0306
 2267SOL    HW118434   0.606   2.030   7.474  2.0206 -1.0992 -0.9632
 2267SOL    HW218435   0.492   1.950   7.535  0.8667  0.1607  0.7702
 2268SOL     OW18436   0.881   0.003   1.733 -0.0958 -0.7416 -0.4656
 2268SOL    HW118437   0.937   0.026   1.807 -0.8210 -1.6079  0.3374
 2268SOL    HW218438   0.906   4.647   1.728 -0.0478 -0.6911 -1.1685
 2269SOL     OW18439   0.184   1.494   4.667 -0.3559 -0.3345 -0.8528
 2269SOL    HW118440   0.251   1.557   4.691 -1.8857  1.4913 -1.3565
 2269SOL    HW218441   0.153   1.548   4.594 -1.3876  1.4026  0.9019
 2270SOL     OW18442   0.829   1.835   3.407 -0.0931  0.4678 -0.0671
 2270SOL    HW118443   0.769   1.853   3.479 -0.6895 -0.9434 -0.2084
 2270SOL    HW218444   0.784   1.881   3.336 -1.0014 -1.1612 -0.5428
 2271SOL     OW18445   4.147   4.160  17.649 -0.0964  0.1327  0.2734
 2271SOL    HW118446   4.222   4.136  17.704  1.3483  2.0677 -0.8098
 2271SOL    HW218447   4.103   4.076  17.644  0.2045  0.0028 -0.1607
 2272SOL     OW18448   1.649   3.224   4.271  0.0035 -0.0208 -0.3241
 2272SOL    HW118449   1.707   3.283   4.223 -1.0771  0.4105 -1.1210
 2272SOL    HW218450   1.582   3.209   4.204  1.2221 -0.9511 -1.3239
 2273SOL     OW18451   2.006   1.794   4.330 -0.6694 -0.1312  0.4795
 2273SOL    HW118452   2.027   1.702   4.311  0.3599  0.3231 -0.5630
 2273SOL    HW218453   1.991   1.786   4.424  1.2910 -0.5639  0.7642
 2274SOL     OW18454   0.836   4.300   2.724  0.1241  0.1871  0.0443
 2274SOL    HW118455   0.795   4.300   2.638  0.6423 -2.2605 -0.1954
 2274SOL    HW218456   0.906   4.354   2.689  0.0745 -1.1934 -2.1470
 2275SOL     OW18457   0.011   1.305  13.302  0.0664 -0.5191 -0.5516
 2275SOL    HW118458   0.021   1.276  13.211 -0.3080 -0.0478 -0.7460
 2275SOL    HW218459   0.104   1.313  13.321 -0.2675  1.0900  0.4435
 2276SOL     OW18460   3.964   3.024  10.935  0.0904  0.6442  0.0066
 2276SOL    HW118461   3.982   3.055  10.846 -0.5165  0.2083 -0.2643
 2276SOL    HW218462   4.044   2.971  10.945  0.3415  0.8436 -0.9209
 2277SOL     OW18463   1.277   2.500   2.248  0.7550  0.6335  0.0650
 2277SOL    HW118464   1.290   2.570   2.184 -2.0300  3.2415  2.3645
 2277SOL    HW218465   1.227   2.555   2.309 -1.0240 -0.0341 -0.7689
 2278SOL     OW18466   4.218   1.653  14.261  0.0319 -0.1549 -0.4915
 2278SOL    HW118467   4.227   1.564  14.227 -1.5000 -0.8819  0.9785
 2278SOL    HW218468   4.307   1.688  14.248 -0.1304 -0.5996 -2.7091
 2279SOL     OW18469   0.472   4.454  12.976 -0.4825 -0.3503 -0.0673
 2279SOL    HW118470   0.495   4.424  13.064 -1.5545 -0.7449  0.0837
 2279SOL    HW218471   0.555   4.426  12.937 -0.8519 -0.6100 -0.6527
 2280SOL     OW18472   2.902   0.304   8.584 -0.2798  0.6484  0.2997
 2280SOL    HW118473   2.814   0.341   8.578 -0.3120  0.7312  1.3772
 2280SOL    HW218474   2.903   0.234   8.518 -1.8839 -0.0781  1.0499
 2281SOL     OW18475   3.982   3.721   9.213 -0.1408  0.6677  0.0737
 2281SOL    HW118476   4.029   3.734   9.295 -0.7851 -1.0859  0.7204
 2281SOL    HW218477   4.051   3.686   9.156  0.6355  3.2272 -0.5733
 2282SOL     OW18478   0.182   4.494   2.722 -0.5334  0.0523  0.2537
 2282SOL    HW118479   0.263   4.524   2.763 -0.3567  1.0919 -0.8758
 2282SOL    HW218480   0.209   4.488   2.631 -0.5561 -2.9678  0.4445
 2283SOL     OW18481   2.739   1.024  10.095 -0.4451 -0.2839  0.4290
 2283SOL    HW118482   2.813   1.072  10.057 -1.1318 -0.9006 -1.6859
 2283SOL    HW218483   2.784   0.993  10.173 -2.9332  0.0728  1.9789
 2284SOL     OW18484   4.129   0.437   3.129  0.1518 -0.7049 -0.2774
 2284SOL    HW118485   4.181   0.518   3.132 -1.2604  0.1033  2.8949
 2284SOL    HW218486   4.050   0.467   3.174 -0.5286 -0.3565 -1.7214
 2285SOL     OW18487   1.164   4.289   3.002  0.6241  0.1972 -0.3879
 2285SOL    HW118488   1.068   4.291   3.007  0.6161  2.0557 -1.0337
 2285SOL    HW218489   1.163   4.253   2.913  1.4264  2.1306 -1.1906
 2286SOL     OW18490   4.215   2.489   2.519 -0.0752 -0.7895  0.1281
 2286SOL    HW118491   4.276   2.438   2.465 -1.4345 -3.2562  0.9212
 2286SOL    HW218492   4.178   2.544   2.450 -0.5268 -1.1007  0.1290
 2287SOL     OW18493   2.181   4.547   6.199 -0.4536 -0.4524  0.2028
 2287SOL    HW118494   2.154   4.629   6.157 -1.4223 -0.8117  0.1247
 2287SOL    HW218495   2.184   4.556   6.294 -1.3853  1.4169  0.0517
 2288SOL     OW18496   3.263   2.270   5.916 -0.2351 -0.5479 -0.4068
 2288SOL    HW118497   3.307   2.269   5.831 -0.0236 -0.8936 -0.2925
 2288SOL    HW218498   3.281   2.360   5.944 -1.6247  0.1011 -1.5869
 2289SOL     OW18499   3.536   3.713   2.964  0.0066  0.0196 -0.1443
 2289SOL    HW118500   3.533   3.804   2.993  0.0007  0.6837 -2.1901
 2289SOL    HW218501   3.446   3.697   2.934 -0.6954  0.1014  1.9495
 2290SOL     OW18502   1.700   4.330  14.350 -0.2193  0.2617  0.2496
 2290SOL    HW118503   1.779   4.372  14.385 -1.4336  1.5022  1.4984
 2290SOL    HW218504   1.637   4.402  14.348 -0.0938  0.3928  0.7940
 2291SOL     OW18505   3.454   4.086   2.300 -0.6564 -0.0477 -0.0889
 2291SOL    HW118506   3.381   4.026   2.282 -1.0974  1.0061 -1.8020
 2291SOL    HW218507   3.417   4.149   2.362  1.1635 -0.3494  1.2825
 2292SOL     OW18508   3.838   3.731   2.551  0.1914 -0.0268 -0.1898
 2292SOL    HW118509   3.805   3.714   2.639 -0.7225  0.6841 -0.3956
 2292SOL    HW218510   3.773   3.795   2.523 -0.9877 -0.8670  0.6565
 2293SOL     OW18511   1.250   4.130   7.757 -0.2743 -0.2619 -0.5944
 2293SOL    HW118512   1.308   4.110   7.683 -2.1085  0.2083 -2.1613
 2293SOL    HW218513   1.179   4.175   7.711  0.8859  2.1999  0.0016
 2294SOL     OW18514   3.865   1.296   2.919  0.1713  0.0926 -0.0790
 2294SOL    HW118515   3.781   1.249   2.924  0.1010  0.5519  2.9419
 2294SOL    HW218516   3.907   1.239   2.854 -1.3051 -1.7994  0.6290
 2295SOL     OW18517   0.540   1.235   2.068 -1.1230  0.4408 -0.7696
 2295SOL    HW118518   0.536   1.311   2.125 -0.3154  0.7842 -1.1732
 2295SOL    HW218519   0.481   1.176   2.116 -1.3973  0.9112 -0.5278
 2296SOL     OW18520   2.861   1.929   3.150  0.1693 -0.4601  0.0343
 2296SOL    HW118521   2.794   1.983   3.191  1.3754  2.8580 -2.3735
 2296SOL    HW218522   2.861   1.853   3.209 -1.1357 -0.0913  0.5068
 2297SOL     OW18523   4.318   1.569   3.671  0.8316 -0.1447 -0.2148
 2297SOL    HW118524   4.361   1.485   3.655 -0.5545 -0.8039 -0.4436
 2297SOL    HW218525   4.231   1.531   3.681  1.4256 -1.3166  0.4773
 2298SOL     OW18526   0.908   2.665   2.019  0.1636 -0.3682  0.6531
 2298SOL    HW118527   0.855   2.586   2.005  3.2374 -2.1147 -0.9607
 2298SOL    HW218528   0.842   2.735   2.023 -0.0221 -0.5442  0.6746
 2299SOL     OW18529   0.095   4.336  15.952 -0.1289 -0.3287  0.0922
 2299SOL    HW118530   0.027   4.288  15.904 -0.9681 -0.2400  1.2100
 2299SOL    HW218531   0.142   4.269  16.002  0.3555 -0.5581 -0.6709
 2300SOL     OW18532   1.474   2.043   9.783 -0.6196 -0.3321  0.5022
 2300SOL    HW118533   1.458   2.059   9.876 -2.0646 -0.8474  0.3378
 2300SOL    HW218534   1.499   1.951   9.781  0.3704 -0.0824  2.1591
 2301SOL     OW18535   3.714   1.864   1.675 -0.5000 -0.7400  0.7513
 2301SOL    HW118536   3.767   1.806   1.729 -1.6691 -1.7805  0.7808
 2301SOL    HW218537   3.671   1.802   1.617  2.2516 -1.6884 -0.2659
 2302SOL     OW18538   2.847   0.716   1.260 -0.0014  0.1959  0.0038
 2302SOL    HW118539   2.813   0.694   1.173  1.8397 -0.1183 -0.6227
 2302SOL    HW218540   2.937   0.740   1.242 -0.5051  1.0994 -1.3215
 2303SOL     OW18541   4.551   0.188   8.380  0.6943  0.0585  0.1367
 2303SOL    HW118542   4.592   0.241   8.449 -0.1159  1.3711 -0.3920
 2303SOL    HW218543   4.563   0.102   8.421  0.6986 -0.9158 -1.9172
 2304SOL     OW18544   4.726   2.052  15.072 -0.4921 -0.5488 -1.1266
 2304SOL    HW118545   4.708   2.146  15.079 -0.2228 -0.5221 -0.8002
 2304SOL    HW218546   4.671   2.018  15.142  1.3445  1.3589  1.2607
 2305SOL     OW18547   4.399   1.415   4.117  0.2291  0.3300 -0.1654
 2305SOL    HW118548   4.472   1.370   4.074 -1.4642 -0.6015 -2.0464
 2305SOL    HW218549   4.457   1.471   4.169 -0.0115  1.6683 -1.3436
 2306SOL     OW18550   1.066   3.490   7.281  1.2376  0.4477 -0.0135
 2306SOL    HW118551   1.115   3.489   7.363 -0.2657  0.2304  0.8758
 2306SOL    HW218552   1.109   3.415   7.240  1.0356  0.8246 -0.9235
 2307SOL     OW18553   3.534   0.979   5.174 -0.2703 -0.7939  0.3274
 2307SOL    HW118554   3.615   0.973   5.226 -0.2337  1.3481  0.4847
 2307SOL    HW218555   3.557   1.049   5.114 -1.8480 -0.3249  0.2965
 2308SOL     OW18556   1.692   3.234   9.610 -0.0341 -0.2849  0.1689
 2308SOL    HW118557   1.746   3.186   9.674 -0.1819 -2.2297 -1.1460
 2308SOL    HW218558   1.764   3.235   9.546 -1.7228 -1.0464 -1.7378
 2309SOL     OW18559   3.421   1.255   6.698 -0.4594  0.2083 -0.1274
 2309SOL    HW118560   3.440   1.343   6.730  0.6742  0.6971 -2.1606
 2309SOL    HW218561   3.339   1.279   6.655  0.9197  1.6259 -1.9853
 2310SOL     OW18562   2.434   1.830   6.542  0.7231  0.5416  0.4015
 2310SOL    HW118563   2.476   1.745   6.530  0.0490  0.5248 -1.9533
 2310SOL    HW218564   2.410   1.824   6.634 -0.9716  1.8625  0.0365
 2311SOL     OW18565   3.833   4.517  10.143  0.2344  0.3968  0.2970
 2311SOL    HW118566   3.914   4.546  10.185  1.2533 -1.3474 -0.4729
 2311SOL    HW218567   3.864   4.446  10.087  1.0606 -0.3220  1.6821
 2312SOL     OW18568   4.687   4.133  15.794 -0.0520 -0.1350  0.0321
 2312SOL    HW118569   4.705   4.167  15.706 -0.3948 -0.0764 -0.0151
 2312SOL    HW218570   4.597   4.165  15.806 -1.0251 -2.2392 -1.5818
 2313SOL     OW18571   3.438   0.196   8.068 -0.0511 -0.2691  0.4173
 2313SOL    HW118572   3.514   0.140   8.086  1.9253  2.5436  0.8224
 2313SOL    HW218573   3.463   0.224   7.980  0.2302 -1.5987  0.0753
 2314SOL     OW18574   3.297   4.488   5.328  0.3207  1.1265  0.1016
 2314SOL    HW118575   3.383   4.472   5.288  0.5860  0.4238  0.9487
 2314SOL    HW218576   3.271   4.572   5.291  1.5878  1.0058 -1.0936
 2315SOL     OW18577   0.750   0.312   3.576 -0.5202 -0.2916 -0.0236
 2315SOL    HW118578   0.669   0.358   3.596  0.0059  0.5462  0.1967
 2315SOL    HW218579   0.708   0.227   3.590  0.1313 -0.4692  0.9029
 2316SOL     OW18580   0.262   4.680  15.967 -0.0885 -0.2752  0.1993
 2316SOL    HW118581   0.257   4.603  16.023  1.8420 -1.3415 -1.1189
 2316SOL    HW218582   0.271   4.648  15.877  0.8951  0.2206  0.1263
 2317SOL     OW18583   0.385   0.317  16.256  0.1280  0.1233  0.4920
 2317SOL    HW118584   0.397   0.350  16.167 -0.6109  2.4903  1.2653
 2317SOL    HW218585   0.429   0.234  16.239 -1.5982 -0.0057 -3.4477
 2318SOL     OW18586   3.563   1.022   3.549 -0.4196  0.7781  0.0464
 2318SOL    HW118587   3.638   0.974   3.514 -0.9279 -0.8589  1.2162
 2318SOL    HW218588   3.491   0.976   3.506  0.1727  0.1526 -0.2709
 2319SOL     OW18589   1.616   2.298   1.879  0.3807  0.1729 -0.0338
 2319SOL    HW118590   1.620   2.393   1.881  0.7312  0.2190 -2.2103
 2319SOL    HW218591   1.637   2.282   1.971  0.7350  0.8793  0.0030
 2320SOL     OW18592   4.630   1.297   6.266  0.2377  0.1743 -0.0598
 2320SOL    HW118593   4.673   1.379   6.290 -0.2995 -0.0464  1.6963
 2320SOL    HW218594   4.687   1.271   6.193 -1.9402 -0.8980 -1.3725
 2321SOL     OW18595   4.364   1.592   6.814 -0.2526  0.3825 -0.0781
 2321SOL    HW118596   4.317   1.568   6.894 -2.1678 -0.2354 -1.3739
 2321SOL    HW218597   4.440   1.629   6.858 -1.9055  1.6847  1.7242
 2322SOL     OW18598   3.498   3.163   1.292 -0.2911  0.2949  0.1197
 2322SOL    HW118599   3.421   3.157   1.236  0.0435 -2.5609 -0.0654
 2322SOL    HW218600   3.461   3.116   1.367  1.0190 -1.3998 -0.3036
 2323SOL     OW18601   2.340   3.671   8.559 -0.0873 -0.2790 -0.0710
 2323SOL    HW118602   2.315   3.579   8.571  0.9580 -0.3811  1.2491
 2323SOL    HW218603   2.319   3.710   8.643 -1.9106 -0.5014 -0.4181
 2324SOL     OW18604   4.731   1.479   8.669 -0.1319 -0.7043  0.1929
 2324SOL    HW118605   4.721   1.385   8.653  2.0372 -0.4605 -2.7097
 2324SOL    HW218606   4.687   1.500   8.752 -0.7602  0.5630 -0.4444
 2325SOL     OW18607   2.801   1.821   3.743  0.6963 -0.3359 -0.0850
 2325SOL    HW118608   2.825   1.730   3.760  1.3975  0.0632  1.0376
 2325SOL    HW218609   2.733   1.823   3.810  0.0642  2.6118 -0.8249
 2326SOL     OW18610   2.405   3.536   4.019 -0.6888 -0.0120  0.4406
 2326SOL    HW118611   2.361   3.451   4.018 -1.7695  0.5353  1.2448
 2326SOL    HW218612   2.411   3.552   4.113 -0.5853  1.9241  0.1063
 2327SOL     OW18613   3.038   1.618  17.136 -0.0280 -0.1970 -0.2765
 2327SOL    HW118614   3.114   1.668  17.105  0.3444 -1.7328 -1.8685
 2327SOL    HW218615   2.985   1.624  17.056  0.9542  0.0474 -0.9111
 2328SOL     OW18616   2.148   1.020   2.760 -0.3001  0.0620 -0.2729
 2328SOL    HW118617   2.150   0.988   2.670  0.9620 -1.0520  0.1525
 2328SOL    HW218618   2.094   1.099   2.753 -0.8976 -0.2337  1.0244
 2329SOL     OW18619   1.873   3.460   6.024  0.4585  0.1213  0.0722
 2329SOL    HW118620   1.953   3.483   6.072  1.0582 -3.3625  0.8131
 2329SOL    HW218621   1.877   3.364   6.033  0.1809  0.1413  0.3962
 2330SOL     OW18622   2.652   2.922  10.979 -0.0647  0.5737  0.7132
 2330SOL    HW118623   2.701   2.872  11.045 -2.7611 -1.5809  1.0558
 2330SOL    HW218624   2.569   2.875  10.984  0.4479 -0.4531 -0.4061
 2331SOL     OW18625   3.444   1.879  14.397  0.1399  0.6828 -0.3065
 2331SOL    HW118626   3.528   1.881  14.442  0.4575 -1.3838 -0.8218
 2331SOL    HW218627   3.458   1.839  14.311  0.0092 -1.1022  0.5087
 2332SOL     OW18628   0.282   3.612  13.223  0.3735 -0.6070 -0.9012
 2332SOL    HW118629   0.292   3.684  13.286  3.2117  0.5243 -2.6377
 2332SOL    HW218630   0.189   3.600  13.242  0.8171 -1.2322  0.8946
 2333SOL     OW18631   0.786   0.056   3.143 -0.1131 -0.1508 -0.3928
 2333SOL    HW118632   0.850   4.732   3.182 -0.4937  0.3845  1.0442
 2333SOL    HW218633   0.779   0.009   3.060  4.6705 -0.5318 -0.6185
 2334SOL     OW18634   0.393   2.693   8.819  0.3363  0.3475  0.1706
 2334SOL    HW118635   0.396   2.788   8.807  0.4724  0.5828  2.0757
 2334SOL    HW218636   0.465   2.681   8.757  1.1846 -1.2616  1.4657
 2335SOL     OW18637   2.545   3.774   3.222 -0.3332  0.5099  0.3523
 2335SOL    HW118638   2.454   3.781   3.195 -0.6518 -0.5128  1.1175
 2335SOL    HW218639   2.534   3.690   3.268 -0.1659 -0.7192 -1.8348
 2336SOL     OW18640   4.584   3.420   1.895 -0.6908  0.0577 -0.6561
 2336SOL    HW118641   4.491   3.404   1.881 -0.6079 -0.0623 -1.0909
 2336SOL    HW218642   4.608   3.475   1.820  0.7726  0.8314  0.3757
 2337SOL     OW18643   1.185   1.505   2.793 -0.2737  0.5546  0.3329
 2337SOL    HW118644   1.142   1.420   2.788  0.7768  0.0201  0.4379
 2337SOL    HW218645   1.248   1.501   2.720  0.0934 -1.8365  0.7885
 2338SOL     OW18646   0.573   0.931   2.493  0.4637 -0.9313  0.0742
 2338SOL    HW118647   0.667   0.943   2.489 -0.0042  2.9271  1.2588
 2338SOL    HW218648   0.561   0.914   2.399 -1.7962  1.3022 -0.0558
 2339SOL     OW18649   0.032   0.191   4.817  0.2503 -0.3296 -0.3871
 2339SOL    HW118650   4.695   0.152   4.769  0.2019 -2.1940  1.1611
 2339SOL    HW218651   0.097   0.125   4.791  0.4333 -0.6471  0.8377
 2340SOL     OW18652   4.724   0.481   1.762 -0.0023  0.2132  0.5290
 2340SOL    HW118653   0.020   0.446   1.679 -2.7286  1.3185 -0.9911
 2340SOL    HW218654   4.708   0.401   1.811 -0.1417  0.7284  1.3306
 2341SOL     OW18655   2.709   3.600   3.672  0.0856 -0.2213 -0.2112
 2341SOL    HW118656   2.698   3.532   3.739 -0.4440  0.0323 -0.0384
 2341SOL    HW218657   2.621   3.638   3.669 -0.1388 -0.5294  2.3483
 2342SOL     OW18658   0.381   3.808   9.126 -0.1813  0.6864 -0.0922
 2342SOL    HW118659   0.422   3.832   9.210 -1.3624  1.2802  0.3100
 2342SOL    HW218660   0.315   3.877   9.132 -1.9482 -1.0567  0.6116
 2343SOL     OW18661   1.738   2.596   3.895  0.4464  0.0868  0.0343
 2343SOL    HW118662   1.720   2.690   3.894 -1.1011 -0.1642  3.5408
 2343SOL    HW218663   1.657   2.564   3.855  0.2865 -1.1174  1.3229
 2344SOL     OW18664   2.615   4.252   6.377  0.2158  0.2038  0.2124
 2344SOL    HW118665   2.654   4.315   6.317  1.6924 -2.4305 -1.6486
 2344SOL    HW218666   2.595   4.190   6.306 -0.8957 -0.2977  0.9646
 2345SOL     OW18667   4.338   3.765   0.932 -0.2026  0.1362  0.1195
 2345SOL    HW118668   4.345   3.678   0.891  2.9001  0.6494 -0.4347
 2345SOL    HW218669   4.380   3.812   0.860  2.4299 -0.3017  1.4015
 2346SOL     OW18670   4.386   1.443   8.292 -0.1089  0.2072  0.0717
 2346SOL    HW118671   4.432   1.489   8.222 -0.2442  0.0529 -0.1180
 2346SOL    HW218672   4.359   1.366   8.242 -2.0992 -0.5354  2.3022
 2347SOL     OW18673   3.588   2.389   1.021 -0.4393  0.0119 -0.0482
 2347SOL    HW118674   3.523   2.408   0.953 -0.3468 -0.3780 -0.2433
 2347SOL    HW218675   3.611   2.473   1.061  0.0082 -0.4984  0.7678
 2348SOL     OW18676   2.042   3.190   6.351 -0.5343  0.0829  0.4505
 2348SOL    HW118677   1.992   3.250   6.405  3.3444  1.7114  2.2278
 2348SOL    HW218678   1.975   3.129   6.319  0.6548 -0.8963 -0.2116
 2349SOL     OW18679   2.939   1.039   7.997  0.4745  0.1334  0.4302
 2349SOL    HW118680   3.034   1.037   7.981  0.2615 -1.8853 -0.5556
 2349SOL    HW218681   2.933   1.105   8.066  0.5295 -0.3607  0.9099
 2350SOL     OW18682   2.751   4.527  11.937 -0.3205 -0.0738 -0.4431
 2350SOL    HW118683   2.834   4.482  11.922 -0.3458  0.3025 -1.7501
 2350SOL    HW218684   2.687   4.457  11.953 -0.0512 -0.4280 -0.9040
 2351SOL     OW18685   3.830   3.150   3.294  0.8287  0.2387 -0.3136
 2351SOL    HW118686   3.841   3.237   3.332  1.3748 -0.6637  1.6161
 2351SOL    HW218687   3.787   3.109   3.369 -0.2542  0.9300 -0.5633
 2352SOL     OW18688   1.293   3.163   6.779 -0.1237 -0.2720 -0.4632
 2352SOL    HW118689   1.326   3.073   6.783  0.4869  0.0165  0.8539
 2352SOL    HW218690   1.199   3.157   6.763 -0.1581 -1.7894  0.2494
 2353SOL     OW18691   2.990   4.003   8.240 -0.2686  0.2872  0.4817
 2353SOL    HW118692   2.917   4.029   8.183 -0.1444  1.4321  0.8483
 2353SOL    HW218693   3.067   4.023   8.186 -0.3940  0.9127  0.5256
 2354SOL     OW18694   4.267   2.900   4.790  0.2098 -0.1566 -0.2097
 2354SOL    HW118695   4.256   2.826   4.850 -0.1599 -0.5656 -0.7846
 2354SOL    HW218696   4.202   2.956   4.832  1.0337 -0.6425  1.7138
 2355SOL     OW18697   0.236   3.226   4.863 -0.2429  0.2157  0.5369
 2355SOL    HW118698   0.192   3.142   4.846 -0.1107  0.1823  0.3588
 2355SOL    HW218699   0.201   3.275   4.789 -0.6182  1.4644  1.5581
 2356SOL     OW18700   1.158   3.876   8.034 -0.0666 -0.5333  0.9077
 2356SOL    HW118701   1.177   3.787   8.061  0.8137 -0.5644  0.1803
 2356SOL    HW218702   1.066   3.881   8.060  0.0492  1.2247  1.0258
 2357SOL     OW18703   4.267   1.887  12.414 -0.1741  0.1143  0.4509
 2357SOL    HW118704   4.361   1.866  12.412 -0.0195  1.0008 -1.8314
 2357SOL    HW218705   4.231   1.826  12.477  1.0795 -1.5798 -0.4892
 2358SOL     OW18706   4.464   1.826   8.033  0.7807  0.1947 -0.0561
 2358SOL    HW118707   4.531   1.809   8.099  0.7332 -3.9186 -1.0512
 2358SOL    HW218708   4.511   1.883   7.973  0.2118  0.3728 -0.3354
 2359SOL     OW18709   0.541   4.255   2.282 -0.6344 -0.0095  0.1465
 2359SOL    HW118710   0.454   4.287   2.303 -0.6604 -0.0038  0.0325
 2359SOL    HW218711   0.543   4.260   2.186 -2.2023 -0.1548  0.1063
 2360SOL     OW18712   0.308   3.105   6.578  0.1791  0.3475 -0.2236
 2360SOL    HW118713   0.385   3.051   6.595  0.2636  1.3542  2.5407
 2360SOL    HW218714   0.289   3.126   6.669 -0.9280 -2.3980  0.1722
 2361SOL     OW18715   3.060   0.842   8.909 -0.1135 -0.1299 -0.0561
 2361SOL    HW118716   3.140   0.864   8.956 -0.1769 -0.4382  0.2030
 2361SOL    HW218717   2.993   0.902   8.942  1.2742  1.2817  0.1776
 2362SOL     OW18718   1.334   3.056  15.965 -0.4343 -0.3709 -0.2609
 2362SOL    HW118719   1.251   3.085  15.927 -0.7202 -0.7337  0.0892
 2362SOL    HW218720   1.397   3.078  15.897 -0.3664  0.1883 -0.0159
 2363SOL     OW18721   2.983   2.409   7.662 -0.3998  0.0054 -0.2165
 2363SOL    HW118722   2.897   2.445   7.640  1.0016  2.7957 -1.2547
 2363SOL    HW218723   3.038   2.486   7.648 -0.4227 -0.3302 -2.2414
 2364SOL     OW18724   0.745   3.667   8.063  0.9831  0.0844  0.1029
 2364SOL    HW118725   0.734   3.755   8.027  2.1130  0.7149  1.3133
 2364SOL    HW218726   0.840   3.659   8.066  0.9153  0.2529  2.4839
 2365SOL     OW18727   1.269   2.739   7.430  0.5511  0.0331  0.1209
 2365SOL    HW118728   1.345   2.681   7.426  0.3182 -0.3551  1.6761
 2365SOL    HW218729   1.322   2.816   7.448  1.3528 -0.2095 -1.2153
 2366SOL     OW18730   0.054   1.372  15.216  0.0419 -0.0892 -0.0311
 2366SOL    HW118731   0.011   1.446  15.259  0.8653 -0.5720  1.6164
 2366SOL    HW218732   0.027   1.390  15.126  1.0894  0.5213 -0.2294
 2367SOL     OW18733   3.696   0.009   4.867 -0.1878  0.1581  0.1711
 2367SOL    HW118734   3.735   0.040   4.786 -1.6533 -1.1655 -1.0576
 2367SOL    HW218735   3.667   4.662   4.830  1.5260 -0.0465 -0.6986
 2368SOL     OW18736   2.401   1.019   7.042  0.4492 -0.0676  0.1249
 2368SOL    HW118737   2.465   1.089   7.032  0.5870 -0.0494  1.1492
 2368SOL    HW218738   2.323   1.054   6.997  0.9933 -0.0045 -0.7758
 2369SOL     OW18739   0.582   4.609   3.821  0.2627  0.0275 -0.0775
 2369SOL    HW118740   0.592   4.648   3.907  1.6321  0.3968 -0.3988
 2369SOL    HW218741   0.491   4.585   3.801 -0.0400  1.0147  0.1290
 2370SOL     OW18742   0.288   3.966  17.261  0.0118 -0.1206  0.0446
 2370SOL    HW118743   0.362   3.979  17.321 -0.7187 -2.0555  1.3639
 2370SOL    HW218744   0.314   4.039  17.205  1.9769  0.0748  1.2004
 2371SOL     OW18745   0.859   3.070   9.733 -0.8620 -0.9404 -0.5699
 2371SOL    HW118746   0.935   3.082   9.791 -1.1758  0.1632 -0.3836
 2371SOL    HW218747   0.839   2.977   9.742 -1.4329 -0.7542  0.1162
 2372SOL     OW18748   2.610   1.148   4.709  0.3896 -0.1427  0.3553
 2372SOL    HW118749   2.562   1.230   4.719  0.5245 -0.1507  1.0772
 2372SOL    HW218750   2.557   1.116   4.636 -1.1960 -0.8301  1.8218
 2373SOL     OW18751   1.895   3.279   7.032  0.2347 -0.2354 -0.3795
 2373SOL    HW118752   1.823   3.339   7.054  2.0475  1.6920  0.2729
 2373SOL    HW218753   1.930   3.327   6.957  0.8496 -0.3594 -0.1717
 2374SOL     OW18754   1.582   3.232  10.496 -0.1930  0.0621 -0.0076
 2374SOL    HW118755   1.501   3.189  10.467  1.9333 -3.0948 -1.2737
 2374SOL    HW218756   1.549   3.277  10.574 -0.0223  2.1752 -1.1837
 2375SOL     OW18757   2.335   2.026   7.457  0.4138  0.3350 -0.1438
 2375SOL    HW118758   2.244   2.026   7.488  0.5285  2.0642  0.1994
 2375SOL    HW218759   2.375   2.085   7.521  0.5462  2.2219 -1.9739
 2376SOL     OW18760   2.801   1.019   3.468 -0.1435 -0.1169  0.4833
 2376SOL    HW118761   2.713   1.008   3.504 -0.5120 -2.1275 -1.0475
 2376SOL    HW218762   2.854   0.998   3.545  1.8467 -0.4302 -0.9742
 2377SOL     OW18763   2.000   3.785   7.165  0.3587  0.2726 -0.4659
 2377SOL    HW118764   1.948   3.706   7.182  0.3702  0.9060  2.4601
 2377SOL    HW218765   2.040   3.789   7.252  1.5148 -0.4447 -0.9714
 2378SOL     OW18766   3.563   4.538   5.520  0.2875 -0.1036 -0.0004
 2378SOL    HW118767   3.598   4.591   5.448  3.9331 -0.7256  1.3134
 2378SOL    HW218768   3.620   4.462   5.513  1.0426  0.4142  0.4791
 2379SOL     OW18769   2.512   3.787   4.013  0.0408 -0.1893  0.2246
 2379SOL    HW118770   2.503   3.705   3.965  0.2283  0.3300 -0.6988
 2379SOL    HW218771   2.596   3.821   3.984  0.5679 -1.9689 -0.3041
 2380SOL     OW18772   0.665   3.367   6.253 -0.0173  0.0324  0.3437
 2380SOL    HW118773   0.661   3.386   6.346 -1.3253  0.2381  0.2420
 2380SOL    HW218774   0.579   3.328   6.236  1.7816 -2.9184 -2.0347
 2381SOL     OW18775   0.232   4.116   6.460  0.2306 -0.8165  0.2103
 2381SOL    HW118776   0.183   4.104   6.542 -2.4084  2.1700 -0.9351
 2381SOL    HW218777   0.301   4.179   6.481  0.7954 -1.6645  0.9176
 2382SOL     OW18778   2.642   3.940   9.351 -0.1585 -0.0514 -0.1462
 2382SOL    HW118779   2.657   3.887   9.430  2.0055 -1.1507 -1.2816
 2382SOL    HW218780   2.639   4.031   9.381  0.2723 -0.4262  1.0267
 2383SOL     OW18781   4.000   0.697   1.678  0.0427 -0.1451  0.1681
 2383SOL    HW118782   4.000   0.637   1.752 -0.0830  0.4387  0.6353
 2383SOL    HW218783   4.075   0.753   1.695 -1.5934  2.5699 -1.5209
 2384SOL     OW18784   2.224   4.572   8.539 -0.2532  0.6777  0.0868
 2384SOL    HW118785   2.308   4.528   8.553 -1.7220 -2.1642 -0.1375
 2384SOL    HW218786   2.255   4.654   8.499  2.7536 -0.8138 -0.6569
 2385SOL     OW18787   2.858   3.571   4.173  0.1712 -0.1297  0.1101
 2385SOL    HW118788   2.882   3.496   4.226 -0.6754 -1.5974 -1.5759
 2385SOL    HW218789   2.820   3.535   4.092  0.3146  0.0976 -0.0580
 2386SOL     OW18790   4.426   0.581   0.843  0.0661 -0.4953 -0.3704
 2386SOL    HW118791   4.510   0.622   0.822 -0.2928  1.7408  2.5865
 2386SOL    HW218792   4.361   0.650   0.851  0.6784  0.0474 -0.1404
 2387SOL     OW18793   4.545   3.025   5.557 -0.4348 -0.0718  0.1653
 2387SOL    HW118794   4.598   2.973   5.618 -1.1690 -1.8114 -0.6543
 2387SOL    HW218795   4.586   3.109   5.575  0.8495 -0.5498 -0.4424
 2388SOL     OW18796   2.528   0.330  17.584 -0.2305  1.3553 -0.9424
 2388SOL    HW118797   2.609   0.338  17.534  0.5358  1.7106  0.3394
 2388SOL    HW218798   2.513   0.420  17.614 -1.9742  0.5994  0.4695
 2389SOL     OW18799   1.009   1.677   5.489 -0.1008 -0.6854  0.4958
 2389SOL    HW118800   0.950   1.752   5.479 -1.5811 -2.2805 -2.9956
 2389SOL    HW218801   1.039   1.688   5.579  0.8598 -3.1285  0.4886
 2390SOL     OW18802   0.925   2.741   4.083 -0.3656  0.6708  0.3034
 2390SOL    HW118803   0.963   2.749   3.995  0.4284 -1.5156  0.4467
 2390SOL    HW218804   0.850   2.799   4.075 -0.5263  0.4488  0.2102
 2391SOL     OW18805   0.819   2.916   2.281 -0.3840  0.2580  0.1877
 2391SOL    HW118806   0.901   2.936   2.236 -0.1327 -1.4664 -0.1288
 2391SOL    HW218807   0.783   3.003   2.297 -2.7730 -0.9735  1.3320
 2392SOL     OW18808   0.754   3.816   8.589  0.3219 -0.1504  0.1041
 2392SOL    HW118809   0.815   3.744   8.576 -0.8348 -1.1910  0.4458
 2392SOL    HW218810   0.734   3.816   8.683 -0.0921 -0.5579  0.0176
 2393SOL     OW18811   3.458   0.511  10.148 -0.0960  0.3564  0.4862
 2393SOL    HW118812   3.434   0.580  10.210  0.5636 -0.6947  1.9065
 2393SOL    HW218813   3.415   0.441  10.198  0.4909 -0.4242 -0.1206
 2394SOL     OW18814   0.646   4.240   7.869  0.0844  0.1980 -0.0244
 2394SOL    HW118815   0.679   4.322   7.905  0.2225  0.2122 -0.1835
 2394SOL    HW218816   0.610   4.205   7.951 -1.9451  1.2483 -0.4618
 2395SOL     OW18817   0.743   2.776   6.544 -0.2566  0.0008  0.0202
 2395SOL    HW118818   0.698   2.695   6.520  0.6728 -0.2604 -0.8229
 2395SOL    HW218819   0.767   2.816   6.461 -2.8600  1.5169 -0.0228
 2396SOL     OW18820   2.033   3.755   4.750 -0.1415 -0.2107 -0.1148
 2396SOL    HW118821   2.007   3.663   4.756 -1.7271  0.2644  0.2600
 2396SOL    HW218822   2.042   3.763   4.655 -0.3366  1.9436  0.0528
 2397SOL     OW18823   3.143   2.127  10.709 -0.1630 -0.1469 -0.0692
 2397SOL    HW118824   3.085   2.187  10.756  0.3195  0.0494  0.2900
 2397SOL    HW218825   3.083   2.059  10.680 -2.3653  1.9164 -0.2959
 2398SOL     OW18826   2.396   1.305   6.310 -0.4227  0.3126 -0.5172
 2398SOL    HW118827   2.388   1.213   6.335 -1.2768  0.3337 -0.7286
 2398SOL    HW218828   2.304   1.331   6.305  0.0317  2.0966  0.2151
 2399SOL     OW18829   0.992   2.190   5.693  0.4488  0.1990  0.1481
 2399SOL    HW118830   0.971   2.158   5.781  2.6836  0.8201  0.9283
 2399SOL    HW218831   0.983   2.285   5.704 -1.3057  0.0647 -0.1887
 2400SOL     OW18832   1.828   3.494   5.742 -0.2461  0.4429 -0.0719
 2400SOL    HW118833   1.920   3.506   5.716 -0.5638 -0.4538 -1.6204
 2400SOL    HW218834   1.827   3.506   5.837 -2.5441  0.2175 -0.0693
 2401SOL     OW18835   3.970   3.773   5.647  0.1871 -0.4814  0.2488
 2401SOL    HW118836   4.043   3.712   5.648 -0.0313 -0.7502 -0.6383
 2401SOL    HW218837   4.026   3.851   5.650  0.2889 -0.4880 -1.8624
 2402SOL     OW18838   3.068   3.104   8.901 -0.1197  0.1868 -0.4002
 2402SOL    HW118839   3.110   3.159   8.967 -0.3957 -0.6662  0.4781
 2402SOL    HW218840   3.138   3.045   8.873 -1.6764 -2.2869  0.9642
 2403SOL     OW18841   2.765   4.216   9.272 -0.4877  0.3784 -0.2482
 2403SOL    HW118842   2.819   4.170   9.335 -1.8877  1.4472  1.7303
 2403SOL    HW218843   2.756   4.296   9.324  1.7890  0.5216 -0.0842
 2404SOL     OW18844   4.366   2.293   5.690 -0.0570 -0.2110  0.3049
 2404SOL    HW118845   4.289   2.310   5.745 -0.6589 -1.5176 -0.1269
 2404SOL    HW218846   4.371   2.375   5.641  2.2776 -0.3540  0.2797
 2405SOL     OW18847   2.949   1.134  15.538  0.4052  0.4961 -0.0068
 2405SOL    HW118848   2.926   1.126  15.446  2.8140 -0.0751 -0.5362
 2405SOL    HW218849   2.990   1.221  15.542  1.7723 -0.0585 -2.2851
 2406SOL     OW18850   2.290   0.995  10.067 -0.0842  0.3594 -0.4158
 2406SOL    HW118851   2.285   0.907  10.030 -0.6792  0.4539 -0.5606
 2406SOL    HW218852   2.347   0.980  10.143 -1.0224  0.2269  0.2575
 2407SOL     OW18853   2.906   3.774  12.983  0.1287 -0.5494 -0.8776
 2407SOL    HW118854   2.938   3.783  12.894  0.9432 -0.4895 -0.5787
 2407SOL    HW218855   2.988   3.781  13.032  0.5071 -0.7751 -1.4941
 2408SOL     OW18856   2.404   4.189   3.364  0.3869  0.2639  0.4507
 2408SOL    HW118857   2.332   4.143   3.407  0.8164 -0.3690  0.4879
 2408SOL    HW218858   2.387   4.280   3.388 -0.8346  0.3260 -0.6490
 2409SOL     OW18859   0.660   4.084   9.180 -0.8117 -0.0368 -0.1328
 2409SOL    HW118860   0.715   4.162   9.188  1.4164 -1.5815 -0.2229
 2409SOL    HW218861   0.644   4.067   9.273  1.8411 -0.5893  0.2349
 2410SOL     OW18862   2.307   3.936   7.530 -0.3567 -0.4503  0.2363
 2410SOL    HW118863   2.342   3.942   7.618 -0.1487  0.9634  0.0489
 2410SOL    HW218864   2.355   3.856   7.507  2.5473  1.2606  0.3630
 2411SOL     OW18865   1.820   0.277   7.924 -0.1765  0.2661 -0.0589
 2411SOL    HW118866   1.755   0.276   7.853 -1.3178 -3.4410  1.0465
 2411SOL    HW218867   1.785   0.210   7.982  3.8443 -0.3078  1.6667
 2412SOL     OW18868   0.135   0.378   5.410  0.1241  0.6362  0.1976
 2412SOL    HW118869   0.174   0.297   5.376  0.3523  0.7863  0.1026
 2412SOL    HW218870   0.208   0.435   5.434  1.4131 -1.1840  0.5813
 2413SOL     OW18871   3.090   1.360  10.155 -0.0200  0.9790 -0.1571
 2413SOL    HW118872   3.159   1.334  10.216  0.5183  0.0811 -1.1640
 2413SOL    HW218873   3.015   1.350  10.215  0.4048 -1.4899 -0.0636
 2414SOL     OW18874   1.431   0.987   5.525  0.5406  0.7030  0.1059
 2414SOL    HW118875   1.450   0.954   5.613 -0.8309 -0.6634 -0.0975
 2414SOL    HW218876   1.439   1.081   5.538 -1.1595  1.1281 -1.9466
 2415SOL     OW18877   0.902   3.851   7.056  0.7884  0.5050 -0.3100
 2415SOL    HW118878   0.824   3.846   7.111  0.8052  0.3059 -0.3060
 2415SOL    HW218879   0.964   3.838   7.127 -0.1909 -0.3967  0.3771
 2416SOL     OW18880   1.297   0.832   9.227 -0.2320  0.1663 -0.5522
 2416SOL    HW118881   1.337   0.894   9.288  1.4645  0.4321 -1.9057
 2416SOL    HW218882   1.203   0.826   9.242 -0.2469  1.2049 -0.1674
 2417SOL     OW18883   3.426   1.295  10.067  0.3258  0.0172  0.7089
 2417SOL    HW118884   3.444   1.290  10.161  0.1211  0.1395  0.7541
 2417SOL    HW218885   3.345   1.343  10.080 -0.1842 -0.8172  0.5869
 2418SOL     OW18886   3.012   0.245   0.205  0.6669  0.0968  0.7542
 2418SOL    HW118887   3.001   0.329   0.248  1.1200  1.2748 -1.4206
 2418SOL    HW218888   2.931   0.197   0.220  0.5733 -0.2488 -0.8325
 2419SOL     OW18889   3.214   3.954   4.030  0.2457  0.0870 -0.0656
 2419SOL    HW118890   3.169   3.926   4.109 -0.8214  0.0973 -0.6637
 2419SOL    HW218891   3.204   3.869   3.987 -1.1152 -0.8539  2.1512
 2420SOL     OW18892   0.382   4.287   6.624  0.4011  0.4373  0.3691
 2420SOL    HW118893   0.363   4.262   6.715  0.1929  0.7270  0.4071
 2420SOL    HW218894   0.476   4.296   6.637  0.3297  2.0906 -0.3125
 2421SOL     OW18895   1.112   3.753   5.601  0.0576 -0.3522  0.6388
 2421SOL    HW118896   1.138   3.735   5.691  3.0315  1.0070  0.0537
 2421SOL    HW218897   1.109   3.669   5.555  0.9525  0.8881 -1.7312
 2422SOL     OW18898   0.591   0.290   0.878  0.1707 -0.2860  0.1580
 2422SOL    HW118899   0.636   0.365   0.918 -0.9265  0.2081  0.4580
 2422SOL    HW218900   0.542   0.261   0.955  0.0685  0.0419  0.2182
 2423SOL     OW18901   3.550   0.826  17.489  0.2667  0.8192  0.4010
 2423SOL    HW118902   3.637   0.844  17.525  0.3216 -0.6622  1.0318
 2423SOL    HW218903   3.508   0.888  17.548 -0.5114  0.5782  0.1076
 2424SOL     OW18904   2.857   3.514   2.096 -0.0214 -0.2863 -0.0109
 2424SOL    HW118905   2.916   3.439   2.099 -0.0058 -0.2323  0.9850
 2424SOL    HW218906   2.885   3.564   2.020 -0.4517 -0.1119 -0.0568
 2425SOL     OW18907   0.596   1.288   6.397  1.1731 -0.0343  0.6072
 2425SOL    HW118908   0.619   1.381   6.392 -3.1072  0.9317 -1.5356
 2425SOL    HW218909   0.528   1.290   6.464  0.8026 -1.0808  0.2646
 2426SOL     OW18910   1.675   0.401   9.798 -0.4744  0.3232  0.0578
 2426SOL    HW118911   1.699   0.313   9.827 -0.2984  0.7195  1.1358
 2426SOL    HW218912   1.639   0.439   9.878 -0.9464  0.1449 -0.0690
 2427SOL     OW18913   2.494   4.270  17.150 -0.3375 -0.4057 -0.4588
 2427SOL    HW118914   2.414   4.219  17.145  0.6335 -2.0870  1.2051
 2427SOL    HW218915   2.539   4.256  17.067 -2.0255  0.9864 -1.5866
 2428SOL     OW18916   1.308   0.811   7.914 -0.0343  0.0280 -0.0652
 2428SOL    HW118917   1.378   0.785   7.975 -0.1062  0.4551  0.1989
 2428SOL    HW218918   1.331   0.766   7.833 -0.7208  1.4902 -1.0490
 2429SOL     OW18919   1.052   3.077   9.353 -0.0282  0.0865  0.0563
 2429SOL    HW118920   1.046   3.137   9.427  0.5882 -0.9779  0.9836
 2429SOL    HW218921   1.142   3.046   9.368  0.2180  1.4027  1.2584
 2430SOL     OW18922   2.043   1.838   3.311  0.8450  0.2989  0.3876
 2430SOL    HW118923   2.008   1.927   3.314 -1.9265 -0.8760  2.6892
 2430SOL    HW218924   2.078   1.825   3.399 -0.1717 -2.1146  0.4287
 2431SOL     OW18925   0.602   3.016   8.064  0.2189  0.0932  0.4756
 2431SOL    HW118926   0.650   2.943   8.104 -1.4038 -0.6625  1.0564
 2431SOL    HW218927   0.516   2.978   8.048  0.2492 -0.1161  0.8156
 2432SOL     OW18928   4.108   2.812   7.138  0.2404  0.5782 -0.5260
 2432SOL    HW118929   4.111   2.827   7.232 -0.1855 -0.5134 -0.3389
 2432SOL    HW218930   4.201   2.805   7.118  0.1247 -1.7315 -0.2930
 2433SOL     OW18931   1.636   0.993  10.953  0.1252 -0.0810 -0.0007
 2433SOL    HW118932   1.687   0.994  11.033  1.2971 -1.3625 -0.7268
 2433SOL    HW218933   1.698   1.036  10.894  1.5032 -1.0195  0.7706
 2434SOL     OW18934   0.042   3.862   5.402 -0.0547  0.5807  0.2137
 2434SOL    HW118935   4.684   3.856   5.383 -0.1844 -3.6396  2.1782
 2434SOL    HW218936   0.062   3.771   5.381  0.9741  1.0262 -0.6706
 2435SOL     OW18937   1.290   2.729   1.153 -0.2183 -0.2668 -0.0445
 2435SOL    HW118938   1.201   2.712   1.123 -0.6276  0.5494  0.7357
 2435SOL    HW218939   1.283   2.686   1.238  0.9471  2.9455  1.6818
 2436SOL     OW18940   0.107   0.461   6.492 -0.1789 -0.2824 -0.0678
 2436SOL    HW118941   0.086   0.532   6.553  3.5716 -2.3632  3.6028
 2436SOL    HW218942   0.160   0.409   6.553 -1.6572  0.7832  2.1149
 2437SOL     OW18943   0.708   2.810   6.266 -0.4020  0.4108  0.8518
 2437SOL    HW118944   0.721   2.853   6.182 -0.1879  4.0683  2.7851
 2437SOL    HW218945   0.753   2.729   6.242 -0.4063  0.9364 -0.9306
 2438SOL     OW18946   4.250   2.780  12.773 -0.0921 -0.4716 -0.0122
 2438SOL    HW118947   4.297   2.809  12.851 -0.3258 -0.0773 -0.0160
 2438SOL    HW218948   4.266   2.859  12.720  0.0660  0.0307  0.7957
 2439SOL     OW18949   0.931   0.386  10.555 -0.7544 -0.7149 -0.0706
 2439SOL    HW118950   0.890   0.410  10.638 -0.8576 -0.7524 -0.1106
 2439SOL    HW218951   1.007   0.443  10.555 -1.7843  0.6704 -3.2186
 2440SOL     OW18952   3.495   3.829   3.999  0.6697 -0.2203  0.2645
 2440SOL    HW118953   3.466   3.809   4.088  0.9479  0.0143  0.4057
 2440SOL    HW218954   3.456   3.753   3.957  0.5879 -1.2848  2.2616
 2441SOL     OW18955   4.108   0.308   6.425  0.4126  0.6376 -0.0617
 2441SOL    HW118956   4.092   0.379   6.363 -2.0041 -0.0273 -0.1983
 2441SOL    HW218957   4.169   0.351   6.484 -0.1564 -0.1062  1.0775
 2442SOL     OW18958   4.320   1.777   2.780  1.0669 -0.5421 -0.1672
 2442SOL    HW118959   4.290   1.774   2.689 -0.0381 -0.1331  0.1825
 2442SOL    HW218960   4.309   1.869   2.803 -1.5922 -0.4860 -1.6793
 2443SOL     OW18961   2.002   2.956  12.899 -0.0685 -0.7492 -0.2914
 2443SOL    HW118962   2.072   3.015  12.871 -0.6338  0.4024  0.7344
 2443SOL    HW218963   1.927   3.014  12.915 -0.7751 -1.0578 -2.5498
 2444SOL     OW18964   2.059   1.658  11.434  0.0162 -0.1171  0.2734
 2444SOL    HW118965   2.132   1.720  11.435  2.7036 -3.2501  0.6708
 2444SOL    HW218966   2.101   1.571  11.434  0.0014 -0.1157  2.9495
 2445SOL     OW18967   3.438   4.292   5.158  0.2219  0.1340 -0.0971
 2445SOL    HW118968   3.409   4.352   5.089 -0.0425  2.1596  1.7890
 2445SOL    HW218969   3.358   4.243   5.177  1.1907 -1.3740  0.0999
 2446SOL     OW18970   4.362   2.247   8.625 -0.2584 -0.4664 -0.1814
 2446SOL    HW118971   4.417   2.169   8.626  1.1248  0.4979 -1.2308
 2446SOL    HW218972   4.330   2.248   8.716  0.4661 -2.0390  0.0810
 2447SOL     OW18973   0.123   0.962   7.135 -0.3527 -0.3689  0.3092
 2447SOL    HW118974   0.061   0.917   7.078  0.3766 -0.8174 -0.1312
 2447SOL    HW218975   0.064   1.015   7.188  2.3740  3.4909 -0.5273
 2448SOL     OW18976   0.032   3.562   7.746  0.1789 -0.4179 -0.1911
 2448SOL    HW118977   0.039   3.486   7.804 -0.4012  1.2465  2.0528
 2448SOL    HW218978   4.719   3.518   7.676  1.3178  0.4846 -1.5523
 2449SOL     OW18979   2.032   3.387   1.960 -0.5914  0.5261  0.0571
 2449SOL    HW118980   2.079   3.459   1.918  1.9172 -0.0648  1.8578
 2449SOL    HW218981   2.104   3.325   1.969 -0.5977  0.2113 -2.1232
 2450SOL     OW18982   2.557   2.498   8.798  0.4228 -0.0721  0.0147
 2450SOL    HW118983   2.605   2.445   8.861  0.9144  0.3804  0.0206
 2450SOL    HW218984   2.486   2.533   8.852 -0.8514 -2.4984 -0.0432
 2451SOL     OW18985   4.575   2.397  10.846  0.8545 -0.3044 -0.0288
 2451SOL    HW118986   4.493   2.355  10.873 -0.8325  1.9559 -1.6466
 2451SOL    HW218987   4.589   2.464  10.913  1.7105 -2.0635  1.5643
 2452SOL     OW18988   3.293   1.212   7.559 -0.3277  0.0527  0.2464
 2452SOL    HW118989   3.273   1.120   7.578 -0.0621 -0.2371 -0.8864
 2452SOL    HW218990   3.290   1.259   7.642  0.2772  0.1734  0.2006
 2453SOL     OW18991   0.301   2.417   6.259  0.0718 -0.1210  0.1158
 2453SOL    HW118992   0.205   2.412   6.253 -0.0545  2.6674  0.0444
 2453SOL    HW218993   0.336   2.446   6.175  1.5248 -0.4459  0.6105
 2454SOL     OW18994   2.114   4.146   4.231 -0.7281 -1.2195  0.0351
 2454SOL    HW118995   2.061   4.068   4.213 -2.1379 -0.3495  0.3730
 2454SOL    HW218996   2.157   4.130   4.315 -2.2550 -0.5563  0.9578
 2455SOL     OW18997   2.952   3.614   5.555 -0.1394 -0.3515 -0.0367
 2455SOL    HW118998   3.027   3.578   5.601  0.1560  0.7833  0.3657
 2455SOL    HW218999   2.895   3.640   5.627  1.7543 -1.6698  1.9285
 2456SOL     OW19000   1.363   0.576   7.214  0.3118  0.6833 -0.0691
 2456SOL    HW119001   1.281   0.569   7.263  0.4071 -1.0383 -0.1597
 2456SOL    HW219002   1.332   0.579   7.124 -0.5948  0.3225  0.2388
 2457SOL     OW19003   3.069   3.945   2.744  0.6272  0.2309 -0.2021
 2457SOL    HW119004   3.017   3.936   2.664 -0.0769 -0.8930  0.3893
 2457SOL    HW219005   2.997   3.949   2.806 -1.4102  0.6802 -2.5820
 2458SOL     OW19006   2.080   1.407  12.011  0.4850  0.2839 -0.2262
 2458SOL    HW119007   2.142   1.475  12.035  0.1095  0.8184 -0.7646
 2458SOL    HW219008   2.091   1.332  12.069  0.6257 -0.4625 -1.2246
 2459SOL     OW19009   1.169   3.494   4.333  0.4044  0.0075  0.2331
 2459SOL    HW119010   1.128   3.409   4.352 -1.4729  1.0867  1.0738
 2459SOL    HW219011   1.212   3.482   4.249  1.4160 -0.8499  0.8689
 2460SOL     OW19012   1.524   1.870   9.370 -0.1396 -0.1538  0.1379
 2460SOL    HW119013   1.474   1.796   9.337 -0.1003  0.2985 -0.9438
 2460SOL    HW219014   1.599   1.824   9.409  0.5650  1.6567  0.9290
 2461SOL     OW19015   3.049   2.538   8.928  0.1319  0.0278 -0.5191
 2461SOL    HW119016   3.039   2.566   9.019 -1.3413 -0.0766 -0.6547
 2461SOL    HW219017   3.141   2.561   8.916 -0.3207  2.7568  1.3271
 2462SOL     OW19018   1.965   1.586  15.163  0.1268  0.4225  0.1823
 2462SOL    HW119019   1.925   1.658  15.212  0.4686 -0.0308  1.1365
 2462SOL    HW219020   1.891   1.548  15.117  0.4042  0.5518 -0.3702
 2463SOL     OW19021   4.338   1.919   9.378 -0.2528 -0.4854  0.1978
 2463SOL    HW119022   4.407   1.863   9.344 -2.9611 -2.6826 -1.6727
 2463SOL    HW219023   4.325   1.976   9.302  0.7000  0.3135  0.6344
 2464SOL     OW19024   3.180   3.802   4.571 -0.1804 -0.1672 -0.4736
 2464SOL    HW119025   3.119   3.733   4.600  0.3511 -0.7275 -0.6989
 2464SOL    HW219026   3.261   3.778   4.616  0.2334 -1.9530 -2.1664
 2465SOL     OW19027   0.342   0.059   3.395 -0.1490 -0.1376  0.0458
 2465SOL    HW119028   0.340   0.155   3.392  2.1561 -0.0114  2.2720
 2465SOL    HW219029   0.434   0.044   3.371 -0.5762  0.5074 -1.9873
 2466SOL     OW19030   2.110   1.727   6.539 -0.8668  0.1584 -0.6183
 2466SOL    HW119031   2.155   1.770   6.467  1.6012 -0.2251  0.6796
 2466SOL    HW219032   2.029   1.779   6.536 -0.7611  0.3252 -0.5897
 2467SOL     OW19033   0.188   0.184  13.037  0.2501  0.6059 -0.2955
 2467SOL    HW119034   0.272   0.223  13.063  0.4478  0.8533 -1.3251
 2467SOL    HW219035   0.203   0.091  13.019  1.1580  0.6779  0.0787
 2468SOL     OW19036   1.701   3.506   4.370 -0.1669  0.2322 -0.3371
 2468SOL    HW119037   1.609   3.488   4.387  0.5522  0.0464  3.2808
 2468SOL    HW219038   1.732   3.415   4.372 -1.2822 -0.1160  0.8541
 2469SOL     OW19039   3.019   1.062   6.111 -0.3654 -0.0172 -0.3785
 2469SOL    HW119040   2.986   1.128   6.171  2.4404  1.8933 -0.9247
 2469SOL    HW219041   3.081   1.116   6.061 -0.7859 -0.1342 -1.0296
 2470SOL     OW19042   4.623   2.118  14.679 -0.1942 -0.3158  0.1178
 2470SOL    HW119043   4.650   2.111  14.588 -0.7329  1.3433 -0.1578
 2470SOL    HW219044   4.700   2.163  14.713  0.2978 -0.7711 -0.3989
 2471SOL     OW19045   2.303   3.094   6.227  0.0384  0.4393  0.5674
 2471SOL    HW119046   2.207   3.100   6.230  0.2354  3.0070  2.0867
 2471SOL    HW219047   2.302   3.001   6.204 -0.0902  0.3882  0.7849
 2472SOL     OW19048   1.768   3.146  10.343  0.2943 -0.2421  0.3178
 2472SOL    HW119049   1.822   3.220  10.372 -1.0970  1.5936 -1.7252
 2472SOL    HW219050   1.690   3.171  10.393  0.3830 -0.5155  0.5856
 2473SOL     OW19051   4.189   4.497   0.375  0.0089 -0.1956 -0.0011
 2473SOL    HW119052   4.244   4.442   0.319  1.0620 -0.8677  1.6887
 2473SOL    HW219053   4.108   4.498   0.324  0.0189 -0.0854 -0.0150
 2474SOL     OW19054   2.000   3.934  11.331 -0.2247 -0.5710 -0.0696
 2474SOL    HW119055   2.062   3.936  11.258  0.1214  3.4294  0.3337
 2474SOL    HW219056   1.923   3.899  11.286  1.0643  0.0298 -2.7424
 2475SOL     OW19057   2.343   2.259   4.706 -0.5113  0.8215 -0.2336
 2475SOL    HW119058   2.329   2.189   4.642 -0.0440 -0.5491  1.1464
 2475SOL    HW219059   2.274   2.322   4.685 -1.3590 -0.1016 -0.2236
 2476SOL     OW19060   1.666   4.101   5.857 -0.1568  0.0174  0.2903
 2476SOL    HW119061   1.681   4.159   5.782  0.5518  0.6907  0.9551
 2476SOL    HW219062   1.580   4.137   5.879 -0.5353 -0.2506 -0.7676
 2477SOL     OW19063   2.459   4.726   6.075  0.1727 -0.6232 -0.2122
 2477SOL    HW119064   2.503   0.046   6.139 -0.4481  0.4309 -0.6889
 2477SOL    HW219065   2.454   0.051   6.001 -1.0906 -0.6170 -0.1320
 2478SOL     OW19066   4.709   4.613   5.401 -0.2897 -0.1908 -0.5126
 2478SOL    HW119067   4.724   4.519   5.399  0.7260 -0.0355 -0.5593
 2478SOL    HW219068   4.664   4.632   5.483 -0.5937 -1.2949 -0.4240
 2479SOL     OW19069   1.965   3.921   2.055  0.0565  0.0508 -0.1094
 2479SOL    HW119070   2.031   3.860   2.023  0.4225 -0.8321  2.3943
 2479SOL    HW219071   1.988   4.005   2.014  2.1269 -0.2617  0.4600
 2480SOL     OW19072   0.576   1.096   6.175 -0.4909  0.0805 -0.1460
 2480SOL    HW119073   0.634   1.145   6.117  0.8633 -1.0751  0.2430
 2480SOL    HW219074   0.563   1.152   6.251 -0.2238  0.1994 -0.1881
 2481SOL     OW19075   1.594   1.925   2.855 -0.5049  0.3687 -0.5215
 2481SOL    HW119076   1.501   1.945   2.842 -0.2098  0.7479 -2.0112
 2481SOL    HW219077   1.587   1.830   2.847  2.3377 -0.1341  2.9095
 2482SOL     OW19078   1.684   4.129   3.479  1.1117  0.2563 -0.3273
 2482SOL    HW119079   1.779   4.127   3.489  1.1369 -0.1902 -0.6164
 2482SOL    HW219080   1.650   4.169   3.558 -0.1581 -0.4057 -0.5329
 2483SOL     OW19081   0.187   2.860   1.993 -0.5659 -0.1417  0.1246
 2483SOL    HW119082   0.273   2.822   2.008 -0.9394 -0.1271  2.2978
 2483SOL    HW219083   0.171   2.830   1.904 -0.6933 -0.6912  0.3289
 2484SOL     OW19084   3.111   0.453   3.099 -0.1968  0.6514 -0.5892
 2484SOL    HW119085   3.110   0.546   3.079  0.8326  0.7841 -0.0055
 2484SOL    HW219086   3.025   0.423   3.069  0.0190 -1.9774  1.3866
 2485SOL     OW19087   2.515   4.668   0.835  0.3200  0.4086  0.3071
 2485SOL    HW119088   2.470   4.674   0.919  1.6879  1.3693  0.9664
 2485SOL    HW219089   2.568   4.589   0.846 -3.6667 -2.2792  0.3210
 2486SOL     OW19090   3.268   4.398   6.313  0.1345 -0.1161  0.8722
 2486SOL    HW119091   3.301   4.310   6.295  0.3320  0.1557 -0.0879
 2486SOL    HW219092   3.211   4.419   6.239  1.7587  1.6343  0.1397
 2487SOL     OW19093   3.764   1.852   9.434  0.3896  0.2846 -0.2993
 2487SOL    HW119094   3.757   1.773   9.379  1.1746 -0.4745  0.6738
 2487SOL    HW219095   3.836   1.820   9.489 -1.4667  0.1129  2.0138
 2488SOL     OW19096   4.556   2.099   8.236  0.0636  0.5208 -0.6487
 2488SOL    HW119097   4.575   2.040   8.309 -0.6218  1.8774  0.6231
 2488SOL    HW219098   4.461   2.100   8.224 -0.0515  0.7429  0.3488
 2489SOL     OW19099   1.932   1.480   9.393  0.0571  0.5487  0.1065
 2489SOL    HW119100   1.987   1.548   9.433  0.6834 -0.3263  0.7239
 2489SOL    HW219101   1.963   1.407   9.445 -1.8666  0.1835  0.7243
 2490SOL     OW19102   3.542   2.908  15.656  0.1657  0.3632  0.1180
 2490SOL    HW119103   3.455   2.921  15.694  0.3673 -0.6863  0.9096
 2490SOL    HW219104   3.573   2.995  15.683 -0.1817 -0.2743  2.5391
 2491SOL     OW19105   4.500   0.934   8.463  0.1274  0.2318  0.5015
 2491SOL    HW119106   4.437   0.974   8.523 -1.6904 -0.3080 -1.0783
 2491SOL    HW219107   4.509   1.000   8.394 -0.2954  1.0615  1.2378
 2492SOL     OW19108   3.173   2.225   7.602  0.6588 -0.3574  0.1939
 2492SOL    HW119109   3.101   2.270   7.647  0.9760  1.1155 -0.7918
 2492SOL    HW219110   3.212   2.293   7.547 -0.5189  1.1669  1.2455
 2493SOL     OW19111   4.508   2.215   3.434  0.2955 -0.3605  0.7415
 2493SOL    HW119112   4.470   2.132   3.406  0.5619  0.1599 -1.1730
 2493SOL    HW219113   4.465   2.269   3.367  1.3787 -1.0514 -0.5046
 2494SOL     OW19114   0.962   2.289   2.393  0.2389  0.1095  0.2245
 2494SOL    HW119115   0.981   2.235   2.469  2.4240 -0.6500 -0.8524
 2494SOL    HW219116   0.950   2.372   2.440 -2.0226 -2.1507  3.6053
 2495SOL     OW19117   2.655   3.198   7.674  0.3309 -0.1866  0.2499
 2495SOL    HW119118   2.561   3.189   7.689  0.2349  0.7480  0.2350
 2495SOL    HW219119   2.675   3.121   7.621 -1.5250  0.1743 -0.9734
 2496SOL     OW19120   0.237   0.889  10.802 -0.3167  0.0602  0.4769
 2496SOL    HW119121   0.285   0.824  10.751 -0.3718  1.1767 -1.0189
 2496SOL    HW219122   0.298   0.963  10.801 -0.0059 -0.2079 -2.0927
 2497SOL     OW19123   2.530   0.782   7.118 -0.2021 -0.6104 -0.0717
 2497SOL    HW119124   2.468   0.709   7.118  1.2269 -1.8286 -1.1527
 2497SOL    HW219125   2.471   0.851   7.090  1.7691  0.1560 -2.3189
 2498SOL     OW19126   4.616   2.745   5.401  0.6431 -0.1264 -0.0374
 2498SOL    HW119127   4.691   2.743   5.342  1.5343 -0.5965  1.1225
 2498SOL    HW219128   4.579   2.834   5.405  0.0178 -0.3715 -0.2844
 2499SOL     OW19129   3.517   3.362  16.788 -0.0015  0.4803 -0.0420
 2499SOL    HW119130   3.515   3.410  16.871  2.2093  2.1483 -0.9516
 2499SOL    HW219131   3.565   3.430  16.740  0.1800  0.2624 -0.1665
 2500SOL     OW19132   1.094   2.317   7.115 -0.7612  0.6412  0.7523
 2500SOL    HW119133   1.051   2.242   7.156 -1.2312 -0.3898 -1.6407
 2500SOL    HW219134   1.116   2.372   7.191 -1.0767 -0.1272  1.4044
 2501SOL     OW19135   0.239   3.350  14.522  0.3716  0.8455 -0.5370
 2501SOL    HW119136   0.204   3.293  14.589  1.1952  1.0794  0.0973
 2501SOL    HW219137   0.205   3.437  14.544 -0.2185  0.2561  0.8873
 2502SOL     OW19138   3.783   0.584   3.009 -0.7543  0.0411  0.1536
 2502SOL    HW119139   3.849   0.545   2.953 -2.0065 -2.9680  0.7826
 2502SOL    HW219140   3.782   0.521   3.081  1.4794 -0.6793 -0.4525
 2503SOL     OW19141   1.135   0.640   0.064  0.1894 -0.0747 -0.0247
 2503SOL    HW119142   1.208   0.577   0.058  0.7392  0.6830 -1.3206
 2503SOL    HW219143   1.083   0.603   0.135  1.3434 -1.4337  0.1231
 2504SOL     OW19144   2.217   0.895  11.067  0.9114  0.5615 -0.2045
 2504SOL    HW119145   2.190   0.846  10.989 -0.2835 -1.0973  1.2573
 2504SOL    HW219146   2.166   0.976  11.061 -1.4893 -0.7714  2.4112
 2505SOL     OW19147   3.037   3.306   2.022 -0.1427  0.0911 -0.0934
 2505SOL    HW119148   2.962   3.288   1.966  2.3793  1.1189 -3.7645
 2505SOL    HW219149   3.092   3.356   1.962 -0.2594  0.9537  0.5078
 2506SOL     OW19150   1.214   3.325   7.524 -0.4311 -0.1547 -0.1452
 2506SOL    HW119151   1.241   3.388   7.591 -0.1626 -0.8375  0.3917
 2506SOL    HW219152   1.295   3.301   7.479  0.1972 -1.8763  1.8775
 2507SOL     OW19153   0.963   1.366  17.026 -0.3952 -0.3129 -0.1619
 2507SOL    HW119154   0.876   1.366  17.065  0.2945 -2.8197  1.3634
 2507SOL    HW219155   1.000   1.288  17.068  0.7725 -0.3227 -1.2124
 2508SOL     OW19156   0.894   2.405   9.408 -0.1606  0.0503  0.1285
 2508SOL    HW119157   0.879   2.400   9.314  0.4411 -1.2667  0.0952
 2508SOL    HW219158   0.812   2.440   9.442  0.3196  2.4065 -1.1230
 2509SOL     OW19159   1.420   0.081   2.172  0.2674  0.3332  0.4985
 2509SOL    HW119160   1.425   0.003   2.226  1.3080 -0.1428 -0.2743
 2509SOL    HW219161   1.463   0.146   2.228  2.4474 -1.0723  0.4597
 2510SOL     OW19162   4.387   1.178   4.851 -0.3115 -0.2165 -0.1291
 2510SOL    HW119163   4.477   1.178   4.885 -0.1573  1.7161 -0.4992
 2510SOL    HW219164   4.344   1.134   4.924 -0.0238 -1.0579 -0.4725
 2511SOL     OW19165   3.389   0.603  17.600 -0.1393 -0.6149 -0.0780
 2511SOL    HW119166   3.443   0.682  17.589 -0.1702 -0.6610 -0.5883
 2511SOL    HW219167   3.445   0.547  17.654  1.7623  1.2022 -0.1514
 2512SOL     OW19168   0.840   3.848  16.347 -0.0613 -0.2838  0.8137
 2512SOL    HW119169   0.854   3.885  16.261  0.8775  0.0144  1.0908
 2512SOL    HW219170   0.813   3.759  16.323  1.5669 -0.2782 -1.0205
 2513SOL     OW19171   4.525   3.534   2.167  0.2750 -0.0757 -0.1861
 2513SOL    HW119172   4.485   3.518   2.082 -2.3448  2.4734  0.5475
 2513SOL    HW219173   4.456   3.495   2.221 -0.0277 -1.4189 -1.5778
 2514SOL     OW19174   1.525   4.617   9.336 -0.0191 -0.0338 -0.3774
 2514SOL    HW119175   1.568   4.539   9.373  0.8643  0.3057 -0.6900
 2514SOL    HW219176   1.593   4.675   9.369 -0.9785  0.3225  0.9576
 2515SOL     OW19177   3.173   4.052   4.464 -0.4773  0.4258 -0.1782
 2515SOL    HW119178   3.081   4.080   4.473 -0.4024  0.5480  0.2265
 2515SOL    HW219179   3.168   3.967   4.509  2.3127 -0.8193 -2.2726
 2516SOL     OW19180   3.060   4.495  12.069  0.2701 -0.1989  0.0558
 2516SOL    HW119181   3.155   4.484  12.071 -0.0866 -3.2326 -0.3086
 2516SOL    HW219182   3.023   4.419  12.023 -0.2872  0.0755  0.0434
 2517SOL     OW19183   1.949   3.342   5.299 -0.0284 -0.7753  0.2752
 2517SOL    HW119184   1.916   3.391   5.224  2.2230  1.1144  0.5029
 2517SOL    HW219185   2.033   3.308   5.267 -0.0435 -1.6189  1.1454
 2518SOL     OW19186   1.617   3.003   5.799 -0.1704  0.0984 -0.1239
 2518SOL    HW119187   1.577   2.962   5.722 -1.2851  2.9573 -1.0695
 2518SOL    HW219188   1.617   3.091   5.761 -1.0356  0.5197  0.8372
 2519SOL     OW19189   3.098   1.399   8.289  0.0653 -0.2803 -0.6167
 2519SOL    HW119190   3.071   1.491   8.290  1.1861  0.0412  0.3303
 2519SOL    HW219191   3.127   1.383   8.379  1.0164  1.2764 -0.6299
 2520SOL     OW19192   2.174   3.689  15.274 -0.2223 -0.2045 -0.1021
 2520SOL    HW119193   2.248   3.730  15.320 -0.2138 -1.4085  0.9547
 2520SOL    HW219194   2.138   3.766  15.230 -0.1031  0.2830  0.6394
 2521SOL     OW19195   3.287   1.126  13.159  0.0164 -0.2634  0.1466
 2521SOL    HW119196   3.233   1.130  13.080 -0.0625 -1.7030  0.1374
 2521SOL    HW219197   3.371   1.143  13.116 -0.3048 -0.3360 -0.5140
 2522SOL     OW19198   0.413   4.455   6.197 -0.7220 -0.4931 -0.0005
 2522SOL    HW119199   0.459   4.381   6.238 -0.5472  0.2091  1.0591
 2522SOL    HW219200   0.477   4.477   6.128 -1.5523 -2.3148 -1.3696
 2523SOL     OW19201   2.692   1.615  15.284  0.5435  0.4272 -0.4285
 2523SOL    HW119202   2.639   1.599  15.206  1.1902 -2.0188 -0.3605
 2523SOL    HW219203   2.635   1.681  15.324 -0.8923 -0.1298 -1.5655
 2524SOL     OW19204   1.937   3.079  14.879 -0.6288  0.3093  0.3376
 2524SOL    HW119205   1.951   3.085  14.784  0.3957  1.4239  0.5611
 2524SOL    HW219206   1.845   3.103  14.895 -0.7854 -0.5488  0.7526
 2525SOL     OW19207   4.253   1.798   2.277 -0.5453 -0.0515  0.1759
 2525SOL    HW119208   4.277   1.783   2.185  0.4972  2.4558  0.0244
 2525SOL    HW219209   4.199   1.877   2.280  0.7662  0.8329  0.7407
 2526SOL     OW19210   4.143   3.123   6.375 -0.2865  0.4602 -0.0765
 2526SOL    HW119211   4.154   3.092   6.285 -2.7810 -1.3035  0.2460
 2526SOL    HW219212   4.080   3.063   6.414 -1.2265  1.2105 -0.4226
 2527SOL     OW19213   0.863   0.270  12.590  0.6719  0.0311  0.6280
 2527SOL    HW119214   0.813   0.278  12.509 -0.1581  0.8036  1.2301
 2527SOL    HW219215   0.942   0.223  12.560  0.4259  0.6162 -0.8908
 2528SOL     OW19216   2.184   1.489   8.399  0.6020  0.2053  0.3339
 2528SOL    HW119217   2.201   1.406   8.444  0.1794 -0.4695 -0.7461
 2528SOL    HW219218   2.089   1.500   8.402  0.5442 -0.1172 -0.2515
 2529SOL     OW19219   2.591   2.819   7.379 -0.2551  0.3919  0.4533
 2529SOL    HW119220   2.634   2.886   7.326 -0.1878  0.8416  1.0781
 2529SOL    HW219221   2.625   2.850   7.463 -0.8467 -1.7114  1.4782
 2530SOL     OW19222   0.194   2.634   1.024  0.5562  0.0887 -0.7104
 2530SOL    HW119223   0.213   2.703   0.959  0.0539 -1.7440 -2.8098
 2530SOL    HW219224   0.146   2.568   0.974 -1.3248  0.3171  0.7955
 2531SOL     OW19225   2.417   3.230   3.726 -1.0692  0.2669 -0.2490
 2531SOL    HW119226   2.417   3.195   3.637 -0.1764  0.3301 -0.2718
 2531SOL    HW219227   2.384   3.151   3.768 -0.0208  0.9492  1.8568
 2532SOL     OW19228   1.748   2.074  12.474  0.4559 -0.3497  0.2964
 2532SOL    HW119229   1.792   2.121  12.545  1.4233  1.4906 -1.4954
 2532SOL    HW219230   1.816   2.086  12.407  1.0022 -0.6899  0.7955
 2533SOL     OW19231   2.204   3.264   8.319  0.0051 -0.3574  0.0362
 2533SOL    HW119232   2.242   3.178   8.304  1.5400  0.1028  1.2862
 2533SOL    HW219233   2.121   3.251   8.272  0.2804 -1.0198 -0.2566
 2534SOL     OW19234   3.572   3.416   0.183  0.5893 -0.7987  0.4544
 2534SOL    HW119235   3.607   3.368   0.259  0.0613 -0.6928  0.7633
 2534SOL    HW219236   3.485   3.438   0.217  1.0859  0.1161  1.1264
 2535SOL     OW19237   2.578   1.451   8.236  0.1926  0.7147  0.3220
 2535SOL    HW119238   2.536   1.404   8.164  1.7139  1.1278 -0.8340
 2535SOL    HW219239   2.609   1.382   8.295  0.8928 -1.3200 -2.4241
 2536SOL     OW19240   3.650   0.295   6.730  0.0438 -0.3027  0.7276
 2536SOL    HW119241   3.739   0.285   6.696 -1.1927  1.3440 -3.0559
 2536SOL    HW219242   3.600   0.313   6.650  0.4296 -1.0673  0.3164
 2537SOL     OW19243   2.101   1.970   8.097  0.4419  0.3849 -0.3441
 2537SOL    HW119244   2.112   2.031   8.170 -0.4225  1.6440 -1.2709
 2537SOL    HW219245   2.178   1.914   8.102 -1.6373 -2.4750  0.2019
 2538SOL     OW19246   3.206   0.820   2.886 -0.1766 -0.2449  0.4300
 2538SOL    HW119247   3.267   0.746   2.879  1.3143  1.0561 -0.2007
 2538SOL    HW219248   3.214   0.860   2.800  0.4076  1.0977  1.1266
 2539SOL     OW19249   3.659   0.234  13.789  0.0424 -0.1712 -0.0106
 2539SOL    HW119250   3.706   0.152  13.772  0.3993  0.2915 -1.2422
 2539SOL    HW219251   3.722   0.285  13.840 -0.8580  0.3034  0.6288
 2540SOL     OW19252   3.081   0.134   6.929 -0.1449  0.3023  0.1278
 2540SOL    HW119253   3.039   0.053   6.958 -0.3635 -0.2149 -1.5843
 2540SOL    HW219254   3.020   0.199   6.963 -0.7506 -0.4210  0.4116
 2541SOL     OW19255   3.648   4.254   0.849  0.0086 -0.3454 -0.2893
 2541SOL    HW119256   3.572   4.296   0.889  0.6154  0.1208  0.3802
 2541SOL    HW219257   3.624   4.164   0.871  0.8662 -0.4231  0.3473
 2542SOL     OW19258   1.618   3.826   3.456 -0.6167 -0.7086 -0.0665
 2542SOL    HW119259   1.565   3.809   3.534  0.7498 -2.4455  0.4782
 2542SOL    HW219260   1.627   3.922   3.458  2.3933 -1.0417  2.0827
 2543SOL     OW19261   2.317   4.453  10.158 -0.3639 -0.0775 -0.2972
 2543SOL    HW119262   2.345   4.380  10.213  0.4811  1.1869  0.9399
 2543SOL    HW219263   2.262   4.500  10.220 -0.7384  0.0819 -0.7536
 2544SOL     OW19264   4.348   2.401   6.930 -0.3698 -0.1552 -0.1516
 2544SOL    HW119265   4.326   2.345   6.856 -0.2818  0.4871 -0.6678
 2544SOL    HW219266   4.336   2.487   6.890 -0.0400  0.5020  1.1676
 2545SOL     OW19267   2.365   3.416  12.768 -0.0661  0.1322  0.3237
 2545SOL    HW119268   2.271   3.406  12.750 -0.2268  2.6320 -0.1593
 2545SOL    HW219269   2.383   3.476  12.696 -0.0298  1.1647  1.1960
 2546SOL     OW19270   0.863   0.094   2.706 -0.0991  0.3771 -0.4341
 2546SOL    HW119271   0.847   0.169   2.649  1.6398  1.7182  0.8501
 2546SOL    HW219272   0.911   0.144   2.772  1.9108 -1.4160 -0.5444
 2547SOL     OW19273   2.015   4.022   5.842  0.2659  0.1204 -0.5305
 2547SOL    HW119274   1.940   3.969   5.812  1.0851 -1.7351  0.7198
 2547SOL    HW219275   2.062   3.956   5.893 -1.7571 -0.2460  0.8745
 2548SOL     OW19276   2.500   4.312  13.379  0.0367 -0.0766 -0.0013
 2548SOL    HW119277   2.586   4.344  13.407 -0.0686  1.4894 -1.4749
 2548SOL    HW219278   2.519   4.219  13.363 -0.7895 -0.3136  0.3936
 2549SOL     OW19279   0.909   1.742   1.735 -0.0344 -0.3524 -0.0873
 2549SOL    HW119280   0.855   1.822   1.733 -0.8494 -0.9226 -0.7532
 2549SOL    HW219281   0.950   1.757   1.650 -0.7076 -1.1693 -0.5599
 2550SOL     OW19282   3.236   0.349  11.146  0.6534 -0.2465 -0.1392
 2550SOL    HW119283   3.244   0.294  11.224 -2.9632 -0.3510  0.1579
 2550SOL    HW219284   3.297   0.420  11.166  0.2889  0.8564 -2.8686
 2551SOL     OW19285   0.960   1.113   8.259 -0.0172 -0.0009  0.3975
 2551SOL    HW119286   1.053   1.097   8.245  0.1576  2.1110 -0.9160
 2551SOL    HW219287   0.974   1.199   8.299  0.9203  0.1083 -0.1707
 2552SOL     OW19288   0.537   0.013   4.907  0.0672  0.3532 -0.0034
 2552SOL    HW119289   0.560   0.060   4.826 -0.2844  0.5824  0.0282
 2552SOL    HW219290   0.456   4.704   4.882  0.9277 -1.4242  0.4328
 2553SOL     OW19291   0.873   4.245   1.957 -0.1020 -0.3368 -0.0573
 2553SOL    HW119292   0.799   4.187   1.978 -1.6092  1.4748 -0.3098
 2553SOL    HW219293   0.943   4.193   1.997 -0.9423 -0.2271  1.5630
 2554SOL     OW19294   3.756   0.185   5.198  0.4194  0.2753  0.1506
 2554SOL    HW119295   3.672   0.230   5.194  0.3213  0.2263  1.6803
 2554SOL    HW219296   3.814   0.260   5.211 -0.4481  0.8700  0.5201
 2555SOL     OW19297   1.725   4.708   4.473  0.1432 -0.2145 -0.3587
 2555SOL    HW119298   1.729   0.011   4.560  1.2818  1.8637 -1.3406
 2555SOL    HW219299   1.682   4.626   4.496 -0.6158  0.1948 -0.3122
 2556SOL     OW19300   0.365   2.500   7.086 -0.5262  0.2158 -0.5466
 2556SOL    HW119301   0.394   2.467   7.171 -0.7436 -0.9863 -0.9443
 2556SOL    HW219302   0.428   2.449   7.036 -0.3606  1.3978 -1.5259
 2557SOL     OW19303   2.672   0.300  11.683 -0.0781 -0.2138  0.0942
 2557SOL    HW119304   2.644   0.390  11.665 -0.3769 -0.7984 -2.4542
 2557SOL    HW219305   2.601   0.251  11.725  0.7883 -1.0459  0.6079
 2558SOL     OW19306   0.203   1.962   9.529  0.0501  0.1950 -0.1046
 2558SOL    HW119307   0.128   1.968   9.470  0.2706  0.4485 -0.3615
 2558SOL    HW219308   0.222   2.056   9.539 -0.0113  0.0673  1.3037
 2559SOL     OW19309   1.578   0.622   3.885 -0.2384  0.6312 -0.3381
 2559SOL    HW119310   1.560   0.703   3.933 -0.4025  0.9168 -0.8787
 2559SOL    HW219311   1.568   0.558   3.956  0.5320  0.1594 -0.6575
 2560SOL     OW19312   1.761   1.257  10.411 -0.2664  0.2614  0.0366
 2560SOL    HW119313   1.752   1.335  10.355 -1.5334 -0.9888 -1.5125
 2560SOL    HW219314   1.830   1.272  10.474 -0.2852 -2.2209  0.6192
 2561SOL     OW19315   2.099   4.471   2.038 -0.3322  0.1362 -0.0561
 2561SOL    HW119316   2.165   4.402   2.032  1.2846  1.6128  0.5502
 2561SOL    HW219317   2.157   4.536   2.079 -0.4285  0.8696 -1.1017
 2562SOL     OW19318   3.616   0.040  11.331 -0.2931  0.1951 -0.7290
 2562SOL    HW119319   3.640   0.133  11.335  3.0957 -0.5772 -2.4050
 2562SOL    HW219320   3.653   0.008  11.414 -0.8122 -0.4959 -0.7694
 2563SOL     OW19321   3.033   1.170  10.626  0.1546 -0.5241 -0.5087
 2563SOL    HW119322   3.099   1.223  10.581 -3.3393  1.5747 -3.1307
 2563SOL    HW219323   2.997   1.236  10.685 -0.6307  0.5317 -2.1810
 2564SOL     OW19324   1.709   0.381   4.338 -0.0467  0.2851  0.2066
 2564SOL    HW119325   1.730   0.474   4.341 -1.0884  0.5063  0.5992
 2564SOL    HW219326   1.793   0.346   4.370 -0.3397 -0.3582  0.2825
 2565SOL     OW19327   2.050   2.111  14.244  0.0671  0.0166  0.3352
 2565SOL    HW119328   1.990   2.183  14.263 -0.1222  0.9149 -3.6155
 2565SOL    HW219329   1.989   2.045  14.214 -1.2357  1.5511 -0.4238
 2566SOL     OW19330   3.682   1.458   7.347 -0.2107 -0.2635  0.3931
 2566SOL    HW119331   3.678   1.452   7.252  0.9786  0.8658  0.2853
 2566SOL    HW219332   3.744   1.530   7.348 -0.2493 -0.2299  0.2572
 2567SOL     OW19333   3.356   2.740   7.826  0.1760  0.4325  0.4844
 2567SOL    HW119334   3.366   2.834   7.841  1.5591  0.8161 -2.7426
 2567SOL    HW219335   3.351   2.712   7.917 -3.7525  0.6203  0.3193
 2568SOL     OW19336   1.140   4.616   1.159  0.7060  0.5038  0.1393
 2568SOL    HW119337   1.167   4.635   1.249 -0.2864  0.7999  0.3773
 2568SOL    HW219338   1.052   4.653   1.163  0.7537  0.7080 -0.7127
 2569SOL     OW19339   1.027   1.555   5.225  0.1346  0.3356  0.8263
 2569SOL    HW119340   1.046   1.610   5.301  0.3232  0.3813  0.7456
 2569SOL    HW219341   0.953   1.597   5.181 -0.7997  1.3292  3.3320
 2570SOL     OW19342   2.686   0.473   0.253  0.0743  0.2464 -0.9886
 2570SOL    HW119343   2.699   0.567   0.248 -1.1961  0.4486 -0.5555
 2570SOL    HW219344   2.604   0.455   0.299 -0.1948  1.6610 -0.9363
 2571SOL     OW19345   0.426   3.859   6.133  0.0806  0.2897 -0.5990
 2571SOL    HW119346   0.429   3.765   6.151 -4.9383  0.3612  0.6510
 2571SOL    HW219347   0.332   3.870   6.148 -0.0539 -1.8732  0.0818
 2572SOL     OW19348   2.407   2.220   6.939 -0.1784 -0.3826  0.0371
 2572SOL    HW119349   2.367   2.148   6.891 -3.7233  1.0961  0.8456
 2572SOL    HW219350   2.346   2.287   6.910  0.3459 -0.1172 -0.4468
 2573SOL     OW19351   1.249   0.845   3.648 -0.5185 -0.3663 -0.3417
 2573SOL    HW119352   1.261   0.938   3.666  0.7140 -0.2399 -1.7711
 2573SOL    HW219353   1.171   0.826   3.700 -3.5857 -0.2955 -4.8392
 2574SOL     OW19354   2.768   0.656   7.162 -0.7297 -0.4024  0.2973
 2574SOL    HW119355   2.699   0.703   7.210  0.3277 -0.6596  2.0537
 2574SOL    HW219356   2.786   0.716   7.090 -0.4070  0.0444  0.7505
 2575SOL     OW19357   2.789   2.908   2.893  0.1071  1.0281  0.6066
 2575SOL    HW119358   2.799   2.813   2.898  0.4672  1.0270 -0.1851
 2575SOL    HW219359   2.695   2.910   2.874  0.3401 -0.2717 -0.6511
 2576SOL     OW19360   3.745   0.794   0.023 -0.1580  0.1591  0.0588
 2576SOL    HW119361   3.772   0.758   0.108 -0.3065 -4.6195 -1.9438
 2576SOL    HW219362   3.723   0.719  17.710 -0.9199  0.6627 -0.3311
 2577SOL     OW19363   4.392   2.290   3.780  0.1211 -0.0671  0.9910
 2577SOL    HW119364   4.349   2.370   3.750 -0.3209 -1.0220 -0.9010
 2577SOL    HW219365   4.484   2.307   3.760 -0.1953 -1.1366 -1.3486
 2578SOL     OW19366   0.669   3.795   8.880  0.2486  0.2103 -0.4624
 2578SOL    HW119367   0.594   3.844   8.913 -0.9207 -2.2426  0.5450
 2578SOL    HW219368   0.700   3.753   8.960  0.9745 -1.5650 -1.6827
 2579SOL     OW19369   2.191   4.575   3.801  0.0784  0.0082  0.3675
 2579SOL    HW119370   2.119   4.576   3.739 -0.5670 -0.6815  1.1076
 2579SOL    HW219371   2.134   4.604   3.872 -1.3560  0.8839 -1.1382
 2580SOL     OW19372   3.236   4.155  13.458  0.2381  0.3421  0.2570
 2580SOL    HW119373   3.241   4.064  13.487  1.0643  0.0270 -0.9099
 2580SOL    HW219374   3.214   4.147  13.365  2.9086 -0.8855 -0.2547
 2581SOL     OW19375   4.217   1.572  13.337  0.3863 -0.6801  0.0135
 2581SOL    HW119376   4.288   1.636  13.333  0.1772 -0.4685 -0.2784
 2581SOL    HW219377   4.273   1.495  13.346  1.0861 -0.1978 -0.2133
 2582SOL     OW19378   4.424   3.598   7.482 -0.1205 -0.1348  0.2211
 2582SOL    HW119379   4.432   3.693   7.475  0.1954 -0.1128  0.8662
 2582SOL    HW219380   4.335   3.573   7.507  0.3890 -2.7309 -0.5249
 2583SOL     OW19381   2.610   0.370   3.951 -0.5980  0.3325  0.1527
 2583SOL    HW119382   2.587   0.463   3.960 -0.5246  0.5645 -2.0790
 2583SOL    HW219383   2.520   0.340   3.944 -0.0616 -1.1069 -0.4643
 2584SOL     OW19384   3.067   1.398  17.301 -0.1222 -0.4466 -0.0521
 2584SOL    HW119385   2.974   1.381  17.284 -0.1753  1.0754 -1.2551
 2584SOL    HW219386   3.081   1.461  17.231  2.8032  0.6835  1.5549
 2585SOL     OW19387   2.899   4.042   3.203 -0.0003 -0.1685 -0.6435
 2585SOL    HW119388   2.888   4.136   3.192 -0.0477 -0.1684 -0.5920
 2585SOL    HW219389   2.809   4.012   3.213 -0.1607  0.2738 -0.7896
 2586SOL     OW19390   1.707   3.266  16.568  0.1553 -0.3670  0.2200
 2586SOL    HW119391   1.647   3.227  16.632 -0.9098  0.0488 -0.5108
 2586SOL    HW219392   1.677   3.224  16.487 -1.2434 -1.4118  1.2756
 2587SOL     OW19393   0.347   4.449   5.846  0.0648  0.2224 -0.0670
 2587SOL    HW119394   0.395   4.525   5.879  1.0916  0.0794 -1.2306
 2587SOL    HW219395   0.401   4.377   5.879  3.2462  0.9794 -3.5608
 2588SOL     OW19396   2.154   3.590  16.522  0.5309 -0.2238 -0.2941
 2588SOL    HW119397   2.144   3.602  16.427 -0.0491 -1.0231 -0.3321
 2588SOL    HW219398   2.109   3.507  16.534  2.2376 -1.0708  0.3199
 2589SOL     OW19399   0.267   3.838   8.751 -0.6919  0.1231 -0.5994
 2589SOL    HW119400   0.322   3.914   8.768  0.5280 -0.6837 -0.9465
 2589SOL    HW219401   0.303   3.810   8.667 -1.0704 -0.8486 -0.4468
 2590SOL     OW19402   2.268   0.497   7.286 -0.1253 -0.3043  0.0463
 2590SOL    HW119403   2.304   0.558   7.351  0.0446 -0.4649  0.1058
 2590SOL    HW219404   2.306   0.412   7.311  0.6779 -0.0024 -0.1596
 2591SOL     OW19405   4.145   2.402   5.428 -0.2477 -0.5272 -0.4495
 2591SOL    HW119406   4.131   2.307   5.427 -0.2156 -0.5123 -1.8616
 2591SOL    HW219407   4.065   2.439   5.392 -0.0044 -1.0340 -1.4913
 2592SOL     OW19408   1.986   1.487   5.886  0.1524  0.5916  0.1084
 2592SOL    HW119409   1.955   1.473   5.796  2.6797  2.5551 -1.0979
 2592SOL    HW219410   1.902   1.506   5.927 -0.7517 -2.0042 -0.5670
 2593SOL     OW19411   3.691   0.504  10.863  0.6982  0.0436 -0.0146
 2593SOL    HW119412   3.614   0.537  10.816 -0.2122 -1.4130  0.4382
 2593SOL    HW219413   3.666   0.412  10.873  1.7718 -0.4299 -1.6893
 2594SOL     OW19414   1.095   3.898   8.540 -0.1806  0.8797 -0.0880
 2594SOL    HW119415   1.056   3.927   8.458 -2.9950  1.2824  1.3864
 2594SOL    HW219416   1.073   3.964   8.606  0.3235 -0.6400  1.5935
 2595SOL     OW19417   2.879   1.693   3.333 -0.0977 -0.1842  0.0773
 2595SOL    HW119418   2.801   1.711   3.385  0.9837  3.9771  0.2036
 2595SOL    HW219419   2.943   1.743   3.384  0.5052 -0.8567 -0.0035
 2596SOL     OW19420   2.270   2.375  10.309 -0.4173  0.2818 -0.3038
 2596SOL    HW119421   2.262   2.281  10.323 -2.5888  0.6769  1.0912
 2596SOL    HW219422   2.356   2.391  10.347 -0.2053 -0.9932 -0.2635
 2597SOL     OW19423   2.089   4.190   3.196 -0.1666 -0.4161 -0.3092
 2597SOL    HW119424   2.183   4.189   3.211 -0.5309  0.3808  2.0441
 2597SOL    HW219425   2.079   4.281   3.166  0.7968 -0.4001 -0.5759
 2598SOL     OW19426   0.360   2.503   4.079  0.5021  0.4997 -0.0412
 2598SOL    HW119427   0.348   2.410   4.057 -0.9548  0.5525  0.5221
 2598SOL    HW219428   0.274   2.531   4.112  0.9901 -0.6386  2.2028
 2599SOL     OW19429   0.916   1.283  16.766 -0.1156  0.0421  0.1453
 2599SOL    HW119430   1.001   1.240  16.760  1.3804  3.1502 -0.6621
 2599SOL    HW219431   0.922   1.329  16.849  0.8443 -1.7130  1.0416
 2600SOL     OW19432   0.942   2.128   6.437 -0.1643  0.2002  0.0892
 2600SOL    HW119433   0.974   2.125   6.527  1.2120  0.9712 -0.3670
 2600SOL    HW219434   0.958   2.223   6.436 -0.1761  0.2137  2.4215
 2601SOL     OW19435   3.426   0.023   4.589  0.1311  0.6475  0.1305
 2601SOL    HW119436   3.405   0.073   4.510 -0.5054 -0.2429 -0.2570
 2601SOL    HW219437   3.404   4.666   4.580  0.7791  0.4776  0.3083
 2602SOL     OW19438   4.219   3.352   7.203 -0.5343 -0.1731 -0.2102
 2602SOL    HW119439   4.299   3.382   7.246 -1.5918 -0.0320  1.6177
 2602SOL    HW219440   4.182   3.441   7.199  0.4777  0.3032  0.9422
 2603SOL     OW19441   1.454   3.549   8.459  0.1027 -0.7066  0.0294
 2603SOL    HW119442   1.451   3.639   8.427 -1.9588 -0.3092  1.3191
 2603SOL    HW219443   1.542   3.538   8.495 -0.2732  2.2824  1.8780
 2604SOL     OW19444   2.308   1.075   8.232  0.5398  0.2491  0.1817
 2604SOL    HW119445   2.328   0.988   8.267 -0.8903 -0.2609 -0.2855
 2604SOL    HW219446   2.373   1.087   8.163 -0.5790 -0.9576 -1.0548
 2605SOL     OW19447   2.415   3.678   3.672  0.3959 -0.1539 -0.4868
 2605SOL    HW119448   2.357   3.659   3.746  1.3505 -0.8501  0.0772
 2605SOL    HW219449   2.346   3.699   3.609 -0.9639 -0.9688  0.7297
 2606SOL     OW19450   3.526   1.829   3.989 -0.1420 -0.5326  0.6102
 2606SOL    HW119451   3.611   1.801   3.954  0.6541  1.1337  1.2318
 2606SOL    HW219452   3.519   1.781   4.071  1.5611 -0.5094  0.7635
 2607SOL     OW19453   1.327   1.461  10.088  0.0958 -0.0633 -0.0901
 2607SOL    HW119454   1.392   1.395  10.111  1.2074  1.7920  2.0789
 2607SOL    HW219455   1.266   1.458  10.162  0.6509  0.7520  0.4021
 2608SOL     OW19456   0.898   4.001   5.993  0.0693 -0.6686 -0.0208
 2608SOL    HW119457   0.905   4.005   6.088 -2.0076 -4.0371  0.2552
 2608SOL    HW219458   0.806   4.023   5.981  0.1721  0.5470  1.4922
 2609SOL     OW19459   1.261   1.078   6.771 -0.0802 -0.2336  0.1167
 2609SOL    HW119460   1.177   1.117   6.750  0.6359  1.4428  0.3324
 2609SOL    HW219461   1.331   1.126   6.726  1.6937 -3.4239 -0.5372
 2610SOL     OW19462   4.726   0.353   6.818 -0.5459 -0.1113 -0.3157
 2610SOL    HW119463   4.673   0.292   6.767 -3.6139  2.6962 -0.4896
 2610SOL    HW219464   0.017   0.414   6.749  0.0936 -0.1307 -0.0803
 2611SOL     OW19465   1.869   2.998   6.985 -0.2178 -0.2718  0.1199
 2611SOL    HW119466   1.870   3.093   6.996  1.4391 -0.4361  1.2930
 2611SOL    HW219467   1.797   2.972   7.043 -0.8471  0.2474 -0.4166
 2612SOL     OW19468   1.021   3.614   8.070  0.0735 -0.7073  0.3604
 2612SOL    HW119469   1.107   3.580   8.044  0.7080  1.3596 -0.2836
 2612SOL    HW219470   1.005   3.559   8.146  1.2921  1.1004  1.9316
 2613SOL     OW19471   3.328   3.803   7.707 -0.2148 -0.6030  0.7317
 2613SOL    HW119472   3.340   3.715   7.670 -1.1631  0.0314 -1.0756
 2613SOL    HW219473   3.273   3.777   7.781 -0.1956 -1.8375  0.3195
 2614SOL     OW19474   2.067   2.877   1.660  0.5830 -0.0269  0.0798
 2614SOL    HW119475   2.019   2.953   1.628  0.1991 -0.5622 -0.6280
 2614SOL    HW219476   2.037   2.815   1.593  1.8414  2.1030 -2.4856
 2615SOL     OW19477   0.317   2.789  12.500  0.8152  0.3353 -0.2034
 2615SOL    HW119478   0.288   2.699  12.487 -3.6936  1.5961  1.2330
 2615SOL    HW219479   0.381   2.809  12.432  0.4657  0.5458 -0.4659
 2616SOL     OW19480   1.868   1.663   5.428 -0.5995 -0.9651 -0.0889
 2616SOL    HW119481   1.778   1.678   5.457  0.2933  0.8122  1.6899
 2616SOL    HW219482   1.884   1.726   5.357 -1.1892  0.9006  1.4433
 2617SOL     OW19483   4.254   2.301   1.899 -0.1428  0.0064  0.7126
 2617SOL    HW119484   4.286   2.379   1.943 -2.2912  2.5445 -2.2882
 2617SOL    HW219485   4.255   2.330   1.808 -1.4889  0.5772  0.8859
 2618SOL     OW19486   1.096   1.125   8.941  0.2169 -0.1485 -0.0491
 2618SOL    HW119487   1.053   1.205   8.911  2.7051  0.7097 -1.3036
 2618SOL    HW219488   1.028   1.092   9.000 -2.0372 -1.0444 -3.1782
 2619SOL     OW19489   3.031   0.550   1.935 -0.1733  0.1157 -0.6300
 2619SOL    HW119490   2.963   0.483   1.924  0.9090 -1.3866  1.6901
 2619SOL    HW219491   2.978   0.623   1.904 -0.6805  0.1234  0.2479
 2620SOL     OW19492   3.114   3.622  17.654 -0.0819 -0.5217  0.3852
 2620SOL    HW119493   3.029   3.647  17.690  0.2841 -0.1575  0.9948
 2620SOL    HW219494   3.079   3.612  17.566  0.7643  2.9136 -0.3239
 2621SOL     OW19495   2.650   0.180   1.873 -0.0218  0.1830  0.4289
 2621SOL    HW119496   2.642   0.133   1.956  1.9511 -1.2726 -0.2143
 2621SOL    HW219497   2.560   0.212   1.870  0.1039  0.3915 -1.2547
 2622SOL     OW19498   3.388   0.099  17.647 -0.4011  0.3003 -0.4564
 2622SOL    HW119499   3.356   0.122  17.560 -1.0590 -0.3733 -0.3806
 2622SOL    HW219500   3.333   0.164  17.691  0.4185  1.0780 -0.5608
 2623SOL     OW19501   2.840   3.097   5.703 -0.0475 -0.0615 -1.0696
 2623SOL    HW119502   2.807   3.063   5.620 -0.5209 -0.3406 -0.7639
 2623SOL    HW219503   2.778   3.067   5.769  2.0365  1.2374  1.4725
 2624SOL     OW19504   3.585   0.494  14.702  0.4816 -0.6897  0.5155
 2624SOL    HW119505   3.585   0.528  14.792  0.4256  1.7718 -0.4024
 2624SOL    HW219506   3.647   0.422  14.692  0.8698 -0.0698 -1.5105
 2625SOL     OW19507   1.843   0.361   4.670  0.0255 -0.2897  0.6126
 2625SOL    HW119508   1.875   0.314   4.593 -0.3856 -1.7841  1.3582
 2625SOL    HW219509   1.866   0.452   4.651 -0.7945  0.1108  1.4910
 2626SOL     OW19510   0.785   4.476   7.904  0.9848  0.6738 -0.2177
 2626SOL    HW119511   0.871   4.502   7.871  0.1289  1.3270 -1.9646
 2626SOL    HW219512   0.805   4.439   7.990  0.3715  0.5507 -0.1256
 2627SOL     OW19513   1.631   2.813  15.122 -0.0523 -0.3004  0.4945
 2627SOL    HW119514   1.601   2.899  15.095  2.9855  0.0848 -1.6174
 2627SOL    HW219515   1.650   2.836  15.213  2.5458 -1.0673  0.1461
 2628SOL     OW19516   3.490   2.087   7.364  0.4042 -0.2770  0.2152
 2628SOL    HW119517   3.480   2.075   7.458  2.0882 -1.5966  0.2270
 2628SOL    HW219518   3.506   1.998   7.333  3.3073  0.0514  0.7529
 2629SOL     OW19519   4.342   3.795   1.593 -0.0996  0.1473 -0.5544
 2629SOL    HW119520   4.360   3.861   1.527  0.8009  1.5039  1.0397
 2629SOL    HW219521   4.410   3.731   1.572 -1.1825 -0.8462 -1.0106
 2630SOL     OW19522   4.381   3.174  16.523 -0.3897 -0.3047  0.1296
 2630SOL    HW119523   4.381   3.143  16.614  0.5594  0.4130  0.3790
 2630SOL    HW219524   4.471   3.151  16.500  0.0686  0.9701  0.6240
 2631SOL     OW19525   2.565   1.362   6.629 -0.2717  0.4307 -0.6003
 2631SOL    HW119526   2.588   1.453   6.609 -1.6057  0.6433 -1.1188
 2631SOL    HW219527   2.493   1.376   6.689 -0.3945 -1.4571 -0.3088
 2632SOL     OW19528   0.831   2.309  17.231  1.3904 -0.1635 -0.0592
 2632SOL    HW119529   0.896   2.378  17.243  0.1458  0.9102  0.4966
 2632SOL    HW219530   0.778   2.345  17.160  0.5350  0.2218  0.7719
 2633SOL     OW19531   4.310   0.105   5.968  0.1756  0.5064  0.6647
 2633SOL    HW119532   4.265   0.135   6.047 -1.0964 -2.3868  1.0340
 2633SOL    HW219533   4.399   0.140   5.975  0.8213 -0.5484 -2.4490
 2634SOL     OW19534   4.037   1.402   4.577 -0.1808 -0.2278 -0.3415
 2634SOL    HW119535   4.112   1.343   4.570 -0.3316 -0.6043  1.2133
 2634SOL    HW219536   4.025   1.433   4.488  1.0277  2.0478  0.2836
 2635SOL     OW19537   4.473   1.570   7.633 -0.1658 -0.0847  0.1535
 2635SOL    HW119538   4.539   1.637   7.647  0.8859 -0.8004 -1.3949
 2635SOL    HW219539   4.432   1.616   7.561  0.3765  0.2140  0.0376
 2636SOL     OW19540   4.389   0.543   2.233 -0.0591  0.6173 -0.0650
 2636SOL    HW119541   4.436   0.469   2.271  0.3489  1.3083  0.7781
 2636SOL    HW219542   4.340   0.510   2.157 -0.2131 -0.0019  0.3105
 2637SOL     OW19543   0.855   3.462   7.756 -0.2884  0.1296  0.1543
 2637SOL    HW119544   0.791   3.456   7.827  0.0725  0.9441  0.5484
 2637SOL    HW219545   0.930   3.494   7.805 -1.2903  1.7275  0.6539
 2638SOL     OW19546   4.544   1.613   4.975  0.0817  0.1997  0.8390
 2638SOL    HW119547   4.601   1.570   4.912  0.4956  0.7815  0.8266
 2638SOL    HW219548   4.610   1.642   5.038  1.4615 -0.4866 -0.2936
 2639SOL     OW19549   0.428   4.681   2.985  0.1223 -0.4882 -0.8410
 2639SOL    HW119550   0.336   4.706   2.976  0.3466  0.5022 -0.3903
 2639SOL    HW219551   0.481   0.009   2.937 -0.8119 -0.6559 -2.1136
 2640SOL     OW19552   4.585   0.160   5.257 -0.4021 -0.6023  0.1353
 2640SOL    HW119553   4.523   0.187   5.324  1.3117 -0.2489  1.5772
 2640SOL    HW219554   4.548   0.213   5.187 -0.0426  1.6998  1.6941
 2641SOL     OW19555   3.892   3.313   9.134 -0.0765  0.0361 -0.0612
 2641SOL    HW119556   3.886   3.407   9.121  1.2789  0.1258 -0.0572
 2641SOL    HW219557   3.947   3.297   9.056 -1.9187 -0.0922 -1.3257
 2642SOL     OW19558   4.390   3.769   6.998 -0.1105  0.2365 -0.3821
 2642SOL    HW119559   4.425   3.786   7.085 -1.4333  1.8129 -0.1573
 2642SOL    HW219560   4.425   3.842   6.945  1.2014  0.2425  0.4975
 2643SOL     OW19561   0.709   2.881   8.848 -0.2573  0.2807 -0.0136
 2643SOL    HW119562   0.681   2.808   8.792  1.1370 -0.7285  0.5896
 2643SOL    HW219563   0.800   2.859   8.869 -0.2439  0.0442 -0.3208
 2644SOL     OW19564   2.550   2.579   3.793  0.2264  0.1424 -0.0766
 2644SOL    HW119565   2.558   2.642   3.721  0.7353 -0.1587 -0.2871
 2644SOL    HW219566   2.459   2.599   3.814  0.9310  0.2862  2.8861
 2645SOL     OW19567   0.238   1.088  13.916 -0.2944 -0.1592  0.2428
 2645SOL    HW119568   0.246   1.179  13.891 -0.4631 -0.8123 -2.1359
 2645SOL    HW219569   0.285   1.039  13.849  0.9763 -1.3935  2.0227
 2646SOL     OW19570   0.749   1.972   1.771 -0.1998  0.2863 -0.3836
 2646SOL    HW119571   0.780   1.992   1.859 -3.5175  0.5663  0.7163
 2646SOL    HW219572   0.660   1.948   1.794  0.2808 -2.0550 -1.0189
 2647SOL     OW19573   2.951   4.063   4.690 -0.4169 -0.1317 -0.3031
 2647SOL    HW119574   2.881   4.051   4.754 -1.9546 -0.7580 -2.0816
 2647SOL    HW219575   2.937   4.153   4.661 -3.5650  0.3231  2.6485
 2648SOL     OW19576   3.870   2.828   6.019 -0.2426 -0.9605 -0.1058
 2648SOL    HW119577   3.903   2.761   6.079  0.9102 -0.6426 -0.3871
 2648SOL    HW219578   3.801   2.783   5.969 -1.9657  1.0213  0.4877
 2649SOL     OW19579   1.519   1.087   1.159 -0.1624  0.4270 -0.1960
 2649SOL    HW119580   1.479   1.173   1.171  0.8534  1.0414 -1.2085
 2649SOL    HW219581   1.442   1.045   1.123 -0.7417  0.2564  1.2442
 2650SOL     OW19582   4.500   0.720   6.263 -0.2304 -0.1665  0.2288
 2650SOL    HW119583   4.468   0.630   6.267 -1.7920  0.2996 -1.7760
 2650SOL    HW219584   4.594   0.704   6.273 -0.0475 -0.4635 -1.9766
 2651SOL     OW19585   2.263   2.416   3.199  0.1030  0.3171  0.6138
 2651SOL    HW119586   2.267   2.508   3.173  0.5691  0.3371  0.7614
 2651SOL    HW219587   2.302   2.425   3.286 -1.1853  3.0759  0.9043
 2652SOL     OW19588   1.436   4.641  17.220  0.7501 -0.0599 -0.6168
 2652SOL    HW119589   1.517   4.687  17.244  0.2580  0.7540 -0.5089
 2652SOL    HW219590   1.448   4.559  17.267 -1.6687 -1.0538 -1.7607
 2653SOL     OW19591   0.222   0.264   4.016  0.2816 -0.0123  0.2050
 2653SOL    HW119592   0.153   0.204   3.989 -1.9823  2.1854  1.1300
 2653SOL    HW219593   0.214   0.275   4.111 -0.6965 -2.4365  0.3954
 2654SOL     OW19594   3.790   3.527   5.635 -0.0533  0.3666  0.7145
 2654SOL    HW119595   3.749   3.549   5.551  1.8800  0.7328 -0.1410
 2654SOL    HW219596   3.856   3.463   5.608 -2.4001 -1.7859  0.1404
 2655SOL     OW19597   1.650   3.411   2.345 -0.0871 -0.4011  0.4044
 2655SOL    HW119598   1.620   3.321   2.359  1.8166 -1.0725  0.1645
 2655SOL    HW219599   1.724   3.420   2.404 -0.3062  0.1996  0.5829
 2656SOL     OW19600   4.048   2.639   7.741  0.1854 -0.0874 -0.1500
 2656SOL    HW119601   4.020   2.658   7.831 -3.5330 -0.8119 -1.1671
 2656SOL    HW219602   3.966   2.605   7.706 -0.5705  1.6992 -0.1380
 2657SOL     OW19603   2.164   0.555   2.425  0.2065 -0.0546 -0.4214
 2657SOL    HW119604   2.255   0.529   2.409 -0.0478 -2.2671  1.8538
 2657SOL    HW219605   2.154   0.626   2.362 -3.2394  0.0223  0.2215
 2658SOL     OW19606   2.449   2.197   3.002  0.3887 -0.3534  0.2811
 2658SOL    HW119607   2.379   2.261   2.997 -1.0509 -2.1236 -2.8522
 2658SOL    HW219608   2.525   2.248   3.028  0.0398 -0.1813  0.9373
 2659SOL     OW19609   2.821   0.408   4.389  0.4420 -0.1844  0.8035
 2659SOL    HW119610   2.785   0.453   4.466  0.3305  0.2020  0.5280
 2659SOL    HW219611   2.819   0.480   4.325 -0.1825 -0.1602  0.8547
 2660SOL     OW19612   3.210   1.644   4.182  0.2187  0.2301 -0.3704
 2660SOL    HW119613   3.137   1.589   4.154 -2.1222  1.7108  2.8995
 2660SOL    HW219614   3.186   1.661   4.273 -0.5332 -0.6690 -0.3977
 2661SOL     OW19615   2.668   0.699   6.859  0.0233 -0.1191  0.0698
 2661SOL    HW119616   2.628   0.764   6.801 -0.8506 -1.0083 -0.3376
 2661SOL    HW219617   2.617   0.715   6.938  3.3973 -1.6477  2.5788
 2662SOL     OW19618   4.003   3.514  17.247 -0.5875  0.2475 -0.4928
 2662SOL    HW119619   4.034   3.525  17.158 -1.1973  0.2111 -0.7119
 2662SOL    HW219620   4.037   3.427  17.265  0.9662  1.3190  1.7432
 2663SOL     OW19621   0.672   1.344  17.087 -0.4524  0.8697  0.3576
 2663SOL    HW119622   0.687   1.276  17.021 -0.3207  2.1116 -0.8908
 2663SOL    HW219623   0.591   1.316  17.130 -0.6804 -1.0112 -1.2960
 2664SOL     OW19624   2.902   2.064   5.884  0.3909  0.3135  0.0530
 2664SOL    HW119625   2.917   2.096   5.973 -1.9566  0.4616  0.3857
 2664SOL    HW219626   2.915   1.969   5.893 -1.5844  0.2053  1.9158
 2665SOL     OW19627   0.669   2.912   2.993 -0.1979 -0.3690 -0.6787
 2665SOL    HW119628   0.635   2.982   3.049 -0.7550  1.1767 -2.9629
 2665SOL    HW219629   0.753   2.891   3.034  0.8376  1.1276 -2.0552
 2666SOL     OW19630   1.894   2.566   7.785 -0.3441 -0.8169 -0.1928
 2666SOL    HW119631   1.826   2.499   7.785 -0.3894 -0.7750 -0.6929
 2666SOL    HW219632   1.953   2.538   7.854 -1.9050 -0.0404  1.4686
 2667SOL     OW19633   1.991   1.762   2.003  0.0020  0.2016 -0.0889
 2667SOL    HW119634   2.041   1.828   1.954  0.1124  0.5652  0.5040
 2667SOL    HW219635   1.931   1.730   1.936 -0.9460  0.7423  0.4910
 2668SOL     OW19636   3.028   2.119   2.963 -0.1158 -0.7623  0.0869
 2668SOL    HW119637   2.941   2.150   2.935 -0.1945 -1.4683 -0.4699
 2668SOL    HW219638   2.993   2.081   3.044  0.0140  0.9260  0.9453
 2669SOL     OW19639   4.663   1.764   7.674  0.0390  0.5005 -0.0095
 2669SOL    HW119640   4.698   1.810   7.750 -1.6918  1.2927  0.3076
 2669SOL    HW219641   4.619   1.839   7.633  1.9080  0.4759 -2.0648
 2670SOL     OW19642   1.526   0.462   1.624 -0.5910  0.4920  0.3768
 2670SOL    HW119643   1.490   0.550   1.629  0.4520  0.9457 -0.0570
 2670SOL    HW219644   1.551   0.448   1.715 -0.5003 -1.4465  0.0426
 2671SOL     OW19645   3.269   0.595   2.467 -0.2519  0.2460  0.4708
 2671SOL    HW119646   3.293   0.683   2.437  0.1830 -0.0072  0.0740
 2671SOL    HW219647   3.354   0.581   2.510  0.4009  2.0156 -0.2290
 2672SOL     OW19648   0.169   0.462   4.508 -0.3920 -0.1308  0.0425
 2672SOL    HW119649   0.136   0.374   4.490  2.2863 -0.8576 -1.2226
 2672SOL    HW219650   0.254   0.457   4.465 -0.7011  0.1165 -0.5921
 2673SOL     OW19651   3.208   1.291   8.031 -0.1477 -0.5941  0.1097
 2673SOL    HW119652   3.149   1.309   8.104  1.4119 -0.9369  1.4411
 2673SOL    HW219653   3.240   1.204   8.056  0.7083 -0.7212 -1.3846
 2674SOL     OW19654   1.640   3.282   5.691 -0.1969 -0.2745 -0.2713
 2674SOL    HW119655   1.647   3.306   5.599 -1.0273 -3.0657 -1.0382
 2674SOL    HW219656   1.693   3.347   5.738 -0.8673 -0.0534  0.1748
 2675SOL     OW19657   0.749   1.002   1.478 -0.0297 -0.1362  0.2105
 2675SOL    HW119658   0.779   0.978   1.566  2.4549 -0.2614 -0.6691
 2675SOL    HW219659   0.654   1.001   1.491 -0.0007 -2.1256  0.2793
 2676SOL     OW19660   3.429   0.857   6.386 -0.1720 -0.0984  0.1414
 2676SOL    HW119661   3.439   0.896   6.472  0.4769  0.4577 -0.1795
 2676SOL    HW219662   3.387   0.930   6.341  1.2958  1.4026  1.2180
 2677SOL     OW19663   1.307   4.537   4.149 -0.1043 -0.8503  0.1248
 2677SOL    HW119664   1.309   4.632   4.163 -1.4867 -1.0035  1.4059
 2677SOL    HW219665   1.355   4.515   4.069 -1.6248 -1.7367 -0.5517
 2678SOL     OW19666   0.474   0.897   6.009 -0.2129  0.1388  0.1149
 2678SOL    HW119667   0.440   0.832   6.071  0.0469  0.0792  0.1953
 2678SOL    HW219668   0.528   0.955   6.062  3.5010 -2.6517 -0.6212
 2679SOL     OW19669   1.500   1.043   3.917 -0.4933 -0.3518  0.7227
 2679SOL    HW119670   1.442   0.970   3.938 -0.4325 -0.5663  0.1536
 2679SOL    HW219671   1.441   1.114   3.891  0.6723  0.2103 -0.3818
 2680SOL     OW19672   0.050   3.658   2.448  0.3259  0.1619 -0.0600
 2680SOL    HW119673   4.734   3.708   2.385 -1.4332  0.3249  1.5165
 2680SOL    HW219674   0.036   3.568   2.418  1.1688  0.6032 -1.7962
 2681SOL     OW19675   2.307   2.088   2.327 -0.1737 -0.3463  0.2798
 2681SOL    HW119676   2.376   2.140   2.368 -1.2218  1.4663 -0.2674
 2681SOL    HW219677   2.358   2.008   2.315 -0.9365 -0.7266 -0.3630
 2682SOL     OW19678   1.129   2.692   5.170 -0.1356  0.4317 -0.1898
 2682SOL    HW119679   1.190   2.723   5.238 -1.2582  1.5777  0.2893
 2682SOL    HW219680   1.157   2.601   5.159  2.2169  1.1550 -0.2874
 2683SOL     OW19681   0.475   0.639   3.102 -0.0800 -0.4808  0.0891
 2683SOL    HW119682   0.457   0.713   3.159  2.0250  1.0399 -1.1988
 2683SOL    HW219683   0.399   0.585   3.123  0.9708 -1.5441  1.0836
 2684SOL     OW19684   3.050   4.163   6.993 -0.8443 -0.4882 -0.2236
 2684SOL    HW119685   3.128   4.108   7.003 -1.7478 -1.4906  1.2689
 2684SOL    HW219686   3.051   4.214   7.073 -2.1187 -0.4627 -0.2244
 2685SOL     OW19687   2.518   0.798   3.707  0.4935  0.5942  0.0099
 2685SOL    HW119688   2.569   0.861   3.758  1.4445  0.2818 -0.5535
 2685SOL    HW219689   2.491   0.861   3.640  1.0367  0.1464 -0.6319
 2686SOL     OW19690   3.080   0.758   8.054  0.2732 -0.2494 -0.1624
 2686SOL    HW119691   3.078   0.682   7.995  0.1378 -1.4075  1.3308
 2686SOL    HW219692   3.089   0.836   7.999  0.6090 -0.2107 -0.0474
 2687SOL     OW19693   0.951   0.227   7.876 -0.3558 -0.4429 -0.1428
 2687SOL    HW119694   0.988   0.292   7.936 -0.5019  0.2076 -0.7620
 2687SOL    HW219695   0.965   0.273   7.793  0.8513  1.3872  1.0729
 2688SOL     OW19696   3.743   0.339   7.501  0.1733 -0.0065  0.1199
 2688SOL    HW119697   3.719   0.248   7.483  1.5724 -0.5580  1.0833
 2688SOL    HW219698   3.832   0.328   7.534 -0.0781 -1.8752  0.1710
 2689SOL     OW19699   3.795   1.994   1.919  0.1809 -0.0648  0.6499
 2689SOL    HW119700   3.879   1.954   1.943 -0.0417 -2.1755 -2.0199
 2689SOL    HW219701   3.783   1.945   1.837  0.3744 -0.8105  1.0632
 2690SOL     OW19702   0.483   1.384   8.912  0.2980  0.1270 -0.1398
 2690SOL    HW119703   0.423   1.393   8.837  0.4506 -0.8444 -0.3689
 2690SOL    HW219704   0.423   1.399   8.985 -0.8514  1.0601 -1.2571
 2691SOL     OW19705   4.577   0.591  12.584 -0.1208  0.1813  0.6415
 2691SOL    HW119706   4.658   0.542  12.587  0.2771  0.6530 -2.2174
 2691SOL    HW219707   4.530   0.562  12.505 -0.4293  0.1280  0.8461
 2692SOL     OW19708   1.368   1.223   8.589  0.0107  0.2242  0.3135
 2692SOL    HW119709   1.425   1.299   8.603  1.2515 -0.3628 -1.5349
 2692SOL    HW219710   1.286   1.260   8.620 -0.3368 -0.7502  0.5589
 2693SOL     OW19711   4.012   2.102   8.105  0.1674 -0.4623  0.1403
 2693SOL    HW119712   4.102   2.105   8.073  0.2724 -1.6741  0.3320
 2693SOL    HW219713   3.952   2.099   8.031 -0.4416 -0.2601  0.6224
 2694SOL     OW19714   0.708   2.974   4.908 -0.1652 -0.1211 -0.4356
 2694SOL    HW119715   0.776   2.979   4.841  1.3426 -1.3439  1.0013
 2694SOL    HW219716   0.628   2.995   4.860 -0.3813  0.7530  0.3097
 2695SOL     OW19717   2.288   0.239   6.991  0.3171 -0.3220  0.7551
 2695SOL    HW119718   2.216   0.241   7.054  0.6155  1.5726  1.0442
 2695SOL    HW219719   2.256   0.300   6.925 -0.7727  1.9543  3.3928
 2696SOL     OW19720   1.345   1.072   0.561 -0.7193 -0.1518 -0.2218
 2696SOL    HW119721   1.432   1.111   0.568 -1.1995  0.5682  1.8599
 2696SOL    HW219722   1.356   1.021   0.481  2.7273  2.5808 -1.4841
 2697SOL     OW19723   2.176   3.053  11.840  0.1688  1.0387  0.2420
 2697SOL    HW119724   2.248   3.045  11.778 -0.7281 -0.3580 -0.6220
 2697SOL    HW219725   2.223   3.065  11.922 -1.5480 -2.3181  1.7235
 2698SOL     OW19726   2.624   1.633   6.639  0.0291  0.3365 -0.2293
 2698SOL    HW119727   2.717   1.647   6.618  0.1379  1.9445  1.3269
 2698SOL    HW219728   2.623   1.704   6.703  0.3644 -0.8137  1.0463
 2699SOL     OW19729   1.608   1.749   4.444 -0.1378 -0.1953 -0.0708
 2699SOL    HW119730   1.594   1.658   4.419 -1.6630 -0.0081  0.0894
 2699SOL    HW219731   1.540   1.764   4.510  1.5713  0.6642  1.5092
 2700SOL     OW19732   4.594   2.904  15.371 -0.6850 -0.1054 -0.2489
 2700SOL    HW119733   4.639   2.988  15.359 -1.3141  0.3036  0.3087
 2700SOL    HW219734   4.589   2.880  15.278  0.0623  1.3507 -0.6640
 2701SOL     OW19735   3.330   0.981  16.215 -0.1576  0.0562  0.3883
 2701SOL    HW119736   3.326   1.058  16.159  2.7895 -1.8936 -2.4919
 2701SOL    HW219737   3.324   1.027  16.299  1.1651 -0.0353  0.5322
 2702SOL     OW19738   4.697   3.320  17.210 -0.2460  0.2506  0.3580
 2702SOL    HW119739   4.636   3.264  17.162  0.6884  0.2171 -0.8084
 2702SOL    HW219740   0.049   3.290  17.184 -0.5651  0.4877 -1.0188
 2703SOL     OW19741   3.125   1.116   4.082 -0.0101  0.5714  0.0997
 2703SOL    HW119742   3.151   1.201   4.048  2.9109  0.4085  1.9768
 2703SOL    HW219743   3.044   1.128   4.132 -0.2763 -0.7243 -0.0128
 2704SOL     OW19744   2.863   3.088   4.394  0.8743  0.6327 -0.1321
 2704SOL    HW119745   2.886   2.996   4.404 -2.2085 -0.1846 -0.6033
 2704SOL    HW219746   2.770   3.088   4.415  0.7457  1.5709 -0.6653
 2705SOL     OW19747   3.459   2.160   7.614 -0.6887 -0.7222 -0.0449
 2705SOL    HW119748   3.365   2.158   7.633 -0.3559  1.8799  1.8834
 2705SOL    HW219749   3.497   2.148   7.701  0.7104  1.3177 -0.3545
 2706SOL     OW19750   3.391   0.603   7.825 -0.3433 -0.4297  0.1978
 2706SOL    HW119751   3.297   0.583   7.829 -0.0221 -1.6297  1.6469
 2706SOL    HW219752   3.401   0.558   7.742 -1.8268  0.9846 -0.7518
 2707SOL     OW19753   1.485   1.268   6.435 -0.0449  0.2004  0.3136
 2707SOL    HW119754   1.485   1.173   6.447 -2.0187 -0.0702 -1.6470
 2707SOL    HW219755   1.435   1.295   6.512  2.0129 -1.0017  2.0446
 2708SOL     OW19756   3.046   1.566   8.829 -0.3956 -0.5500  0.1974
 2708SOL    HW119757   3.024   1.584   8.920 -0.1038  2.4010 -0.3211
 2708SOL    HW219758   3.141   1.560   8.840 -0.3086  1.1505  0.2738
 2709SOL     OW19759   0.970   4.688   6.655  0.1273  0.3226  0.3166
 2709SOL    HW119760   1.030   4.626   6.695 -1.1200 -1.7928 -1.0981
 2709SOL    HW219761   0.950   0.015   6.724  0.7373  0.7509  0.1002
 2710SOL     OW19762   2.515   3.744  17.264 -0.0286 -0.0986 -0.4427
 2710SOL    HW119763   2.533   3.682  17.193 -1.3150 -1.8847  0.8045
 2710SOL    HW219764   2.527   3.827  17.218  1.9086 -0.2042 -0.1296
 2711SOL     OW19765   4.577   1.162   2.395  0.7487  0.0936 -0.7344
 2711SOL    HW119766   4.672   1.162   2.389  0.7158 -0.2911 -1.3723
 2711SOL    HW219767   4.549   1.251   2.371 -3.6332 -0.9241  0.5311
 2712SOL     OW19768   2.777   4.393   8.385  0.1444  0.0291 -0.1065
 2712SOL    HW119769   2.796   4.300   8.397 -2.0237 -0.4681 -0.4943
 2712SOL    HW219770   2.812   4.426   8.467 -0.5326 -1.1376  0.6554
 2713SOL     OW19771   2.218   4.398   8.068 -0.0840 -0.4331  0.4253
 2713SOL    HW119772   2.178   4.367   7.987  0.9139  1.2640 -0.7315
 2713SOL    HW219773   2.309   4.370   8.060  0.1448  1.0568 -2.1620
 2714SOL     OW19774   0.785   1.675   8.402 -0.3018  0.2643 -0.1231
 2714SOL    HW119775   0.735   1.609   8.451 -0.4047 -0.4306 -1.1661
 2714SOL    HW219776   0.874   1.660   8.432 -0.0260 -0.9268 -1.5205
 2715SOL     OW19777   0.334   3.852   3.428 -0.0583 -0.5475  0.1352
 2715SOL    HW119778   0.339   3.859   3.332  1.9390 -0.4274  0.2405
 2715SOL    HW219779   0.298   3.765   3.444 -2.1743  0.1941 -0.6004
 2716SOL     OW19780   4.367   2.754  16.932  0.2885  0.3696 -0.6813
 2716SOL    HW119781   4.452   2.717  16.906  0.9293  0.7169  0.9253
 2716SOL    HW219782   4.316   2.673  16.936 -2.2964  2.0041 -0.9026
 2717SOL     OW19783   4.014   0.125   2.562  0.2984 -0.2202  0.0338
 2717SOL    HW119784   3.990   0.077   2.641 -2.4654  1.6496  0.3484
 2717SOL    HW219785   3.993   0.061   2.494  0.9250  0.2980 -0.6438
 2718SOL     OW19786   2.633   3.897   7.660  0.2794 -0.1517 -0.7783
 2718SOL    HW119787   2.575   3.935   7.726  0.8428 -1.1681  0.3126
 2718SOL    HW219788   2.676   3.980   7.642  1.4739 -1.2939 -3.2399
 2719SOL     OW19789   0.940   1.488   7.265  0.0017 -0.2096 -0.2956
 2719SOL    HW119790   1.008   1.444   7.315 -1.3647 -0.5588  1.2859
 2719SOL    HW219791   0.856   1.442   7.272  0.8167 -1.9403 -2.0313
 2720SOL     OW19792   1.401   2.664   3.862  0.6468 -0.8123  0.6629
 2720SOL    HW119793   1.361   2.732   3.808 -0.7492 -1.2981  1.0893
 2720SOL    HW219794   1.432   2.712   3.939  0.6930  0.2052  0.0075
 2721SOL     OW19795   3.707   3.321   2.135 -0.5072  0.2903  0.4968
 2721SOL    HW119796   3.623   3.281   2.157 -1.2792  3.1109  2.8509
 2721SOL    HW219797   3.676   3.382   2.068 -1.6466 -0.8835 -0.0207
 2722SOL     OW19798   1.900   1.207   6.056  0.5077  0.7932 -0.0201
 2722SOL    HW119799   1.953   1.194   5.977 -0.7199 -2.8775 -0.2297
 2722SOL    HW219800   1.912   1.122   6.097 -0.5775  1.1396  1.0262
 2723SOL     OW19801   1.696   2.892   4.934  0.4148 -0.3699 -0.0424
 2723SOL    HW119802   1.785   2.864   4.958  0.9691  1.7098  0.3890
 2723SOL    HW219803   1.654   2.818   4.977  0.4115 -0.3768 -0.0579
 2724SOL     OW19804   0.557   3.432   9.287 -0.4844 -0.3574  0.1359
 2724SOL    HW119805   0.574   3.344   9.320 -0.0024  0.0047  0.8529
 2724SOL    HW219806   0.626   3.430   9.221 -1.2606 -1.2425 -0.6427
 2725SOL     OW19807   1.570   2.692   8.856  0.3818  0.1732  0.3815
 2725SOL    HW119808   1.534   2.775   8.827  0.0277 -0.3741 -0.7442
 2725SOL    HW219809   1.496   2.655   8.904  0.5752 -0.2285  0.3704
 2726SOL     OW19810   0.637   2.150   3.264 -0.4282  0.4902 -0.1353
 2726SOL    HW119811   0.697   2.189   3.327  1.3321 -0.8890 -0.9777
 2726SOL    HW219812   0.567   2.216   3.267 -0.0880  0.8859 -0.9662
 2727SOL     OW19813   3.211   4.545   9.242 -0.1553 -0.0774  0.0198
 2727SOL    HW119814   3.234   4.638   9.249 -1.7120  0.3155 -0.0436
 2727SOL    HW219815   3.278   4.502   9.189 -1.4734 -1.8707 -0.1854
 2728SOL     OW19816   4.477   2.543   6.536 -0.2245  0.4533 -0.3386
 2728SOL    HW119817   4.386   2.521   6.516 -0.2388  0.0260  0.2062
 2728SOL    HW219818   4.476   2.639   6.546  0.0443  0.5259 -0.9760
 2729SOL     OW19819   3.942   1.232   0.153  0.9715  0.0444  0.5488
 2729SOL    HW119820   3.891   1.202   0.078  3.5154  1.5544 -1.7432
 2729SOL    HW219821   4.004   1.160   0.157  0.1994 -0.6612 -0.1819
 2730SOL     OW19822   1.894   0.512   8.854  0.3757  0.1404 -0.6366
 2730SOL    HW119823   1.919   0.476   8.769 -0.4271 -2.5714  0.2907
 2730SOL    HW219824   1.894   0.601   8.819  0.4934 -0.4179 -2.0603
 2731SOL     OW19825   0.229   2.967   3.030 -0.0141 -0.4228 -0.4427
 2731SOL    HW119826   0.240   2.892   2.972 -1.6078 -0.7581 -0.3246
 2731SOL    HW219827   0.137   2.954   3.054  0.3611  2.3069  2.5218
 2732SOL     OW19828   2.917   0.077   5.124 -0.4299 -0.2220  0.3415
 2732SOL    HW119829   2.915   0.062   5.030 -1.4462 -1.7405  0.6005
 2732SOL    HW219830   2.948   0.168   5.126  2.4316 -1.1957 -0.3809
 2733SOL     OW19831   1.348   2.803   3.402 -0.6154 -0.3286  0.3434
 2733SOL    HW119832   1.259   2.826   3.376 -0.7576 -0.1089  1.0262
 2733SOL    HW219833   1.362   2.721   3.355  1.5800  0.8472 -1.0571
 2734SOL     OW19834   4.045   3.260   8.909 -0.1898 -0.4143 -0.1071
 2734SOL    HW119835   4.104   3.335   8.898 -0.1722 -0.3636  0.3326
 2734SOL    HW219836   3.990   3.272   8.832 -3.4342 -1.1577  2.1292
 2735SOL     OW19837   4.493   0.598   8.530  0.1658  0.1690  0.5010
 2735SOL    HW119838   4.575   0.609   8.482 -0.4593  2.4850 -0.0417
 2735SOL    HW219839   4.458   0.535   8.467 -0.1780 -1.0647  1.9309
 2736SOL     OW19840   4.499   0.354   3.069 -0.7108 -0.5930 -0.0549
 2736SOL    HW119841   4.459   0.326   3.151  0.2453  3.0406  1.6209
 2736SOL    HW219842   4.470   0.284   3.011 -1.4275  0.7185 -1.2703
 2737SOL     OW19843   1.531   0.380   5.328 -0.4485 -0.3434 -0.2301
 2737SOL    HW119844   1.594   0.360   5.397  0.9827 -0.7816 -1.6530
 2737SOL    HW219845   1.566   0.455   5.279 -0.9918 -0.8299 -1.3783
 2738SOL     OW19846   4.141   0.672   3.567  0.3154  0.3794 -0.3621
 2738SOL    HW119847   4.099   0.659   3.482 -0.8224  1.9520 -0.0532
 2738SOL    HW219848   4.073   0.638   3.626  1.7282 -1.5316  0.1422
 2739SOL     OW19849   4.499   1.653   3.118  0.0101  0.3194 -0.0557
 2739SOL    HW119850   4.476   1.744   3.102  0.1000  0.2037 -0.8635
 2739SOL    HW219851   4.563   1.632   3.050 -0.4193  1.2888 -0.7494
 2740SOL     OW19852   1.695   2.852   4.470  0.4418  0.2154  0.0127
 2740SOL    HW119853   1.763   2.862   4.404  0.3759  4.0211  0.5220
 2740SOL    HW219854   1.651   2.774   4.435 -1.9189  0.6581  1.9922
 2741SOL     OW19855   0.202   1.127   3.474 -0.4014  0.0993  0.1887
 2741SOL    HW119856   0.215   1.052   3.531 -0.4159 -0.9260 -1.1706
 2741SOL    HW219857   0.117   1.098   3.442  0.8015  0.2076 -3.1100
 2742SOL     OW19858   1.223   1.110  16.224  0.0597 -0.1169 -1.0142
 2742SOL    HW119859   1.168   1.131  16.148  1.0869  0.4210 -1.6052
 2742SOL    HW219860   1.226   1.014  16.229  2.6894  0.0478  0.7653
 2743SOL     OW19861   4.289   1.862   8.492 -0.2725  0.4199  0.0496
 2743SOL    HW119862   4.215   1.918   8.468  0.9337  2.8464  1.9415
 2743SOL    HW219863   4.265   1.778   8.453  0.5674 -0.6203  1.7492
 2744SOL     OW19864   1.538   2.211   7.793 -0.1070 -0.1061  0.1665
 2744SOL    HW119865   1.540   2.145   7.724 -0.8257  0.2221 -0.1710
 2744SOL    HW219866   1.445   2.226   7.777  0.0448 -0.4498 -0.9991
 2745SOL     OW19867   3.571   1.259   7.846 -0.4034 -0.1850  0.0500
 2745SOL    HW119868   3.634   1.270   7.776  0.9074 -1.8594  0.9578
 2745SOL    HW219869   3.487   1.269   7.800  0.0897 -2.6832 -1.3834
 2746SOL     OW19870   0.608   1.335   8.043  0.0893  0.5506  0.0855
 2746SOL    HW119871   0.644   1.410   7.996  1.2647  0.3521  0.6623
 2746SOL    HW219872   0.659   1.262   8.007 -0.6953 -0.5288  1.1844
 2747SOL     OW19873   4.073   1.964   7.075 -0.5773  0.1844  0.3104
 2747SOL    HW119874   4.100   1.930   6.990  1.2316 -0.3569  1.1137
 2747SOL    HW219875   3.986   1.928   7.092  0.2703 -0.6271  2.8838
 2748SOL     OW19876   3.455   3.322   3.774 -0.2353 -0.0563 -0.2993
 2748SOL    HW119877   3.451   3.274   3.692  0.1043 -1.3199  0.4102
 2748SOL    HW219878   3.381   3.280   3.818 -0.5626  0.8090 -0.0264
 2749SOL     OW19879   2.423   3.355   2.249 -0.0190  0.3321 -0.0541
 2749SOL    HW119880   2.481   3.419   2.291 -0.9734  0.7483  0.6314
 2749SOL    HW219881   2.472   3.335   2.169  1.0152  2.0055  0.1598
 2750SOL     OW19882   3.168   1.401   5.437 -0.6696 -0.1727 -0.1493
 2750SOL    HW119883   3.111   1.442   5.502 -1.7583 -0.1087 -1.1471
 2750SOL    HW219884   3.250   1.449   5.451 -0.9234  1.2683 -3.6741
 2751SOL     OW19885   2.827   2.430   3.319  0.2839  0.4426  0.4942
 2751SOL    HW119886   2.922   2.434   3.310  0.2046  0.1834 -0.4627
 2751SOL    HW219887   2.818   2.410   3.412 -0.4718 -0.7022  0.1683
 2752SOL     OW19888   2.832   2.828   7.858 -0.0129  0.2087  0.2517
 2752SOL    HW119889   2.846   2.740   7.893  2.0202  0.1808 -0.6162
 2752SOL    HW219890   2.736   2.834   7.859 -0.0699 -0.6300 -2.0466
 2753SOL     OW19891   3.895   0.034   6.772 -0.3912 -0.2554  0.9141
 2753SOL    HW119892   3.862   0.102   6.713 -1.1522  0.0369  1.6689
 2753SOL    HW219893   3.880   0.064   6.862 -0.2460 -1.3251  1.2868
 2754SOL     OW19894   1.094   1.186  15.975  0.5981 -0.3070 -0.4132
 2754SOL    HW119895   1.088   1.280  15.954  1.0980 -0.2812 -0.4464
 2754SOL    HW219896   1.086   1.140  15.891 -1.8321  0.8643 -0.8093
 2755SOL     OW19897   3.231   4.191  13.194 -0.4889 -0.5106 -0.1321
 2755SOL    HW119898   3.268   4.274  13.165 -2.5125  0.2139 -0.6361
 2755SOL    HW219899   3.286   4.125  13.152 -0.0952 -0.8083  0.8566
 2756SOL     OW19900   3.632   4.339  12.044 -0.1933 -0.3831  0.6831
 2756SOL    HW119901   3.592   4.295  11.970 -1.4420  0.2943  0.9653
 2756SOL    HW219902   3.580   4.419  12.045  1.9605  1.0478 -1.9036
 2757SOL     OW19903   3.460   0.407   2.623 -0.0763 -0.0250  0.0474
 2757SOL    HW119904   3.482   0.399   2.716  0.1338  2.6986  0.2363
 2757SOL    HW219905   3.543   0.390   2.580 -0.8975  1.7525 -2.2803
 2758SOL     OW19906   2.307   0.202   4.842  0.1813  0.2929  0.1209
 2758SOL    HW119907   2.297   0.234   4.752 -0.5092  2.7349  1.0449
 2758SOL    HW219908   2.390   0.239   4.874 -0.6575  1.9216  0.4374
 2759SOL     OW19909   3.750   3.278   7.057 -0.5404  0.0604 -0.2909
 2759SOL    HW119910   3.715   3.189   7.057  1.3725 -0.6899  1.8516
 2759SOL    HW219911   3.832   3.255   7.014  0.3444  2.7366 -0.0788
 2760SOL     OW19912   4.102   1.517   1.797 -0.1532  0.8134 -0.2471
 2760SOL    HW119913   4.113   1.429   1.833  0.9617  0.6160 -1.0470
 2760SOL    HW219914   4.122   1.504   1.704  1.0112  0.6412  0.0230
 2761SOL     OW19915   1.815   0.698   3.767 -0.1865  0.5549  0.2883
 2761SOL    HW119916   1.744   0.636   3.780 -1.3237  1.8420  0.1229
 2761SOL    HW219917   1.796   0.772   3.825 -2.0891  0.3033 -0.0278
 2762SOL     OW19918   0.631   2.613   5.898  0.2827 -0.1297  0.3841
 2762SOL    HW119919   0.678   2.532   5.918 -1.9480 -0.7927  2.9611
 2762SOL    HW219920   0.669   2.681   5.954  1.0511  0.2445 -0.5867
 2763SOL     OW19921   0.893   1.345   6.408 -0.1097 -0.5096  0.4010
 2763SOL    HW119922   0.981   1.344   6.444 -0.1454  0.7779  0.5310
 2763SOL    HW219923   0.874   1.252   6.419 -1.0487 -0.7594 -3.2639
 2764SOL     OW19924   1.479   4.680   2.391 -0.2732  0.2332 -0.2809
 2764SOL    HW119925   1.572   4.702   2.395 -0.0178 -1.3415  2.1525
 2764SOL    HW219926   1.449   4.724   2.470 -2.2683 -0.6930 -0.5330
 2765SOL     OW19927   1.705   4.327   8.213  0.1222  0.2015 -0.3726
 2765SOL    HW119928   1.621   4.302   8.176  0.1617 -0.7689  0.2201
 2765SOL    HW219929   1.741   4.389   8.149  1.4831  0.6889  0.8616
 2766SOL     OW19930   2.740   1.741   0.249 -0.8164  0.0429  0.5113
 2766SOL    HW119931   2.651   1.777   0.241 -0.8549  0.2249  1.7107
 2766SOL    HW219932   2.719   1.677   0.318  0.1204  0.5255  1.2409
 2767SOL     OW19933   1.410   0.246   5.050 -0.3956 -0.9529 -0.8050
 2767SOL    HW119934   1.456   0.280   5.126  0.5603  1.2047 -2.3438
 2767SOL    HW219935   1.333   0.213   5.096  0.9921 -3.0723  0.0407
 2768SOL     OW19936   0.295   2.256   8.128  0.0165 -0.2147 -0.1194
 2768SOL    HW119937   0.207   2.283   8.151  0.4171  1.6584 -0.7823
 2768SOL    HW219938   0.337   2.247   8.214  0.7917 -0.6432 -0.5407
 2769SOL     OW19939   4.113   3.510   4.506  0.1062  0.7367 -0.3247
 2769SOL    HW119940   4.132   3.505   4.600 -2.1458 -0.1660  0.0870
 2769SOL    HW219941   4.023   3.480   4.506 -0.0756  1.2670 -2.7120
 2770SOL     OW19942   0.592   2.644   9.278  0.2005 -0.6051 -0.1013
 2770SOL    HW119943   0.529   2.613   9.213  1.1330 -1.6399 -0.5116
 2770SOL    HW219944   0.545   2.709   9.329  0.7716  2.0435 -2.9945
 2771SOL     OW19945   1.228   4.256   3.411  0.1964 -0.7275  0.0098
 2771SOL    HW119946   1.250   4.204   3.334 -0.2645 -1.9122  0.6874
 2771SOL    HW219947   1.133   4.243   3.407  0.0804  0.3631 -1.0994
 2772SOL     OW19948   0.750   1.161   7.002  0.8341  0.2821 -0.2107
 2772SOL    HW119949   0.702   1.195   6.927 -0.7299 -1.8939 -0.1985
 2772SOL    HW219950   0.735   1.067   6.996 -0.4242  0.5583 -1.1470
 2773SOL     OW19951   3.730   1.896   6.120 -0.3467 -0.2789  0.6271
 2773SOL    HW119952   3.769   1.819   6.161 -3.8287 -1.3468  1.8704
 2773SOL    HW219953   3.802   1.954   6.146 -0.0452  0.8359 -2.7162
 2774SOL     OW19954   3.656   2.335   5.171 -0.5474 -0.1338 -0.2378
 2774SOL    HW119955   3.710   2.373   5.102  1.2694  0.7435  1.6662
 2774SOL    HW219956   3.721   2.301   5.232 -1.1459 -2.1645 -0.7310
 2775SOL     OW19957   2.222   4.056   6.720 -0.3434  0.0309  0.0628
 2775SOL    HW119958   2.276   4.091   6.791 -0.9875  0.4829  0.3306
 2775SOL    HW219959   2.162   4.131   6.718 -0.5109 -0.1502 -1.5984
 2776SOL     OW19960   2.017   1.112   8.599 -0.2401  0.1865  0.0464
 2776SOL    HW119961   2.090   1.133   8.540 -0.1742  0.8308  0.3506
 2776SOL    HW219962   1.944   1.175   8.602  0.4831  0.8887  2.7205
 2777SOL     OW19963   3.591   3.555   8.671  0.0473 -0.0419  0.3063
 2777SOL    HW119964   3.522   3.494   8.645  0.7666 -0.7707  0.1159
 2777SOL    HW219965   3.547   3.632   8.634  1.4644 -1.1421 -3.6522
 2778SOL     OW19966   1.015   2.651   4.810  0.1129 -0.5213  0.3364
 2778SOL    HW119967   1.091   2.618   4.762 -0.9760 -0.0527 -1.7382
 2778SOL    HW219968   1.066   2.712   4.863 -0.5865 -0.1105  0.5313
 2779SOL     OW19969   2.611   2.587   7.112 -0.1772  0.0217  0.3843
 2779SOL    HW119970   2.584   2.565   7.022 -2.6865 -1.8362  1.5794
 2779SOL    HW219971   2.536   2.567   7.168  0.7944 -2.1455  0.9015
 2780SOL     OW19972   0.594   1.219  11.070 -0.4025  0.4061 -0.1543
 2780SOL    HW119973   0.609   1.291  11.132  0.0172  2.2806 -2.4426
 2780SOL    HW219974   0.554   1.159  11.133  0.9062 -1.9159 -1.5420
 2781SOL     OW19975   2.853   0.755   0.499 -0.1351 -0.1642 -0.6441
 2781SOL    HW119976   2.928   0.779   0.553 -0.6730 -0.9587  0.4547
 2781SOL    HW219977   2.815   0.677   0.540 -1.7850  0.9448 -0.0785
 2782SOL     OW19978   3.175   4.086   3.318 -0.2113  0.1181 -0.0436
 2782SOL    HW119979   3.117   4.132   3.379  0.5135  0.6713  0.2192
 2782SOL    HW219980   3.136   4.001   3.294 -2.2682  0.4566  2.0621
 2783SOL     OW19981   0.717   4.127  15.673  0.6480 -0.3087 -0.7720
 2783SOL    HW119982   0.628   4.097  15.695  0.4677  0.0906 -0.9664
 2783SOL    HW219983   0.694   4.219  15.657 -0.1337 -0.2619  0.5860
 2784SOL     OW19984   4.357   4.520  17.670  0.2421 -0.1075 -0.6446
 2784SOL    HW119985   4.350   4.442  17.615 -2.3623  0.1620 -0.6721
 2784SOL    HW219986   4.276   4.515  17.720  0.7946  0.9262  0.3598
 2785SOL     OW19987   3.226   3.748  11.104  0.4512 -0.1916 -0.2049
 2785SOL    HW119988   3.167   3.676  11.127 -0.4771  1.1503  1.6105
 2785SOL    HW219989   3.166   3.812  11.065 -0.4040 -0.1480  1.1889
 2786SOL     OW19990   4.481   3.853   2.822 -0.6544  0.4986  0.3551
 2786SOL    HW119991   4.434   3.908   2.759  0.4181 -0.7897 -1.5584
 2786SOL    HW219992   4.561   3.850   2.770 -1.1035 -0.6341 -0.2590
 2787SOL     OW19993   2.377   2.179   3.526 -0.0235 -0.3113  0.0908
 2787SOL    HW119994   2.465   2.187   3.490 -1.2416  0.2362 -2.8230
 2787SOL    HW219995   2.344   2.102   3.480 -0.4512 -1.1505  1.8111
 2788SOL     OW19996   2.815   2.213   5.616  0.5006  0.2688 -0.2814
 2788SOL    HW119997   2.824   2.173   5.703  0.8285 -0.9073 -0.8597
 2788SOL    HW219998   2.832   2.301   5.650 -1.0286  0.5619 -0.3173
 2789SOL     OW19999   0.727   3.465   5.899 -0.2351  0.0522  0.2217
 2789SOL    HW120000   0.785   3.390   5.909  2.7202  2.0762 -1.6053
 2789SOL    HW220001   0.639   3.428   5.901  0.3290 -1.2357  0.6849
 2790SOL     OW20002   0.034   4.581   3.789 -0.0864 -0.0991 -1.1171
 2790SOL    HW120003   0.101   4.561   3.854 -0.0770  2.1060 -0.4308
 2790SOL    HW220004   4.724   4.497   3.782 -2.0143  0.6207  2.9438
 2791SOL     OW20005   0.233   2.108  10.796 -0.0687  0.8042 -0.2501
 2791SOL    HW120006   0.264   2.125  10.707  4.1252 -1.7582  0.7192
 2791SOL    HW220007   0.187   2.190  10.812 -0.4404  0.2876  1.3342
 2792SOL     OW20008   4.062   2.992  15.202  0.9069 -0.0549  0.5508
 2792SOL    HW120009   4.076   3.086  15.214  0.4315  0.5814 -3.9917
 2792SOL    HW220010   4.134   2.963  15.147 -1.1393 -2.4341 -0.8852
 2793SOL     OW20011   0.031   2.833   3.667 -0.1365 -0.0418 -0.7469
 2793SOL    HW120012   4.700   2.777   3.627 -0.7784  0.6836 -0.6923
 2793SOL    HW220013   0.016   2.923   3.638  0.8076 -0.1521 -1.5783
 2794SOL     OW20014   4.058   0.585   8.496  0.4249 -0.1980 -0.3607
 2794SOL    HW120015   3.989   0.550   8.552  0.4909  1.4347  0.7294
 2794SOL    HW220016   4.105   0.645   8.553  0.6779 -0.1278 -0.6436
 2795SOL     OW20017   3.915   2.860   9.256 -0.2829 -0.6261  0.0999
 2795SOL    HW120018   3.964   2.909   9.191  0.2873  1.0155  1.7801
 2795SOL    HW220019   3.867   2.936   9.288 -0.3157  0.0872 -1.6451
 2796SOL     OW20020   1.387   4.700   3.588  0.0768  0.2838  0.5747
 2796SOL    HW120021   1.342   4.618   3.609  0.9394 -0.2617  0.2496
 2796SOL    HW220022   1.470   4.671   3.550 -0.7288 -1.6277  0.2720
 2797SOL     OW20023   1.701   3.451   0.348  0.2909  0.2304  0.4904
 2797SOL    HW120024   1.660   3.489   0.270  1.0474  3.3060  1.6082
 2797SOL    HW220025   1.745   3.375   0.310 -0.2871  0.3060 -0.3352
 2798SOL     OW20026   1.262   1.876   3.001  0.2362  0.2987  0.0332
 2798SOL    HW120027   1.281   1.909   3.089  1.2464 -0.1868  0.0036
 2798SOL    HW220028   1.273   1.950   2.942  1.8040 -1.2056 -1.5800
 2799SOL     OW20029   4.527   3.827  11.362 -0.2955 -0.2223  0.0528
 2799SOL    HW120030   4.616   3.822  11.397 -0.7213  1.2924  1.3506
 2799SOL    HW220031   4.505   3.734  11.369  0.9688 -0.6820 -2.0273
 2800SOL     OW20032   3.903   2.609  13.203 -0.4036  0.4732  0.8646
 2800SOL    HW120033   3.853   2.591  13.283 -2.2678 -1.7328 -0.8053
 2800SOL    HW220034   3.861   2.672  13.144  1.7527 -1.7414 -2.9672
 2801SOL     OW20035   4.054   0.741   3.006 -0.6054 -0.1190 -0.1900
 2801SOL    HW120036   4.050   0.665   2.949 -0.3143 -1.7211  1.9340
 2801SOL    HW220037   3.964   0.776   3.001 -0.3722  0.8150  1.7628
 2802SOL     OW20038   2.075   2.181   2.446  0.5374 -0.0663 -0.3418
 2802SOL    HW120039   2.114   2.100   2.414 -2.2738 -1.9189  0.9344
 2802SOL    HW220040   2.155   2.210   2.490  1.7796 -3.0627 -0.6225
 2803SOL     OW20041   1.278   0.264  12.076 -0.0544  0.0627 -0.3024
 2803SOL    HW120042   1.232   0.336  12.034 -0.8249  1.2888  2.6679
 2803SOL    HW220043   1.299   0.211  11.999 -1.1442  2.2571 -2.1100
 2804SOL     OW20044   0.219   4.660   9.366 -0.3838 -0.2376  0.2853
 2804SOL    HW120045   0.128   4.632   9.363 -0.3336 -0.4167  0.4686
 2804SOL    HW220046   0.257   4.612   9.293 -0.3468 -1.3409  1.0418
 2805SOL     OW20047   3.601   2.420   4.067 -0.1613  0.1562  0.6419
 2805SOL    HW120048   3.640   2.362   4.133 -1.1260 -0.4522  0.6810
 2805SOL    HW220049   3.562   2.484   4.127 -2.0590  1.1582 -1.6814
 2806SOL     OW20050   2.547   1.026   7.613 -0.4418  0.0398 -0.3461
 2806SOL    HW120051   2.488   1.093   7.647  0.6650  0.2020  1.2509
 2806SOL    HW220052   2.629   1.051   7.655 -1.1951 -0.2832  1.3350
 2807SOL     OW20053   3.188   2.049   8.073  0.4878  0.0586 -0.2602
 2807SOL    HW120054   3.249   1.995   8.124  0.3490 -1.6535 -1.9138
 2807SOL    HW220055   3.175   1.995   7.995 -0.4345 -0.3466  0.1729
 2808SOL     OW20056   0.474   0.619   5.269  0.8236 -0.1272  0.8077
 2808SOL    HW120057   0.508   0.531   5.251  0.1075  0.0236 -1.2631
 2808SOL    HW220058   0.541   0.676   5.230  0.2425 -0.9125 -1.3463
 2809SOL     OW20059   1.029   2.986  12.455  0.3123 -0.2596 -0.6037
 2809SOL    HW120060   0.948   2.938  12.471  0.0285  0.9881  1.7957
 2809SOL    HW220061   1.043   2.953  12.367  0.2325 -0.6864 -0.4551
 2810SOL     OW20062   0.324   4.706  12.977  0.4579  0.1005 -0.5188
 2810SOL    HW120063   0.320   4.610  12.982 -1.8474  0.3285  1.4567
 2810SOL    HW220064   0.389   0.002  12.913  0.7232 -0.0466 -0.3245
 2811SOL     OW20065   1.957   1.499  12.689 -0.0152  0.3164  0.0482
 2811SOL    HW120066   1.949   1.591  12.714  0.3569 -0.0670  1.5610
 2811SOL    HW220067   2.044   1.473  12.717 -0.5234 -0.9124  0.4670
 2812SOL     OW20068   4.099   4.505  16.910 -0.1659 -0.1828 -0.1123
 2812SOL    HW120069   4.086   4.573  16.844  0.1353 -1.1089 -1.1277
 2812SOL    HW220070   4.187   4.527  16.941 -0.4022 -0.5472  0.7978
 2813SOL     OW20071   1.916   3.262  13.729  0.1498  0.1619  0.2196
 2813SOL    HW120072   1.851   3.333  13.724  0.6047  0.6514  1.3284
 2813SOL    HW220073   1.934   3.252  13.635  1.4747 -0.4391  0.5480
 2814SOL     OW20074   0.483   2.093   7.200  0.2145 -0.0893 -0.2328
 2814SOL    HW120075   0.408   2.150   7.181  0.4732 -0.0424 -1.1101
 2814SOL    HW220076   0.446   2.034   7.265 -0.8519  0.8373  0.0006
 2815SOL     OW20077   0.572   0.511   1.097 -0.3077  0.1619 -0.1281
 2815SOL    HW120078   0.558   0.520   1.191 -2.3060 -1.3183 -0.2943
 2815SOL    HW220079   0.634   0.581   1.076 -0.2980 -0.1928 -1.2694
 2816SOL     OW20080   2.044   2.268  15.245  0.0521 -0.0617 -0.1833
 2816SOL    HW120081   1.989   2.346  15.246  0.2068  0.0423  0.0783
 2816SOL    HW220082   2.107   2.300  15.310 -1.4358 -0.8093  1.6479
 2817SOL     OW20083   0.922   3.815  17.280 -0.4069 -0.4287  0.0154
 2817SOL    HW120084   0.852   3.830  17.216  0.4964 -0.4872 -0.9817
 2817SOL    HW220085   0.917   3.901  17.321  0.7554  0.2924 -1.3601
 2818SOL     OW20086   3.174   2.922   5.552 -0.3473  0.2696 -0.1397
 2818SOL    HW120087   3.098   2.886   5.598 -0.2084  0.0145 -0.1144
 2818SOL    HW220088   3.189   3.007   5.596 -0.2693  0.7019 -1.0092
 2819SOL     OW20089   1.559   4.196   9.465  0.2182 -0.2267 -0.2879
 2819SOL    HW120090   1.500   4.235   9.401 -1.7399  1.2284  2.4317
 2819SOL    HW220091   1.530   4.105   9.457 -2.7317  0.9522 -3.0705
 2820SOL     OW20092   4.347   2.957   8.202  0.0246 -0.2947 -0.3401
 2820SOL    HW120093   4.340   2.883   8.142 -0.1591  0.3003 -1.0459
 2820SOL    HW220094   4.261   2.957   8.245 -1.2785 -0.7820 -2.9538
 2821SOL     OW20095   2.460   2.334   9.319 -0.2229  0.1297 -0.0107
 2821SOL    HW120096   2.471   2.241   9.340 -1.5484  0.4943  2.3623
 2821SOL    HW220097   2.548   2.363   9.341 -0.2513  0.1920  0.0202
 2822SOL     OW20098   0.198   1.099   3.152  0.2025 -0.1559  0.2857
 2822SOL    HW120099   0.104   1.095   3.134 -0.0316  0.8022  1.2549
 2822SOL    HW220100   0.202   1.117   3.246 -0.9612 -0.2946  0.3604
 2823SOL     OW20101   4.450   1.822   3.663  1.1839 -0.0754  0.3875
 2823SOL    HW120102   4.389   1.861   3.725 -0.4246 -1.6165 -0.2312
 2823SOL    HW220103   4.400   1.743   3.643  1.5314  0.1405 -1.3355
 2824SOL     OW20104   1.735   4.549  17.205  0.0550  0.1387  0.3402
 2824SOL    HW120105   1.787   4.492  17.148  0.1733 -0.9679  1.5627
 2824SOL    HW220106   1.718   4.495  17.282 -0.6224 -0.2354 -0.0726
 2825SOL     OW20107   2.250   4.712   7.047  0.0778  0.2326  0.1002
 2825SOL    HW120108   2.189   4.696   7.119  1.0994  0.0362  0.9264
 2825SOL    HW220109   2.274   0.068   7.059  0.4059 -0.2590  3.0783
 2826SOL     OW20110   4.414   3.851  17.389 -0.3099 -0.3943  0.8636
 2826SOL    HW120111   4.470   3.905  17.444 -1.9835 -1.1705  3.3434
 2826SOL    HW220112   4.470   3.774  17.396  2.5688  1.5016 -1.5246
 2827SOL     OW20113   2.448   3.694   4.830  0.2823  0.4562  0.1177
 2827SOL    HW120114   2.395   3.774   4.825 -1.2479 -0.4402  1.5860
 2827SOL    HW220115   2.392   3.633   4.782 -0.0884  0.3128  0.7298
 2828SOL     OW20116   1.158   1.997  16.955 -0.5469  0.7099 -0.2457
 2828SOL    HW120117   1.243   1.974  16.992  0.2675 -0.2385 -2.6756
 2828SOL    HW220118   1.184   2.020  16.865  1.9959 -2.3533 -0.2990
 2829SOL     OW20119   2.907   1.898   2.152  0.0241 -0.0894 -0.2759
 2829SOL    HW120120   2.813   1.916   2.144  0.4243  0.4345 -3.6904
 2829SOL    HW220121   2.922   1.844   2.075 -1.3649  0.2605 -0.7786
 2830SOL     OW20122   2.815   2.427   8.882 -0.5424 -0.2329  0.1363
 2830SOL    HW120123   2.827   2.392   8.794 -0.7003  0.0200  0.0116
 2830SOL    HW220124   2.908   2.444   8.895 -0.4644 -1.2751  0.9033
 2831SOL     OW20125   4.004   0.638   5.055 -0.0041  0.3640  0.0799
 2831SOL    HW120126   4.076   0.636   4.992  0.0281  0.6516  0.1067
 2831SOL    HW220127   4.041   0.695   5.123 -0.8803 -0.5792  1.3614
 2832SOL     OW20128   2.114   3.391  12.510  0.3731  0.6014  0.2396
 2832SOL    HW120129   2.019   3.395  12.500  0.3411  0.2829  0.4302
 2832SOL    HW220130   2.125   3.379  12.604 -0.5997  4.8392  0.9130
 2833SOL     OW20131   3.907   4.440   2.080  0.2691 -0.3707  0.0347
 2833SOL    HW120132   3.813   4.460   2.079  0.7048  1.6253 -2.8093
 2833SOL    HW220133   3.905   4.398   2.165  0.7514 -2.2014 -0.8707
 2834SOL     OW20134   4.641   3.599   3.874 -0.1146 -0.4036  0.2501
 2834SOL    HW120135   4.707   3.667   3.887  1.1390 -1.4745 -0.4210
 2834SOL    HW220136   4.635   3.600   3.778  1.2152 -1.2975  0.1546
 2835SOL     OW20137   3.232   2.638   1.675  0.7574  0.1134  0.0879
 2835SOL    HW120138   3.170   2.700   1.635  0.9004 -1.8304 -3.1296
 2835SOL    HW220139   3.199   2.557   1.636  2.8326 -0.5891 -0.2027
 2836SOL     OW20140   1.800   3.231  17.613 -0.1998  0.1026  0.0678
 2836SOL    HW120141   1.871   3.227  17.677 -0.1187  1.1499  0.0471
 2836SOL    HW220142   1.791   3.326  17.621  0.2397  0.1398  0.1547
 2837SOL     OW20143   1.607   4.347   0.569  0.7243 -0.3978 -0.2761
 2837SOL    HW120144   1.564   4.261   0.577 -1.9527  1.2278  2.8232
 2837SOL    HW220145   1.572   4.393   0.645  1.6048 -0.3384  0.0878
 2838SOL     OW20146   0.992   2.549  11.740  0.1573 -0.2728 -0.1554
 2838SOL    HW120147   1.060   2.615  11.733 -0.6569  0.4025 -1.5193
 2838SOL    HW220148   0.913   2.603  11.735  0.4233  0.0501 -0.7931
 2839SOL     OW20149   4.297   2.806  14.764 -0.7275  0.5012  0.2492
 2839SOL    HW120150   4.285   2.809  14.669 -0.4155  3.5705  0.3279
 2839SOL    HW220151   4.285   2.714  14.790 -0.8892  0.3613 -0.3157
 2840SOL     OW20152   3.839   0.341   7.910  0.0067  0.4667 -0.5333
 2840SOL    HW120153   3.841   0.436   7.907  1.0574  0.5300  2.0393
 2840SOL    HW220154   3.907   0.326   7.976 -0.1408 -0.5406 -0.6043
 2841SOL     OW20155   4.310   2.151   5.213 -0.7878  0.1944 -0.4927
 2841SOL    HW120156   4.326   2.152   5.119  1.3893 -0.4293 -0.1326
 2841SOL    HW220157   4.387   2.203   5.236 -0.8838 -0.3153  1.0227
 2842SOL     OW20158   2.552   0.566   2.888 -0.2392 -0.0714 -0.1970
 2842SOL    HW120159   2.603   0.634   2.931 -1.5317  0.7066  0.1147
 2842SOL    HW220160   2.584   0.582   2.799 -1.1317 -0.9804 -0.6841
 2843SOL     OW20161   2.243   4.075  16.573  0.5647  0.4643 -0.0169
 2843SOL    HW120162   2.288   4.048  16.492  0.7047 -2.7517  1.1369
 2843SOL    HW220163   2.183   4.002  16.592  0.7474  0.8150  1.8530
 2844SOL     OW20164   2.984   0.721  11.159  0.2497  0.0112  0.3110
 2844SOL    HW120165   2.963   0.759  11.074  0.0135 -1.8273 -0.4547
 2844SOL    HW220166   3.072   0.757  11.174  0.9596 -1.0186 -1.4135
 2845SOL     OW20167   4.678   0.911   2.178  0.1178 -0.1456  0.0961
 2845SOL    HW120168   4.729   0.873   2.250 -0.5404  2.0460  1.7328
 2845SOL    HW220169   4.647   0.997   2.207  1.8647  0.3136  0.6286
 2846SOL     OW20170   0.454   0.291   2.368  0.4764  0.1861 -0.0175
 2846SOL    HW120171   0.416   0.234   2.435  3.9764 -1.6073  0.4972
 2846SOL    HW220172   0.541   0.250   2.360  1.1292  1.5229  0.2456
 2847SOL     OW20173   3.561   0.068   2.625 -0.3374 -0.0773  0.6365
 2847SOL    HW120174   3.589   0.065   2.716  0.0756 -1.0500  0.4801
 2847SOL    HW220175   3.605   0.153   2.611  0.3379 -0.6722 -0.9532
 2848SOL     OW20176   1.322   0.409   9.998  0.4643  0.6711  0.0042
 2848SOL    HW120177   1.327   0.323   9.956  0.4639 -0.2629  1.8909
 2848SOL    HW220178   1.413   0.419  10.024 -0.3506  1.8461  2.4358
 2849SOL     OW20179   4.087   2.115  13.084 -0.1321 -0.2025 -0.1099
 2849SOL    HW120180   4.037   2.172  13.026  0.1431  0.1255 -0.0159
 2849SOL    HW220181   4.139   2.175  13.137  0.2781  1.0234 -1.9209
 2850SOL     OW20182   3.048   3.389   8.123 -0.0179 -0.8430 -0.1024
 2850SOL    HW120183   3.079   3.307   8.160 -1.0442 -1.1143  0.1689
 2850SOL    HW220184   3.124   3.444   8.143  0.1404 -1.1810  0.2086
 2851SOL     OW20185   0.078   3.213   8.267 -0.0362 -0.0653  0.3287
 2851SOL    HW120186   4.726   3.251   8.280 -0.0768 -1.0366  2.8101
 2851SOL    HW220187   0.067   3.153   8.193 -0.1005  1.7043 -1.1042
 2852SOL     OW20188   0.583   0.925  10.113  0.0975 -0.3934  0.1135
 2852SOL    HW120189   0.488   0.937  10.110 -0.0287 -1.3726  0.1601
 2852SOL    HW220190   0.606   0.981  10.188  0.7390 -0.2774 -0.1718
 2853SOL     OW20191   2.632   3.611   1.280  0.4746 -0.1535 -0.9730
 2853SOL    HW120192   2.596   3.697   1.298  0.7173  0.0736 -1.5621
 2853SOL    HW220193   2.705   3.650   1.232  1.7091 -1.5562 -0.2534
 2854SOL     OW20194   4.516   3.134   5.170 -0.6175 -0.3111 -0.3387
 2854SOL    HW120195   4.539   3.117   5.079  1.1970 -2.9971  0.6255
 2854SOL    HW220196   4.586   3.081   5.208 -1.9150 -0.1380  2.3104
 2855SOL     OW20197   2.518   4.053  17.404 -0.3479  0.2595  0.1602
 2855SOL    HW120198   2.497   4.014  17.319  1.1445  1.3383 -0.6821
 2855SOL    HW220199   2.608   4.024  17.414  0.0237 -0.0479 -4.2681
 2856SOL     OW20200   4.481   3.169   4.312 -0.0574 -0.0937 -0.0855
 2856SOL    HW120201   4.547   3.122   4.363 -0.4009  1.1846  1.5240
 2856SOL    HW220202   4.473   3.248   4.364  0.3233 -2.0728  2.9719
 2857SOL     OW20203   1.716   0.859   7.609 -0.5654  0.5022  0.4965
 2857SOL    HW120204   1.811   0.872   7.608 -0.5572  0.4373  0.4460
 2857SOL    HW220205   1.698   0.837   7.700  0.9881  2.0793  1.2075
 2858SOL     OW20206   2.865   1.521   2.080  0.3289  0.2569 -0.1627
 2858SOL    HW120207   2.868   1.573   2.160 -0.8766 -0.0702  0.0953
 2858SOL    HW220208   2.865   1.595   2.018 -0.5811 -0.7716 -1.4089
 2859SOL     OW20209   4.623   2.724   6.892 -0.1201 -0.4523  0.7164
 2859SOL    HW120210   4.694   2.782   6.917  1.3877 -1.5958 -0.9335
 2859SOL    HW220211   4.547   2.783   6.897  0.7595  0.8319 -1.4274
 2860SOL     OW20212   0.771   2.091   6.213  0.0364  0.5213  0.1614
 2860SOL    HW120213   0.824   2.073   6.291 -1.6310 -0.9405  0.9560
 2860SOL    HW220214   0.762   2.185   6.222 -0.3716  0.5161 -0.2041
 2861SOL     OW20215   1.545   1.850  16.429 -0.1053  0.2050  0.0298
 2861SOL    HW120216   1.482   1.786  16.460  1.1171 -1.0535 -0.1180
 2861SOL    HW220217   1.551   1.887  16.517 -1.9697  0.3076  0.1009
 2862SOL     OW20218   2.817   4.698   3.105  0.7017  0.0082 -0.5185
 2862SOL    HW120219   2.814   0.042   3.053 -0.3540  0.7210  0.6345
 2862SOL    HW220220   2.729   4.692   3.142  1.4306  1.5536  1.5026
 2863SOL     OW20221   0.859   1.048   2.935  0.1410  0.1711  0.2182
 2863SOL    HW120222   0.869   1.001   2.852 -1.0190  0.1633  0.0912
 2863SOL    HW220223   0.934   1.014   2.986 -0.3470 -3.0436 -1.2120
 2864SOL     OW20224   1.835   3.526   6.755  0.5523  0.3608 -0.0688
 2864SOL    HW120225   1.794   3.609   6.733  1.6473  1.7808  3.1960
 2864SOL    HW220226   1.915   3.553   6.800  1.1765 -1.0304 -0.3489
 2865SOL     OW20227   1.187   4.479  13.866 -0.2321 -0.0919  0.2234
 2865SOL    HW120228   1.261   4.421  13.844  0.8807  1.2290  0.4593
 2865SOL    HW220229   1.153   4.488  13.777  0.0238  0.0069  0.1336
 2866SOL     OW20230   1.262   0.637  16.696 -0.3809 -0.1563  0.4423
 2866SOL    HW120231   1.234   0.578  16.626  0.8764 -2.1796  1.6661
 2866SOL    HW220232   1.180   0.677  16.726 -0.8344 -1.2929  0.7288
 2867SOL     OW20233   1.673   0.779   5.538 -0.0531  0.7093 -0.5513
 2867SOL    HW120234   1.626   0.846   5.587 -0.8747  0.1925 -0.6238
 2867SOL    HW220235   1.650   0.707   5.597  2.0244  1.0606  0.6803
 2868SOL     OW20236   0.341   1.991   5.318 -0.2211 -0.8998  0.5884
 2868SOL    HW120237   0.316   2.045   5.392 -4.2049  1.1124 -2.2294
 2868SOL    HW220238   0.419   2.044   5.302  0.5548 -1.8787  1.1913
 2869SOL     OW20239   2.351   0.198  14.728  0.4012 -0.5229  0.4861
 2869SOL    HW120240   2.367   0.274  14.672 -4.2370  2.6750  3.4843
 2869SOL    HW220241   2.260   0.214  14.754  0.3267  0.8744 -0.6205
 2870SOL     OW20242   2.804   0.678  17.617  0.0177  0.5444  0.0984
 2870SOL    HW120243   2.824   0.754  17.671  1.5857  0.2270 -0.0389
 2870SOL    HW220244   2.825   0.692  17.525  1.0821 -0.3237  0.2195
 2871SOL     OW20245   2.464   2.601   9.104 -0.3734 -0.1693 -0.4927
 2871SOL    HW120246   2.461   2.523   9.159 -1.1285  0.7814  0.8332
 2871SOL    HW220247   2.371   2.619   9.089 -0.3212  2.1721  2.0450
 2872SOL     OW20248   2.170   1.188   3.138  0.5343  0.2452 -0.2825
 2872SOL    HW120249   2.092   1.137   3.161  1.1989 -0.2594  0.8694
 2872SOL    HW220250   2.132   1.269   3.104  1.6689  0.6625 -0.5449
 2873SOL     OW20251   2.101   0.242  16.930  0.3444  0.4565 -0.1790
 2873SOL    HW120252   2.092   0.297  16.852 -0.6892  2.7763  1.5755
 2873SOL    HW220253   2.170   0.291  16.975 -1.0558 -0.3694  2.8720
 2874SOL     OW20254   0.547   0.618   0.826  0.2025  0.4978  0.1642
 2874SOL    HW120255   0.520   0.596   0.915  2.4188  1.6904  1.1166
 2874SOL    HW220256   0.629   0.655   0.858 -0.8035  1.5891  1.4724
 2875SOL     OW20257   1.256   4.513   0.538 -0.1465  0.2287 -0.0467
 2875SOL    HW120258   1.284   4.429   0.573 -1.1000  0.7572  1.9353
 2875SOL    HW220259   1.259   4.503   0.442  0.4754  1.1640 -0.1332
 2876SOL     OW20260   3.630   4.628   5.108 -0.6364 -0.3615 -0.2507
 2876SOL    HW120261   3.665   4.676   5.033 -1.4235 -1.1161 -1.1031
 2876SOL    HW220262   3.623   4.535   5.083 -0.1538 -0.6902  0.8503
 2877SOL     OW20263   2.309   1.867   4.692 -0.1887 -0.1968  0.0224
 2877SOL    HW120264   2.293   1.922   4.769  1.3526  2.3142 -1.4325
 2877SOL    HW220265   2.388   1.818   4.717  0.7212  0.9505 -0.5718
 2878SOL     OW20266   0.005   4.340   9.057  0.1323  0.3447  0.6782
 2878SOL    HW120267   0.070   4.284   9.099  1.4630  2.3824  1.3224
 2878SOL    HW220268   4.697   4.371   9.136 -3.5388  2.4105 -2.1205
 2879SOL     OW20269   0.874   1.173   2.239 -0.2868  0.0242  0.8428
 2879SOL    HW120270   0.856   1.148   2.148 -1.8530 -0.7964  1.3679
 2879SOL    HW220271   0.861   1.267   2.227  0.1198 -0.1344 -0.8270
 2880SOL     OW20272   0.685   4.071  15.354  0.8191 -0.0654  0.4285
 2880SOL    HW120273   0.675   4.044  15.263  3.3106  0.3142  0.0470
 2880SOL    HW220274   0.764   4.124  15.355 -0.9085  2.5330 -0.4072
 2881SOL     OW20275   2.079   4.563   6.467 -0.5177 -0.3760  0.5761
 2881SOL    HW120276   2.100   4.469   6.463 -0.6863 -0.3327 -1.2492
 2881SOL    HW220277   1.985   4.556   6.449  0.4387 -1.1010 -3.9742
 2882SOL     OW20278   1.160   2.334   9.490 -0.3441 -0.1618 -0.1004
 2882SOL    HW120279   1.084   2.325   9.433 -0.3613  1.7059 -0.3656
 2882SOL    HW220280   1.136   2.423   9.517  2.1331  0.5357 -0.2130
 2883SOL     OW20281   4.255   0.326   9.026 -0.0401  0.2439 -0.0864
 2883SOL    HW120282   4.349   0.312   9.023  0.3587  2.8979 -0.4245
 2883SOL    HW220283   4.256   0.414   8.989 -3.7875  0.2902 -0.1240
 2884SOL     OW20284   3.419   3.379  14.627  0.3544  0.0259  0.1834
 2884SOL    HW120285   3.512   3.369  14.648  0.2754  0.0647  0.5470
 2884SOL    HW220286   3.405   3.352  14.536 -0.9025 -1.1893  0.7406
 2885SOL     OW20287   0.592   2.518  16.747  0.2021  0.4775  0.6692
 2885SOL    HW120288   0.537   2.440  16.755 -1.2874  1.4617 -0.0390
 2885SOL    HW220289   0.526   2.587  16.735 -1.3900 -1.0467  0.5975
 2886SOL     OW20290   3.174   4.394   7.844  0.3013 -0.0263 -0.1949
 2886SOL    HW120291   3.123   4.441   7.910  0.6872  0.8456 -0.5223
 2886SOL    HW220292   3.260   4.412   7.880 -0.0816  1.8735 -0.2406
 2887SOL     OW20293   1.170   4.249   4.057 -0.3244  0.1446 -0.5693
 2887SOL    HW120294   1.090   4.301   4.052  1.7455  3.2852 -1.1473
 2887SOL    HW220295   1.136   4.194   4.128 -0.9627  2.3332  0.8230
 2888SOL     OW20296   0.576   3.965   3.014 -0.5647 -0.4284 -0.3445
 2888SOL    HW120297   0.570   4.055   2.982  2.6486  0.0051  0.2888
 2888SOL    HW220298   0.659   3.930   2.984 -0.1854 -0.9231  1.2486
 2889SOL     OW20299   0.418   3.431   1.517 -0.3567 -0.1352 -0.5042
 2889SOL    HW120300   0.489   3.492   1.497 -1.6356  0.7062 -2.5177
 2889SOL    HW220301   0.429   3.410   1.610 -0.7118 -1.8648 -0.8455
 2890SOL     OW20302   4.192   2.095   7.439  0.1759 -0.2722 -0.4033
 2890SOL    HW120303   4.226   2.104   7.350 -0.4577  2.2827 -0.3716
 2890SOL    HW220304   4.237   2.159   7.494 -0.7347 -0.4119  0.5054
 2891SOL     OW20305   3.627   1.279   7.535  0.0826 -0.5194  0.1338
 2891SOL    HW120306   3.642   1.342   7.465 -0.5070 -1.0902 -0.4994
 2891SOL    HW220307   3.550   1.228   7.510 -1.2919  0.8330  1.5832
 2892SOL     OW20308   2.608   0.523  11.511  0.1170 -0.3845 -0.4437
 2892SOL    HW120309   2.561   0.596  11.552 -1.4669 -0.8566 -1.4044
 2892SOL    HW220310   2.620   0.550  11.420  1.6602  0.1077 -0.0808
 2893SOL     OW20311   4.236   4.427   7.914 -0.0356 -0.6816 -0.2180
 2893SOL    HW120312   4.260   4.436   7.821  0.4844 -0.5753 -0.0738
 2893SOL    HW220313   4.294   4.488   7.960  0.1344 -1.5193  0.6699
 2894SOL     OW20314   2.601   4.320  16.902  0.5900  0.2098 -0.1920
 2894SOL    HW120315   2.561   4.351  16.821 -1.5613  2.9488  1.9470
 2894SOL    HW220316   2.649   4.395  16.936 -1.6093  0.8847  1.4075
 2895SOL     OW20317   0.304   2.206   9.032  0.1700  0.1554  0.6545
 2895SOL    HW120318   0.238   2.271   9.054  1.7120  2.2832 -0.8706
 2895SOL    HW220319   0.323   2.172   9.119  0.6167 -0.7330  0.2118
 2896SOL     OW20320   1.856   2.860  11.002 -0.4435 -0.3786  0.8344
 2896SOL    HW120321   1.775   2.812  10.985  0.2577 -0.1135 -3.2508
 2896SOL    HW220322   1.813   2.946  11.007 -4.2472 -2.2398 -0.1974
 2897SOL     OW20323   3.572   0.293   7.834  0.3642 -0.2729 -0.4743
 2897SOL    HW120324   3.647   0.320   7.887  1.1886 -0.5486 -1.5182
 2897SOL    HW220325   3.570   0.380   7.793 -0.0008  0.3419  0.8110
 2898SOL     OW20326   0.479   1.900  16.480  0.6720 -0.1319 -0.1490
 2898SOL    HW120327   0.540   1.895  16.406  2.7877  2.0978  1.4303
 2898SOL    HW220328   0.395   1.869  16.446  0.0074 -0.9293  2.2775
 2899SOL     OW20329   1.679   1.087   7.985 -0.2427 -0.3755 -0.2711
 2899SOL    HW120330   1.707   1.088   8.077  0.9077  0.6157 -0.6370
 2899SOL    HW220331   1.585   1.069   7.995 -0.7695  1.3714 -2.1205
 2900SOL     OW20332   3.689   4.636  15.790  0.2035  0.0264  0.5212
 2900SOL    HW120333   3.613   4.666  15.840  0.2764  2.3392 -0.7520
 2900SOL    HW220334   3.646   4.610  15.708  3.5009 -0.5558 -1.0383
 2901SOL     OW20335   2.120   1.434   3.010  0.1234 -0.2645 -0.8485
 2901SOL    HW120336   2.109   1.517   2.966 -0.0698  0.9855  1.5376
 2901SOL    HW220337   2.186   1.395   2.953  0.1957 -0.3659 -0.6950
 2902SOL     OW20338   2.280   2.589   2.955  0.2434 -0.1637 -0.3163
 2902SOL    HW120339   2.248   2.505   2.921  1.0574 -0.7251  0.3170
 2902SOL    HW220340   2.220   2.661   2.935  0.9198  0.5503  0.2808
 2903SOL     OW20341   4.055   3.352   8.217  0.5877  0.0070 -0.7097
 2903SOL    HW120342   4.083   3.415   8.284 -1.3320  1.5886 -1.3828
 2903SOL    HW220343   4.129   3.353   8.156  0.7834  0.9696 -0.4616
 2904SOL     OW20344   3.482   3.376   4.806  0.7409  0.2769 -0.3580
 2904SOL    HW120345   3.406   3.319   4.797  1.5962 -0.5366 -2.4807
 2904SOL    HW220346   3.465   3.420   4.889 -0.8612  0.3134 -0.6983
 2905SOL     OW20347   0.784   1.963   3.156 -0.5807  0.0491  0.0433
 2905SOL    HW120348   0.744   2.043   3.190 -0.8607 -0.0503 -0.0502
 2905SOL    HW220349   0.795   1.977   3.062 -1.7025  1.2986  0.1066
 2906SOL     OW20350   2.545   2.673   2.162 -0.3891 -0.1415 -0.2209
 2906SOL    HW120351   2.535   2.767   2.145 -2.0657 -0.0593  1.2178
 2906SOL    HW220352   2.625   2.677   2.214 -0.9412  0.0995  0.6119
 2907SOL     OW20353   0.905   2.351  15.672  0.4219  0.5877  0.2544
 2907SOL    HW120354   0.953   2.286  15.620  0.9214 -0.0509  1.5029
 2907SOL    HW220355   0.942   2.343  15.760  1.8758  0.0028 -0.4204
 2908SOL     OW20356   1.150   4.133   5.244 -0.3962 -0.4952 -0.4501
 2908SOL    HW120357   1.056   4.116   5.242 -0.7184  1.1644  0.6432
 2908SOL    HW220358   1.163   4.102   5.334  2.5610  1.0543 -0.3346
 2909SOL     OW20359   0.698   3.730  10.498  0.1496  0.5606  0.6746
 2909SOL    HW120360   0.633   3.785  10.455  0.1670  1.3183  1.6165
 2909SOL    HW220361   0.688   3.651  10.445  1.2232  1.7480 -1.2522
 2910SOL     OW20362   1.197   0.838  17.479  0.4294 -0.3784 -0.1445
 2910SOL    HW120363   1.119   0.801  17.438 -0.1785  1.1318 -0.3520
 2910SOL    HW220364   1.272   0.823  17.421 -0.0602  1.5698 -1.2793
 2911SOL     OW20365   0.043   4.513   8.829  0.0874  0.3678  0.2313
 2911SOL    HW120366   0.129   4.474   8.816 -0.2478  0.3920 -2.0835
 2911SOL    HW220367   0.006   4.455   8.895  0.0298  0.2490  0.0955
 2912SOL     OW20368   0.030   3.137   6.512 -0.4861 -0.0213 -0.0859
 2912SOL    HW120369   0.125   3.125   6.514 -0.4094  0.3177 -1.4675
 2912SOL    HW220370   0.022   3.072   6.581  1.1843  0.6952  0.7943
 2913SOL     OW20371   3.502   2.341  10.406  0.0279 -0.2641 -0.5057
 2913SOL    HW120372   3.428   2.301  10.450  1.2403  0.6831  2.3603
 2913SOL    HW220373   3.570   2.278  10.431  2.7059  2.7833 -0.0668
 2914SOL     OW20374   3.482   4.480   2.820  0.0608  0.3314  0.2882
 2914SOL    HW120375   3.539   4.442   2.887  1.8777  2.2623 -0.1741
 2914SOL    HW220376   3.411   4.519   2.871 -0.9647  0.5227 -1.2901
 2915SOL     OW20377   2.759   2.436   6.082 -0.1490  0.6711 -0.1387
 2915SOL    HW120378   2.779   2.376   6.011 -0.1803 -0.5354  0.8774
 2915SOL    HW220379   2.846   2.447   6.120  0.0843 -0.6024 -0.3297
 2916SOL     OW20380   2.316   3.050   6.588  0.0921 -0.3130 -0.8423
 2916SOL    HW120381   2.401   3.014   6.614  1.3918  1.8277 -2.1038
 2916SOL    HW220382   2.333   3.073   6.497 -1.4616 -2.1781 -1.6006
 2917SOL     OW20383   1.966   2.583   1.506  0.0816 -0.3796 -0.0450
 2917SOL    HW120384   1.871   2.579   1.515  0.1417 -0.4003  0.5893
 2917SOL    HW220385   1.999   2.521   1.572  0.5598  0.9987  0.9954
 2918SOL     OW20386   3.374   4.691   0.138 -0.8609 -0.6755 -0.4636
 2918SOL    HW120387   3.414   4.605   0.135 -2.4146 -1.4147  0.0974
 2918SOL    HW220388   3.389   0.004   0.057 -2.2720 -1.1484 -1.0156
 2919SOL     OW20389   3.924   1.776   6.827 -0.2820 -1.0889 -0.5998
 2919SOL    HW120390   3.900   1.767   6.734  2.7811 -1.6770 -1.3535
 2919SOL    HW220391   3.864   1.847   6.847  1.0884  0.7385 -2.9883
 2920SOL     OW20392   1.586   0.477   1.890  0.3941  0.2247  0.8285
 2920SOL    HW120393   1.657   0.538   1.913  1.4359 -0.7081  0.0849
 2920SOL    HW220394   1.623   0.395   1.922 -0.4921 -0.8074 -0.8025
 2921SOL     OW20395   1.014   0.092  17.287  0.1813 -0.0262 -0.2794
 2921SOL    HW120396   1.010   0.133  17.373  0.7075 -1.5398  0.4603
 2921SOL    HW220397   1.023   0.171  17.233 -1.6631  0.7409  0.5576
 2922SOL     OW20398   3.133   3.531   6.232  0.4745  0.1227 -0.4386
 2922SOL    HW120399   3.116   3.616   6.191  2.5423  1.1508  0.8890
 2922SOL    HW220400   3.095   3.557   6.316  0.6385  1.1395 -0.6821
 2923SOL     OW20401   1.999   2.413   4.315  0.0119 -0.2987  0.2290
 2923SOL    HW120402   2.031   2.493   4.275 -0.8581 -0.5970 -1.0654
 2923SOL    HW220403   1.913   2.407   4.273 -0.1319  0.7645  0.3923
 2924SOL     OW20404   0.656   0.405   5.214  0.3737  0.4382 -0.3122
 2924SOL    HW120405   0.622   0.317   5.202  0.5603  0.5379 -1.6382
 2924SOL    HW220406   0.720   0.384   5.146  1.1218  3.0186 -0.4197
 2925SOL     OW20407   0.908   0.028  15.567  0.0361 -0.2612 -0.3665
 2925SOL    HW120408   0.879   0.023  15.658  1.5634  1.1570  0.1903
 2925SOL    HW220409   0.820   0.024  15.530 -0.9887  0.2575  1.9838
 2926SOL     OW20410   1.567   2.115   8.057 -0.2609  0.1887  0.2777
 2926SOL    HW120411   1.532   2.201   8.031  2.3311  0.9931 -0.6301
 2926SOL    HW220412   1.623   2.103   7.980 -0.7596  2.2523 -0.4120
 2927SOL     OW20413   4.343   0.250   4.289  0.0838 -0.0042  0.3495
 2927SOL    HW120414   4.429   0.271   4.325  0.3796 -2.9720  1.3274
 2927SOL    HW220415   4.311   0.337   4.264 -1.5040 -0.1661  1.8162
 2928SOL     OW20416   2.596   3.192   8.507 -0.1083 -0.4875  0.2377
 2928SOL    HW120417   2.528   3.160   8.566 -0.3656 -0.4085 -0.0209
 2928SOL    HW220418   2.636   3.272   8.541  1.5505 -1.0105 -0.4816
 2929SOL     OW20419   4.386   1.226   8.096 -0.1291 -0.4687  0.4582
 2929SOL    HW120420   4.387   1.302   8.038  1.1242  0.0560  1.1630
 2929SOL    HW220421   4.317   1.181   8.047 -2.1266  1.4474  1.4942
 2930SOL     OW20422   0.506   1.088   4.204  0.1349  0.0358 -0.8125
 2930SOL    HW120423   0.459   1.025   4.150 -0.0490 -0.2076 -0.3722
 2930SOL    HW220424   0.474   1.067   4.292 -2.0024  1.9380 -1.1489
 2931SOL     OW20425   1.343   1.524   8.047  0.7725 -0.5705 -0.3704
 2931SOL    HW120426   1.435   1.512   8.070  1.1821 -0.6973 -2.0495
 2931SOL    HW220427   1.309   1.473   8.120  1.2913  1.2474  1.1370
 2932SOL     OW20428   0.312   3.048   9.257 -0.4200  0.8158 -0.0557
 2932SOL    HW120429   0.310   3.144   9.267 -0.0048  0.8495 -0.3114
 2932SOL    HW220430   0.221   3.022   9.242  0.1432 -0.8648 -0.4599
 2933SOL     OW20431   0.095   3.666  10.234 -0.5080  0.0128  0.3800
 2933SOL    HW120432   0.052   3.592  10.192 -1.5216  0.2718  0.9366
 2933SOL    HW220433   0.025   3.707  10.286 -0.0909 -1.2771  1.9641
 2934SOL     OW20434   1.766   0.815   8.827 -0.1370 -0.5234  0.8583
 2934SOL    HW120435   1.846   0.788   8.783 -1.4291 -0.4396 -1.5271
 2934SOL    HW220436   1.772   0.910   8.814  0.5434 -0.5589  0.9237
 2935SOL     OW20437   3.234   2.019   6.053  0.1592  0.4595  0.5288
 2935SOL    HW120438   3.234   2.098   5.999  0.0389  0.0558 -0.0706
 2935SOL    HW220439   3.329   2.003   6.058  0.0499 -0.4356 -0.1130
 2936SOL     OW20440   0.547   2.842   8.410 -0.2873  0.0861  0.2463
 2936SOL    HW120441   0.507   2.767   8.366 -2.1244  0.1983  1.6930
 2936SOL    HW220442   0.479   2.910   8.404  0.5166  0.9482  0.9891
 2937SOL     OW20443   4.341   1.457  16.804 -0.9257 -0.9539  0.6877
 2937SOL    HW120444   4.373   1.454  16.895 -0.4975  1.9185  0.6299
 2937SOL    HW220445   4.326   1.551  16.800  0.4915 -0.7374  0.2841
 2938SOL     OW20446   2.599   3.269   2.555 -0.2777 -0.0848  0.1860
 2938SOL    HW120447   2.639   3.356   2.545  0.9353 -0.5554  1.0088
 2938SOL    HW220448   2.679   3.229   2.587  0.6025 -0.1016 -1.9842
 2939SOL     OW20449   4.314   4.444   7.627 -0.5043  0.3426  0.4251
 2939SOL    HW120450   4.321   4.529   7.582  1.2374 -0.3710 -0.6477
 2939SOL    HW220451   4.237   4.411   7.580  1.2507 -1.4030 -1.2084
 2940SOL     OW20452   1.230   3.033   3.062 -0.0083 -0.3587  0.9767
 2940SOL    HW120453   1.143   2.993   3.056 -0.7957  1.3490  0.9566
 2940SOL    HW220454   1.278   2.952   3.044  0.3216  0.1530 -0.4157
 2941SOL     OW20455   3.546   2.758   8.769 -0.6690 -0.3693  0.5441
 2941SOL    HW120456   3.578   2.787   8.854  0.4666 -0.6331  0.2097
 2941SOL    HW220457   3.620   2.707   8.737 -1.3926 -1.6262  0.8581
 2942SOL     OW20458   0.548   3.592   4.203  0.0485 -0.5480  0.8068
 2942SOL    HW120459   0.631   3.598   4.251  1.2271  0.7586 -1.3785
 2942SOL    HW220460   0.501   3.552   4.277 -1.2918 -0.5579 -0.0658
 2943SOL     OW20461   1.735   2.008   6.204 -0.2840  0.3529  0.4391
 2943SOL    HW120462   1.701   1.971   6.285 -0.8116  0.4199  0.2466
 2943SOL    HW220463   1.824   1.973   6.200 -0.1396  0.7011  0.6260
 2944SOL     OW20464   3.884   4.361   0.931 -0.4148 -0.0830  0.1871
 2944SOL    HW120465   3.809   4.330   0.879 -0.8572 -1.0328  1.3770
 2944SOL    HW220466   3.884   4.290   0.996  0.8734  1.2191  1.5938
 2945SOL     OW20467   0.780   0.964   8.460  0.2227  0.9184  0.1534
 2945SOL    HW120468   0.810   0.980   8.370 -0.7710 -0.6557 -0.4582
 2945SOL    HW220469   0.840   1.016   8.514  1.3058  1.6857 -1.7445
 2946SOL     OW20470   4.280   1.105   5.279 -0.4108 -0.4439  0.1205
 2946SOL    HW120471   4.206   1.104   5.340 -2.8220  2.4303 -2.7162
 2946SOL    HW220472   4.283   1.199   5.261 -2.1712 -0.6446 -1.2475
 2947SOL     OW20473   1.235   2.873   8.925  0.1699  0.0999  0.5177
 2947SOL    HW120474   1.255   2.856   9.017  0.6431 -0.7966  0.2521
 2947SOL    HW220475   1.146   2.909   8.932  0.7732  0.9559  3.4502
 2948SOL     OW20476   3.439   3.195   3.536  0.1029 -0.5342  0.2289
 2948SOL    HW120477   3.486   3.266   3.492  1.6242 -1.8636 -0.2755
 2948SOL    HW220478   3.350   3.216   3.510  0.2820  0.7819  0.6772
 2949SOL     OW20479   2.863   3.684   3.148 -0.4375  0.0846  0.0503
 2949SOL    HW120480   2.769   3.699   3.139 -0.7647 -1.2871  1.1704
 2949SOL    HW220481   2.875   3.704   3.241  1.0569 -1.4434  0.1929
 2950SOL     OW20482   4.639   1.542  17.612  0.0391 -0.2719 -0.1506
 2950SOL    HW120483   4.583   1.570  17.540  1.1607  2.3122  0.0003
 2950SOL    HW220484   4.638   1.446  17.601  0.4210 -0.4745  1.6101
 2951SOL     OW20485   2.354   4.597  16.370 -0.7510 -0.2188 -0.2897
 2951SOL    HW120486   2.434   4.619  16.321 -0.1980  0.9197  1.1281
 2951SOL    HW220487   2.348   4.662  16.439  2.0632  0.0103 -0.2346
 2952SOL     OW20488   0.910   3.232   8.205 -0.4119 -0.5028  0.6817
 2952SOL    HW120489   0.966   3.284   8.263  0.0598 -0.7476  0.4459
 2952SOL    HW220490   0.838   3.191   8.252  0.0302  0.0828  1.8818
 2953SOL     OW20491   3.681   1.355  10.013 -0.1886  0.0880 -0.4879
 2953SOL    HW120492   3.586   1.338  10.014 -0.1149 -0.3820 -0.9393
 2953SOL    HW220493   3.697   1.395  10.098  0.9475  1.1651 -1.2182
 2954SOL     OW20494   0.156   2.206   2.493 -0.6522  0.2317 -0.2917
 2954SOL    HW120495   0.105   2.167   2.422 -1.4242  0.2196  0.2656
 2954SOL    HW220496   0.118   2.161   2.569  1.3324 -0.3738  0.3346
 2955SOL     OW20497   0.017   0.979   9.760  0.8185  0.1395 -0.5045
 2955SOL    HW120498   0.085   0.926   9.801  1.6524  1.0008 -0.7807
 2955SOL    HW220499   4.678   0.919   9.759  1.4549 -0.6459 -0.5440
 2956SOL     OW20500   1.769   0.788   4.473 -0.2745 -0.5877  0.1222
 2956SOL    HW120501   1.682   0.803   4.508 -1.0247  0.3124 -2.1040
 2956SOL    HW220502   1.810   0.733   4.539  1.7543 -1.6820 -2.0162
 2957SOL     OW20503   3.052   4.257  16.483 -0.0152 -0.0031  0.6589
 2957SOL    HW120504   3.143   4.241  16.510  0.0104  1.0047  1.1470
 2957SOL    HW220505   3.008   4.237  16.566 -0.5743  1.2011  0.6500
 2958SOL     OW20506   4.189   4.315  17.184  0.1381 -0.0745  0.3011
 2958SOL    HW120507   4.195   4.343  17.093  0.1225  0.8082  0.5692
 2958SOL    HW220508   4.280   4.290  17.201  0.1464 -1.3736 -1.7234
 2959SOL     OW20509   3.532   4.416  11.515  0.4305 -0.2745 -0.2773
 2959SOL    HW120510   3.525   4.473  11.592  0.7164 -0.8270  0.1618
 2959SOL    HW220511   3.448   4.436  11.474  0.4361  0.8342  0.2494
 2960SOL     OW20512   3.942   2.962  17.409 -0.1721 -0.5694 -0.7234
 2960SOL    HW120513   3.855   2.999  17.402  0.2686  0.8575  1.2368
 2960SOL    HW220514   3.960   2.980  17.501 -1.6311  0.7230 -0.6997
 2961SOL     OW20515   4.024   0.198   5.955  0.4150  0.0874 -0.3520
 2961SOL    HW120516   3.947   0.239   5.995  0.2910 -0.1837 -0.3168
 2961SOL    HW220517   4.026   0.112   5.996 -2.4661 -0.6889 -1.8031
 2962SOL     OW20518   4.413   0.864  11.811  0.4761 -0.2595 -0.5711
 2962SOL    HW120519   4.460   0.939  11.849 -1.4075  0.4353  0.3954
 2962SOL    HW220520   4.463   0.801  11.863 -0.0290  0.8344  1.2261
 2963SOL     OW20521   3.915   2.603   9.353  0.4220  1.1299  0.5763
 2963SOL    HW120522   3.894   2.694   9.331 -1.0354  0.1690 -2.0915
 2963SOL    HW220523   3.881   2.597   9.442  2.4913  0.5568  1.3319
 2964SOL     OW20524   1.717   4.576  15.513  0.0404  0.2327 -0.3111
 2964SOL    HW120525   1.795   4.564  15.567  1.4702  1.9771 -1.9648
 2964SOL    HW220526   1.738   4.507  15.449  1.1777  0.4952 -0.2185
 2965SOL     OW20527   3.889   3.353   5.302 -0.0107 -0.0556  0.1098
 2965SOL    HW120528   3.816   3.350   5.240  0.9564 -0.9335 -0.9890
 2965SOL    HW220529   3.918   3.443   5.291  0.1584 -0.2887 -1.3173
 2966SOL     OW20530   3.294   3.124   3.880  0.4194 -0.1885 -0.2602
 2966SOL    HW120531   3.200   3.138   3.889  0.7804  2.0654 -0.0148
 2966SOL    HW220532   3.327   3.115   3.969 -0.1945  0.4070  0.0207
 2967SOL     OW20533   1.620   1.361  16.037 -0.8309 -0.0158  0.3455
 2967SOL    HW120534   1.587   1.392  15.953  2.2598 -1.3664 -1.3672
 2967SOL    HW220535   1.594   1.269  16.037  2.4657 -0.9427 -0.7402
 2968SOL     OW20536   2.561   1.394  16.951  0.3264  0.7553 -0.6778
 2968SOL    HW120537   2.604   1.327  16.899  0.8963  1.0415 -0.5713
 2968SOL    HW220538   2.475   1.411  16.912  0.6842  1.2111 -1.2555
 2969SOL     OW20539   2.963   3.172  17.119  0.5276  0.0372 -0.0932
 2969SOL    HW120540   2.938   3.178  17.211  2.3386  2.8849  0.2276
 2969SOL    HW220541   2.887   3.215  17.081 -0.2290 -1.1152  0.1093
 2970SOL     OW20542   4.536   0.117   9.511 -0.1321  0.3005 -0.2152
 2970SOL    HW120543   4.546   0.125   9.606 -0.4541  1.5584 -0.2883
 2970SOL    HW220544   4.443   0.096   9.501  0.0567  0.1168 -1.6047
 2971SOL     OW20545   0.430   4.414   4.084  0.1507 -0.0358 -0.1990
 2971SOL    HW120546   0.472   4.376   4.007  0.1567  0.6977 -0.5616
 2971SOL    HW220547   0.462   4.359   4.155 -0.8954 -0.7603 -0.2965
 2972SOL     OW20548   4.573   4.135   5.047  0.3100 -0.5327 -0.5116
 2972SOL    HW120549   4.542   4.048   5.075  0.0867 -0.1152  0.5697
 2972SOL    HW220550   4.512   4.195   5.091  1.5689  1.0832 -1.0181
 2973SOL     OW20551   1.331   3.701   0.977 -0.4447 -0.0170 -0.0682
 2973SOL    HW120552   1.340   3.771   1.041  3.0308 -0.8313  0.3676
 2973SOL    HW220553   1.278   3.642   1.030 -0.9344  1.0558  0.6259
 2974SOL     OW20554   0.842   1.613  15.871  0.0933  0.0305  0.2874
 2974SOL    HW120555   0.747   1.603  15.873  0.0339  0.2433 -1.8998
 2974SOL    HW220556   0.860   1.561  15.950 -0.0523 -0.6384 -0.1194
 2975SOL     OW20557   0.201   1.820  16.433  0.0614 -0.1212  0.0296
 2975SOL    HW120558   0.154   1.880  16.374 -1.2275 -2.0665 -0.9166
 2975SOL    HW220559   0.143   1.818  16.509  2.9435 -1.3569  2.2112
 2976SOL     OW20560   2.719   3.753   6.940 -0.1376  0.5208 -0.0434
 2976SOL    HW120561   2.798   3.806   6.952  0.6320 -1.3501  3.0793
 2976SOL    HW220562   2.683   3.797   6.863 -0.5382 -0.4468 -0.4055
 2977SOL     OW20563   1.888   3.224   9.387 -0.2739  0.0329 -0.7360
 2977SOL    HW120564   1.941   3.148   9.364 -1.2328 -0.4075 -1.4963
 2977SOL    HW220565   1.954   3.283   9.422  0.1222 -0.6144 -0.4014
 2978SOL     OW20566   3.932   1.378   3.321  0.1054 -0.3555  0.1431
 2978SOL    HW120567   3.842   1.400   3.298 -0.3483  0.7065  2.8661
 2978SOL    HW220568   3.970   1.463   3.346  0.8166 -0.3594 -0.9182
 2979SOL     OW20569   4.623   4.308   8.384  0.1092 -0.3198 -0.4798
 2979SOL    HW120570   4.650   4.378   8.443  0.0572 -1.1786  0.5562
 2979SOL    HW220571   4.635   4.349   8.298  1.9139 -1.8314 -0.9542
 2980SOL     OW20572   4.237   0.687  11.536  0.6911 -0.3687  0.4413
 2980SOL    HW120573   4.288   0.612  11.564  2.7667  0.1408 -1.9639
 2980SOL    HW220574   4.177   0.639  11.478 -2.5239  0.6567  2.8849
 2981SOL     OW20575   2.710   3.430   1.480  0.0902  0.0625 -0.2145
 2981SOL    HW120576   2.751   3.352   1.443  0.1244  0.0077 -0.0629
 2981SOL    HW220577   2.690   3.473   1.397 -0.5235  1.6087  0.7318
 2982SOL     OW20578   1.555   3.891  11.370  0.0541  0.2586 -0.0601
 2982SOL    HW120579   1.627   3.834  11.394 -1.4987 -1.0808  1.3556
 2982SOL    HW220580   1.568   3.958  11.437 -0.7921 -1.6952  2.0242
 2983SOL     OW20581   0.015   2.517   0.872  0.4044  0.3724  0.1075
 2983SOL    HW120582   4.677   2.471   0.913 -1.3501  2.8302 -0.2852
 2983SOL    HW220583   0.004   2.476   0.786 -2.8022  0.8116  0.2883
 2984SOL     OW20584   2.645   0.701  10.234 -0.4048  0.5064  0.7578
 2984SOL    HW120585   2.692   0.768  10.184  0.5302 -1.0550 -0.4463
 2984SOL    HW220586   2.562   0.746  10.252 -0.2524  0.9070  0.4582
 2985SOL     OW20587   1.239   1.181   5.763  0.4456 -0.3144  0.0720
 2985SOL    HW120588   1.165   1.132   5.729 -0.2667  1.0943 -0.4140
 2985SOL    HW220589   1.199   1.264   5.789 -0.9741  0.1833 -3.7448
 2986SOL     OW20590   3.294   2.733  15.567  0.2555  0.0783  0.2806
 2986SOL    HW120591   3.209   2.778  15.572 -0.1397 -0.7638  1.1472
 2986SOL    HW220592   3.302   2.700  15.656 -2.0431 -0.6677  0.2269
 2987SOL     OW20593   0.540   4.536  12.164 -0.1953 -0.1904  0.4791
 2987SOL    HW120594   0.584   4.605  12.116 -2.4332  0.0790 -1.1500
 2987SOL    HW220595   0.572   4.572  12.247 -0.7340 -0.5266  0.8349
 2988SOL     OW20596   1.054   1.430   2.500  0.1889 -0.4678 -0.1435
 2988SOL    HW120597   1.012   1.516   2.491  1.4305  0.2007  0.3870
 2988SOL    HW220598   1.097   1.426   2.415  1.1262 -0.7868  0.3424
 2989SOL     OW20599   3.587   1.627  15.971  0.2113  0.4348 -0.6813
 2989SOL    HW120600   3.644   1.552  15.955  1.4139  1.2937 -0.4524
 2989SOL    HW220601   3.501   1.606  15.934  0.9869 -2.3566 -0.8870
 2990SOL     OW20602   3.603   0.421   8.605  1.0745 -0.0321 -0.1050
 2990SOL    HW120603   3.623   0.427   8.512  0.4855  0.4826 -0.1946
 2990SOL    HW220604   3.567   0.508   8.619  1.3847 -0.2229  2.0144
 2991SOL     OW20605   3.440   2.026   3.554  0.2537 -0.3441 -0.1517
 2991SOL    HW120606   3.434   1.944   3.506  3.3262 -0.2723 -0.6662
 2991SOL    HW220607   3.390   2.010   3.635 -2.4430  0.2625 -1.6899
 2992SOL     OW20608   4.385   4.406  11.513  0.2265  0.5279 -0.5523
 2992SOL    HW120609   4.381   4.482  11.456  2.0174  1.1122  0.1192
 2992SOL    HW220610   4.346   4.442  11.593  0.3096  0.8607 -0.6609
 2993SOL     OW20611   0.790   4.545   1.291  0.1019  0.5089  0.4868
 2993SOL    HW120612   0.761   4.581   1.375 -5.5171  1.0766 -1.6262
 2993SOL    HW220613   0.825   4.628   1.259 -0.0046  0.8229  1.1899
 2994SOL     OW20614   1.069   3.406   6.299  0.1980 -0.4219  0.2555
 2994SOL    HW120615   1.131   3.433   6.232 -2.1640  0.6645 -1.4917
 2994SOL    HW220616   0.985   3.431   6.261 -0.6028 -1.5729  1.2583
 2995SOL     OW20617   1.090   1.724   4.964  0.0694 -0.2686 -0.2617
 2995SOL    HW120618   1.037   1.756   4.890  0.8669  1.2547 -0.1630
 2995SOL    HW220619   1.023   1.742   5.030  0.3357 -0.5345  0.0775
 2996SOL     OW20620   3.350   2.715   2.383 -0.0595 -0.2959 -0.3996
 2996SOL    HW120621   3.313   2.753   2.303  0.4281 -1.7662 -1.3148
 2996SOL    HW220622   3.323   2.785   2.443  0.0944 -1.1509  0.6645
 2997SOL     OW20623   2.259   3.389   7.348  0.0340  0.7358  0.7330
 2997SOL    HW120624   2.321   3.436   7.404  2.2088 -1.0001 -0.2215
 2997SOL    HW220625   2.265   3.450   7.275  1.8124  1.8414  1.8005
 2998SOL     OW20626   2.069   1.213   8.211  0.4895 -0.1361  0.2403
 2998SOL    HW120627   2.143   1.153   8.217  0.8910  0.2882 -0.4282
 2998SOL    HW220628   2.086   1.264   8.290 -0.3034 -0.4745  0.6273
 2999SOL     OW20629   1.932   2.562  10.325 -0.1785 -0.4804  0.3522
 2999SOL    HW120630   1.896   2.516  10.400  2.6387 -1.0689  1.3345
 2999SOL    HW220631   1.970   2.636  10.373 -0.0802  1.0974 -2.1106
 3000SOL     OW20632   3.971   4.391   8.408  0.2217  0.8230  0.1601
 3000SOL    HW120633   4.048   4.419   8.359  1.2595 -0.8114  0.8910
 3000SOL    HW220634   4.001   4.403   8.498  1.5025  0.2532 -0.1947
 3001SOL     OW20635   1.191   2.002   7.203 -0.1651  0.6482  0.0612
 3001SOL    HW120636   1.175   1.934   7.268 -2.6881  0.4014 -0.8375
 3001SOL    HW220637   1.109   2.009   7.156 -0.5426 -0.2177  0.6013
 3002SOL     OW20638   2.761   4.199  10.526  0.5288 -0.5665 -0.2898
 3002SOL    HW120639   2.686   4.181  10.583 -0.3379  1.8217 -0.6828
 3002SOL    HW220640   2.774   4.294  10.533 -0.0422 -0.4401 -0.9831
 3003SOL     OW20641   3.346   0.367   2.332 -0.0541  0.2451 -0.2249
 3003SOL    HW120642   3.255   0.337   2.339 -0.5513  1.2245 -2.3550
 3003SOL    HW220643   3.335   0.462   2.339 -1.5984  0.0586  0.0298
 3004SOL     OW20644   0.015   0.476   9.096  0.0339  0.3160  0.7188
 3004SOL    HW120645   4.683   0.415   9.128  0.2946 -0.6497 -0.5360
 3004SOL    HW220646   0.060   0.521   9.167  2.7577 -0.1823 -0.7071
 3005SOL     OW20647   2.799   4.120   1.096 -0.0179 -0.4280  0.6149
 3005SOL    HW120648   2.826   4.141   1.006 -0.3226  3.6648  1.4487
 3005SOL    HW220649   2.875   4.153   1.144 -0.9022  0.7375  1.1985
 3006SOL     OW20650   3.433   2.824   0.507 -0.4555 -0.0014  0.2459
 3006SOL    HW120651   3.449   2.764   0.434 -0.5456 -0.1832  0.3741
 3006SOL    HW220652   3.339   2.807   0.512 -0.7359  1.3561 -0.5272
 3007SOL     OW20653   3.729   1.639   9.279 -0.1092  0.0810 -0.1360
 3007SOL    HW120654   3.640   1.624   9.248  0.2303 -1.7565 -0.2284
 3007SOL    HW220655   3.776   1.598   9.206  0.4665  0.2623  0.1262
 3008SOL     OW20656   3.928   2.094   6.160  0.0457 -0.4308 -0.0840
 3008SOL    HW120657   4.015   2.079   6.199 -0.1566 -1.1388  0.0973
 3008SOL    HW220658   3.947   2.136   6.076 -0.6068 -1.2995 -0.6711
 3009SOL     OW20659   1.392   1.052  10.032 -0.2302 -0.4201  0.4633
 3009SOL    HW120660   1.317   1.096   9.992 -0.3844  0.9168  2.2165
 3009SOL    HW220661   1.448   1.017   9.962 -1.6142  1.7027 -1.7278
 3010SOL     OW20662   1.183   2.532   3.720  0.4066  0.5781  0.1231
 3010SOL    HW120663   1.256   2.573   3.767 -0.5033  1.2299  0.9717
 3010SOL    HW220664   1.188   2.567   3.631  0.2490  2.3409  0.7896
 3011SOL     OW20665   0.444   0.407   6.398  0.6948 -0.0299  0.6650
 3011SOL    HW120666   0.473   0.497   6.413  0.2944  0.5487 -2.0151
 3011SOL    HW220667   0.375   0.408   6.332  0.5280 -0.1829  0.8348
 3012SOL     OW20668   2.836   3.047   6.992  0.2461 -0.3611 -0.3298
 3012SOL    HW120669   2.918   3.009   6.959  0.3370 -1.5595  1.2601
 3012SOL    HW220670   2.851   3.141   7.002 -0.4173 -0.2797 -0.1265
 3013SOL     OW20671   0.054   0.580  13.435  0.4746  0.0014 -0.4984
 3013SOL    HW120672   0.124   0.579  13.500  1.1319  2.5478 -1.1827
 3013SOL    HW220673   0.022   0.489  13.435 -3.6128  1.4566  0.8983
 3014SOL     OW20674   1.681   2.572   1.950 -0.1884  0.4817  0.7201
 3014SOL    HW120675   1.771   2.565   1.917 -0.8995 -0.6081 -0.9939
 3014SOL    HW220676   1.690   2.642   2.014  0.4386  0.8017  0.2892
 3015SOL     OW20677   3.196   2.711  15.860  0.7084  0.1037  0.1045
 3015SOL    HW120678   3.180   2.725  15.953  2.3370 -2.6338  0.8170
 3015SOL    HW220679   3.156   2.789  15.822  2.6293  1.2744  0.4682
 3016SOL     OW20680   2.712   4.712   1.280  0.2828 -0.9107  0.6868
 3016SOL    HW120681   2.753   4.657   1.213  0.4583  0.9494 -0.7465
 3016SOL    HW220682   2.718   4.664   1.363 -1.4296 -1.2138  0.6472
 3017SOL     OW20683   1.592   1.237   3.168  0.1432  0.3407  0.5373
 3017SOL    HW120684   1.573   1.163   3.110 -0.7725 -2.2609  4.2253
 3017SOL    HW220685   1.667   1.280   3.128 -1.0045  0.0457 -1.9846
 3018SOL     OW20686   1.363   4.609   6.782  0.2895  0.2535  0.6822
 3018SOL    HW120687   1.390   4.675   6.717 -0.0033 -0.1753  0.1334
 3018SOL    HW220688   1.285   4.567   6.747 -0.1373  2.8292 -1.5296
 3019SOL     OW20689   1.619   4.685   7.813  0.2268 -0.2509  0.1557
 3019SOL    HW120690   1.574   0.016   7.865  0.7813  0.8208 -0.7334
 3019SOL    HW220691   1.703   4.670   7.857 -0.9156  0.4091  2.5432
 3020SOL     OW20692   0.077   0.038   3.265  0.0671 -0.0596  0.1547
 3020SOL    HW120693   0.007   0.053   3.329 -1.2437  1.3848 -1.6183
 3020SOL    HW220694   0.148   0.083   3.311  1.4390  0.0152 -2.0630
 3021SOL     OW20695   3.501   3.934   1.481 -0.8364 -0.2724  0.3206
 3021SOL    HW120696   3.436   3.981   1.532 -0.6145  2.0507 -1.5226
 3021SOL    HW220697   3.581   3.982   1.503 -1.2442  0.7053 -0.3434
 3022SOL     OW20698   2.775   3.303  16.998 -0.0769  0.1295  0.6179
 3022SOL    HW120699   2.721   3.269  16.927  0.9762 -0.6777  0.2081
 3022SOL    HW220700   2.770   3.397  16.977  1.2270 -0.1977 -1.1105
 3023SOL     OW20701   4.307   3.487   6.151 -0.3271  0.6365 -0.3380
 3023SOL    HW120702   4.358   3.557   6.110  1.7180  0.5112  1.9931
 3023SOL    HW220703   4.261   3.475   6.068  0.0561 -0.7813 -0.3470
 3024SOL     OW20704   1.508   0.724   9.112  0.2692  0.6101  0.4051
 3024SOL    HW120705   1.434   0.764   9.158  0.4636  0.5588  0.7568
 3024SOL    HW220706   1.459   0.650   9.075 -0.1515 -0.8229  3.8580
 3025SOL     OW20707   4.044   3.914   2.800 -0.4698  0.5514 -0.0370
 3025SOL    HW120708   4.034   3.961   2.882  0.6775 -0.0193  0.4316
 3025SOL    HW220709   4.130   3.948   2.773  0.4853 -1.5645  0.3065
 3026SOL     OW20710   3.654   1.679   3.787  0.3712  0.6354  0.8426
 3026SOL    HW120711   3.642   1.766   3.748 -0.7415  0.5866  1.0685
 3026SOL    HW220712   3.678   1.643   3.701  1.0334  0.9585  0.8923
 3027SOL     OW20713   3.306   0.457  15.150  0.4788  0.0771  0.8644
 3027SOL    HW120714   3.256   0.389  15.105 -0.2513  0.8877  0.4393
 3027SOL    HW220715   3.238   0.512  15.189 -0.2264 -0.1996  0.0361
 3028SOL     OW20716   3.155   2.367   0.282  0.1072 -0.2402  0.0763
 3028SOL    HW120717   3.166   2.282   0.325 -0.7428 -0.1805  0.4210
 3028SOL    HW220718   3.160   2.419   0.363  0.3628 -0.6707  0.3322
 3029SOL     OW20719   2.861   1.674   2.293  0.3280 -0.3378 -0.1929
 3029SOL    HW120720   2.869   1.705   2.383  0.8467  0.0671 -0.3774
 3029SOL    HW220721   2.878   1.759   2.252 -0.1313  1.1370  2.6753
 3030SOL     OW20722   2.486   4.254   8.006 -0.2823 -0.0976 -0.0362
 3030SOL    HW120723   2.436   4.294   7.935 -0.5560  0.3308  0.4005
 3030SOL    HW220724   2.571   4.290   7.981  0.1367 -0.6831  0.5414
 3031SOL     OW20725   3.474   4.025  13.293 -0.1383  0.0091 -0.2982
 3031SOL    HW120726   3.415   4.019  13.369  1.5787 -0.2066  1.0266
 3031SOL    HW220727   3.428   3.976  13.225  0.4767 -1.1426  0.1138
 3032SOL     OW20728   4.537   3.564   8.591 -0.1693  0.6152  0.3375
 3032SOL    HW120729   4.478   3.531   8.659 -1.1820 -0.7150 -1.1684
 3032SOL    HW220730   4.576   3.642   8.629 -1.3235  0.2933  2.2256
 3033SOL     OW20731   0.062   1.877   5.497 -0.0487  0.3132 -0.6592
 3033SOL    HW120732   0.082   1.838   5.582  0.7694  0.5645 -0.7346
 3033SOL    HW220733   0.124   1.828   5.443  0.8186  1.7685 -0.9804
 3034SOL     OW20734   0.435   1.530  10.946 -0.5800  0.4735 -0.2393
 3034SOL    HW120735   0.474   1.599  10.999  1.5131 -1.0144  0.1577
 3034SOL    HW220736   0.388   1.492  11.020  2.4309  0.3909  1.6075
 3035SOL     OW20737   4.280   0.635  17.388 -0.0068  0.6706 -0.1470
 3035SOL    HW120738   4.317   0.558  17.431  2.1145  0.6810 -1.9431
 3035SOL    HW220739   4.356   0.661  17.337 -0.3473 -1.1086 -1.5776
 3036SOL     OW20740   2.971   0.196   7.291 -0.1139 -0.2105 -0.0427
 3036SOL    HW120741   2.989   0.186   7.384  2.1832  1.2746 -0.3340
 3036SOL    HW220742   2.915   0.119   7.276  1.1341 -1.4354  1.6774
 3037SOL     OW20743   1.839   1.511  10.279  0.5711 -0.1933  0.1898
 3037SOL    HW120744   1.925   1.509  10.238  0.8979  1.5753  0.7940
 3037SOL    HW220745   1.864   1.488  10.368 -2.4477 -1.2068  0.7924
 3038SOL     OW20746   1.468   1.624   3.685 -0.6656 -0.3344  0.4741
 3038SOL    HW120747   1.392   1.678   3.662  0.6455  0.1745 -2.6813
 3038SOL    HW220748   1.500   1.599   3.598 -0.4221  1.1675  0.1313
 3039SOL     OW20749   1.395   2.363   1.437 -0.2284 -0.0826  0.3560
 3039SOL    HW120750   1.325   2.395   1.381  0.2738 -0.4002 -0.4523
 3039SOL    HW220751   1.353   2.392   1.519  0.2586 -1.0727  0.9560
 3040SOL     OW20752   0.313   0.797  12.329 -0.0891 -0.2657 -0.2965
 3040SOL    HW120753   0.286   0.799  12.421  1.4299  1.2341  0.1094
 3040SOL    HW220754   0.319   0.701  12.326  0.9737 -0.2550  1.5166
 3041SOL     OW20755   1.086   0.829   6.325  0.0001  0.3121 -0.1517
 3041SOL    HW120756   0.999   0.830   6.286 -0.1313 -0.3209  0.1220
 3041SOL    HW220757   1.085   0.907   6.380  3.4472  1.3723 -1.6037
 3042SOL     OW20758   3.918   4.345  17.708  0.1764  0.3611  0.2797
 3042SOL    HW120759   3.980   4.418  17.698 -0.0446  0.7103  1.4258
 3042SOL    HW220760   3.965   4.267  17.680 -1.1308  0.2325 -1.5484
 3043SOL     OW20761   0.640   4.249   5.306  0.3060 -0.4148 -0.1121
 3043SOL    HW120762   0.601   4.162   5.316  1.7876 -0.8597  1.7932
 3043SOL    HW220763   0.596   4.290   5.381 -3.0979 -1.9205 -1.2751
 3044SOL     OW20764   3.487   1.829   7.872  0.1987 -0.2264 -0.4241
 3044SOL    HW120765   3.520   1.823   7.783 -1.4608  2.4124 -1.2110
 3044SOL    HW220766   3.493   1.739   7.903  0.2673  0.0407  0.3387
 3045SOL     OW20767   0.593   3.019   9.056 -0.3690 -0.0442  0.6817
 3045SOL    HW120768   0.552   2.956   9.116  0.1982 -2.4171 -1.3858
 3045SOL    HW220769   0.618   2.970   8.977 -1.7787  1.0367 -0.4196
 3046SOL     OW20770   2.695   0.674  11.941  0.0328 -0.5550 -0.2502
 3046SOL    HW120771   2.601   0.662  11.933 -0.1179  0.4102  0.1148
 3046SOL    HW220772   2.727   0.707  11.857 -0.6331 -0.7090 -0.5605
 3047SOL     OW20773   2.444   3.569  12.519 -0.2947 -0.1909  0.2753
 3047SOL    HW120774   2.533   3.579  12.552  0.1620 -2.6432 -0.2560
 3047SOL    HW220775   2.457   3.497  12.458 -0.5508 -0.4319  0.5004
 3048SOL     OW20776   3.387   2.973   3.336  0.0459  0.2432  0.1509
 3048SOL    HW120777   3.399   2.879   3.350  0.0205  0.0799 -0.9287
 3048SOL    HW220778   3.376   2.991   3.429 -0.2974  1.1044 -0.0614
 3049SOL     OW20779   1.554   0.653  11.291  0.1632  0.4410  0.4557
 3049SOL    HW120780   1.571   0.696  11.207  4.1081  2.8676  2.4840
 3049SOL    HW220781   1.620   0.583  11.291 -1.2464 -0.8931 -1.8079
 3050SOL     OW20782   2.156   1.448   1.000  0.2562  0.1216  0.4787
 3050SOL    HW120783   2.126   1.461   0.910 -0.1137 -0.0244  0.5827
 3050SOL    HW220784   2.101   1.506   1.052 -0.9041 -2.5268  2.2121
 3051SOL     OW20785   4.497   1.571   6.578 -0.3078 -0.0807 -0.1187
 3051SOL    HW120786   4.448   1.525   6.510  0.5511 -1.1341 -0.0210
 3051SOL    HW220787   4.434   1.561   6.650 -0.3104  0.3801 -0.0549
 3052SOL     OW20788   3.087   0.397   4.065  0.3214  0.2330 -0.5493
 3052SOL    HW120789   3.000   0.375   4.034  0.0450  2.1927 -1.1451
 3052SOL    HW220790   3.083   0.493   4.069 -1.8631  0.0997  0.3318
 3053SOL     OW20791   3.332   2.103   2.726 -0.3775 -0.1978 -0.2884
 3053SOL    HW120792   3.336   2.076   2.635  1.7955 -0.5056 -0.0985
 3053SOL    HW220793   3.335   2.015   2.764 -1.9577  0.5660  1.6141
 3054SOL     OW20794   4.685   0.003   2.061 -0.1022  0.3604  0.4055
 3054SOL    HW120795   4.679   4.691   1.978  0.4602 -0.3678  0.7770
 3054SOL    HW220796   4.618   4.684   2.102 -0.5964  1.2322  0.7526
 3055SOL     OW20797   1.598   2.886   7.636 -0.2928  0.1918 -0.1374
 3055SOL    HW120798   1.675   2.862   7.688 -0.2605  0.8774  0.1220
 3055SOL    HW220799   1.539   2.937   7.691  0.1904 -0.4551  0.9792
 3056SOL     OW20800   2.818   3.336   7.016  0.7414  0.2298 -0.0336
 3056SOL    HW120801   2.800   3.392   7.091 -0.3238 -2.0947  1.4695
 3056SOL    HW220802   2.790   3.388   6.941 -1.4961  1.1042  1.4016
 3057SOL     OW20803   1.627   2.445   2.441  0.3357  0.3077  0.4392
 3057SOL    HW120804   1.681   2.366   2.443  0.3857  0.3599  1.2229
 3057SOL    HW220805   1.653   2.478   2.355 -1.3796  1.9838  0.5683
 3058SOL     OW20806   0.083   3.843   0.401 -0.3111  0.1284 -0.5257
 3058SOL    HW120807   0.156   3.798   0.360 -0.4361 -1.4137  0.9569
 3058SOL    HW220808   0.012   3.791   0.362  0.2086 -0.1811 -1.0674
 3059SOL     OW20809   0.440   2.841  11.739 -0.2274 -0.5418 -0.3289
 3059SOL    HW120810   0.443   2.777  11.667 -0.0365 -2.7215  1.6100
 3059SOL    HW220811   0.529   2.833  11.772  0.5225 -1.2839 -2.4748
 3060SOL     OW20812   1.950   0.978   9.712 -0.0412 -0.1697  0.0962
 3060SOL    HW120813   1.957   0.914   9.641 -3.8581 -1.1915  0.6176
 3060SOL    HW220814   1.974   0.928   9.790  0.1800  1.3356  0.9895
 3061SOL     OW20815   2.444   1.775   6.098 -0.1861  0.0343 -0.7149
 3061SOL    HW120816   2.460   1.699   6.155  1.4530  0.2773 -0.8513
 3061SOL    HW220817   2.380   1.741   6.035 -0.7645  0.0343 -0.1263
 3062SOL     OW20818   2.623   3.282  11.524 -0.2651 -0.1128  0.0789
 3062SOL    HW120819   2.577   3.268  11.441 -0.8083 -0.3633  0.4282
 3062SOL    HW220820   2.583   3.205  11.564  0.3315 -2.1294 -3.1610
 3063SOL     OW20821   2.195   0.122   2.118  0.2169 -0.5633 -0.8646
 3063SOL    HW120822   2.123   0.126   2.182  0.7766 -0.6001 -0.2321
 3063SOL    HW220823   2.156   0.169   2.044 -2.7095  0.4906  1.3364
 3064SOL     OW20824   2.548   4.130   1.337 -0.4712 -0.5383  0.1965
 3064SOL    HW120825   2.581   4.042   1.317 -0.4552 -0.4034 -0.3915
 3064SOL    HW220826   2.461   4.108   1.369  0.4346  0.0915  3.0681
 3065SOL     OW20827   1.887   4.293  14.778  0.1878 -0.0368  0.9368
 3065SOL    HW120828   1.935   4.373  14.796  1.1716 -0.4171  0.0115
 3065SOL    HW220829   1.953   4.228  14.752 -0.2498 -0.3921  0.7038
 3066SOL     OW20830   3.579   1.768   7.630 -0.0911 -0.3304 -0.6437
 3066SOL    HW120831   3.643   1.725   7.573  2.6195  1.5936  0.9152
 3066SOL    HW220832   3.514   1.809   7.574 -0.2574  1.2611  0.7101
 3067SOL     OW20833   0.746   0.615   6.529  0.1475  0.5591  0.1532
 3067SOL    HW120834   0.778   0.646   6.613  0.2351  2.9837 -0.7654
 3067SOL    HW220835   0.813   0.564   6.484 -0.5995 -0.8157  0.6009
 3068SOL     OW20836   0.537   4.568   3.210  0.1320  0.1365  0.5674
 3068SOL    HW120837   0.503   4.604   3.128  0.4816 -0.8579 -0.0040
 3068SOL    HW220838   0.531   4.641   3.272 -1.3427  0.8362 -0.3959
 3069SOL     OW20839   1.546   0.894   3.416 -0.2372  0.1576  0.1666
 3069SOL    HW120840   1.497   0.855   3.489  0.8253 -1.5820 -0.0382
 3069SOL    HW220841   1.474   0.918   3.358 -0.0313  2.5573  0.8717
 3070SOL     OW20842   0.426   3.264   4.462 -0.1198  0.3911 -0.0958
 3070SOL    HW120843   0.349   3.226   4.506  0.8159 -0.7296  0.5677
 3070SOL    HW220844   0.403   3.356   4.471 -0.5643  0.1294  1.4707
 3071SOL     OW20845   0.196   3.194   5.496 -0.7191 -0.0142  0.3440
 3071SOL    HW120846   0.127   3.209   5.561  0.6417  1.8963  1.3486
 3071SOL    HW220847   0.175   3.103   5.476  0.9395 -0.3231 -0.0323
 3072SOL     OW20848   2.392   4.113   1.029 -0.2945  0.2773 -0.0348
 3072SOL    HW120849   2.464   4.110   0.966  1.5015  2.4085  1.9625
 3072SOL    HW220850   2.396   4.207   1.046  0.0688  0.2117  0.2370
 3073SOL     OW20851   3.669   0.214   3.946 -0.3045  0.1058  0.3240
 3073SOL    HW120852   3.614   0.262   3.885  2.0638  1.3649 -0.8361
 3073SOL    HW220853   3.615   0.153   3.996 -0.4855 -1.1473 -1.4172
 3074SOL     OW20854   3.487   0.355   4.871  0.0720 -0.4457 -0.3537
 3074SOL    HW120855   3.480   0.260   4.867  1.1965 -0.5795  0.5755
 3074SOL    HW220856   3.486   0.381   4.779 -0.3073  2.0019  0.3394
 3075SOL     OW20857   2.126   2.129   0.889  0.6047 -0.1923  0.6806
 3075SOL    HW120858   2.201   2.096   0.938  0.5636  1.2932  1.7616
 3075SOL    HW220859   2.082   2.045   0.877 -2.7986  1.9990 -2.1932
 3076SOL     OW20860   4.156   0.833  11.753 -0.4303  0.2153  0.3589
 3076SOL    HW120861   4.243   0.848  11.789 -0.4248  2.4812 -0.5675
 3076SOL    HW220862   4.167   0.781  11.673 -0.3358  2.6639 -1.2270
 3077SOL     OW20863   0.579   0.098   4.216 -0.6025  0.0820  0.2383
 3077SOL    HW120864   0.640   0.109   4.143 -1.8812 -0.4234 -0.9057
 3077SOL    HW220865   0.629   0.076   4.294  2.4165 -1.9669 -2.2983
 3078SOL     OW20866   3.473   2.538   9.663  0.0506 -0.4381  0.5828
 3078SOL    HW120867   3.441   2.448   9.656  0.3748 -0.3881 -1.4218
 3078SOL    HW220868   3.481   2.542   9.758  0.7749  1.0826  0.4479
 3079SOL     OW20869   3.477   4.185  13.605  0.5360 -1.0115  0.4940
 3079SOL    HW120870   3.459   4.159  13.695  0.4044  1.6930  1.2538
 3079SOL    HW220871   3.386   4.182  13.574  0.8170 -2.4367 -0.2077
 3080SOL     OW20872   3.287   0.306   7.712 -0.2672  0.1879 -0.7083
 3080SOL    HW120873   3.381   0.320   7.707 -0.2761  0.7045  0.8494
 3080SOL    HW220874   3.294   0.217   7.678 -0.5170  0.4965 -1.5886
 3081SOL     OW20875   2.307   3.790   6.860  0.3448  0.6174  0.2802
 3081SOL    HW120876   2.304   3.885   6.864 -0.5527  0.6422 -1.1655
 3081SOL    HW220877   2.365   3.786   6.784  1.0805 -0.7391  0.8996
 3082SOL     OW20878   3.328   1.095   6.228 -0.0300 -0.1499  0.3267
 3082SOL    HW120879   3.389   1.110   6.156  0.3931 -2.8375  0.1578
 3082SOL    HW220880   3.246   1.095   6.179  0.0090 -0.4210  0.2626
 3083SOL     OW20881   0.943   3.969   3.051  0.4705  0.0654  0.2778
 3083SOL    HW120882   0.883   3.904   3.014 -1.1294  1.5787  0.2342
 3083SOL    HW220883   0.980   3.914   3.120  1.4181 -0.8531 -0.9581
 3084SOL     OW20884   1.008   1.987   4.577 -0.7836 -0.6577 -0.2744
 3084SOL    HW120885   0.968   1.953   4.497  1.5329 -0.9205 -1.3110
 3084SOL    HW220886   0.973   1.932   4.648 -2.3398  1.7367  0.8442
 3085SOL     OW20887   3.689   1.858  13.855 -0.2284  0.5756  0.0237
 3085SOL    HW120888   3.618   1.918  13.877  0.4176  1.0270  0.8728
 3085SOL    HW220889   3.668   1.782  13.910 -0.0177  0.8186  0.4411
 3086SOL     OW20890   3.710   3.481   6.866 -0.4601  0.3137  0.1712
 3086SOL    HW120891   3.659   3.430   6.802  0.6569  1.0875 -1.3275
 3086SOL    HW220892   3.721   3.422   6.940 -1.2505  0.2323  0.2334
 3087SOL     OW20893   2.315   2.034   1.070  0.3247 -0.4505 -0.3404
 3087SOL    HW120894   2.399   2.059   1.110 -0.0616 -2.7096  1.8834
 3087SOL    HW220895   2.293   1.953   1.117  1.4526  1.7961  4.0774
 3088SOL     OW20896   0.813   2.249   3.458 -0.0177  0.0384  0.4975
 3088SOL    HW120897   0.887   2.204   3.500 -0.1711 -0.1537  0.5586
 3088SOL    HW220898   0.838   2.335   3.491  3.1283 -2.2984  4.2381
 3089SOL     OW20899   1.132   4.244   6.913  0.3755  0.3008  0.3863
 3089SOL    HW120900   1.221   4.209   6.923  0.2078  0.3408  2.1081
 3089SOL    HW220901   1.106   4.230   7.004  0.1580  0.3139  0.3252
 3090SOL     OW20902   3.395   3.810   2.572 -0.7454  0.8630  0.6363
 3090SOL    HW120903   3.370   3.764   2.491  0.3491  0.1950  0.6818
 3090SOL    HW220904   3.483   3.841   2.550  0.0857 -2.3052 -0.5230
 3091SOL     OW20905   0.687   2.743   8.105  0.0811 -0.5809  0.5103
 3091SOL    HW120906   0.621   2.678   8.082  0.3915 -0.3119 -1.1806
 3091SOL    HW220907   0.754   2.742   8.036 -0.0185 -1.8951  0.4397
 3092SOL     OW20908   3.400   3.523   6.178 -0.0250  0.2723 -0.0053
 3092SOL    HW120909   3.307   3.530   6.202 -0.6324 -3.5954 -1.2465
 3092SOL    HW220910   3.395   3.540   6.084  0.6105 -0.9539 -0.2500
 3093SOL     OW20911   2.912   1.128   2.942 -0.1303  0.4170 -0.5015
 3093SOL    HW120912   2.881   1.161   3.027  0.6435 -0.1841  0.0104
 3093SOL    HW220913   2.982   1.187   2.913  0.7695 -0.8247 -0.8695
 3094SOL     OW20914   3.971   2.028   9.122 -0.0075 -0.5845  0.3316
 3094SOL    HW120915   3.907   2.097   9.137  0.9248  0.2461  0.4520
 3094SOL    HW220916   3.973   2.012   9.028 -0.6664  1.1181  0.0291
 3095SOL     OW20917   0.806   0.121  14.726  0.2556  0.4273 -0.1058
 3095SOL    HW120918   0.734   0.172  14.688  0.4387  1.1624  0.5353
 3095SOL    HW220919   0.838   0.078  14.647  0.9194  0.7161  0.0031
 3096SOL     OW20920   3.844   2.080   4.432  0.6538 -0.0437  0.8692
 3096SOL    HW120921   3.900   2.153   4.460  1.3333 -0.6649  1.1173
 3096SOL    HW220922   3.903   2.010   4.407 -0.7770 -1.2795  0.9323
 3097SOL     OW20923   3.829   1.319   8.212  0.4479 -0.1674  1.1636
 3097SOL    HW120924   3.782   1.358   8.285  0.7792  4.7388 -1.2359
 3097SOL    HW220925   3.752   1.278   8.172  0.3745  0.5294  0.5949
 3098SOL     OW20926   1.143   3.435   7.815 -0.1075 -0.0886  0.3743
 3098SOL    HW120927   1.105   3.350   7.836 -1.5969  0.7440  1.0736
 3098SOL    HW220928   1.210   3.432   7.884  2.4204 -0.5577 -2.1027
 3099SOL     OW20929   0.545   4.141   3.361  0.5112  0.6567 -0.0316
 3099SOL    HW120930   0.550   4.217   3.302  0.3946  1.9190  1.5891
 3099SOL    HW220931   0.451   4.136   3.378  0.8272 -1.5157  1.0545
 3100SOL     OW20932   3.742   0.059   8.432 -0.4281 -0.1630 -0.2705
 3100SOL    HW120933   3.659   0.059   8.480 -1.1872  3.7650 -1.6362
 3100SOL    HW220934   3.767   0.149   8.452 -1.4630 -0.0580  0.5959
 3101SOL     OW20935   0.763   2.579   8.947 -0.1456 -0.8611  0.2404
 3101SOL    HW120936   0.733   2.530   8.870 -1.1232  1.0856 -0.6220
 3101SOL    HW220937   0.681   2.597   8.993 -1.4845 -2.6499 -1.4226
 3102SOL     OW20938   3.382   0.832  12.907 -0.2438  0.2756 -0.1923
 3102SOL    HW120939   3.458   0.851  12.852  1.2876 -0.2705  1.7379
 3102SOL    HW220940   3.323   0.774  12.859 -0.2740  0.1482 -0.0018
 3103SOL     OW20941   0.234   0.193  11.692 -0.0130  0.0340 -0.5360
 3103SOL    HW120942   0.201   0.210  11.604 -0.1865  1.8981 -0.1114
 3103SOL    HW220943   0.324   0.223  11.681 -0.2016  0.2403 -1.5350
 3104SOL     OW20944   2.936   0.171   0.956  0.0910  0.3099  0.0755
 3104SOL    HW120945   2.944   0.085   0.916  0.4806  0.1965  0.3935
 3104SOL    HW220946   2.998   0.214   0.897  0.8360  1.7831  1.9323
 3105SOL     OW20947   1.029   2.651   8.928  0.0593 -0.1531 -0.0049
 3105SOL    HW120948   0.936   2.633   8.933 -0.3338  1.6250 -0.6832
 3105SOL    HW220949   1.031   2.745   8.944  2.7139 -0.2983  0.6136
 3106SOL     OW20950   3.385   1.116   6.943  0.2469  0.5301  0.3968
 3106SOL    HW120951   3.465   1.167   6.954  0.1917 -0.0922  3.6979
 3106SOL    HW220952   3.373   1.128   6.849  0.1976  0.6018  0.4124
 3107SOL     OW20953   2.553   3.179   3.483 -0.0924  0.7633  0.3245
 3107SOL    HW120954   2.640   3.204   3.452  0.0480  0.0788  0.1556
 3107SOL    HW220955   2.515   3.144   3.402  0.2630  0.1447  0.4157
 3108SOL     OW20956   4.491   2.319   2.382 -0.0816  0.5849 -0.6433
 3108SOL    HW120957   4.454   2.231   2.378  1.0515 -0.0366  1.8845
 3108SOL    HW220958   4.555   2.320   2.311 -0.2426 -0.5927 -0.8078
 3109SOL     OW20959   3.311   0.063  13.845 -0.2142  0.4567 -0.4805
 3109SOL    HW120960   3.224   0.045  13.880  0.4789 -1.0959  0.4342
 3109SOL    HW220961   3.320   4.725  13.785 -1.0842  0.0554 -0.1178
 3110SOL     OW20962   2.070   3.265   8.691  0.0461 -0.1253 -0.3002
 3110SOL    HW120963   1.990   3.230   8.652  0.2340 -2.4340  1.4375
 3110SOL    HW220964   2.074   3.227   8.778 -2.0112  1.3287  0.4221
 3111SOL     OW20965   1.567   0.400   3.231  0.0735 -0.0285 -0.3224
 3111SOL    HW120966   1.555   0.354   3.314 -0.3753  1.6202  0.5248
 3111SOL    HW220967   1.486   0.378   3.185 -0.5298  1.0119  0.2400
 3112SOL     OW20968   2.313   1.345   0.167 -0.1560 -1.0620 -0.5910
 3112SOL    HW120969   2.392   1.340   0.113  0.4988  0.9224  0.1669
 3112SOL    HW220970   2.332   1.422   0.221  0.8694  0.1583 -2.7029
 3113SOL     OW20971   3.930   2.551  15.840  0.5632 -0.3284  0.2105
 3113SOL    HW120972   3.892   2.608  15.773  3.0769  0.1819 -0.7551
 3113SOL    HW220973   3.928   2.465  15.798  0.3235 -0.8533  1.3027
 3114SOL     OW20974   4.657   2.902   4.966  0.4838  0.1106  0.5029
 3114SOL    HW120975   4.590   2.967   4.946  1.5645  0.8844 -0.6227
 3114SOL    HW220976   4.604   2.822   4.967  0.5395  0.0458 -1.0343
 3115SOL     OW20977   3.270   0.481   8.404  0.2810 -0.1213  0.3824
 3115SOL    HW120978   3.336   0.535   8.449 -0.7520  1.6246 -0.1869
 3115SOL    HW220979   3.235   0.561   8.365  0.6450  0.4092  1.1319
 3116SOL     OW20980   4.267   2.155   7.179  0.1336  0.1578 -0.3880
 3116SOL    HW120981   4.299   2.129   7.093 -1.9911  0.9645 -1.4248
 3116SOL    HW220982   4.177   2.125   7.175 -0.0089  0.3074  1.8867
 3117SOL     OW20983   0.118   0.167  16.023 -0.1482 -0.8986  0.2683
 3117SOL    HW120984   0.185   0.223  16.062 -1.5401  1.6563 -0.9561
 3117SOL    HW220985   0.171   0.090  16.001  1.8894  0.8397 -0.8864
 3118SOL     OW20986   3.849   3.796   4.052 -0.2194 -0.2395  0.5800
 3118SOL    HW120987   3.939   3.768   4.037 -0.5565 -1.4086  0.7376
 3118SOL    HW220988   3.807   3.793   3.966 -0.2275  0.3283  0.5688
 3119SOL     OW20989   2.435   2.359  14.199 -0.4236 -0.2323 -0.0617
 3119SOL    HW120990   2.530   2.359  14.190 -0.4660 -0.7760 -0.4693
 3119SOL    HW220991   2.390   2.379  14.117 -0.0555  0.9449  0.0166
 3120SOL     OW20992   1.800   0.180   2.986 -0.7430 -0.2466 -0.2167
 3120SOL    HW120993   1.716   0.169   3.030  0.1720 -2.6794  0.8971
 3120SOL    HW220994   1.833   0.256   3.036  0.3878 -0.3157 -0.8673
 3121SOL     OW20995   1.065   2.302  15.197 -0.1913 -0.2383  0.2388
 3121SOL    HW120996   1.095   2.370  15.258 -2.4891  0.7916  0.2314
 3121SOL    HW220997   1.120   2.309  15.120 -1.4632 -0.4395 -0.6821
 3122SOL     OW20998   1.447   3.158   7.731  0.3134 -0.4171  0.0502
 3122SOL    HW120999   1.462   3.171   7.825  0.2296  2.9719 -0.3902
 3122SOL    HW221000   1.447   3.250   7.706 -0.0405  0.3850  2.9905
 3123SOL     OW21001   2.115   2.866   3.577 -0.0504 -0.0616  0.2085
 3123SOL    HW121002   2.071   2.781   3.585  0.9879 -0.7123 -1.0946
 3123SOL    HW221003   2.199   2.841   3.539  0.2066  0.7073  0.2798
 3124SOL     OW21004   0.963   2.013   8.526 -0.4588  0.3250  0.2488
 3124SOL    HW121005   0.902   2.059   8.469 -0.2426 -1.2080 -1.2166
 3124SOL    HW221006   1.047   2.041   8.491 -1.0805 -0.9682 -2.2748
 3125SOL     OW21007   1.341   3.130   5.984  0.3270  0.3455  0.0713
 3125SOL    HW121008   1.379   3.217   5.973  1.2849 -0.3992 -2.4696
 3125SOL    HW221009   1.410   3.097   6.042  1.3266  0.0003 -1.3283
 3126SOL     OW21010   1.571   2.925  11.132 -0.1006 -0.1476 -0.0358
 3126SOL    HW121011   1.554   2.990  11.199 -4.0521 -1.5128  0.2740
 3126SOL    HW221012   1.648   2.889  11.176 -0.2738  1.0186  1.2215
 3127SOL     OW21013   1.917   1.808   6.177 -0.3579  0.2539  0.5609
 3127SOL    HW121014   1.941   1.765   6.095 -2.1173 -0.7252  0.5793
 3127SOL    HW221015   2.001   1.797   6.222 -0.1297 -1.0428 -0.1682
 3128SOL     OW21016   2.610   4.693  17.148  0.5343 -0.2988 -0.3469
 3128SOL    HW121017   2.608   4.635  17.224 -0.1591  0.4040  0.1724
 3128SOL    HW221018   2.703   4.711  17.134  0.6717  0.5467  1.7581
 3129SOL     OW21019   2.301   3.846   0.937  0.0925  0.6199  0.6993
 3129SOL    HW121020   2.277   3.884   0.852 -1.6474 -2.1972 -0.0730
 3129SOL    HW221021   2.353   3.916   0.976  1.2932 -0.1822  0.5382
 3130SOL     OW21022   2.419   0.710   1.670 -0.7319  0.0318  0.0193
 3130SOL    HW121023   2.430   0.646   1.600 -0.0584  1.0205 -0.7782
 3130SOL    HW221024   2.505   0.753   1.665 -0.6366 -0.1491  0.0990
 3131SOL     OW21025   3.428   0.946   3.832 -0.0807  0.0254 -0.1895
 3131SOL    HW121026   3.448   0.853   3.819  0.7362  0.1108  0.5079
 3131SOL    HW221027   3.514   0.980   3.810  0.5123 -0.4757  1.4224
 3132SOL     OW21028   3.345   3.785   6.901  0.4728 -0.0349 -0.3241
 3132SOL    HW121029   3.355   3.690   6.908 -3.5839 -0.5478 -1.2862
 3132SOL    HW221030   3.255   3.808   6.926  1.4050  2.2695  0.9069
 3133SOL     OW21031   2.118   4.048  17.630  0.4534 -0.3092  0.1161
 3133SOL    HW121032   2.135   4.073  17.539  0.3665 -0.3176  0.0979
 3133SOL    HW221033   2.211   4.035  17.647  0.3915 -0.6664  0.1860
 3134SOL     OW21034   2.898   3.906   2.523  0.0696 -0.0285  0.7161
 3134SOL    HW121035   2.863   3.929   2.437  0.7615  1.9549  0.9602
 3134SOL    HW221036   2.830   3.850   2.561  2.2107 -2.4559  1.0497
 3135SOL     OW21037   1.533   0.620   5.725  0.4370 -0.0640 -0.3131
 3135SOL    HW121038   1.477   0.610   5.649  0.2823 -1.3928 -0.0255
 3135SOL    HW221039   1.472   0.584   5.789  0.7684 -1.2421 -0.6541
 3136SOL     OW21040   2.335   0.016  10.037  0.2837  0.4527  0.1814
 3136SOL    HW121041   2.398   0.003   9.966 -1.9956  1.4038 -2.0498
 3136SOL    HW221042   2.344   4.675  10.093  0.2286  0.9554  0.8822
 3137SOL     OW21043   2.697   0.509   6.676 -0.2986  0.2770 -0.3274
 3137SOL    HW121044   2.677   0.581   6.735 -0.1639  1.5564 -1.8285
 3137SOL    HW221045   2.626   0.506   6.612  0.6184 -0.7252 -1.2915
 3138SOL     OW21046   4.067   1.104   6.538 -0.1509  0.7102 -0.1284
 3138SOL    HW121047   4.050   1.180   6.595  4.8749  1.1229  0.8702
 3138SOL    HW221048   4.025   1.030   6.583 -1.0513 -0.1660 -2.4342
 3139SOL     OW21049   4.375   3.874   6.395 -0.1204 -0.6011 -0.0719
 3139SOL    HW121050   4.370   3.778   6.403 -0.4426 -0.7267 -1.6573
 3139SOL    HW221051   4.346   3.901   6.308  1.1984  1.4686  0.1438
 3140SOL     OW21052   1.786   3.102   3.428  0.2186 -0.3326  0.1067
 3140SOL    HW121053   1.820   3.183   3.389 -0.6661  1.0218  2.1501
 3140SOL    HW221054   1.784   3.053   3.346 -0.5104 -0.8624  0.4370
 3141SOL     OW21055   3.354   3.667   9.526 -0.5573 -0.0042 -0.1205
 3141SOL    HW121056   3.271   3.621   9.516  0.1718 -1.6819  1.6536
 3141SOL    HW221057   3.416   3.598   9.548  2.1717  2.1282 -1.0204
 3142SOL     OW21058   2.236   0.788   8.544 -0.5451 -0.3288  0.0631
 3142SOL    HW121059   2.241   0.790   8.449 -0.9013  0.5820  0.0649
 3142SOL    HW221060   2.304   0.854   8.558 -0.6303 -0.2795  0.2551
 3143SOL     OW21061   1.732   4.381   2.035  0.0714 -0.0823 -0.4168
 3143SOL    HW121062   1.678   4.413   1.963 -2.6460  0.5640  1.9258
 3143SOL    HW221063   1.757   4.468   2.067 -1.6117 -0.2473  1.3375
 3144SOL     OW21064   4.275   0.771   4.228  0.0222  0.2394  0.8591
 3144SOL    HW121065   4.282   0.825   4.307  1.0136 -2.6575  2.7635
 3144SOL    HW221066   4.194   0.798   4.185  0.2278  0.1522  0.4161
 3145SOL     OW21067   0.786   1.766  17.225  0.3438  0.0408 -0.0080
 3145SOL    HW121068   0.859   1.798  17.172  0.4577  0.0183  0.1341
 3145SOL    HW221069   0.838   1.704  17.276  0.5205 -1.6169 -2.2176
 3146SOL     OW21070   4.386   0.243   3.296  0.5739 -0.1574  0.0518
 3146SOL    HW121071   4.325   0.204   3.358  2.6966 -0.3759  2.0181
 3146SOL    HW221072   4.410   0.326   3.338 -1.7603  0.2797  0.5037
 3147SOL     OW21073   3.134   4.001   1.441 -0.3119 -0.0846  0.5206
 3147SOL    HW121074   3.178   3.964   1.365  0.0311  1.2135  0.0865
 3147SOL    HW221075   3.129   3.919   1.491 -2.0215 -0.8418 -0.9062
 3148SOL     OW21076   2.495   4.645   4.262 -0.4215  0.1553  0.0171
 3148SOL    HW121077   2.515   4.554   4.282 -1.9280  0.0998  1.2557
 3148SOL    HW221078   2.555   4.663   4.190 -1.3302  1.8584 -0.3235
 3149SOL     OW21079   3.267   0.114  10.751 -0.3999  0.0056 -0.4408
 3149SOL    HW121080   3.209   0.044  10.719  2.7459 -3.3322  1.2359
 3149SOL    HW221081   3.301   0.136  10.664  0.3793  1.3716  0.2085
 3150SOL     OW21082   0.582   3.693   2.027 -0.1268 -0.0105  0.5824
 3150SOL    HW121083   0.678   3.703   2.024 -0.2371  0.4496 -1.8010
 3150SOL    HW221084   0.583   3.607   2.068 -1.0260  0.2494  1.1470
 3151SOL     OW21085   4.082   3.009  14.780  0.1248  0.2628  0.0683
 3151SOL    HW121086   4.162   2.957  14.778  1.1604  1.9124 -2.1837
 3151SOL    HW221087   4.035   2.965  14.850 -0.0292 -0.1890 -0.3153
 3152SOL     OW21088   1.378   2.796  10.059 -0.3743  0.1438 -0.0873
 3152SOL    HW121089   1.394   2.831  10.146 -0.1990 -1.4822  0.5378
 3152SOL    HW221090   1.413   2.864  10.001 -0.4873  0.8074  0.6327
 3153SOL     OW21091   1.094   4.208   4.384  0.5335  0.3379 -0.1175
 3153SOL    HW121092   1.067   4.176   4.298 -2.5301  1.1154  0.5389
 3153SOL    HW221093   1.098   4.135   4.445 -1.9110 -0.3840 -0.8328
 3154SOL     OW21094   1.635   3.399   7.122  0.5667 -0.2283  0.8542
 3154SOL    HW121095   1.560   3.410   7.063 -1.2948 -0.6642  3.1481
 3154SOL    HW221096   1.595   3.375   7.205 -0.1910  0.6126  0.7302
 3155SOL     OW21097   1.170   1.062   0.757  0.1364 -0.0529  0.1290
 3155SOL    HW121098   1.244   1.072   0.698  0.1366  0.8861  0.2909
 3155SOL    HW221099   1.171   0.967   0.772  1.3760 -0.0018  0.3109
 3156SOL     OW21100   1.365   2.942  12.115  0.3802  0.1003  0.7917
 3156SOL    HW121101   1.297   3.006  12.136  0.3727 -0.2440  1.8207
 3156SOL    HW221102   1.393   2.913  12.202 -0.5379 -0.0287  1.0429
 3157SOL     OW21103   4.607   0.365   5.488  0.2381 -0.0369  0.6005
 3157SOL    HW121104   4.692   0.324   5.468  1.1988  2.5505 -0.6447
 3157SOL    HW221105   4.642   0.453   5.504  0.7080 -0.2455  0.7271
 3158SOL     OW21106   3.201   2.726   7.097  0.0945  0.5042 -0.1684
 3158SOL    HW121107   3.139   2.664   7.135 -0.7929  1.0727 -0.7119
 3158SOL    HW221108   3.281   2.688   7.135 -0.9903 -2.3370 -0.7377
 3159SOL     OW21109   2.532   3.286  12.335  0.7969 -0.1624 -0.1466
 3159SOL    HW121110   2.558   3.201  12.301  1.7599  0.5879 -1.2707
 3159SOL    HW221111   2.529   3.261  12.428 -1.3593 -1.1511 -0.5022
 3160SOL     OW21112   0.380   2.576   3.112 -0.3011 -0.2194  0.1883
 3160SOL    HW121113   0.405   2.647   3.052  1.8781 -0.7841  0.4158
 3160SOL    HW221114   0.316   2.614   3.172 -2.6752 -0.9229 -1.9250
 3161SOL     OW21115   4.054   0.612   6.844  0.2660  0.3178  0.4656
 3161SOL    HW121116   4.046   0.620   6.749 -0.3734 -1.8784  0.3492
 3161SOL    HW221117   4.017   0.525   6.859  1.3257 -0.1560  0.2735
 3162SOL     OW21118   3.408   0.130  14.722  0.2519 -0.2507 -0.1487
 3162SOL    HW121119   3.451   0.170  14.646  0.5817 -0.0731  0.1327
 3162SOL    HW221120   3.330   0.184  14.716 -0.1680 -0.8190  0.1779
 3163SOL     OW21121   4.693   1.561   7.373 -0.1239 -0.3620  0.0616
 3163SOL    HW121122   4.673   1.521   7.289 -2.1237 -1.3657  1.0071
 3163SOL    HW221123   4.645   1.642   7.357  0.0393  0.2101  2.4292
 3164SOL     OW21124   1.396   1.976   1.405  0.2142  0.3010 -0.6079
 3164SOL    HW121125   1.398   2.045   1.338  1.9545  2.1653  1.3415
 3164SOL    HW221126   1.341   2.014   1.475  1.0323  1.7798 -0.7773
 3165SOL     OW21127   2.515   2.914   0.509  0.2367  0.0824 -0.4205
 3165SOL    HW121128   2.462   2.835   0.523 -0.1342  0.4074 -0.0105
 3165SOL    HW221129   2.472   2.937   0.427  0.2229 -0.8629 -0.6749
 3166SOL     OW21130   1.860   3.210   2.636 -0.2025  0.2231 -0.1964
 3166SOL    HW121131   1.770   3.177   2.639  0.0389 -0.4645 -0.4966
 3166SOL    HW221132   1.899   3.149   2.573 -0.5210  2.5698 -2.6844
 3167SOL     OW21133   0.784   0.267   0.527  0.1509 -0.3965 -0.5467
 3167SOL    HW121134   0.721   0.338   0.508 -2.2235 -2.4423 -0.3026
 3167SOL    HW221135   0.861   0.323   0.537 -0.0076 -0.1101 -0.9348
 3168SOL     OW21136   3.216   0.275   2.592 -0.0289  0.5814 -0.0407
 3168SOL    HW121137   3.171   0.282   2.508  0.9417 -1.8859 -0.7715
 3168SOL    HW221138   3.300   0.309   2.560 -0.3035  1.4596  0.1731
 3169SOL     OW21139   2.339   0.994   2.948  0.1934 -0.2149  1.0050
 3169SOL    HW121140   2.298   1.051   3.012  1.4660  1.8227  0.0036
 3169SOL    HW221141   2.265   0.980   2.889 -0.6819 -0.4019  2.1433
 3170SOL     OW21142   1.161   0.646   3.978 -0.5316  0.2136 -0.1910
 3170SOL    HW121143   1.091   0.613   4.035  1.2069 -0.5441  1.4754
 3170SOL    HW221144   1.143   0.588   3.904  1.6186 -0.4876 -0.1626
 3171SOL     OW21145   1.799   1.468   1.589  0.4688  0.4422  0.5731
 3171SOL    HW121146   1.745   1.401   1.632  0.3700 -0.0061 -0.2284
 3171SOL    HW221147   1.783   1.541   1.648 -0.1225  1.3438 -0.6982
 3172SOL     OW21148   0.223   4.177   1.981 -0.0264 -0.3924 -0.1862
 3172SOL    HW121149   0.165   4.214   1.915  0.6229  1.9568  0.5616
 3172SOL    HW221150   0.293   4.239   1.962 -2.4155  1.7485 -2.1409
 3173SOL     OW21151   1.744   2.944  10.177  0.0784 -0.4380 -0.0519
 3173SOL    HW121152   1.649   2.930  10.184  0.1130 -0.1522  1.0105
 3173SOL    HW221153   1.747   3.018  10.237  0.2204  0.6151 -1.3535
 3174SOL     OW21154   2.496   4.723   7.607 -0.1917  0.6677  0.3432
 3174SOL    HW121155   2.532   4.654   7.551  0.1468  1.8806 -0.9445
 3174SOL    HW221156   2.415   4.734   7.556 -1.7582  0.0122  2.6713
 3175SOL     OW21157   0.900   2.453   5.692  0.0062  0.1101 -0.4173
 3175SOL    HW121158   0.841   2.501   5.634 -0.3117 -2.0914 -1.9127
 3175SOL    HW221159   0.976   2.513   5.695 -0.1645  0.2953  0.1020
 3176SOL     OW21160   2.379   2.878   7.577 -0.3466 -0.3964  0.5241
 3176SOL    HW121161   2.396   2.962   7.535  1.0513 -0.1298  1.6135
 3176SOL    HW221162   2.318   2.841   7.514 -2.4699  3.4328  0.3452
 3177SOL     OW21163   0.944   3.973   6.270 -0.0498  0.4230  0.3579
 3177SOL    HW121164   0.950   3.880   6.291  0.1509 -0.5843 -4.0416
 3177SOL    HW221165   0.905   4.004   6.351 -3.3827 -1.3705 -0.5606
 3178SOL     OW21166   0.242   2.250  14.306 -0.4565 -0.0840 -0.2400
 3178SOL    HW121167   0.222   2.284  14.219 -2.5686 -3.9804 -1.3276
 3178SOL    HW221168   0.222   2.326  14.360 -1.5946  0.8616 -2.0103
 3179SOL     OW21169   1.709   2.681  14.890  0.4645  0.6000  0.4225
 3179SOL    HW121170   1.685   2.728  14.970 -0.6299  0.4915  0.1621
 3179SOL    HW221171   1.770   2.619  14.930  0.3033  1.0121  1.3050
 3180SOL     OW21172   4.649   4.018   4.017  0.0385 -0.6624  0.4796
 3180SOL    HW121173   4.623   3.958   3.948 -1.7527 -0.0084  0.5750
 3180SOL    HW221174   4.730   4.048   3.976 -0.4141 -0.3456 -0.1755
 3181SOL     OW21175   0.728   2.017   8.870  0.2975 -0.1345  0.5868
 3181SOL    HW121176   0.747   1.976   8.786  0.1771  0.6906  0.1636
 3181SOL    HW221177   0.634   2.031   8.862  0.6084  1.1026 -0.8112
 3182SOL     OW21178   4.650   0.681  15.308  0.1718 -0.7387  0.2332
 3182SOL    HW121179   4.578   0.648  15.360  1.4668  0.2395  2.6327
 3182SOL    HW221180   4.613   0.735  15.238  1.9716 -2.3128 -1.9754
 3183SOL     OW21181   2.745   1.702   8.211 -0.5702 -0.3168  0.0808
 3183SOL    HW121182   2.712   1.728   8.125  1.0327  0.9210 -0.1545
 3183SOL    HW221183   2.671   1.648   8.239  0.2773 -2.4016 -1.7186
 3184SOL     OW21184   3.714   3.850   8.143 -0.0315  0.5060 -0.0887
 3184SOL    HW121185   3.675   3.838   8.230  1.2650 -0.5721  0.3480
 3184SOL    HW221186   3.646   3.814   8.087  1.0173 -1.2039 -0.2462
 3185SOL     OW21187   2.272   0.705  13.626 -0.0280  0.0136 -0.2750
 3185SOL    HW121188   2.356   0.685  13.669  0.4086  4.7224  1.0746
 3185SOL    HW221189   2.295   0.756  13.548  0.5833 -0.4774 -0.4199
 3186SOL     OW21190   3.648   4.511   2.078  0.8162  0.3844 -0.1827
 3186SOL    HW121191   3.578   4.489   2.139  0.9591  0.8845  0.1603
 3186SOL    HW221192   3.605   4.478   1.999 -2.2169 -0.1523  1.7010
 3187SOL     OW21193   4.425   0.848   9.537  0.3760 -0.3998  0.1850
 3187SOL    HW121194   4.449   0.757   9.556  2.3363  0.0735 -0.0343
 3187SOL    HW221195   4.441   0.886   9.624  1.5795  2.6988 -1.4052
 3188SOL     OW21196   0.472   4.010  11.477 -0.1287  0.2456  0.7895
 3188SOL    HW121197   0.511   4.029  11.563 -0.6628  1.2755  0.8062
 3188SOL    HW221198   0.533   4.060  11.423 -0.0955 -0.6497  0.0142
 3189SOL     OW21199   4.157   3.403  11.816  0.8378 -0.4020  0.0386
 3189SOL    HW121200   4.124   3.350  11.888  1.1340 -0.0399  0.4378
 3189SOL    HW221201   4.240   3.356  11.806  0.4587 -0.8525 -0.9865
 3190SOL     OW21202   3.910   2.217   7.668 -0.0627 -0.0855 -0.4534
 3190SOL    HW121203   3.878   2.183   7.752 -2.8368  4.1069  0.1829
 3190SOL    HW221204   3.991   2.262   7.694 -0.1873 -0.5524  0.7677
 3191SOL     OW21205   2.218   1.142   9.866  0.4801  0.0846 -0.7340
 3191SOL    HW121206   2.247   1.074   9.927 -1.9196  1.1988  1.6164
 3191SOL    HW221207   2.128   1.120   9.845  0.8856 -0.6464 -1.7209
 3192SOL     OW21208   2.010   3.632  15.588 -0.0153  0.4804  0.4883
 3192SOL    HW121209   1.994   3.693  15.516 -1.5954 -0.3695  0.1292
 3192SOL    HW221210   2.092   3.588  15.563  0.5825  0.4312  2.5128
 3193SOL     OW21211   3.629   3.462   6.277  0.4577  0.3191  0.1488
 3193SOL    HW121212   3.567   3.417   6.335  0.1583  0.7809  0.1850
 3193SOL    HW221213   3.560   3.503   6.224  1.2127  0.2020 -0.9171
 3194SOL     OW21214   0.758   1.649   1.972  0.0847  0.1238  0.2197
 3194SOL    HW121215   0.812   1.676   1.898 -0.1000  1.0145  0.4077
 3194SOL    HW221216   0.700   1.725   1.975  1.6076  1.2008  1.9776
 3195SOL     OW21217   2.345   3.562   5.295  0.6265 -0.4708  0.2643
 3195SOL    HW121218   2.345   3.653   5.323 -1.5352 -0.6448  0.8119
 3195SOL    HW221219   2.283   3.576   5.223  2.5872  0.9506 -1.1235
 3196SOL     OW21220   4.140   0.073  13.429 -0.1149 -0.1599  0.2918
 3196SOL    HW121221   4.080   0.142  13.454  0.3673 -0.3578  2.0285
 3196SOL    HW221222   4.207   0.066  13.498  0.3752 -1.1523 -0.2872
 3197SOL     OW21223   2.120   2.864   6.976  0.1071  0.4156  0.1162
 3197SOL    HW121224   2.174   2.868   7.055 -1.0902  0.5960  0.9295
 3197SOL    HW221225   2.068   2.944   6.987 -0.0618  0.3097  0.0949
 3198SOL     OW21226   1.854   3.980   6.776 -0.3141  0.4870  0.1861
 3198SOL    HW121227   1.934   4.032   6.770  0.5971 -0.6674  2.3318
 3198SOL    HW221228   1.855   3.978   6.872  2.2893  0.1911  0.1597
 3199SOL     OW21229   4.085   1.256   8.249 -0.5073  0.0836  0.5858
 3199SOL    HW121230   4.109   1.348   8.255  0.0124 -0.0426  0.4356
 3199SOL    HW221231   3.991   1.252   8.229  0.1531 -0.2891 -2.4900
 3200SOL     OW21232   2.791   4.717   6.708 -0.2501 -0.5510  0.3656
 3200SOL    HW121233   2.817   0.068   6.677  0.2594 -0.9475 -0.3175
 3200SOL    HW221234   2.783   4.730   6.803 -1.0405 -1.2411  0.3971
 3201SOL     OW21235   4.720   3.900   0.653 -0.1216  0.1282  0.1208
 3201SOL    HW121236   0.015   3.862   0.571 -1.4114 -0.3195 -0.1455
 3201SOL    HW221237   0.073   3.921   0.684  1.1219 -1.1458 -2.6023
 3202SOL     OW21238   2.551   0.987   6.041  0.4414  0.2263 -0.5619
 3202SOL    HW121239   2.540   0.971   5.948 -1.3518 -1.6072 -0.0371
 3202SOL    HW221240   2.646   0.976   6.051  0.5157  0.3701 -1.1574
 3203SOL     OW21241   0.497   4.419  13.272 -0.3050 -0.0054 -0.0879
 3203SOL    HW121242   0.488   4.509  13.241  0.3197 -0.0392 -0.3785
 3203SOL    HW221243   0.430   4.422  13.340 -1.3993 -1.5537 -1.0909
 3204SOL     OW21244   1.854   2.954   8.900 -0.3708 -0.5754 -0.7060
 3204SOL    HW121245   1.814   2.893   8.962 -2.0549  0.5817 -0.6258
 3204SOL    HW221246   1.830   2.904   8.823 -1.8173 -0.0649 -0.5858
 3205SOL     OW21247   0.531   2.864   3.425 -0.1120  0.3008 -0.4028
 3205SOL    HW121248   0.465   2.901   3.484  1.4240  1.2372  0.7173
 3205SOL    HW221249   0.610   2.867   3.478 -0.3209 -0.4837 -0.0419
 3206SOL     OW21250   0.954   1.360   8.844 -0.7738 -0.0287  0.2870
 3206SOL    HW121251   0.947   1.440   8.896  0.5023  1.3133 -1.6073
 3206SOL    HW221252   0.868   1.351   8.805 -1.5727  0.5967  1.9230
 3207SOL     OW21253   4.074   3.936   5.348  0.3872 -0.7961 -0.3238
 3207SOL    HW121254   4.058   3.950   5.441 -1.0041  0.7635 -0.7866
 3207SOL    HW221255   4.079   3.841   5.347 -1.7700 -0.9041 -0.4457
 3208SOL     OW21256   3.875   0.463   3.298  0.2980 -0.3843  0.1570
 3208SOL    HW121257   3.860   0.547   3.341 -2.4923 -0.5754 -0.4791
 3208SOL    HW221258   3.829   0.399   3.353 -1.0740 -0.8396 -1.5235
 3209SOL     OW21259   2.609   1.214   3.113  0.2017 -0.2444 -0.5390
 3209SOL    HW121260   2.547   1.176   3.175 -0.1992  1.0250 -0.1641
 3209SOL    HW221261   2.697   1.196   3.147  0.6093  1.2163 -0.8346
 3210SOL     OW21262   2.756   3.678  17.066 -0.3283 -0.0550  0.3312
 3210SOL    HW121263   2.785   3.757  17.113 -0.8271 -0.2682  1.0080
 3210SOL    HW221264   2.824   3.625  17.107  0.2796  0.0788 -0.5131
 3211SOL     OW21265   1.789   0.830   6.350 -0.0039  0.4467  0.2864
 3211SOL    HW121266   1.745   0.792   6.426  1.5463  1.6757  1.8151
 3211SOL    HW221267   1.861   0.768   6.354  0.1779  0.7209  1.4095
 3212SOL     OW21268   1.277   1.393   3.173  0.7399 -0.3838  0.5137
 3212SOL    HW121269   1.271   1.459   3.104  0.2164 -0.2177  0.7155
 3212SOL    HW221270   1.187   1.362   3.177  1.5100 -2.7978 -1.1230
 3213SOL     OW21271   0.602   1.686  16.726 -0.1189 -0.5171  0.0784
 3213SOL    HW121272   0.619   1.681  16.820  0.5934  1.4782  0.0750
 3213SOL    HW221273   0.687   1.691  16.682  0.5212 -0.8714  1.2788
 3214SOL     OW21274   2.641   0.820  16.391  0.1150 -0.2758 -0.4630
 3214SOL    HW121275   2.618   0.759  16.321 -0.2743 -0.9559  0.2673
 3214SOL    HW221276   2.702   0.770  16.446  2.3322  1.0686 -1.6771
 3215SOL     OW21277   1.778   2.142   1.459 -0.2028 -0.6506 -0.0884
 3215SOL    HW121278   1.792   2.162   1.551  1.6270 -0.8368 -0.3182
 3215SOL    HW221279   1.693   2.100   1.467  0.4820 -2.0601 -0.1356
 3216SOL     OW21280   2.510   3.777   8.347  0.0351 -0.7553  0.7189
 3216SOL    HW121281   2.442   3.738   8.403  0.8215 -0.6989  1.7180
 3216SOL    HW221282   2.522   3.854   8.403  2.6689 -0.8397  0.2196
 3217SOL     OW21283   3.172   4.350   6.594 -0.7011  0.1244  0.1263
 3217SOL    HW121284   3.161   4.442   6.569 -0.9570  0.3329  1.0325
 3217SOL    HW221285   3.261   4.359   6.628 -0.9844  2.1846  0.3090
 3218SOL     OW21286   3.919   2.910  15.444  0.0547 -0.4360 -0.9940
 3218SOL    HW121287   3.901   3.004  15.454 -0.8823 -0.8586  1.4530
 3218SOL    HW221288   3.967   2.924  15.363 -1.3800  1.4542 -1.5314
 3219SOL     OW21289   2.533   1.945   1.882 -0.6678 -0.1705 -0.0840
 3219SOL    HW121290   2.589   1.912   1.811  2.0399  1.6266  1.1855
 3219SOL    HW221291   2.447   1.952   1.842 -1.3961  0.6643  1.6253
 3220SOL     OW21292   0.791   1.077   3.464  0.4415  0.1418 -0.0670
 3220SOL    HW121293   0.771   0.984   3.449 -0.8709  0.2964  0.7483
 3220SOL    HW221294   0.833   1.093   3.380  0.1585  0.0136 -0.2332
 3221SOL     OW21295   1.023   2.812   6.495  0.0828  0.4525 -0.1545
 3221SOL    HW121296   0.938   2.790   6.535  0.1913  0.0771 -0.1311
 3221SOL    HW221297   1.005   2.905   6.481  0.6205  0.5381 -0.2575
 3222SOL     OW21298   3.216   0.530   3.726  0.6386  0.1199 -0.3456
 3222SOL    HW121299   3.228   0.453   3.671 -0.4868  0.0318 -0.4653
 3222SOL    HW221300   3.124   0.511   3.742  0.9778 -0.3776  1.0297
 3223SOL     OW21301   2.707   2.635   4.867 -0.2636 -0.5957  0.0755
 3223SOL    HW121302   2.734   2.643   4.958  0.0457  1.2520 -0.1791
 3223SOL    HW221303   2.612   2.623   4.873 -0.5810  1.3987 -1.0341
 3224SOL     OW21304   3.249   1.627  16.087 -0.7528 -0.4060 -0.7611
 3224SOL    HW121305   3.317   1.570  16.121 -0.7745 -0.3123 -0.5618
 3224SOL    HW221306   3.211   1.674  16.161 -1.3136 -3.2372  0.7241
 3225SOL     OW21307   0.068   2.055   7.338 -0.2524  0.1089 -0.5507
 3225SOL    HW121308   0.153   2.091   7.365  1.7653 -3.8766 -1.5718
 3225SOL    HW221309   0.041   2.117   7.271  0.4643  0.9631 -0.0692
 3226SOL     OW21310   0.787   4.379   4.151  0.2371  0.4099  0.2662
 3226SOL    HW121311   0.781   4.384   4.056 -2.0601  1.5598  0.4660
 3226SOL    HW221312   0.711   4.327   4.176  0.9357 -1.2345 -1.0865
 3227SOL     OW21313   1.689   4.167   7.269 -0.2943  0.4638  0.5934
 3227SOL    HW121314   1.737   4.212   7.199 -0.9779  1.9213  1.0702
 3227SOL    HW221315   1.726   4.219   7.340  0.1199 -1.8589  2.0629
 3228SOL     OW21316   2.139   0.861   5.797  0.0394 -0.1340 -0.3406
 3228SOL    HW121317   2.046   0.881   5.809 -0.8487 -2.5410 -3.1854
 3228SOL    HW221318   2.149   0.868   5.702 -0.2950 -0.4249 -0.3953
 3229SOL     OW21319   3.256   0.916   4.587  0.1319  0.2030  0.0055
 3229SOL    HW121320   3.311   0.855   4.637 -0.3896  0.6920  1.1955
 3229SOL    HW221321   3.301   0.998   4.610 -0.3284  0.4133  0.1683
 3230SOL     OW21322   4.050   2.565   6.345  0.2734 -0.3351 -0.5320
 3230SOL    HW121323   3.981   2.539   6.284  0.4465 -0.2812 -0.7529
 3230SOL    HW221324   4.106   2.624   6.295 -0.0524  2.2322  2.1367
 3231SOL     OW21325   2.892   4.656   5.915 -0.5132 -0.1425 -0.1827
 3231SOL    HW121326   2.955   4.642   5.845 -0.7450  1.8537 -0.7758
 3231SOL    HW221327   2.811   4.666   5.866  0.3821  2.4054 -1.1499
 3232SOL     OW21328   1.517   3.274   7.339  0.1579 -1.0787  0.3501
 3232SOL    HW121329   1.487   3.184   7.335  0.8502 -1.3065  0.3285
 3232SOL    HW221330   1.586   3.273   7.406  0.2871  2.0506  0.2680
 3233SOL     OW21331   4.046   0.738   8.145 -0.2813  0.4502  0.1362
 3233SOL    HW121332   4.136   0.719   8.171  0.2716  3.6009  0.4636
 3233SOL    HW221333   4.064   0.796   8.071  0.1820  1.1445  0.8050
 3234SOL     OW21334   1.208   3.899   2.782 -0.0731 -0.5691  0.1542
 3234SOL    HW121335   1.291   3.935   2.813 -0.2647 -0.5424  0.6350
 3234SOL    HW221336   1.160   3.982   2.788  0.9514  0.0672 -0.4294
 3235SOL     OW21337   0.921   2.777   2.490 -0.3934 -0.3181 -0.1291
 3235SOL    HW121338   0.878   2.831   2.556 -1.8702 -0.9564 -0.5881
 3235SOL    HW221339   0.919   2.835   2.414 -2.7868 -0.3356 -0.0788
 3236SOL     OW21340   2.825   4.428   6.260 -0.4117 -0.1660  0.0182
 3236SOL    HW121341   2.857   4.489   6.326  0.2922 -0.4077 -0.1038
 3236SOL    HW221342   2.747   4.477   6.234 -0.1693 -0.2869 -0.9510
 3237SOL     OW21343   3.893   0.227   9.318  0.5857 -0.0224  0.3709
 3237SOL    HW121344   3.817   0.274   9.284  0.6295 -0.8676 -0.8819
 3237SOL    HW221345   3.845   0.177   9.384 -0.0704 -0.9117 -0.7884
 3238SOL     OW21346   2.541   2.963  13.759  0.2018 -0.1501  0.1437
 3238SOL    HW121347   2.569   2.899  13.694  0.6080 -0.5374  0.7044
 3238SOL    HW221348   2.581   2.926  13.838  1.8827  1.8363  0.2121
 3239SOL     OW21349   0.667   3.466  12.317  0.0229  0.0270  0.1641
 3239SOL    HW121350   0.695   3.387  12.364 -0.9494 -0.8432 -0.7221
 3239SOL    HW221351   0.650   3.436  12.227 -1.3653  1.4664 -0.0482
 3240SOL     OW21352   3.184   1.572   9.109  0.3091 -0.0576 -0.3432
 3240SOL    HW121353   3.175   1.607   9.197 -0.4590  0.0449 -0.4672
 3240SOL    HW221354   3.198   1.652   9.058  1.7246 -1.4069 -2.1064
 3241SOL     OW21355   1.220   0.663   6.532  0.9673  0.0201 -0.6988
 3241SOL    HW121356   1.225   0.736   6.470  0.1302  0.9806  0.3620
 3241SOL    HW221357   1.156   0.609   6.487  1.7406 -2.3343  0.9978
 3242SOL     OW21358   0.608   2.742   2.614 -0.1043 -0.6855  0.6232
 3242SOL    HW121359   0.524   2.788   2.619  1.6367  2.4819  0.2025
 3242SOL    HW221360   0.590   2.653   2.582 -0.8243 -0.1336 -0.4875
 3243SOL     OW21361   4.018   0.985  10.452  0.3281  0.2498 -0.1506
 3243SOL    HW121362   4.095   1.041  10.459  0.8191 -0.6092  1.4197
 3243SOL    HW221363   4.042   0.914  10.512 -0.8207 -0.5809 -0.6647
 3244SOL     OW21364   1.947   3.703   7.690  0.0199  0.0056  0.0692
 3244SOL    HW121365   1.882   3.706   7.620  2.2650 -0.6621 -2.0183
 3244SOL    HW221366   1.906   3.642   7.752  0.0572  0.1523  0.2374
 3245SOL     OW21367   1.711   0.929   6.088  0.1941  0.1269  0.2716
 3245SOL    HW121368   1.768   0.905   6.161  0.0298  0.9477  0.6710
 3245SOL    HW221369   1.666   0.847   6.068  0.0639  0.1131  0.6100
 3246SOL     OW21370   0.085   0.983   0.584 -0.0887  0.0803  0.5251
 3246SOL    HW121371   0.027   0.984   0.508 -1.0689  0.9006  1.2718
 3246SOL    HW221372   0.141   0.905   0.582 -0.8415 -0.5013  1.7092
 3247SOL     OW21373   0.995   4.732  16.610 -1.0797 -0.5623 -0.0425
 3247SOL    HW121374   0.943   0.073  16.634 -1.3996 -0.5591 -0.7691
 3247SOL    HW221375   0.922   4.670  16.605  0.8214 -2.8301 -0.2902
 3248SOL     OW21376   3.794   0.553   2.005  0.4273  0.0605  0.3396
 3248SOL    HW121377   3.776   0.462   1.980 -0.9725  0.4773 -0.2049
 3248SOL    HW221378   3.704   0.586   2.010  0.5265  0.5655 -1.3202
 3249SOL     OW21379   0.348   1.633  16.239 -0.1049 -0.1877 -0.0459
 3249SOL    HW121380   0.387   1.559  16.286  2.5137  0.8467 -0.5393
 3249SOL    HW221381   0.292   1.666  16.309 -0.0233 -0.9915  0.3976
 3250SOL     OW21382   0.436   3.578   0.109  0.4707 -0.7987 -0.0807
 3250SOL    HW121383   0.479   3.533   0.037  0.3912  0.9094 -1.1886
 3250SOL    HW221384   0.484   3.538   0.182 -0.2137  0.0168  0.8121
 3251SOL     OW21385   2.175   1.910   9.346  0.1109  0.0407  0.4210
 3251SOL    HW121386   2.271   1.909   9.349  0.0363 -0.4943  3.2935
 3251SOL    HW221387   2.166   1.883   9.255  1.9448 -0.6140  0.4393
 3252SOL     OW21388   1.986   2.341   1.066  0.4462 -0.2592  0.6393
 3252SOL    HW121389   2.044   2.274   1.030  0.3302 -0.2566  0.4450
 3252SOL    HW221390   1.986   2.319   1.159  1.1698 -0.1742  0.6587
 3253SOL     OW21391   2.495   1.611   1.670  0.3070 -0.0760  0.1501
 3253SOL    HW121392   2.549   1.533   1.660  0.3228  0.1069 -1.1633
 3253SOL    HW221393   2.429   1.572   1.727 -0.2048 -3.3473 -2.7054
 3254SOL     OW21394   3.019   2.664  12.510 -0.2424  0.7597  0.6429
 3254SOL    HW121395   2.929   2.640  12.535 -0.6833  1.5828 -0.1845
 3254SOL    HW221396   3.050   2.588  12.461  0.8197  0.0604  2.3784
 3255SOL     OW21397   0.159   1.130   2.621 -0.8336  0.3613  0.2442
 3255SOL    HW121398   0.218   1.201   2.647  1.1882 -0.8297 -1.0611
 3255SOL    HW221399   0.085   1.165   2.670  0.7934  1.5996  1.8095
 3256SOL     OW21400   3.171   4.332   4.132  0.1476 -0.4596  0.4649
 3256SOL    HW121401   3.126   4.271   4.189  0.2963  0.4156  1.5188
 3256SOL    HW221402   3.122   4.410   4.159  2.1609  1.2687 -0.8805
 3257SOL     OW21403   4.565   2.443   4.902 -0.3950 -0.1182 -0.6790
 3257SOL    HW121404   4.594   2.374   4.842  0.6797  1.4287 -1.9426
 3257SOL    HW221405   4.629   2.438   4.973 -0.1359  0.1608 -0.8933
 3258SOL     OW21406   1.308   0.693   3.166  0.3930  0.1918  0.0025
 3258SOL    HW121407   1.313   0.771   3.220 -1.5381 -0.0815  0.5769
 3258SOL    HW221408   1.264   0.631   3.223  1.6522 -0.4968  0.2367
 3259SOL     OW21409   1.557   2.226   6.434  0.2541 -0.0481 -0.2163
 3259SOL    HW121410   1.639   2.232   6.482  0.8112 -0.8989 -1.0585
 3259SOL    HW221411   1.518   2.285   6.498 -0.6637 -0.2412 -0.6003
 3260SOL     OW21412   1.080   3.537   5.038  0.2478 -0.1870 -0.6960
 3260SOL    HW121413   0.986   3.515   5.041  0.6345 -2.2097 -3.6566
 3260SOL    HW221414   1.085   3.596   5.113 -1.8212  0.4665 -1.0527
 3261SOL     OW21415   4.706   2.063  12.429  0.2776 -0.6507  0.1799
 3261SOL    HW121416   0.006   2.074  12.517 -1.4539 -0.9381  0.9097
 3261SOL    HW221417   4.677   1.972  12.421  0.9468 -0.7929 -0.6472
 3262SOL     OW21418   0.120   2.373   9.086 -0.2240  0.0690  0.4348
 3262SOL    HW121419   0.092   2.348   8.998 -0.3323  0.4352  0.3644
 3262SOL    HW221420   0.129   2.465   9.061  2.4789 -0.0671  0.8153
 3263SOL     OW21421   3.826   4.540   5.964  0.4957  0.8110 -0.8075
 3263SOL    HW121422   3.824   4.613   5.902  3.4009 -0.8616 -2.8470
 3263SOL    HW221423   3.887   4.582   6.025  0.9716 -1.5728  0.3647
 3264SOL     OW21424   0.794   1.051  15.369  0.1657 -0.1261  0.8019
 3264SOL    HW121425   0.756   0.977  15.418  2.4749 -0.7803  1.6189
 3264SOL    HW221426   0.882   1.021  15.344  0.6625  1.4245  0.7192
 3265SOL     OW21427   2.581   1.425  11.459 -0.3170  0.1424  0.0700
 3265SOL    HW121428   2.636   1.390  11.529  1.1016  2.0885 -0.0460
 3265SOL    HW221429   2.549   1.502  11.506  1.8208  0.0722  1.6589
 3266SOL     OW21430   0.567   4.695   5.476  0.5466 -0.0984 -0.5879
 3266SOL    HW121431   0.614   4.706   5.394  3.1598  1.2153  1.0937
 3266SOL    HW221432   0.592   4.606   5.499  1.6788  0.0745 -1.1554
 3267SOL     OW21433   4.214   0.170   3.496  0.3385 -0.1416 -1.0734
 3267SOL    HW121434   4.236   0.224   3.572  0.6091  1.7339 -2.4842
 3267SOL    HW221435   4.181   0.095   3.546  0.3370 -0.0311 -0.9082
 3268SOL     OW21436   0.586   0.975  16.359  0.0287 -0.3263 -0.1446
 3268SOL    HW121437   0.492   0.957  16.366 -0.0539  0.2866  0.3131
 3268SOL    HW221438   0.624   0.889  16.341  0.3702  0.1553 -1.7132
 3269SOL     OW21439   2.791   2.652   2.998 -0.0063  0.4325  0.3478
 3269SOL    HW121440   2.778   2.612   3.084 -0.9451 -0.1984 -0.0893
 3269SOL    HW221441   2.885   2.641   2.985 -0.0572 -0.6452  0.8863
 3270SOL     OW21442   2.562   3.385   5.270  0.3453  0.5072  0.2156
 3270SOL    HW121443   2.486   3.444   5.261  0.9073  1.3407  0.8876
 3270SOL    HW221444   2.553   3.358   5.362 -0.0810  0.7023  0.2337
 3271SOL     OW21445   2.708   0.797  11.637 -0.6174 -0.2697 -0.5652
 3271SOL    HW121446   2.763   0.752  11.573 -0.1185  0.4206 -0.6195
 3271SOL    HW221447   2.636   0.811  11.577  0.4687  1.7698 -1.3887
 3272SOL     OW21448   0.707   1.893   3.626 -0.1868 -0.2805  0.0619
 3272SOL    HW121449   0.612   1.887   3.621 -0.1807 -0.7245  0.4664
 3272SOL    HW221450   0.721   1.986   3.644  0.3219 -0.2095 -0.6736
 3273SOL     OW21451   3.026   3.110   3.842 -0.2646  0.0073  0.2697
 3273SOL    HW121452   3.023   3.014   3.840 -0.7482  0.0732 -1.8426
 3273SOL    HW221453   2.949   3.140   3.793  0.8623 -2.8322 -3.1969
 3274SOL     OW21454   2.754   2.969   9.863 -0.1170  0.6720 -0.2186
 3274SOL    HW121455   2.700   2.993   9.938 -0.3967 -2.0303  0.4391
 3274SOL    HW221456   2.705   2.998   9.786 -0.1690 -3.9408 -1.9639
 3275SOL     OW21457   2.465   4.464   8.613 -0.3130  0.0783 -0.1981
 3275SOL    HW121458   2.502   4.550   8.629 -1.9456  0.4783  1.3864
 3275SOL    HW221459   2.530   4.403   8.649 -1.0900  0.2777  1.4858
 3276SOL     OW21460   0.976   3.037   5.795  0.0846 -0.5711 -0.3598
 3276SOL    HW121461   1.021   2.971   5.848  0.3049 -0.0212  0.1418
 3276SOL    HW221462   0.894   2.999   5.762 -0.4026  0.2269 -0.0641
 3277SOL     OW21463   2.481   0.841  11.233  0.2405 -0.4206  1.0785
 3277SOL    HW121464   2.493   0.806  11.145  0.5703 -2.2051  1.8415
 3277SOL    HW221465   2.470   0.936  11.221 -0.3446 -0.9619 -2.7208
 3278SOL     OW21466   1.152   0.254  15.572  0.2451 -0.5739 -0.0365
 3278SOL    HW121467   1.230   0.264  15.517  0.8775  0.7608  1.1096
 3278SOL    HW221468   1.089   0.193  15.532 -1.4476  1.0466  0.1435
 3279SOL     OW21469   0.632   1.123  10.310 -0.3236  0.4301  0.0615
 3279SOL    HW121470   0.647   1.124  10.405 -0.1666  2.7184  0.0168
 3279SOL    HW221471   0.615   1.214  10.283  1.1713  0.3686 -1.1077
 3280SOL     OW21472   3.731   0.715   7.031 -0.1204 -0.3119 -0.2072
 3280SOL    HW121473   3.699   0.634   6.990  0.0169 -1.6373  2.3031
 3280SOL    HW221474   3.713   0.773   6.957  2.0169  2.0317  1.1461
 3281SOL     OW21475   2.670   3.376   0.566 -0.2480  0.3452 -0.2375
 3281SOL    HW121476   2.672   3.456   0.513 -1.4045  0.5572  0.0523
 3281SOL    HW221477   2.715   3.402   0.646 -0.6336 -0.0824  0.1106
 3282SOL     OW21478   2.809   2.326   2.082 -0.4012 -0.4161 -0.0952
 3282SOL    HW121479   2.866   2.352   2.154  0.2389  0.5403 -0.9360
 3282SOL    HW221480   2.814   2.412   2.039  1.1427 -0.2736  0.3621
 3283SOL     OW21481   3.029   3.232   0.772 -0.4008  0.7965  0.0142
 3283SOL    HW121482   3.010   3.289   0.697 -0.9193  0.5472 -0.0443
 3283SOL    HW221483   3.120   3.256   0.789 -0.1470 -0.5914  0.5634
 3284SOL     OW21484   1.016   1.657   4.288  0.5671  0.2282 -0.3477
 3284SOL    HW121485   0.942   1.597   4.282 -0.6996  1.8899 -1.2962
 3284SOL    HW221486   1.049   1.631   4.374  0.0415 -0.9381 -0.4926
 3285SOL     OW21487   2.826   2.002   5.320 -0.3525  0.6589 -0.5790
 3285SOL    HW121488   2.816   1.978   5.228 -0.1063  0.0042 -0.4357
 3285SOL    HW221489   2.737   1.988   5.353 -0.4609 -1.0751 -1.6392
 3286SOL     OW21490   2.826   2.570   5.426  0.3073 -0.0018 -0.2406
 3286SOL    HW121491   2.907   2.588   5.473  1.6441 -2.1979 -1.6980
 3286SOL    HW221492   2.835   2.476   5.412 -0.4743 -0.1771  0.4606
 3287SOL     OW21493   0.247   2.260   4.061  0.3591  0.0161  0.2326
 3287SOL    HW121494   0.231   2.195   4.130  1.7549 -1.1513 -0.5580
 3287SOL    HW221495   0.226   2.197   3.992  0.3076 -0.2210  0.4646
 3288SOL     OW21496   0.212   1.639   5.390  0.1991  0.6065 -0.0282
 3288SOL    HW121497   0.206   1.687   5.307  1.3812  1.0596  0.1407
 3288SOL    HW221498   0.306   1.653   5.404  0.5773 -0.5685 -1.2550
 3289SOL     OW21499   0.623   0.090   0.687 -0.0256  0.5055 -0.2529
 3289SOL    HW121500   0.689   0.145   0.645 -1.6272  1.5511 -1.4197
 3289SOL    HW221501   0.610   0.147   0.763  0.4357 -0.3106  0.4399
 3290SOL     OW21502   4.444   2.799   1.988 -0.6304  0.2682 -0.8493
 3290SOL    HW121503   4.519   2.830   1.937  1.1945  1.1232  2.3469
 3290SOL    HW221504   4.470   2.822   2.077 -2.1478  0.9336 -0.5705
 3291SOL     OW21505   1.784   0.731  10.315  0.2201 -0.1504 -0.0407
 3291SOL    HW121506   1.701   0.722  10.267  2.0653 -6.7614 -1.9722
 3291SOL    HW221507   1.845   0.687  10.256  1.9443  1.8723  0.2588
 3292SOL     OW21508   2.487   3.820   1.446 -0.2669  0.3600 -0.4743
 3292SOL    HW121509   2.577   3.826   1.477 -1.8299  2.9403  3.5364
 3292SOL    HW221510   2.433   3.830   1.524  1.2836 -1.2191  0.8151
 3293SOL     OW21511   2.081   2.448  10.141  0.0823 -0.0355  0.0004
 3293SOL    HW121512   2.154   2.414  10.193  3.3498  1.5069 -3.4965
 3293SOL    HW221513   2.026   2.486  10.209  0.2539  0.8338 -0.3332
 3294SOL     OW21514   1.533   2.975   6.592 -0.0184  0.6905 -0.5562
 3294SOL    HW121515   1.534   3.055   6.541  2.3811  0.1676 -1.2950
 3294SOL    HW221516   1.563   2.918   6.520  1.9429 -0.5094  1.2211
 3295SOL     OW21517   4.214   0.471  15.713  0.0935 -0.0203 -0.6676
 3295SOL    HW121518   4.151   0.496  15.780 -0.2028  0.8426 -1.2664
 3295SOL    HW221519   4.201   0.552  15.664  2.2403  0.0653 -1.0904
 3296SOL     OW21520   3.029   3.443   7.383 -0.0010  0.0158 -0.5880
 3296SOL    HW121521   3.090   3.387   7.431 -0.8309  1.3133  1.9828
 3296SOL    HW221522   2.956   3.435   7.444 -0.3356 -1.4423 -1.1816
 3297SOL     OW21523   0.824   4.064   6.517  0.0871  0.4483  0.1203
 3297SOL    HW121524   0.805   4.067   6.611 -0.7052 -1.1593  0.0090
 3297SOL    HW221525   0.733   4.062   6.486 -0.5511 -1.5421  2.1165
 3298SOL     OW21526   0.968   1.212   4.837 -0.8698  0.1000 -0.4670
 3298SOL    HW121527   0.913   1.208   4.758  0.1197  0.1753 -1.1584
 3298SOL    HW221528   0.942   1.132   4.882  0.6597 -0.3374 -0.3759
 3299SOL     OW21529   3.451   0.733   5.091  0.0873 -0.5484 -0.1301
 3299SOL    HW121530   3.484   0.684   5.166  0.1876  2.0548  1.5298
 3299SOL    HW221531   3.477   0.818   5.124 -0.3536 -0.0719 -0.9925
 3300SOL     OW21532   0.260   4.011   4.431 -0.3024  0.0400 -0.0549
 3300SOL    HW121533   0.272   3.968   4.516 -0.0074  1.4017  0.6001
 3300SOL    HW221534   0.290   3.941   4.373  0.9247  0.5646 -0.0540
 3301SOL     OW21535   0.891   4.252   2.983 -0.1223 -0.6175 -0.2336
 3301SOL    HW121536   0.839   4.265   2.903  0.8218  0.5516 -0.6497
 3301SOL    HW221537   0.876   4.160   3.004  0.1133 -0.1786  1.8308
 3302SOL     OW21538   3.436   4.379   1.915 -0.2833 -0.3366  0.3308
 3302SOL    HW121539   3.361   4.416   1.962 -1.3132  0.3460 -1.8482
 3302SOL    HW221540   3.416   4.409   1.827  0.8429  0.1059  0.2148
 3303SOL     OW21541   4.274   1.039   7.908 -0.5873 -0.7747  0.1667
 3303SOL    HW121542   4.305   0.951   7.929  0.1671 -0.3773  0.7069
 3303SOL    HW221543   4.194   1.035   7.960 -0.4859 -1.5250  0.2770
 3304SOL     OW21544   0.902   4.197   3.703 -0.1828  0.6473  0.3360
 3304SOL    HW121545   0.936   4.158   3.622 -2.4829  1.3108 -0.9353
 3304SOL    HW221546   0.812   4.217   3.679  0.2280  1.8570 -0.2162
 3305SOL     OW21547   4.282   0.149   6.257  0.4396 -0.3325  0.0815
 3305SOL    HW121548   4.221   0.222   6.271  0.6930  0.3875 -2.5014
 3305SOL    HW221549   4.272   0.096   6.336  0.6292  0.7439  0.8324
 3306SOL     OW21550   3.605   2.798   9.620  0.0083 -0.1101  0.0635
 3306SOL    HW121551   3.684   2.771   9.573  0.9833  1.2875  0.8805
 3306SOL    HW221552   3.571   2.710   9.636  0.5165 -0.5628 -1.3427
 3307SOL     OW21553   1.681   2.219   2.139  0.0607  0.0165  0.7813
 3307SOL    HW121554   1.596   2.181   2.161 -0.5771  0.5506 -0.7707
 3307SOL    HW221555   1.737   2.163   2.193 -0.8960 -0.0768  1.6976
 3308SOL     OW21556   2.423   3.445   1.156  0.1115 -0.1651 -0.0706
 3308SOL    HW121557   2.413   3.472   1.065  1.6141 -0.0638 -0.2033
 3308SOL    HW221558   2.454   3.531   1.186  0.3872 -0.5719  0.8210
 3309SOL     OW21559   2.547   3.891  14.555 -0.3179  0.1231 -0.0204
 3309SOL    HW121560   2.642   3.891  14.566 -0.4833 -1.6961  1.3081
 3309SOL    HW221561   2.530   3.817  14.496 -0.7131  1.6610 -1.8468
 3310SOL     OW21562   3.135   2.787   4.808 -0.1024 -0.2354  0.0968
 3310SOL    HW121563   3.161   2.698   4.784  1.3221  0.0323  0.6597
 3310SOL    HW221564   3.147   2.793   4.903  0.1401  0.8378  0.0023
 3311SOL     OW21565   0.029   3.854   1.846  0.1905  0.3583 -0.2812
 3311SOL    HW121566   4.687   3.860   1.903  1.5287  0.6127  1.5185
 3311SOL    HW221567   0.095   3.850   1.915  0.7027  2.2841 -0.6605
 3312SOL     OW21568   2.589   3.888   3.644  0.2710 -0.2565  0.0236
 3312SOL    HW121569   2.529   3.957   3.673 -0.5660 -0.9146 -0.1309
 3312SOL    HW221570   2.525   3.819   3.626 -0.7605  0.7271 -0.1361
 3313SOL     OW21571   2.839   4.025  11.005 -0.1866 -0.7799  0.4612
 3313SOL    HW121572   2.935   4.027  10.998 -0.1023 -0.8668  1.5054
 3313SOL    HW221573   2.840   3.955  11.071  2.6129 -1.7506 -0.5963
 3314SOL     OW21574   0.413   2.729   2.062 -0.0345  0.2923 -0.2145
 3314SOL    HW121575   0.456   2.733   2.147  1.2027  0.7636 -0.8680
 3314SOL    HW221576   0.383   2.638   2.055 -0.1434  0.1881  1.6657
 3315SOL     OW21577   2.344   3.780  15.480  0.6714  0.1566  0.0834
 3315SOL    HW121578   2.336   3.831  15.561 -1.2399 -1.4632  0.9154
 3315SOL    HW221579   2.400   3.837  15.426  1.1146  1.6103  2.0708
 3316SOL     OW21580   0.286   0.389   2.923 -0.3733  0.6704  0.1398
 3316SOL    HW121581   0.268   0.461   2.863  1.1740  1.3983  0.5410
 3316SOL    HW221582   0.274   0.426   3.011  0.1761 -0.2378  0.6027
 3317SOL     OW21583   1.240   0.929   2.536  0.2926  0.3339 -0.1933
 3317SOL    HW121584   1.198   0.969   2.459  2.2161  1.2710 -0.7611
 3317SOL    HW221585   1.334   0.941   2.522  0.1158  0.2377 -1.4701
 3318SOL     OW21586   0.688   2.382   2.790 -0.0319 -0.3052 -0.0084
 3318SOL    HW121587   0.676   2.292   2.761 -0.7401 -0.6641  1.3823
 3318SOL    HW221588   0.636   2.432   2.727  2.0066  1.7344 -0.0838
 3319SOL     OW21589   1.360   4.692   7.050  0.1814  0.0464  0.4901
 3319SOL    HW121590   1.403   0.037   7.022 -0.5656  0.1763 -0.3090
 3319SOL    HW221591   1.331   4.660   6.964  1.0299 -0.7400  0.4998
 3320SOL     OW21592   1.153   3.235   0.183  0.2794 -0.5195  0.5541
 3320SOL    HW121593   1.110   3.214   0.100 -0.1863  1.5520  0.2700
 3320SOL    HW221594   1.084   3.278   0.234 -1.2139 -0.9397 -1.0642
 3321SOL     OW21595   3.933   1.063  14.897 -0.3706 -0.2593 -0.5041
 3321SOL    HW121596   3.926   1.005  14.973  1.0803 -0.0728 -0.2209
 3321SOL    HW221597   3.908   1.148  14.933  1.8201  0.0468  0.2878
 3322SOL     OW21598   1.667   1.043  11.302 -0.0488  0.1840 -0.2025
 3322SOL    HW121599   1.609   1.118  11.287  0.0026  0.0041 -1.2849
 3322SOL    HW221600   1.630   1.005  11.382  3.0455 -1.3951  0.4649
 3323SOL     OW21601   1.065   3.370  12.329  0.1343 -0.6390 -0.0255
 3323SOL    HW121602   1.052   3.379  12.235 -0.8849 -1.4241  0.0424
 3323SOL    HW221603   1.057   3.464  12.347  2.4197  0.1094 -2.9025
 3324SOL     OW21604   4.249   4.491  15.678 -0.4213 -0.6187 -0.5698
 3324SOL    HW121605   4.184   4.448  15.734 -0.1776  0.5709  0.6152
 3324SOL    HW221606   4.226   4.584  15.686  0.7646 -0.2470 -1.5490
 3325SOL     OW21607   2.923   0.694   8.418 -0.7568  0.3869  0.0679
 3325SOL    HW121608   2.950   0.604   8.401 -0.7464  0.5336 -0.6823
 3325SOL    HW221609   2.995   0.737   8.373  0.0399 -1.4704 -0.4316
 3326SOL     OW21610   0.370   4.531   8.654 -0.0643  0.0488  0.1282
 3326SOL    HW121611   0.459   4.556   8.680 -0.3375 -0.1564  1.2617
 3326SOL    HW221612   0.328   4.601   8.603  2.5137  0.9779 -0.7256
 3327SOL     OW21613   2.822   3.420   7.602 -0.4811 -0.2444  0.5593
 3327SOL    HW121614   2.772   3.497   7.630 -0.2000  0.2785 -0.3959
 3327SOL    HW221615   2.762   3.347   7.618 -0.8693  0.4669  2.4360
 3328SOL     OW21616   1.457   1.784   8.865  0.1718  0.1523  0.4666
 3328SOL    HW121617   1.427   1.875   8.861 -0.5523 -0.1667 -1.7286
 3328SOL    HW221618   1.539   1.788   8.914 -0.0480  0.9393  0.7736
 3329SOL     OW21619   4.637   1.894  17.602  0.5601  0.2042  0.3592
 3329SOL    HW121620   4.639   1.962  17.535 -1.6910 -0.3269 -0.2348
 3329SOL    HW221621   4.620   1.815  17.552  0.6710  0.9431 -0.8457
 3330SOL     OW21622   2.387   1.881  16.147  0.2674  0.1073 -0.2289
 3330SOL    HW121623   2.457   1.908  16.206 -1.2034 -0.3869  1.7429
 3330SOL    HW221624   2.423   1.796  16.123 -0.2963  0.0251 -0.8002
 3331SOL     OW21625   4.674   0.936   9.214  0.5991 -0.0226 -0.0328
 3331SOL    HW121626   4.622   0.873   9.164 -0.6206 -0.1075  1.3643
 3331SOL    HW221627   4.617   0.970   9.283 -1.4454 -0.9040 -1.2884
 3332SOL     OW21628   1.934   0.494   2.881 -0.4105  0.3356  0.5613
 3332SOL    HW121629   1.945   0.588   2.864 -2.6015  0.3254 -0.8798
 3332SOL    HW221630   1.974   0.452   2.805  0.2563  0.4505  0.8505
 3333SOL     OW21631   1.802   2.463   8.388  0.0097 -0.4494  0.4753
 3333SOL    HW121632   1.719   2.453   8.435 -0.1058  0.2196  0.4130
 3333SOL    HW221633   1.756   2.453   8.305  0.0270  1.2113  0.2613
 3334SOL     OW21634   2.388   1.272  11.882 -0.2498  0.5180  0.5992
 3334SOL    HW121635   2.301   1.292  11.848 -0.0409 -1.4288 -1.0294
 3334SOL    HW221636   2.376   1.196  11.939 -2.9063 -1.4902 -2.7024
 3335SOL     OW21637   2.302   0.193   3.466 -0.1459  1.0188  0.3985
 3335SOL    HW121638   2.214   0.168   3.438  1.5944 -3.7479 -0.8311
 3335SOL    HW221639   2.348   0.109   3.474 -0.3798  0.6716 -2.0196
 3336SOL     OW21640   0.072   0.976   8.520  0.0399 -0.0265 -0.0669
 3336SOL    HW121641   0.136   1.031   8.566  2.1493 -0.6804 -2.2248
 3336SOL    HW221642   4.728   1.027   8.531 -2.0306 -3.1601 -0.5077
 3337SOL     OW21643   3.363   1.775  14.121 -0.5704 -0.6617 -0.0202
 3337SOL    HW121644   3.380   1.697  14.069 -0.4712 -1.8733  1.8532
 3337SOL    HW221645   3.278   1.815  14.101  0.1685  2.2718  2.6648
 3338SOL     OW21646   3.256   0.523   4.865 -0.4129 -0.6923  0.1382
 3338SOL    HW121647   3.279   0.609   4.831  1.6391 -0.9408  0.8981
 3338SOL    HW221648   3.339   0.477   4.851  0.4701  0.3729  2.0175
 3339SOL     OW21649   3.103   0.534   7.908  0.2226 -0.0900  0.2147
 3339SOL    HW121650   3.125   0.448   7.943  0.1279 -0.2604 -0.1385
 3339SOL    HW221651   3.047   0.518   7.832 -0.6215 -0.0222  0.8319
 3340SOL     OW21652   2.255   0.452   3.712 -0.5348 -0.3324 -0.6676
 3340SOL    HW121653   2.238   0.438   3.619  0.6586  0.4051 -0.9907
 3340SOL    HW221654   2.248   0.546   3.727  0.2987 -0.5029  0.8200
 3341SOL     OW21655   1.652   1.509   9.974 -0.3894  0.0699 -0.1926
 3341SOL    HW121656   1.578   1.526   9.916  1.0799 -1.0539 -2.4039
 3341SOL    HW221657   1.613   1.432  10.014  1.4979 -1.9839 -2.3174
 3342SOL     OW21658   1.872   2.746   3.138 -0.1156 -0.0540  0.0921
 3342SOL    HW121659   1.889   2.806   3.066 -2.0070 -0.0019 -0.3115
 3342SOL    HW221660   1.925   2.670   3.114 -0.0021  1.2010 -3.6163
 3343SOL     OW21661   0.117   1.780   5.169 -0.3367 -0.0260 -0.0478
 3343SOL    HW121662   0.127   1.730   5.088 -1.0336 -0.5849  0.2065
 3343SOL    HW221663   0.035   1.737   5.191  0.4388 -1.8971 -0.8636
 3344SOL     OW21664   1.089   4.159  14.321 -0.7995 -0.5306  0.2239
 3344SOL    HW121665   1.102   4.067  14.296  0.3201 -0.3876  0.2745
 3344SOL    HW221666   1.092   4.195  14.233 -1.8099  1.5982  1.0582
 3345SOL     OW21667   4.257   2.327   6.236 -0.5209 -0.2296  0.3805
 3345SOL    HW121668   4.245   2.363   6.324  1.4604  1.1029  0.1120
 3345SOL    HW221669   4.245   2.233   6.251 -0.3895 -0.4873 -1.1001
 3346SOL     OW21670   4.392   0.858  12.836  0.1124  0.4902 -0.0836
 3346SOL    HW121671   4.355   0.947  12.839 -1.0697  0.0385 -1.5556
 3346SOL    HW221672   4.311   0.815  12.811  1.2661 -0.1738 -2.7287
 3347SOL     OW21673   0.562   3.500  15.452 -0.1002 -0.1936  0.3941
 3347SOL    HW121674   0.551   3.574  15.392 -2.3360  0.5274  1.7126
 3347SOL    HW221675   0.657   3.510  15.463 -0.2027 -0.9612  1.9502
 3348SOL     OW21676   1.880   2.702   2.284  0.3403 -0.3848  0.7461
 3348SOL    HW121677   1.885   2.606   2.275  0.5563 -0.2226 -0.8203
 3348SOL    HW221678   1.974   2.714   2.294  0.4555 -2.2083  1.9128
 3349SOL     OW21679   2.562   2.665   3.185  0.2715  0.0430  0.1928
 3349SOL    HW121680   2.573   2.760   3.193  0.8975 -0.0444  0.3540
 3349SOL    HW221681   2.467   2.656   3.185  0.1392  1.2780 -1.4857
 3350SOL     OW21682   1.190   2.908   7.171  0.3927 -0.1180 -0.0218
 3350SOL    HW121683   1.112   2.946   7.129  0.4131  0.0734  0.1112
 3350SOL    HW221684   1.146   2.835   7.215 -1.2893 -0.7006 -2.6521
 3351SOL     OW21685   3.208   0.705  14.476 -0.9167 -0.1328 -0.2180
 3351SOL    HW121686   3.130   0.651  14.492 -1.2094  0.8345  1.5939
 3351SOL    HW221687   3.268   0.637  14.508  0.6921  1.9113  1.1219
 3352SOL     OW21688   0.532   3.499   1.785  0.1448  0.0284 -0.2011
 3352SOL    HW121689   0.480   3.548   1.849  2.4784  1.6998  0.3869
 3352SOL    HW221690   0.624   3.510   1.810 -0.0226  1.3199 -0.2017
 3353SOL     OW21691   3.392   3.098   8.588 -0.2501 -0.0957  0.0144
 3353SOL    HW121692   3.483   3.078   8.570  0.5045  1.3631  2.1134
 3353SOL    HW221693   3.358   3.012   8.565  0.4908 -0.1143 -1.0047
 3354SOL     OW21694   1.394   2.231   4.762 -0.4884 -0.2187 -0.8068
 3354SOL    HW121695   1.445   2.156   4.792 -0.2213 -0.1148 -0.9978
 3354SOL    HW221696   1.438   2.304   4.806  0.4939 -0.5823 -1.1876
 3355SOL     OW21697   4.284   2.097   7.992 -0.5409  0.1888 -0.4237
 3355SOL    HW121698   4.303   2.190   7.986  0.4065 -0.0310 -0.8846
 3355SOL    HW221699   4.298   2.084   8.086  0.4665  1.7740 -0.3469
 3356SOL     OW21700   1.526   3.235   6.484 -0.1271  0.0760 -0.1890
 3356SOL    HW121701   1.434   3.262   6.481 -0.1324  0.1118  0.2820
 3356SOL    HW221702   1.547   3.279   6.566 -1.0664  0.0346  0.0694
 3357SOL     OW21703   1.237   1.477  15.992 -0.1083 -0.0509  0.0105
 3357SOL    HW121704   1.215   1.416  16.063  0.9289  0.3833  0.6983
 3357SOL    HW221705   1.298   1.535  16.037 -0.1069 -0.2906  0.3249
 3358SOL     OW21706   4.275   0.882   4.483  0.1082  0.2835  0.5512
 3358SOL    HW121707   4.209   0.813   4.479 -1.2925  1.6984 -0.3503
 3358SOL    HW221708   4.228   0.960   4.511  0.2567  0.3078  0.7331
 3359SOL     OW21709   4.685   2.871   1.840 -0.2186  0.1283  0.1316
 3359SOL    HW121710   4.713   2.943   1.782 -0.1297 -0.6845 -0.8394
 3359SOL    HW221711   4.723   2.794   1.798 -1.4326  0.8767 -2.3832
 3360SOL     OW21712   0.855   3.117   3.171 -0.0294  0.8460  0.0167
 3360SOL    HW121713   0.930   3.069   3.136  0.1361  1.0503  0.0938
 3360SOL    HW221714   0.803   3.126   3.091 -0.9410 -0.4158  0.4648
 3361SOL     OW21715   2.544   1.942  11.564  0.0770  0.0131  0.4422
 3361SOL    HW121716   2.573   1.868  11.617 -2.1378 -0.1838  1.3760
 3361SOL    HW221717   2.520   1.902  11.481  0.5744  0.1583  0.2299
 3362SOL     OW21718   4.620   1.485  12.745 -0.3244 -0.0037  0.4090
 3362SOL    HW121719   4.564   1.526  12.679  0.7235  1.5862  0.4839
 3362SOL    HW221720   4.572   1.512  12.823 -0.3849  0.6681  0.1468
 3363SOL     OW21721   3.309   0.821   5.914 -0.0307 -0.1445  0.3530
 3363SOL    HW121722   3.384   0.865   5.952 -0.2319  0.9389 -0.4762
 3363SOL    HW221723   3.245   0.815   5.985 -0.4069 -1.9674 -0.1300
 3364SOL     OW21724   1.538   2.095  16.923  0.0840 -0.4231 -0.1884
 3364SOL    HW121725   1.501   2.035  16.987  0.6297 -2.6624 -1.9957
 3364SOL    HW221726   1.621   2.116  16.967  0.1229 -1.3154  0.1456
 3365SOL     OW21727   0.921   1.528   4.011  0.1329 -0.3397  0.3501
 3365SOL    HW121728   0.835   1.557   4.041  0.2336  1.5777 -1.2199
 3365SOL    HW221729   0.922   1.588   3.936 -0.5591  0.8164  1.2702
 3366SOL     OW21730   1.717   1.982  15.214  0.2170 -0.7717  0.9074
 3366SOL    HW121731   1.781   1.941  15.157  1.1738 -0.5142  1.7969
 3366SOL    HW221732   1.765   2.026  15.285  2.0041 -0.1213 -0.6986
 3367SOL     OW21733   1.810   1.804  11.317 -0.0380 -0.5889  0.1108
 3367SOL    HW121734   1.864   1.726  11.332  1.6564  0.2783 -1.3981
 3367SOL    HW221735   1.766   1.808  11.402 -0.8555  1.2144 -0.3936
 3368SOL     OW21736   1.483   2.900  12.384  0.6863  0.2520 -0.1089
 3368SOL    HW121737   1.411   2.857  12.431 -0.4638  0.2567 -1.8566
 3368SOL    HW221738   1.555   2.886  12.445 -1.5593  0.9452  2.7289
 3369SOL     OW21739   1.645   0.393   5.907  0.7997  0.0583 -0.0496
 3369SOL    HW121740   1.731   0.379   5.948  0.5594 -0.0793  0.4070
 3369SOL    HW221741   1.643   0.489   5.914 -1.8352 -0.0794  1.2507
 3370SOL     OW21742   3.627   4.218   7.560 -0.1129  0.1909  0.3486
 3370SOL    HW121743   3.714   4.194   7.528  1.2315  1.0846  3.3465
 3370SOL    HW221744   3.572   4.144   7.534 -1.5769  1.3303  0.2053
 3371SOL     OW21745   3.634   2.081   4.812  0.4356 -0.2412  0.7411
 3371SOL    HW121746   3.554   2.113   4.771  1.3272  0.1565 -0.6861
 3371SOL    HW221747   3.688   2.159   4.818 -4.0105  2.9014 -0.1717
 3372SOL     OW21748   2.784   3.148   8.323 -0.2600 -0.4190  0.0522
 3372SOL    HW121749   2.815   3.071   8.371 -2.5460 -1.4023 -0.0612
 3372SOL    HW221750   2.701   3.165   8.366 -0.1213  2.1790 -0.7037
 3373SOL     OW21751   0.664   3.431   7.985 -0.5987 -0.3879 -0.4500
 3373SOL    HW121752   0.648   3.524   7.997  0.6347 -0.0778 -1.2665
 3373SOL    HW221753   0.662   3.390   8.071 -0.7881  0.6923  0.0520
 3374SOL     OW21754   2.012   4.016   7.531 -0.3110 -0.3273  0.0129
 3374SOL    HW121755   1.944   3.951   7.549 -1.0624  0.7058  0.9370
 3374SOL    HW221756   2.094   3.970   7.548 -0.2259 -0.5465 -0.9798
 3375SOL     OW21757   3.262   4.556   7.084  0.9947 -0.0913  0.0970
 3375SOL    HW121758   3.342   4.523   7.045  0.4484 -2.3459  0.8456
 3375SOL    HW221759   3.225   4.610   7.014  1.3833 -1.0929 -0.8759
 3376SOL     OW21760   2.041   1.448  16.179 -0.0453 -0.4905 -0.2544
 3376SOL    HW121761   1.964   1.480  16.133 -0.4717  2.1706  2.3469
 3376SOL    HW221762   2.010   1.459  16.268  1.3334  3.2685 -0.2299
 3377SOL     OW21763   1.497   2.488   7.819  0.9667  0.7226 -0.2500
 3377SOL    HW121764   1.508   2.394   7.830 -3.1465  0.2290 -0.1881
 3377SOL    HW221765   1.529   2.527   7.900  0.8277  0.6792 -0.1748
 3378SOL     OW21766   1.929   4.290   0.323 -0.1558  0.6521  0.0213
 3378SOL    HW121767   1.984   4.368   0.316 -3.2234  3.1655  3.6436
 3378SOL    HW221768   1.932   4.251   0.236  1.4555 -1.1298  0.8789
 3379SOL     OW21769   0.291   2.401  10.149  0.1846  0.0405 -0.0788
 3379SOL    HW121770   0.327   2.467  10.208 -0.2740  1.5025 -1.4307
 3379SOL    HW221771   0.211   2.387  10.200 -1.1914  1.4193 -1.8670
 3380SOL     OW21772   0.230   2.750  13.530 -0.1220  0.0719  0.3287
 3380SOL    HW121773   0.240   2.801  13.610 -0.4547  0.1462  0.3227
 3380SOL    HW221774   0.309   2.775  13.483 -0.7185  2.6536  0.7265
 3381SOL     OW21775   1.556   1.308  10.121  0.3245 -0.1654  0.0323
 3381SOL    HW121776   1.576   1.338  10.210  0.8031 -0.7879  0.1283
 3381SOL    HW221777   1.529   1.217  10.118 -0.1431 -0.0135 -0.4262
 3382SOL     OW21778   0.664   2.203   7.614  0.0286 -0.2938  0.2316
 3382SOL    HW121779   0.632   2.140   7.678  0.1891  1.0530  1.6468
 3382SOL    HW221780   0.614   2.282   7.637  0.0563  0.5891 -2.6656
 3383SOL     OW21781   4.638   4.672   5.068 -0.4550 -0.1722  0.1113
 3383SOL    HW121782   4.613   4.717   5.148  3.1154 -0.0279  1.1528
 3383SOL    HW221783   4.731   4.693   5.059 -0.5131  1.3920  3.3639
 3384SOL     OW21784   3.694   0.093   7.464  0.3407  0.1437  0.4102
 3384SOL    HW121785   3.645   0.095   7.382  0.5074  1.6154  0.3381
 3384SOL    HW221786   3.642   0.042   7.526 -1.3429  1.1328 -0.2113
 3385SOL     OW21787   3.452   1.770   3.442  0.1258  0.0489  0.2190
 3385SOL    HW121788   3.460   1.728   3.528  2.0038  1.2332  0.6337
 3385SOL    HW221789   3.525   1.730   3.395 -0.7003  1.2507 -2.0756
 3386SOL     OW21790   1.372   4.004   7.251 -0.1831 -0.0011  0.3504
 3386SOL    HW121791   1.417   4.070   7.198  0.4376  0.0041  0.8792
 3386SOL    HW221792   1.407   3.923   7.213 -0.3139  0.7306 -1.3611
 3387SOL     OW21793   1.982   1.694  11.685 -0.0205  0.1141 -0.1899
 3387SOL    HW121794   2.070   1.679  11.719 -0.5058  0.5739  1.3037
 3387SOL    HW221795   1.986   1.685  11.590 -0.1449 -3.0036  0.1138
 3388SOL     OW21796   3.718   2.037  10.197  0.1856  0.4944  0.0787
 3388SOL    HW121797   3.811   2.023  10.180  0.3067  1.0250  0.3288
 3388SOL    HW221798   3.707   2.003  10.285 -3.3144  0.5771 -0.3320
 3389SOL     OW21799   1.222   0.381   6.953  0.0902  0.2549  0.0918
 3389SOL    HW121800   1.205   0.474   6.962  3.5634  0.9936 -0.8449
 3389SOL    HW221801   1.163   0.351   6.883  0.4629 -0.0746 -0.0839
 3390SOL     OW21802   1.380   3.522  10.919  0.2515  0.1088 -0.1211
 3390SOL    HW121803   1.434   3.601  10.912 -2.5856  2.0905  0.4953
 3390SOL    HW221804   1.343   3.521  11.007  0.9886  2.4575  0.2158
 3391SOL     OW21805   0.970   0.238  17.509  0.2279  0.3372 -0.8507
 3391SOL    HW121806   1.001   0.320  17.470 -0.0676  0.3781 -0.9949
 3391SOL    HW221807   1.034   0.224  17.579 -0.3897  1.1699 -0.1149
 3392SOL     OW21808   3.764   4.062   5.770  0.0480 -0.1675 -0.1878
 3392SOL    HW121809   3.816   4.068   5.850  0.4316 -0.5636 -0.4130
 3392SOL    HW221810   3.683   4.106   5.797 -0.0685 -0.6628  0.2545
 3393SOL     OW21811   3.882   0.898   7.156 -0.5651 -0.2758  0.6900
 3393SOL    HW121812   3.822   0.834   7.118  0.2790 -1.8129  1.9816
 3393SOL    HW221813   3.847   0.906   7.244 -0.0233  0.3907  0.8430
 3394SOL     OW21814   2.850   2.764   4.473 -0.2444 -0.5892  0.2836
 3394SOL    HW121815   2.863   2.761   4.567 -0.4155  1.3409  0.3783
 3394SOL    HW221816   2.754   2.762   4.470 -0.2334 -0.0194 -0.4371
 3395SOL     OW21817   4.446   1.374   2.144  0.7244 -0.2870  0.1825
 3395SOL    HW121818   4.383   1.302   2.155 -1.3334  1.5664  0.4991
 3395SOL    HW221819   4.447   1.389   2.238  1.8060  0.7102 -0.0007
 3396SOL     OW21820   4.418   1.737  13.460 -0.9238  0.0255 -0.2387
 3396SOL    HW121821   4.406   1.792  13.537 -2.8292 -1.1807  0.3118
 3396SOL    HW221822   4.475   1.669  13.495  1.3442  1.9537 -0.1048
 3397SOL     OW21823   2.994   1.379  15.376  0.7931  0.6341  0.8490
 3397SOL    HW121824   3.039   1.318  15.318  0.4249  1.0963  0.0771
 3397SOL    HW221825   3.028   1.463  15.343  0.9800 -0.5702 -1.9694
 3398SOL     OW21826   1.403   0.614   7.711 -0.4943 -0.4705 -0.2607
 3398SOL    HW121827   1.411   0.575   7.798 -0.1274 -1.9677 -0.9560
 3398SOL    HW221828   1.485   0.597   7.665 -0.7666 -0.5677 -0.7139
 3399SOL     OW21829   1.854   0.006   4.918 -0.4161 -0.3453  0.3578
 3399SOL    HW121830   1.808   0.035   4.840  3.3923 -0.7319 -2.0074
 3399SOL    HW221831   1.846   0.079   4.981  0.8397  1.2020 -1.2782
 3400SOL     OW21832   0.947   1.350   8.427  0.3722  0.0128  0.2262
 3400SOL    HW121833   0.932   1.442   8.450  0.9504  0.2458 -0.3303
 3400SOL    HW221834   1.040   1.341   8.450 -0.6228 -1.8517  3.5145
 3401SOL     OW21835   2.549   0.041  14.038 -0.1843  0.0657  0.0298
 3401SOL    HW121836   2.499   4.695  14.036  0.3184 -0.2228 -0.5300
 3401SOL    HW221837   2.476   0.099  14.059  0.2254  0.6134 -0.0577
 3402SOL     OW21838   3.111   4.391  16.813  0.1363  0.0649  0.2326
 3402SOL    HW121839   3.066   4.315  16.775  2.6946 -0.7082 -1.2702
 3402SOL    HW221840   3.202   4.374  16.788  0.5241  2.1549  0.2573
 3403SOL     OW21841   1.456   0.500  11.808  0.2960  0.2956  0.5136
 3403SOL    HW121842   1.477   0.501  11.901  0.8508  0.2164  0.3877
 3403SOL    HW221843   1.544   0.519  11.775  0.9538  1.2126  2.7573
 3404SOL     OW21844   3.015   3.806  11.766  0.6017  0.3720  0.1349
 3404SOL    HW121845   3.058   3.825  11.683  1.9148  1.0022  0.9481
 3404SOL    HW221846   2.977   3.719  11.763  3.4876 -0.9786  2.5749
 3405SOL     OW21847   4.187   4.222   4.219  0.1818  0.0613 -0.1630
 3405SOL    HW121848   4.137   4.216   4.137 -1.6033 -2.7200  1.1507
 3405SOL    HW221849   4.249   4.150   4.207 -0.1852 -0.1454 -0.8169
 3406SOL     OW21850   3.955   0.237   8.239  0.2044  0.4232 -0.1522
 3406SOL    HW121851   4.009   0.170   8.281  0.9874  0.7386 -0.6597
 3406SOL    HW221852   3.999   0.265   8.158 -1.0150 -0.8337 -1.2460
 3407SOL     OW21853   2.284   4.195   4.707  0.1967  0.7844 -0.6368
 3407SOL    HW121854   2.350   4.232   4.765  0.5518  1.9664 -1.8153
 3407SOL    HW221855   2.201   4.228   4.742  0.5116  0.1852  0.6704
 3408SOL     OW21856   2.613   4.032   0.526  0.4601  0.5370 -0.4297
 3408SOL    HW121857   2.638   3.972   0.596  1.2865  0.6859 -0.5995
 3408SOL    HW221858   2.598   3.965   0.460 -0.8940 -1.0036  1.4586
 3409SOL     OW21859   2.517   3.460   5.955  0.8194 -0.4042 -0.5124
 3409SOL    HW121860   2.489   3.384   6.006 -3.0885  1.2195 -0.3215
 3409SOL    HW221861   2.611   3.443   5.944  1.3863  2.4732  0.0841
 3410SOL     OW21862   2.861   1.199   4.663 -0.4525  0.2304  0.1355
 3410SOL    HW121863   2.859   1.235   4.575 -2.5908  0.9404  0.4848
 3410SOL    HW221864   2.769   1.177   4.674 -0.5801  0.2652 -0.8791
 3411SOL     OW21865   1.583   2.673   9.499  0.0172 -0.1292 -0.1655
 3411SOL    HW121866   1.549   2.585   9.483  1.8981 -1.1713  1.4288
 3411SOL    HW221867   1.587   2.680   9.595 -0.7957 -0.7514 -0.0923
 3412SOL     OW21868   2.530   2.895   4.164 -0.9616  0.1392  0.5844
 3412SOL    HW121869   2.462   2.961   4.148 -0.7235 -0.1075 -1.4879
 3412SOL    HW221870   2.566   2.903   4.075 -1.6775 -2.0013  0.1237
 3413SOL     OW21871   1.427   2.042  15.193  0.1551  0.1705 -0.1256
 3413SOL    HW121872   1.520   2.019  15.190  0.2217  0.5660 -0.8653
 3413SOL    HW221873   1.422   2.136  15.207  1.2556  0.2782 -0.4825
 3414SOL     OW21874   3.440   3.897  11.037 -0.1139 -0.1139 -0.2328
 3414SOL    HW121875   3.472   3.898  10.947  0.0190 -0.8654 -0.1891
 3414SOL    HW221876   3.382   3.822  11.033  0.3694 -0.4414 -1.0303
 3415SOL     OW21877   0.345   3.836   6.641 -0.3859  0.2964 -0.0544
 3415SOL    HW121878   0.275   3.900   6.658 -1.8106 -1.1789 -0.3110
 3415SOL    HW221879   0.314   3.806   6.555  0.7322  0.7306 -0.6014
 3416SOL     OW21880   4.098   0.970   9.514  0.0681 -0.1346  0.3635
 3416SOL    HW121881   4.079   0.947   9.423  0.7918  2.6892 -0.5109
 3416SOL    HW221882   4.133   0.885   9.539  0.7429  0.1152  0.2711
 3417SOL     OW21883   2.943   0.105   7.832  0.0268  0.3079  0.5594
 3417SOL    HW121884   2.849   0.086   7.828  0.4026 -1.4027 -0.2291
 3417SOL    HW221885   2.947   0.180   7.891  0.4932  0.8137 -0.1122
 3418SOL     OW21886   1.038   3.432  12.065 -0.1115  0.2214 -0.4612
 3418SOL    HW121887   1.092   3.443  11.987 -0.0678 -4.1607 -1.0585
 3418SOL    HW221888   0.964   3.482  12.030  0.3424  1.9010  0.9792
 3419SOL     OW21889   1.319   2.083   2.795 -0.0823 -1.1259  0.2471
 3419SOL    HW121890   1.272   2.100   2.714  1.1070  1.8696  0.2016
 3419SOL    HW221891   1.317   2.173   2.828 -0.1020 -0.8435 -0.5098
 3420SOL     OW21892   3.573   4.062  14.524 -0.2198  0.4429  0.1467
 3420SOL    HW121893   3.489   4.022  14.500  0.2594 -0.3385 -0.1944
 3420SOL    HW221894   3.602   4.072  14.433 -1.0048 -0.5297 -0.2161
 3421SOL     OW21895   1.491   4.373   7.860  1.1076 -0.2973  0.0670
 3421SOL    HW121896   1.542   4.425   7.797  0.6985  1.8390  1.5000
 3421SOL    HW221897   1.522   4.283   7.856  2.3304  0.2246 -2.6446
 3422SOL     OW21898   2.007   0.429   8.045 -0.5108 -0.3525  0.3281
 3422SOL    HW121899   1.940   0.369   8.010  0.3965 -1.1038 -0.1264
 3422SOL    HW221900   2.077   0.365   8.059 -0.5767 -0.2333  1.2012
 3423SOL     OW21901   3.500   3.028   5.645  0.1820 -0.0438 -0.2055
 3423SOL    HW121902   3.454   3.083   5.582  1.9556 -1.1622 -2.4924
 3423SOL    HW221903   3.520   2.948   5.596 -0.6877  0.2334 -1.0072
 3424SOL     OW21904   1.870   1.684   2.241 -0.3707  0.2322 -0.1586
 3424SOL    HW121905   1.896   1.706   2.152 -0.3708  2.0728  0.3111
 3424SOL    HW221906   1.952   1.637   2.257 -0.0591  0.6795 -0.4541
 3425SOL     OW21907   2.026   2.004   4.820 -0.4895 -0.0014 -0.0921
 3425SOL    HW121908   1.994   1.965   4.901 -0.2331 -0.8683 -0.3987
 3425SOL    HW221909   2.075   1.931   4.781  0.6706  0.7326 -0.0220
 3426SOL     OW21910   0.157   1.439   0.720  0.6971  0.4952 -0.5059
 3426SOL    HW121911   0.133   1.362   0.772 -1.4074  1.9608  0.7244
 3426SOL    HW221912   0.091   1.440   0.651 -2.0472 -1.6266  2.0616
 3427SOL     OW21913   1.475   2.955  10.299 -0.0846  0.2804 -0.0141
 3427SOL    HW121914   1.466   2.894  10.373  1.2657  1.1623  0.8847
 3427SOL    HW221915   1.441   3.035  10.339 -0.6159  0.9348 -1.7893
 3428SOL     OW21916   4.289   3.216   4.103  0.0667  0.9560  0.4825
 3428SOL    HW121917   4.262   3.280   4.169 -1.7807 -1.8384  2.4478
 3428SOL    HW221918   4.360   3.183   4.157  1.8808  1.3910 -1.6307
 3429SOL     OW21919   2.156   1.019  14.806 -0.3622 -0.6906 -0.0351
 3429SOL    HW121920   2.189   1.091  14.751 -3.4045 -0.1212 -1.1012
 3429SOL    HW221921   2.133   1.069  14.885  1.6355  1.7544 -0.9589
 3430SOL     OW21922   3.531   3.643   1.052  0.7048 -0.4395  0.0634
 3430SOL    HW121923   3.591   3.578   1.088  0.2594  0.5976  2.7036
 3430SOL    HW221924   3.524   3.704   1.126 -0.8657  0.5608 -0.9248
 3431SOL     OW21925   3.916   4.107   5.514 -0.6321 -0.1531  0.5760
 3431SOL    HW121926   3.880   4.135   5.598  0.4664  1.1042  0.6215
 3431SOL    HW221927   3.839   4.111   5.457 -0.8726  0.0602  0.9200
 3432SOL     OW21928   3.250   1.743  15.126  0.2987  0.8883  0.0227
 3432SOL    HW121929   3.169   1.720  15.172  0.7534 -1.9123 -0.5357
 3432SOL    HW221930   3.214   1.755  15.039 -2.3676  0.0598  1.0291
 3433SOL     OW21931   4.643   0.296   2.608  0.4603 -0.0183  0.2123
 3433SOL    HW121932   4.675   0.363   2.667 -0.1059  1.3618 -1.0438
 3433SOL    HW221933   4.705   0.225   2.623  2.4811  2.0889  1.7549
 3434SOL     OW21934   3.242   2.531   4.803  0.0966 -0.0381  0.3576
 3434SOL    HW121935   3.293   2.500   4.878  0.6154  1.3084  0.5695
 3434SOL    HW221936   3.212   2.448   4.766 -2.1139  0.5203  0.8688
 3435SOL     OW21937   1.139   1.556   3.747 -0.2743  0.6008 -0.3275
 3435SOL    HW121938   1.100   1.470   3.730  1.6421 -0.0667 -1.3071
 3435SOL    HW221939   1.082   1.603   3.686 -0.4229  0.5188 -0.2539
 3436SOL     OW21940   2.501   1.251  12.186 -0.4272 -0.3348  0.0264
 3436SOL    HW121941   2.593   1.226  12.178 -0.1675  0.3754  0.8038
 3436SOL    HW221942   2.502   1.336  12.141  0.9139 -1.7528 -2.6521
 3437SOL     OW21943   3.667   4.123   0.485 -0.2491  0.2407  0.6052
 3437SOL    HW121944   3.708   4.066   0.550 -0.3068  1.7685  1.9968
 3437SOL    HW221945   3.743   4.123   0.427 -1.4065  0.7235 -0.9281
 3438SOL     OW21946   2.301   2.872   9.376 -0.3923 -0.1432 -0.0419
 3438SOL    HW121947   2.311   2.782   9.405 -2.3057 -0.2395  0.3257
 3438SOL    HW221948   2.373   2.890   9.315  0.1619  2.2398  1.3075
 3439SOL     OW21949   1.412   1.257   5.130  0.2160 -0.2694 -0.2576
 3439SOL    HW121950   1.343   1.316   5.101 -1.7012 -1.8672  1.0076
 3439SOL    HW221951   1.494   1.289   5.092  0.9086 -0.1671  1.2919
 3440SOL     OW21952   0.197   4.223   0.607 -0.9333 -0.1376  0.5919
 3440SOL    HW121953   0.133   4.209   0.538 -1.6662 -0.8686  1.4198
 3440SOL    HW221954   0.150   4.168   0.670 -0.7850  0.4822  1.2471
 3441SOL     OW21955   0.629   0.290   5.528 -0.1241 -0.5221  0.4274
 3441SOL    HW121956   0.683   0.280   5.449  0.2482  2.7281  0.2869
 3441SOL    HW221957   0.546   0.273   5.483  0.7146  0.5999 -1.5607
 3442SOL     OW21958   1.252   0.661   5.407  0.5233 -0.3460 -0.2276
 3442SOL    HW121959   1.227   0.710   5.485 -0.1910 -2.9559  1.1658
 3442SOL    HW221960   1.266   0.581   5.457  3.0257 -1.8815 -3.3633
 3443SOL     OW21961   0.133   2.424   7.463 -0.3697 -0.1957 -0.0320
 3443SOL    HW121962   0.039   2.412   7.458 -0.2586 -1.0958 -0.0068
 3443SOL    HW221963   0.140   2.516   7.441 -1.6136  0.0482  0.5995
 3444SOL     OW21964   1.033   2.420   5.264  0.2797 -0.1795 -0.0657
 3444SOL    HW121965   1.009   2.327   5.257 -1.0714  0.1277  0.5769
 3444SOL    HW221966   0.962   2.464   5.217 -0.6931 -0.6969  0.9256
 3445SOL     OW21967   4.351   4.080   3.025  0.3031 -0.1245  0.0117
 3445SOL    HW121968   4.286   4.097   2.956 -1.2451 -0.9898  1.2546
 3445SOL    HW221969   4.432   4.096   2.978  0.6710 -0.7473  0.4392
 3446SOL     OW21970   2.392   4.631   0.572 -0.1408  0.1341  0.3776
 3446SOL    HW121971   2.297   4.632   0.580 -0.5102 -3.0484 -3.4595
 3446SOL    HW221972   2.427   4.665   0.654 -1.4735 -0.7417  1.3027
 3447SOL     OW21973   2.536   2.934   2.088 -0.0278  0.3112  0.0597
 3447SOL    HW121974   2.555   2.892   2.004 -1.8885  0.0273 -0.2351
 3447SOL    HW221975   2.582   3.017   2.074  1.4193 -0.4004  0.6519
 3448SOL     OW21976   2.044   0.862   9.921  0.3822 -0.3611  0.0511
 3448SOL    HW121977   2.039   0.769   9.945  1.2120 -0.9358 -1.9864
 3448SOL    HW221978   2.067   0.905  10.003 -0.3530  0.5744 -0.2279
 3449SOL     OW21979   2.542   2.236   3.953  0.2209 -0.2168 -0.0880
 3449SOL    HW121980   2.605   2.178   3.911 -0.4426 -1.7317  1.0393
 3449SOL    HW221981   2.525   2.199   4.039  2.6253  0.0033  0.4762
 3450SOL     OW21982   2.653   1.635   5.914  0.0458  0.0527  0.0243
 3450SOL    HW121983   2.631   1.646   6.007 -0.4442 -1.7831  0.1198
 3450SOL    HW221984   2.687   1.546   5.922 -3.2085 -1.3953 -2.1928
 3451SOL     OW21985   2.998   0.540  17.113  0.1015  0.5436 -0.9636
 3451SOL    HW121986   3.075   0.483  17.115  1.6008  2.6283  1.0417
 3451SOL    HW221987   3.011   0.601  17.186  0.3878 -0.5531 -0.0827
 3452SOL     OW21988   3.910   2.368   2.247 -0.3088  0.2308 -0.2365
 3452SOL    HW121989   3.902   2.463   2.240 -0.9158  0.1880 -0.1014
 3452SOL    HW221990   3.925   2.351   2.154 -1.9951  2.4308 -0.8930
 3453SOL     OW21991   1.265   3.141   8.223  0.0132  0.0905 -0.2426
 3453SOL    HW121992   1.210   3.069   8.253 -1.5824  0.6563 -1.7728
 3453SOL    HW221993   1.250   3.203   8.295 -1.0123  1.2282 -1.4140
 3454SOL     OW21994   0.961   2.926   8.980  0.0921 -0.1880  0.0202
 3454SOL    HW121995   0.921   2.893   9.060 -3.4047 -1.4562 -2.2436
 3454SOL    HW221996   0.945   3.019   8.990 -0.2838 -0.1324 -1.0493
 3455SOL     OW21997   1.562   2.560   6.823 -0.3146 -0.1399 -0.1684
 3455SOL    HW121998   1.605   2.646   6.818  0.3211 -0.3239  1.8468
 3455SOL    HW221999   1.562   2.553   6.919 -0.6440 -1.6487 -0.2848
 3456SOL     OW22000   2.489   2.058   8.308 -0.2307  0.5898 -0.6061
 3456SOL    HW122001   2.497   2.092   8.397  0.6394  2.6067 -1.4378
 3456SOL    HW222002   2.538   2.126   8.260 -0.9046 -0.8428 -3.3094
 3457SOL     OW22003   2.087   1.181   3.790 -0.3460 -0.2378 -0.3198
 3457SOL    HW122004   1.997   1.170   3.760 -0.6911 -1.3731  1.0818
 3457SOL    HW222005   2.093   1.276   3.780  0.9612  0.1247  3.6574
 3458SOL     OW22006   4.273   0.447   6.619 -0.4820 -0.5929 -0.1864
 3458SOL    HW122007   4.288   0.436   6.713 -0.0478 -1.8741 -0.4074
 3458SOL    HW222008   4.219   0.526   6.617 -2.9888 -2.3069 -0.5157
 3459SOL     OW22009   3.462   0.308  10.494 -0.0122  0.0123 -0.0713
 3459SOL    HW122010   3.392   0.254  10.458  0.1180 -0.2575  0.0748
 3459SOL    HW222011   3.431   0.395  10.470  1.6542 -0.1716 -2.8042
 3460SOL     OW22012   1.944   2.803  10.710 -0.0738  0.1036  0.5217
 3460SOL    HW122013   1.924   2.835  10.798  0.4072  1.9878 -0.0571
 3460SOL    HW222014   1.947   2.888  10.666 -0.1610 -0.4676 -0.5810
 3461SOL     OW22015   1.114   0.312   2.415 -0.0519  0.2262  0.1171
 3461SOL    HW122016   1.077   0.313   2.327 -0.8654  0.2165  0.4626
 3461SOL    HW222017   1.124   0.218   2.432  2.2030  0.6450  1.0448
 3462SOL     OW22018   3.194   4.459  10.885 -0.2095  0.0365  0.2699
 3462SOL    HW122019   3.185   4.364  10.877 -2.7507  0.2575  0.5549
 3462SOL    HW222020   3.145   4.457  10.967 -0.6478  0.8405  0.0333
 3463SOL     OW22021   3.655   4.399   3.030 -0.2059 -0.1783  0.4807
 3463SOL    HW122022   3.633   4.425   3.120 -0.0811 -1.6460  0.9193
 3463SOL    HW222023   3.619   4.311   3.029  0.7514 -0.5709  0.8050
 3464SOL     OW22024   2.200   2.756  15.391 -0.4303 -0.2719 -0.2017
 3464SOL    HW122025   2.215   2.797  15.305  2.8613 -2.5922 -0.7513
 3464SOL    HW222026   2.130   2.803  15.437 -1.5266 -1.0550 -1.0770
 3465SOL     OW22027   4.501   1.336   9.505 -0.1794  0.1998 -0.5472
 3465SOL    HW122028   4.432   1.327   9.571 -0.0205 -1.2256 -0.5740
 3465SOL    HW222029   4.573   1.285   9.542 -1.1146 -0.3468  0.5526
 3466SOL     OW22030   2.707   3.253   4.802 -0.8036 -0.0216  0.0783
 3466SOL    HW122031   2.629   3.206   4.831 -1.1317  1.0895  1.0240
 3466SOL    HW222032   2.686   3.346   4.815  0.9709  0.7628 -2.6521
 3467SOL     OW22033   1.841   0.328   1.211 -0.1655 -0.2039  0.0665
 3467SOL    HW122034   1.838   0.235   1.233  1.9730  0.1840  1.9744
 3467SOL    HW222035   1.889   0.359   1.288 -0.3426  1.6571 -0.5508
 3468SOL     OW22036   3.454   3.663   3.548 -0.0263  0.5610  0.8551
 3468SOL    HW122037   3.396   3.607   3.497 -0.2631  0.8838  0.7722
 3468SOL    HW222038   3.439   3.745   3.501 -3.1086 -0.8313 -0.5770
 3469SOL     OW22039   2.676   1.139   5.253 -0.2127  0.5412 -0.8059
 3469SOL    HW122040   2.672   1.106   5.163 -2.5286 -1.5620  0.0960
 3469SOL    HW222041   2.645   1.229   5.245  0.3760  0.5914 -2.5141
 3470SOL     OW22042   3.301   2.720   6.841  0.6261  0.5115 -0.1245
 3470SOL    HW122043   3.251   2.642   6.817  2.4152 -0.9910  0.9350
 3470SOL    HW222044   3.270   2.719   6.931  0.4853 -1.0801 -0.1903
 3471SOL     OW22045   2.153   1.156   6.961  0.2245  0.4479 -0.3929
 3471SOL    HW122046   2.065   1.183   6.988  0.1879 -0.2999  0.2148
 3471SOL    HW222047   2.140   1.137   6.868 -0.6173 -1.2963  0.0797
 3472SOL     OW22048   2.587   0.031   2.107 -0.0367  0.0673  0.7385
 3472SOL    HW122049   2.674   0.013   2.141  0.9475 -0.9644 -2.3340
 3472SOL    HW222050   2.527   4.715   2.161 -0.3356  1.0083  1.3192
 3473SOL     OW22051   0.014   4.451   8.167 -0.1251 -0.2002 -0.1599
 3473SOL    HW122052   4.670   4.462   8.114  0.3713 -0.3562 -0.9375
 3473SOL    HW222053   0.080   4.480   8.104  0.4152  1.0210  0.9720
 3474SOL     OW22054   1.552   3.741   4.491  0.5922 -0.7579 -0.7401
 3474SOL    HW122055   1.468   3.695   4.501  0.1578  0.5535  1.4829
 3474SOL    HW222056   1.591   3.678   4.430  2.8704 -0.7375  0.7077
 3475SOL     OW22057   2.284   3.576   7.125 -0.1947 -0.3858 -0.1482
 3475SOL    HW122058   2.365   3.615   7.157  0.8121 -1.2083 -1.6665
 3475SOL    HW222059   2.221   3.626   7.177  1.4826  0.4853  1.0550
 3476SOL     OW22060   3.787   2.861   7.128 -0.3270 -0.3790 -0.1182
 3476SOL    HW122061   3.833   2.838   7.209 -0.3820 -1.2316 -0.3288
 3476SOL    HW222062   3.863   2.907   7.094  0.1279  0.2556  1.7473
 3477SOL     OW22063   4.700   0.669  13.200 -0.0438  0.0459  0.6015
 3477SOL    HW122064   4.709   0.760  13.227 -0.5369 -0.2421  1.7253
 3477SOL    HW222065   0.015   0.633  13.273 -0.6073 -1.1479  0.4034
 3478SOL     OW22066   1.898   4.083  13.978 -0.4755 -0.1778 -0.1364
 3478SOL    HW122067   1.827   4.142  14.004 -2.2779 -2.0386 -0.8772
 3478SOL    HW222068   1.877   4.013  14.039  0.2507 -0.6182 -0.3979
 3479SOL     OW22069   3.986   1.997  10.138 -0.3826 -0.1529  0.2152
 3479SOL    HW122070   4.005   1.906  10.114 -1.0549  0.0429 -1.0325
 3479SOL    HW222071   4.062   2.013  10.193  0.2633 -0.2272 -0.6510
 3480SOL     OW22072   3.802   0.444  14.390  0.1874  0.5914  0.4457
 3480SOL    HW122073   3.884   0.492  14.400  0.9178 -0.0639 -2.4495
 3480SOL    HW222074   3.838   0.384  14.326 -2.5379  1.3303 -1.7756
 3481SOL     OW22075   2.398   0.365   7.676 -0.2225 -0.3373  0.3765
 3481SOL    HW122076   2.352   0.340   7.596 -1.6972  1.6332  0.6175
 3481SOL    HW222077   2.330   0.421   7.714  1.0369  2.6045 -1.6789
 3482SOL     OW22078   2.875   3.380  17.614 -0.0998 -0.4723 -0.1146
 3482SOL    HW122079   2.952   3.348  17.662 -0.0378 -1.1806 -0.6845
 3482SOL    HW222080   2.811   3.379  17.685  1.0555  1.1458  0.9387
 3483SOL     OW22081   1.327   0.173  13.573  0.4507 -0.1693  0.4139
 3483SOL    HW122082   1.295   0.253  13.617  0.6430 -1.4047  2.8081
 3483SOL    HW222083   1.331   0.123  13.654  2.9791 -0.9220 -0.1919
 3484SOL     OW22084   0.141   0.556   3.912 -0.1629 -0.0459 -0.6340
 3484SOL    HW122085   0.106   0.485   3.858 -2.6188  1.8068 -1.4694
 3484SOL    HW222086   0.229   0.569   3.877 -0.1578 -1.1150 -1.0246
 3485SOL     OW22087   0.234   3.753   4.274 -0.1691 -0.0815  0.0281
 3485SOL    HW122088   0.250   3.790   4.187  1.0230  0.7949  0.6207
 3485SOL    HW222089   0.142   3.732   4.260 -0.5524  1.2622  0.4622
 3486SOL     OW22090   4.695   1.591   3.360  0.5670  0.5941 -0.0761
 3486SOL    HW122091   4.693   1.673   3.408  0.0875  0.3506  0.3141
 3486SOL    HW222092   4.659   1.617   3.275 -0.3223 -0.1154  0.0838
 3487SOL     OW22093   1.135   0.759  14.384 -0.5764  0.1429 -0.1231
 3487SOL    HW122094   1.048   0.719  14.374 -0.0641 -0.2656 -2.9274
 3487SOL    HW222095   1.185   0.680  14.405 -0.6646  0.3779  0.9969
 3488SOL     OW22096   0.512   2.172   1.172 -0.1449 -0.3977  0.4313
 3488SOL    HW122097   0.518   2.084   1.136  2.1701 -1.1125  2.5934
 3488SOL    HW222098   0.526   2.220   1.091 -2.3463  1.0319  0.8971
 3489SOL     OW22099   4.544   1.665  13.040  0.1791 -0.0740  0.2654
 3489SOL    HW122100   4.638   1.659  13.025  0.0071  0.6458 -1.1057
 3489SOL    HW222101   4.520   1.590  13.095  0.4408 -0.7469 -0.5305
 3490SOL     OW22102   1.235   3.263   2.422  0.1202 -0.3162 -0.3365
 3490SOL    HW122103   1.248   3.257   2.328 -0.8636 -0.5664 -0.4599
 3490SOL    HW222104   1.285   3.188   2.454  1.8470  0.0808 -2.1348
 3491SOL     OW22105   1.170   4.527  16.027 -0.2502  0.5726 -0.2861
 3491SOL    HW122106   1.084   4.561  16.055 -0.3504 -2.0016  2.5039
 3491SOL    HW222107   1.179   4.571  15.942 -1.4125 -0.1044 -0.7618
 3492SOL     OW22108   4.186   0.558  14.633 -0.3218  0.0625 -0.2370
 3492SOL    HW122109   4.119   0.557  14.701 -0.3172  0.2776 -0.2267
 3492SOL    HW222110   4.259   0.521  14.683 -0.3223 -1.6104 -1.4987
 3493SOL     OW22111   3.042   1.479   5.671  0.0370  0.0280 -0.4035
 3493SOL    HW122112   2.973   1.540   5.646 -1.0466 -0.9198  0.2223
 3493SOL    HW222113   3.054   1.503   5.763  0.1055 -0.0039 -0.4043
 3494SOL     OW22114   2.112   0.178   3.817  0.0251  0.2987  0.1503
 3494SOL    HW122115   2.132   0.183   3.911 -0.1614 -3.3915  0.3875
 3494SOL    HW222116   2.149   0.260   3.784  3.3166 -1.0023  0.5565
 3495SOL     OW22117   4.230   3.488  10.323  0.4094 -0.0294 -0.4407
 3495SOL    HW122118   4.307   3.436  10.346  0.4894 -0.0330 -0.7227
 3495SOL    HW222119   4.246   3.507  10.231 -0.4564  2.7444 -0.0220
 3496SOL     OW22120   0.682   2.860   2.014 -0.5071 -0.8932  0.7440
 3496SOL    HW122121   0.685   2.891   2.104  0.2490 -0.1419  0.4582
 3496SOL    HW222122   0.611   2.910   1.973  3.5298  2.6241 -2.0331
 3497SOL     OW22123   3.765   2.196   5.414  0.2500  0.4407  0.4455
 3497SOL    HW122124   3.856   2.223   5.408  0.4989 -0.6096 -0.4446
 3497SOL    HW222125   3.774   2.101   5.426  0.3653  0.2240 -1.3573
 3498SOL     OW22126   1.732   3.316  12.109 -0.0105  0.2023 -0.1588
 3498SOL    HW122127   1.770   3.342  12.193 -1.1215 -1.8999  1.0092
 3498SOL    HW222128   1.771   3.379  12.048 -0.2539 -0.2341 -0.7692
 3499SOL     OW22129   4.483   0.662   4.088  0.6875 -0.2192  0.3816
 3499SOL    HW122130   4.557   0.721   4.100  0.4481  0.4703 -1.5696
 3499SOL    HW222131   4.421   0.689   4.157  1.0062 -1.6029  1.2108
 3500SOL     OW22132   0.162   0.311   7.644 -0.3332  0.3935 -0.4911
 3500SOL    HW122133   0.133   0.401   7.656  0.4219  0.5436  0.2257
 3500SOL    HW222134   0.240   0.298   7.699  1.1040 -0.4318 -2.7083
 3501SOL     OW22135   3.316   2.807   1.408 -0.2492  0.2461  0.1580
 3501SOL    HW122136   3.236   2.766   1.443 -0.5305  1.0042  0.3933
 3501SOL    HW222137   3.379   2.738   1.386  0.2050  0.7876 -0.2297
 3502SOL     OW22138   3.399   0.459   0.147 -0.2029 -0.2043  0.0153
 3502SOL    HW122139   3.484   0.432   0.181  0.1681 -1.3950 -1.8457
 3502SOL    HW222140   3.404   0.547   0.184  0.9100 -0.1054 -0.3664
 3503SOL     OW22141   2.742   3.830   1.879  0.1504 -0.3841 -0.5744
 3503SOL    HW122142   2.807   3.763   1.900  0.9248 -0.1139 -2.1321
 3503SOL    HW222143   2.683   3.819   1.953  0.7481  0.2031 -0.0198
 3504SOL     OW22144   2.893   3.693   0.038 -0.7326 -0.1212  0.0017
 3504SOL    HW122145   2.801   3.712   0.017 -0.6721 -0.2547 -0.3886
 3504SOL    HW222146   2.928   3.776   0.070  0.9662  0.3510 -3.1153
 3505SOL     OW22147   0.752   3.162   7.246  0.3970 -0.3114 -0.1322
 3505SOL    HW122148   0.780   3.252   7.266 -0.4834 -0.4728  1.7306
 3505SOL    HW222149   0.833   3.127   7.207  0.2746  2.1067 -2.5400
 3506SOL     OW22150   4.702   1.633   4.103  0.3272  0.4594  0.0139
 3506SOL    HW122151   4.635   1.614   4.037 -0.2883  0.1788  0.7156
 3506SOL    HW222152   0.014   1.707   4.066 -1.3311  1.8646  0.6899
 3507SOL     OW22153   4.710   1.227   9.163  0.3813  0.2915  0.3030
 3507SOL    HW122154   4.618   1.240   9.143  0.2774 -1.1794 -0.1455
 3507SOL    HW222155   4.709   1.132   9.157 -1.0012  0.2230  1.8009
 3508SOL     OW22156   3.222   2.242  16.708 -0.1760  0.0270  0.6498
 3508SOL    HW122157   3.286   2.182  16.747 -0.4515 -1.3829 -1.0743
 3508SOL    HW222158   3.194   2.287  16.787  0.1768  0.1254  0.7181
 3509SOL     OW22159   3.535   3.402   1.389  0.3358  0.6404  0.8357
 3509SOL    HW122160   3.527   3.310   1.363  0.3305  0.6677  0.7411
 3509SOL    HW222161   3.616   3.422   1.343  0.4950  1.1002  1.3085
 3510SOL     OW22162   2.473   3.080   7.980 -0.4383 -0.2275  1.0203
 3510SOL    HW122163   2.469   3.130   7.898  2.9013  1.3230  1.7617
 3510SOL    HW222164   2.559   3.114   8.004 -0.3091  1.3225 -1.6112
 3511SOL     OW22165   2.965   2.299   2.339 -0.3016  0.0437 -0.1519
 3511SOL    HW122166   2.996   2.331   2.424 -1.5158 -2.1178  1.1091
 3511SOL    HW222167   3.007   2.215   2.321 -2.7634 -0.7256 -2.2268
 3512SOL     OW22168   2.541   1.494   8.783  0.0198 -0.0408 -0.6417
 3512SOL    HW122169   2.567   1.585   8.773 -1.3802  0.5349  0.9892
 3512SOL    HW222170   2.448   1.504   8.803  0.3097  0.8285  0.2510
 3513SOL     OW22171   1.974   0.160   2.287  0.1796 -0.0708  0.0433
 3513SOL    HW122172   2.003   0.098   2.354  0.0718 -0.2068 -0.0348
 3513SOL    HW222173   1.914   0.208   2.343  0.9186  2.2809 -1.1687
 3514SOL     OW22174   0.901   2.088   7.563 -0.0594 -0.2003  0.0690
 3514SOL    HW122175   0.944   2.173   7.573  1.3279 -0.9315  0.3152
 3514SOL    HW222176   0.808   2.111   7.565 -0.2709 -1.1366  1.1442
 3515SOL     OW22177   3.243   3.909   9.383  0.4180  0.4295 -0.1111
 3515SOL    HW122178   3.183   3.846   9.424  0.7043 -0.5929 -1.2554
 3515SOL    HW222179   3.332   3.878   9.396  0.2875  0.9480  1.9715
 3516SOL     OW22180   1.344   4.322   5.159  0.1699  0.0599 -0.3468
 3516SOL    HW122181   1.304   4.394   5.207 -0.3085 -0.7047  0.4024
 3516SOL    HW222182   1.273   4.257   5.162  0.3290 -0.0676  0.4958
 3517SOL     OW22183   2.535   3.289   6.715  0.4428 -0.1481  0.2280
 3517SOL    HW122184   2.553   3.349   6.642  0.5648 -1.3173 -0.6955
 3517SOL    HW222185   2.478   3.338   6.774 -1.5117 -1.3195 -0.7096
 3518SOL     OW22186   3.505   1.799  14.738 -0.0859 -0.0468  0.0932
 3518SOL    HW122187   3.440   1.858  14.700  0.9867  1.0738  0.0066
 3518SOL    HW222188   3.465   1.796  14.825  2.0724  0.5089  1.1191
 3519SOL     OW22189   0.890   0.663   4.566 -0.4891  0.3211  0.5675
 3519SOL    HW122190   0.864   0.581   4.523 -2.3511  0.4979  1.3141
 3519SOL    HW222191   0.961   0.694   4.511  0.2131  1.4051  2.0748
 3520SOL     OW22192   1.159   3.050  10.806  0.0177  0.3331 -0.0786
 3520SOL    HW122193   1.146   3.136  10.766 -0.5413 -0.1828 -1.0033
 3520SOL    HW222194   1.243   3.032  10.764 -1.0521 -2.6553 -0.9287
 3521SOL     OW22195   2.802   0.263   5.718  0.4708 -0.0656  0.2650
 3521SOL    HW122196   2.812   0.178   5.677 -1.6694 -1.6552  3.0251
 3521SOL    HW222197   2.847   0.244   5.800 -1.4770  0.5863  1.4830
 3522SOL     OW22198   3.289   4.471  13.096 -0.1572  0.2366 -0.1350
 3522SOL    HW122199   3.332   4.556  13.101  1.5744 -0.7440  1.2787
 3522SOL    HW222200   3.313   4.441  13.008  1.1987  1.9802 -0.3741
 3523SOL     OW22201   4.331   0.426   0.615 -0.3968 -0.1132  0.3476
 3523SOL    HW122202   4.360   0.475   0.692  1.6998  1.0775 -1.1998
 3523SOL    HW222203   4.300   0.340   0.645 -1.4703  0.2063  0.1648
 3524SOL     OW22204   1.423   3.301   0.130 -0.0083  0.3526  0.4443
 3524SOL    HW122205   1.330   3.285   0.149 -0.3016 -0.0627 -1.3423
 3524SOL    HW222206   1.460   3.305   0.218  2.5167 -1.9963 -0.5298
 3525SOL     OW22207   1.194   3.260   2.093 -0.1587 -0.2429  0.3812
 3525SOL    HW122208   1.135   3.187   2.075  0.2829 -0.1937 -1.3189
 3525SOL    HW222209   1.279   3.220   2.109  0.1872  0.4436  0.2499
 3526SOL     OW22210   0.836   3.031   7.865 -0.3526 -0.6410 -0.0564
 3526SOL    HW122211   0.745   3.046   7.890  0.0754  1.2631  0.3280
 3526SOL    HW222212   0.880   3.105   7.905  0.2736 -0.4758 -1.0488
 3527SOL     OW22213   0.665   3.533   4.886 -0.9998  0.1236 -1.0949
 3527SOL    HW122214   0.678   3.621   4.922 -1.0584 -1.4399  2.6853
 3527SOL    HW222215   0.589   3.498   4.932  1.1001 -0.2272  2.1024
 3528SOL     OW22216   0.281   0.749  13.164  0.4327 -0.3497  0.4569
 3528SOL    HW122217   0.374   0.744  13.188  0.9364  0.5158 -1.2584
 3528SOL    HW222218   0.270   0.844  13.163  0.2080 -0.3845 -0.2239
 3529SOL     OW22219   4.635   2.155   8.741  0.5281  0.1273  0.0586
 3529SOL    HW122220   4.633   2.241   8.784  0.6907  0.1639 -0.0059
 3529SOL    HW222221   4.701   2.173   8.673 -0.5332 -1.5508 -1.4040
 3530SOL     OW22222   3.092   3.950  11.287 -0.0939  0.3227 -0.2423
 3530SOL    HW122223   3.055   3.967  11.373  0.7278 -0.1228  0.2060
 3530SOL    HW222224   3.145   4.028  11.266 -0.1687  0.3949 -0.1582
 3531SOL     OW22225   0.258   2.738  15.810  0.3905 -0.1064  0.0674
 3531SOL    HW122226   0.346   2.763  15.781  0.7355  0.4615  1.6255
 3531SOL    HW222227   0.246   2.809  15.873  1.1665  1.4192 -1.5033
 3532SOL     OW22228   0.324   0.531   8.366  0.2839 -0.0999  0.1100
 3532SOL    HW122229   0.250   0.489   8.323  1.5415  1.2575 -3.3938
 3532SOL    HW222230   0.331   0.610   8.312 -1.2359  0.2685  0.4612
 3533SOL     OW22231   3.001   3.768  15.134 -0.5573  0.3229 -0.8809
 3533SOL    HW122232   3.079   3.822  15.126 -0.2100 -0.3105 -1.7414
 3533SOL    HW222233   3.024   3.687  15.179 -1.1618  1.1920  0.9743
 3534SOL     OW22234   2.399   0.679  11.944  0.1442  0.3542  0.0411
 3534SOL    HW122235   2.388   0.651  11.853  1.2287  1.0914 -0.3292
 3534SOL    HW222236   2.315   0.662  11.985 -0.0346 -1.0938 -0.9337
 3535SOL     OW22237   3.000   3.220  14.871 -0.5643 -0.2174  0.0490
 3535SOL    HW122238   2.993   3.132  14.833  0.9906 -1.5358  2.7760
 3535SOL    HW222239   3.094   3.235  14.872 -1.2328  3.7905  0.6315
 3536SOL     OW22240   0.584   4.121   8.106 -0.3354  0.2363 -0.1802
 3536SOL    HW122241   0.489   4.131   8.116 -0.4540 -0.1437 -0.9334
 3536SOL    HW222242   0.614   4.116   8.197 -0.7451 -0.1635 -0.0710
 3537SOL     OW22243   3.264   0.062   8.695 -0.5041 -0.2901  0.0297
 3537SOL    HW122244   3.244   0.142   8.742 -0.8801 -1.6680  2.1918
 3537SOL    HW222245   3.272   0.090   8.603  0.4845 -1.1540 -0.1551
 3538SOL     OW22246   4.348   3.415   3.510  0.2799 -0.0433 -0.1980
 3538SOL    HW122247   4.340   3.511   3.504 -0.5108 -0.1365 -0.6566
 3538SOL    HW222248   4.275   3.398   3.569  0.8978  0.1593  0.6239
 3539SOL     OW22249   4.144   3.648  16.055 -0.1416 -0.1312  0.6239
 3539SOL    HW122250   4.175   3.693  15.977  0.1728  0.2897  0.9937
 3539SOL    HW222251   4.093   3.574  16.021 -1.7618  1.2761  0.0020
 3540SOL     OW22252   2.718   4.200   4.951 -0.2803  0.3465 -0.6368
 3540SOL    HW122253   2.741   4.140   5.023 -0.4752 -1.2703 -1.9129
 3540SOL    HW222254   2.654   4.158   4.893  0.3708  0.0763 -1.1626
 3541SOL     OW22255   0.342   2.186   7.814 -0.5384 -0.1355 -1.1091
 3541SOL    HW122256   0.361   2.258   7.755 -3.7572  2.1308  0.6474
 3541SOL    HW222257   0.349   2.226   7.901  1.4753  2.3141 -2.4074
 3542SOL     OW22258   2.812   4.110   8.505  0.0610  0.3859 -0.1808
 3542SOL    HW122259   2.847   4.067   8.427  3.3315  1.8762  0.4366
 3542SOL    HW222260   2.856   4.056   8.571  2.1263  1.1022 -0.9832
 3543SOL     OW22261   2.339   0.736   0.506  0.1758 -0.2121 -0.3450
 3543SOL    HW122262   2.385   0.704   0.584 -0.9612 -1.7333 -0.2945
 3543SOL    HW222263   2.374   0.824   0.495 -2.4972  0.8983  0.2007
 3544SOL     OW22264   4.531   2.532  14.617 -0.2278  0.1051  0.0367
 3544SOL    HW122265   4.581   2.474  14.560 -3.6541 -3.2349  0.4431
 3544SOL    HW222266   4.448   2.483  14.620 -1.8010  2.9079  1.7875
 3545SOL     OW22267   3.467   1.087  16.469  0.0237  0.1019  0.5494
 3545SOL    HW122268   3.491   0.995  16.476 -1.0955 -0.3656 -1.9621
 3545SOL    HW222269   3.554   1.127  16.456 -0.3799  0.9254  0.3609
 3546SOL     OW22270   0.360   2.905  13.973 -0.0275  0.3931  0.0456
 3546SOL    HW122271   0.447   2.940  13.953 -0.0810  1.5034  1.7595
 3546SOL    HW222272   0.391   2.846  14.041  2.9468  2.7841  0.7735
 3547SOL     OW22273   1.689   4.441   9.422 -0.3851 -0.4343  0.1425
 3547SOL    HW122274   1.784   4.441   9.409 -0.2945 -2.9261  0.6528
 3547SOL    HW222275   1.681   4.348   9.443 -0.0438 -0.4899  0.0347
 3548SOL     OW22276   2.582   4.575   8.098  0.2250  0.2336 -0.1766
 3548SOL    HW122277   2.591   4.670   8.102 -2.3936  0.5234 -0.5706
 3548SOL    HW222278   2.543   4.554   8.183 -0.3405 -2.5970 -1.1348
 3549SOL     OW22279   1.982   4.227   2.528 -0.0394  0.3279 -0.3951
 3549SOL    HW122280   2.010   4.135   2.520  1.5827  0.9606 -2.1199
 3549SOL    HW222281   1.896   4.217   2.487 -0.7377  1.6916  0.7662
 3550SOL     OW22282   3.945   4.303   7.711 -0.0962  0.0551  0.3300
 3550SOL    HW122283   3.949   4.269   7.621 -0.5326  0.2203  0.2489
 3550SOL    HW222284   3.919   4.395   7.702 -1.0881 -0.1359  1.2532
 3551SOL     OW22285   3.451   2.727   7.509  0.3033  0.3464  0.3815
 3551SOL    HW122286   3.502   2.654   7.473  0.2294 -0.0914  1.1530
 3551SOL    HW222287   3.524   2.776   7.546 -0.6759  1.0519  1.3826
 3552SOL     OW22288   0.124   2.994  12.620 -0.1851  0.5333  0.0450
 3552SOL    HW122289   0.181   2.919  12.634  0.9153  1.7493  2.0122
 3552SOL    HW222290   0.143   3.017  12.529  0.9494 -0.5133  0.0318
 3553SOL     OW22291   0.460   0.207   5.987  0.0657 -0.0714  0.1803
 3553SOL    HW122292   0.498   0.293   5.974 -0.3196 -0.0826 -1.0160
 3553SOL    HW222293   0.385   0.200   5.927  0.0074 -1.3697  0.3886
 3554SOL     OW22294   0.312   0.913  12.758  0.0360 -0.2293  0.4595
 3554SOL    HW122295   0.351   0.826  12.762 -0.3251 -0.4270 -0.4233
 3554SOL    HW222296   0.261   0.904  12.678  1.8353 -2.8668 -0.4017
 3555SOL     OW22297   1.843   1.031  10.291 -0.9480  0.5230  0.4040
 3555SOL    HW122298   1.793   0.955  10.321 -1.9299  0.6607 -0.8976
 3555SOL    HW222299   1.807   1.104  10.342 -2.5190  0.3677 -0.4918
 3556SOL     OW22300   1.292   0.793   6.159 -0.1007  0.1531 -0.0830
 3556SOL    HW122301   1.325   0.713   6.201  0.6474  0.4872 -0.0395
 3556SOL    HW222302   1.233   0.834   6.222 -2.4692 -0.9075 -1.6203
 3557SOL     OW22303   1.214   0.487  14.655  0.1954  0.3027  0.0046
 3557SOL    HW122304   1.253   0.574  14.641 -0.8647  1.2472  2.8781
 3557SOL    HW222305   1.221   0.487  14.751  0.9458 -0.5761 -0.0584
 3558SOL     OW22306   1.650   0.096  10.094 -0.0266 -0.4658  0.1536
 3558SOL    HW122307   1.694   0.089  10.009 -0.1563 -0.2872  0.0725
 3558SOL    HW222308   1.572   0.145  10.069  1.2771  1.7170  0.4449
 3559SOL     OW22309   0.463   1.092  15.666 -0.0250  0.3348 -0.4390
 3559SOL    HW122310   0.409   1.050  15.599  1.3682 -1.3901 -0.4883
 3559SOL    HW222311   0.454   1.181  15.632  1.5655  0.7887  0.3317
 3560SOL     OW22312   1.203   4.642  10.945 -0.0484 -0.3868  0.0331
 3560SOL    HW122313   1.157   4.639  10.861 -1.2599 -1.1200  0.7378
 3560SOL    HW222314   1.239   4.554  10.942  0.9921  0.0259  0.2452
 3561SOL     OW22315   4.398   2.642   0.784  0.0835  0.1255  0.1639
 3561SOL    HW122316   4.310   2.678   0.796 -0.0949 -0.2083 -0.1149
 3561SOL    HW222317   4.438   2.661   0.869 -0.4298  0.2914  0.3655
 3562SOL     OW22318   2.204   1.460   2.526  0.1031 -0.2054 -0.2728
 3562SOL    HW122319   2.245   1.531   2.575 -1.6130 -0.3999  1.4242
 3562SOL    HW222320   2.253   1.380   2.542 -2.3573 -1.9639 -1.5365
 3563SOL     OW22321   3.994   1.492  13.233  0.2910 -0.1289 -0.0001
 3563SOL    HW122322   4.076   1.520  13.272  0.3565 -0.3273  0.0036
 3563SOL    HW222323   3.945   1.490  13.315  1.3520  1.1230  0.6455
 3564SOL     OW22324   0.105   2.349  10.827  0.7415  0.4368 -0.0107
 3564SOL    HW122325   0.151   2.397  10.896  0.4500 -0.1668  0.6061
 3564SOL    HW222326   0.015   2.380  10.839  1.2117  2.1982 -1.0429
 3565SOL     OW22327   4.091   3.984   4.985 -0.2986  0.0240 -1.0716
 3565SOL    HW122328   4.113   3.899   5.022 -4.0523 -0.1550  0.7646
 3565SOL    HW222329   4.025   4.008   5.050 -0.0557  1.1354 -1.2358
 3566SOL     OW22330   1.944   3.249   0.912 -0.3067 -0.7642  0.2935
 3566SOL    HW122331   1.864   3.297   0.890  0.1639 -0.7966 -1.5483
 3566SOL    HW222332   2.007   3.319   0.933  0.5947 -1.5384  0.1928
 3567SOL     OW22333   4.361   3.991   8.329  0.7668  0.2213  0.4292
 3567SOL    HW122334   4.344   4.081   8.355  1.5130  0.6249 -0.4340
 3567SOL    HW222335   4.291   3.979   8.264 -0.6122 -1.3653  2.2269
 3568SOL     OW22336   0.561   2.431   2.218 -0.1926 -0.4088 -0.1743
 3568SOL    HW122337   0.589   2.514   2.178 -0.1780 -0.2891  0.0905
 3568SOL    HW222338   0.478   2.411   2.175 -1.1879  1.9496  0.6579
 3569SOL     OW22339   1.599   3.830   5.074  0.6245  0.2026 -0.6416
 3569SOL    HW122340   1.651   3.752   5.056 -0.7658 -1.2338  1.5508
 3569SOL    HW222341   1.513   3.789   5.086  1.0253 -0.1586  0.9333
 3570SOL     OW22342   4.318   0.979   7.617  0.2922 -0.2510  0.7127
 3570SOL    HW122343   4.305   1.046   7.684 -1.9910 -0.2480  0.2839
 3570SOL    HW222344   4.254   0.911   7.641  2.0799 -1.6774  1.4381
 3571SOL     OW22345   2.237   2.367  16.079  0.1825  0.0544  0.1781
 3571SOL    HW122346   2.216   2.276  16.103 -0.2753 -0.0735 -0.6850
 3571SOL    HW222347   2.295   2.395  16.149 -1.0846 -2.9827  2.4697
 3572SOL     OW22348   1.731   3.621  10.168  0.2713 -0.2610  0.0501
 3572SOL    HW122349   1.641   3.625  10.199 -0.7022 -1.1136 -2.6734
 3572SOL    HW222350   1.785   3.611  10.247 -1.1303 -1.4126  0.8544
 3573SOL     OW22351   2.260   4.516  15.972  0.6717  0.5181  0.3590
 3573SOL    HW122352   2.236   4.485  16.060 -1.9701 -2.0471 -1.2654
 3573SOL    HW222353   2.315   4.592  15.992  0.9329  0.7140 -1.1362
 3574SOL     OW22354   4.583   2.136   4.635  0.3418  0.0491  0.4260
 3574SOL    HW122355   4.524   2.083   4.689  0.3314 -1.2496 -0.8451
 3574SOL    HW222356   4.651   2.070   4.621  0.9507  1.2291 -2.1808
 3575SOL     OW22357   1.695   2.398   8.163  0.3276 -0.1667  0.7986
 3575SOL    HW122358   1.733   2.318   8.128  0.4952  1.0244 -1.7575
 3575SOL    HW222359   1.726   2.458   8.094 -0.3752 -1.7016 -0.8569
 3576SOL     OW22360   0.610   4.159   3.692 -0.0170  0.1475  0.2840
 3576SOL    HW122361   0.519   4.134   3.675 -0.7173  1.7503  1.6729
 3576SOL    HW222362   0.640   4.084   3.744  0.7588 -0.9259 -1.7294
 3577SOL     OW22363   3.349   0.053  11.228  0.5074  0.7625 -0.1673
 3577SOL    HW122364   3.439   0.042  11.261 -0.3957 -2.6019  1.1700
 3577SOL    HW222365   3.365   0.056  11.134  0.6054 -0.0156 -0.1739
 3578SOL     OW22366   4.296   2.018  13.964  0.4659 -0.2649 -0.4309
 3578SOL    HW122367   4.255   2.097  13.928  0.6467 -0.4521 -1.0570
 3578SOL    HW222368   4.382   2.060  13.969  0.5889 -0.5145 -0.4727
 3579SOL     OW22369   2.033   2.987   9.416 -0.3754 -0.9014 -0.3058
 3579SOL    HW122370   2.126   2.990   9.391 -0.2007 -1.0237  0.3148
 3579SOL    HW222371   2.029   2.898   9.452  0.5480 -0.8199 -0.0016
 3580SOL     OW22372   3.162   1.516   2.321 -0.1559  0.1462 -0.5127
 3580SOL    HW122373   3.144   1.550   2.234  1.4755 -1.4660 -1.4815
 3580SOL    HW222374   3.169   1.597   2.372  0.3297 -0.5636  0.5548
 3581SOL     OW22375   2.759   1.327   8.846 -0.2292 -0.3365 -0.0423
 3581SOL    HW122376   2.706   1.390   8.798  0.4575 -0.3375 -0.7896
 3581SOL    HW222377   2.709   1.320   8.928  2.6842  1.0316  1.8469
 3582SOL     OW22378   3.803   2.566   4.528 -0.3181  0.3639 -0.9278
 3582SOL    HW122379   3.718   2.596   4.497 -0.2452  0.4633 -1.0282
 3582SOL    HW222380   3.859   2.638   4.501 -2.0582  2.5279  1.2256
 3583SOL     OW22381   4.487   1.310   5.595 -0.0622  0.0053  0.1095
 3583SOL    HW122382   4.487   1.215   5.596 -0.4312  0.0035 -0.7009
 3583SOL    HW222383   4.571   1.344   5.563 -0.8273  0.2549 -1.6515
 3584SOL     OW22384   1.193   0.278   2.072 -0.1574 -0.2505 -0.6778
 3584SOL    HW122385   1.130   0.223   2.023 -0.3747 -0.3587 -0.2764
 3584SOL    HW222386   1.267   0.220   2.089  1.6990  1.9746 -1.2149
 3585SOL     OW22387   3.003   3.904   0.242  0.6263  0.1635 -0.0058
 3585SOL    HW122388   3.081   3.924   0.190  0.9364 -1.3663 -0.1369
 3585SOL    HW222389   2.965   3.991   0.256 -0.5059 -0.0243 -1.8644
 3586SOL     OW22390   3.596   1.651  12.826 -0.2253 -1.1373 -0.6498
 3586SOL    HW122391   3.602   1.618  12.915 -1.8955 -0.5620 -0.3453
 3586SOL    HW222392   3.584   1.745  12.840  1.8968 -1.0636  0.6856
 3587SOL     OW22393   2.636   2.773  13.577  0.0284  0.5220  0.1618
 3587SOL    HW122394   2.721   2.731  13.563 -1.1374 -1.6136 -0.6860
 3587SOL    HW222395   2.606   2.805  13.492 -0.3301  2.1400  0.9017
 3588SOL     OW22396   1.246   0.298   6.252 -0.0877  0.3960 -0.0016
 3588SOL    HW122397   1.330   0.299   6.208  0.6435  0.6022  1.4038
 3588SOL    HW222398   1.246   0.215   6.300  0.4828  0.2699 -0.2232
 3589SOL     OW22399   0.910   4.414   8.155 -0.3359  0.2189 -0.2986
 3589SOL    HW122400   0.957   4.331   8.144 -0.2398  0.1261  0.8373
 3589SOL    HW222401   0.938   4.428   8.246  1.3166 -1.9009 -0.4788
 3590SOL     OW22402   1.643   0.968   3.067 -0.3980  0.1233  0.0109
 3590SOL    HW122403   1.574   0.919   3.022  0.2909  0.4121 -1.3659
 3590SOL    HW222404   1.700   0.904   3.109  0.3059  2.2085  2.2305
 3591SOL     OW22405   3.704   3.298  17.121 -0.1126 -0.0219  0.8553
 3591SOL    HW122406   3.633   3.351  17.084 -0.4306 -0.5138  0.7644
 3591SOL    HW222407   3.734   3.244  17.048  0.7958 -0.3378  1.4710
 3592SOL     OW22408   1.097   3.991  10.863  0.0675 -0.3084 -0.4209
 3592SOL    HW122409   1.017   4.029  10.827  1.7280  2.5045 -1.1894
 3592SOL    HW222410   1.144   3.997  10.780  0.0120 -1.7472 -0.5498
 3593SOL     OW22411   2.226   1.817   7.063 -0.0097 -0.0265 -0.5099
 3593SOL    HW122412   2.224   1.889   7.000 -0.2707  1.8529  1.6471
 3593SOL    HW222413   2.311   1.779   7.039  1.1530  1.3202  1.5076
 3594SOL     OW22414   2.960   3.661   7.163  0.2424 -0.0783  0.1149
 3594SOL    HW122415   2.867   3.642   7.178  0.0556 -1.2741 -2.5426
 3594SOL    HW222416   2.986   3.666   7.255  0.4708  0.1516  0.0384
 3595SOL     OW22417   3.437   2.738   6.332  0.3013  0.2910  0.4824
 3595SOL    HW122418   3.435   2.661   6.388  0.1085  0.7780  1.1474
 3595SOL    HW222419   3.425   2.804   6.401 -2.8451 -0.0400  0.2277
 3596SOL     OW22420   0.231   2.933  13.731 -0.3046 -0.0303 -0.0244
 3596SOL    HW122421   0.273   3.013  13.698 -0.5715  0.5997  1.1458
 3596SOL    HW222422   0.267   2.914  13.817  0.7926 -0.5885 -0.6212
 3597SOL     OW22423   0.051   0.089   5.872 -0.3781  0.1052  0.3907
 3597SOL    HW122424   0.101   0.109   5.793 -1.2059  0.1188 -0.1238
 3597SOL    HW222425   0.116   0.054   5.933  0.8666  0.9108 -0.4725
 3598SOL     OW22426   4.610   0.415   2.375 -0.2974 -0.7418  0.3092
 3598SOL    HW122427   4.602   0.370   2.459 -0.8226  1.1885  1.2883
 3598SOL    HW222428   4.687   0.369   2.340  1.5705  0.9176  2.2209
 3599SOL     OW22429   4.235   2.525  12.917 -0.0112 -0.5399  0.3085
 3599SOL    HW122430   4.310   2.474  12.886 -0.1141  0.1937 -1.1615
 3599SOL    HW222431   4.248   2.604  12.864  0.7812 -0.1394  1.1016
 3600SOL     OW22432   4.620   3.411   6.291  0.2873 -0.2643  0.7276
 3600SOL    HW122433   4.531   3.384   6.314 -0.6114  0.4790 -1.8757
 3600SOL    HW222434   4.637   3.326   6.251  1.3763  0.2327  0.1387
 3601SOL     OW22435   2.623   0.316   0.608  0.4537  0.1469 -0.3745
 3601SOL    HW122436   2.689   0.252   0.580  1.9686  1.2037  0.7346
 3601SOL    HW222437   2.539   0.275   0.588  0.6655 -0.1133 -0.7428
 3602SOL     OW22438   1.785   4.058   1.446  0.0134 -0.5647  0.2518
 3602SOL    HW122439   1.854   4.092   1.388  0.5636 -0.2347  1.0931
 3602SOL    HW222440   1.828   3.988   1.495  0.5428 -0.4571 -0.0530
 3603SOL     OW22441   1.062   4.474   2.354 -0.5138  0.2016  0.2541
 3603SOL    HW122442   1.065   4.380   2.372  1.5478  0.5110  1.5335
 3603SOL    HW222443   0.983   4.483   2.301 -0.7552  0.5507  0.6747
 3604SOL     OW22444   3.383   0.703   0.299  0.3476 -0.5270 -0.3187
 3604SOL    HW122445   3.443   0.739   0.234  0.7204 -0.4903  0.0486
 3604SOL    HW222446   3.303   0.751   0.280 -1.1368 -2.0169  2.0727
 3605SOL     OW22447   0.631   0.683  13.008 -0.1387 -0.1824 -0.4256
 3605SOL    HW122448   0.610   0.719  13.094  0.3622 -0.3481 -0.2312
 3605SOL    HW222449   0.607   0.755  12.949  0.7599  2.3070  2.2625
 3606SOL     OW22450   2.583   2.935   3.179 -0.0181  0.0808  0.1383
 3606SOL    HW122451   2.535   2.984   3.112 -1.4748 -0.8797  0.4583
 3606SOL    HW222452   2.663   2.987   3.177 -0.9159  1.4082 -1.0876
 3607SOL     OW22453   2.166   1.783  10.046 -0.1107  0.4125 -0.7692
 3607SOL    HW122454   2.142   1.800   9.955  0.2498 -1.8035 -1.2649
 3607SOL    HW222455   2.250   1.829  10.049  0.7251 -1.0800 -1.2543
 3608SOL     OW22456   1.735   3.663   3.076  0.1847  0.2213 -0.2925
 3608SOL    HW122457   1.767   3.717   3.004 -0.0489 -0.4346 -0.8958
 3608SOL    HW222458   1.643   3.689   3.080 -0.1774 -1.5547  3.1743
 3609SOL     OW22459   0.723   1.944   4.908 -0.0102 -0.0837  0.1064
 3609SOL    HW122460   0.768   2.001   4.971  0.1685 -0.9947  0.8025
 3609SOL    HW222461   0.663   2.002   4.862 -1.3877 -1.9761 -0.4803
 3610SOL     OW22462   3.441   0.829   0.911  0.0583 -0.1928  0.8890
 3610SOL    HW122463   3.412   0.897   0.972  0.9679 -0.7894  1.9721
 3610SOL    HW222464   3.510   0.882   0.870  1.0302 -2.2375 -0.0810
 3611SOL     OW22465   3.581   1.429  11.636  0.3153 -0.5356  0.0546
 3611SOL    HW122466   3.653   1.413  11.574  1.2700  2.1175  0.4719
 3611SOL    HW222467   3.615   1.407  11.722  1.9553 -0.6938 -0.6326
 3612SOL     OW22468   0.158   4.104  14.814 -0.2937 -0.2866  0.4071
 3612SOL    HW122469   0.174   4.022  14.767 -0.2846 -0.5012  0.7853
 3612SOL    HW222470   0.179   4.169  14.747 -1.5262 -1.2798 -0.9481
 3613SOL     OW22471   0.610   2.942   9.551 -0.0261 -0.4032 -0.5762
 3613SOL    HW122472   0.687   2.942   9.494 -0.5176  0.9517 -1.2339
 3613SOL    HW222473   0.652   2.896   9.624 -1.3151 -0.0043  0.4248
 3614SOL     OW22474   3.924   1.710   3.807  0.2586  0.1570  0.1269
 3614SOL    HW122475   3.833   1.717   3.780  0.1422 -1.1323  0.2196
 3614SOL    HW222476   3.970   1.771   3.748  1.7552  0.7124  1.8480
 3615SOL     OW22477   4.260   3.474   1.520  0.5272 -0.1151  0.0818
 3615SOL    HW122478   4.317   3.469   1.443  1.6350  0.4516  0.8721
 3615SOL    HW222479   4.261   3.566   1.546 -0.6094 -0.2458  0.5548
 3616SOL     OW22480   0.151   0.124   6.250  0.4482 -0.1780 -0.8461
 3616SOL    HW122481   0.065   0.138   6.209 -0.3038 -1.1001  0.4084
 3616SOL    HW222482   0.194   0.060   6.195 -0.9143 -0.6099 -1.4098
 3617SOL     OW22483   1.114   0.842   0.503  0.3545  0.3947  0.6409
 3617SOL    HW122484   1.198   0.875   0.471 -0.1256  1.6580  0.6794
 3617SOL    HW222485   1.058   0.916   0.527 -1.0164 -1.0882  2.0308
 3618SOL     OW22486   4.608   1.740   6.882  0.2490 -0.3754 -0.0081
 3618SOL    HW122487   4.586   1.804   6.949  0.7132 -0.2422  0.0148
 3618SOL    HW222488   4.615   1.796   6.805  0.4429  0.2970  0.5042
 3619SOL     OW22489   2.006   2.596   0.966  0.3528 -0.0057  0.0703
 3619SOL    HW122490   2.050   2.591   1.050  0.0797  4.3869  0.4729
 3619SOL    HW222491   1.996   2.505   0.938  0.5552  0.5297 -1.7419
 3620SOL     OW22492   2.592   0.899   0.521  0.7885 -0.8232 -0.6680
 3620SOL    HW122493   2.686   0.903   0.538  0.8617 -1.9036 -0.8757
 3620SOL    HW222494   2.576   0.972   0.461  0.5336 -0.4673 -0.1703
 3621SOL     OW22495   2.142   4.385  16.945  0.3446  0.1537 -0.1435
 3621SOL    HW122496   2.172   4.365  16.856 -1.9621 -1.3403 -0.5895
 3621SOL    HW222497   2.191   4.466  16.953 -2.8504  1.9103  1.6579
 3622SOL     OW22498   1.962   1.635   4.558 -0.5194  0.0648  0.0828
 3622SOL    HW122499   2.027   1.596   4.616 -1.9252 -1.2616  0.7654
 3622SOL    HW222500   1.925   1.562   4.509  1.4775 -1.6875  1.2039
 3623SOL     OW22501   1.366   2.336   2.532  0.2596 -0.4385 -0.0341
 3623SOL    HW122502   1.443   2.338   2.475  0.0963 -1.0895 -0.2732
 3623SOL    HW222503   1.340   2.428   2.527  0.0103 -0.3936  2.0940
 3624SOL     OW22504   3.150   4.193  10.927 -0.5726  0.5097  0.0901
 3624SOL    HW122505   3.211   4.124  10.901 -2.8943 -0.9132 -1.4904
 3624SOL    HW222506   3.088   4.175  10.857  0.1914  0.4812 -0.5820
 3625SOL     OW22507   3.929   3.486   8.017  0.1028  0.6918  0.2131
 3625SOL    HW122508   3.967   3.439   8.091  1.2375 -2.4430 -2.3464
 3625SOL    HW222509   3.836   3.483   8.039 -0.1377  1.1494 -0.7280
 3626SOL     OW22510   2.121   3.302  12.765 -0.3243 -0.1021 -0.2573
 3626SOL    HW122511   2.042   3.278  12.813  1.8532 -1.1225  2.8086
 3626SOL    HW222512   2.149   3.212  12.748  0.5151  0.5524 -2.3049
 3627SOL     OW22513   2.239   3.227  10.605 -0.0999 -0.2771 -0.2822
 3627SOL    HW122514   2.329   3.249  10.630  0.2372  1.0489 -2.7015
 3627SOL    HW222515   2.186   3.267  10.675 -0.1040  0.3265 -0.6316
 3628SOL     OW22516   0.300   0.336   3.452 -0.5752  0.1816 -0.2793
 3628SOL    HW122517   0.366   0.338   3.521  1.3853 -2.2596 -2.0724
 3628SOL    HW222518   0.241   0.409   3.475 -0.4665  0.2016 -0.0657
 3629SOL     OW22519   3.454   3.140  15.038 -0.0515  0.4441  0.5454
 3629SOL    HW122520   3.406   3.080  15.096 -1.6179  1.2247  0.0527
 3629SOL    HW222521   3.537   3.096  15.022 -0.9841 -1.1403  0.0756
 3630SOL     OW22522   0.696   1.087   8.224  0.1086 -0.2148 -0.3974
 3630SOL    HW122523   0.788   1.111   8.225 -0.0842  0.5487 -0.6982
 3630SOL    HW222524   0.649   1.121   8.300 -0.1000  0.0958 -0.6623
 3631SOL     OW22525   2.746   2.850   6.836  0.2788  0.0996 -0.0806
 3631SOL    HW122526   2.753   2.913   6.908 -1.9034 -0.8799  1.0001
 3631SOL    HW222527   2.706   2.890   6.759  1.7250  1.0742 -0.3360
 3632SOL     OW22528   0.541   4.234   4.229  0.0003  0.0876 -0.1641
 3632SOL    HW122529   0.527   4.241   4.323  0.6783  0.2868 -0.0737
 3632SOL    HW222530   0.531   4.140   4.218 -1.3701  0.5097 -2.5106
 3633SOL     OW22531   1.429   1.493   9.811 -0.0323 -0.3981 -0.1262
 3633SOL    HW122532   1.387   1.440   9.878 -1.0230  0.3259 -0.1790
 3633SOL    HW222533   1.429   1.439   9.733 -3.8389 -0.1640 -0.2835
 3634SOL     OW22534   1.514   0.252   5.726  0.1322  0.1773  0.0988
 3634SOL    HW122535   1.467   0.216   5.801 -1.9649  0.6649 -0.9710
 3634SOL    HW222536   1.577   0.300   5.780 -0.9679  0.0579  1.4862
 3635SOL     OW22537   0.308   0.474   1.517 -0.0325  0.9087  0.1823
 3635SOL    HW122538   0.224   0.429   1.533  0.2100  0.6973  0.8473
 3635SOL    HW222539   0.351   0.435   1.593 -0.5847  0.2260  0.1497
 3636SOL     OW22540   0.830   3.879  11.375  0.6017  0.2687  0.2861
 3636SOL    HW122541   0.757   3.940  11.387  1.0627  0.9177 -0.2862
 3636SOL    HW222542   0.853   3.902  11.285  0.0884  0.9582  0.3343
 3637SOL     OW22543   4.235   4.730  16.465  0.2202 -0.2956 -0.2460
 3637SOL    HW122544   4.184   4.724  16.385  1.7575 -0.7451 -1.1943
 3637SOL    HW222545   4.325   4.716  16.437  0.2049 -0.7995 -0.0552
 3638SOL     OW22546   3.127   4.564   8.259 -0.5705  0.7992  0.4244
 3638SOL    HW122547   3.148   4.543   8.350 -1.4095 -2.2900 -0.1068
 3638SOL    HW222548   3.182   4.642   8.248 -0.4835  0.9314  1.7692
 3639SOL     OW22549   3.039   1.014  16.263 -0.7514 -0.0858 -0.4759
 3639SOL    HW122550   2.996   1.057  16.189  0.1763 -1.2463 -1.6988
 3639SOL    HW222551   3.014   0.922  16.263 -1.5310  0.1392  2.9698
 3640SOL     OW22552   1.105   0.556  15.618  0.4873  0.4512 -0.3286
 3640SOL    HW122553   1.167   0.589  15.682 -1.9780  1.6946  1.4256
 3640SOL    HW222554   1.130   0.465  15.606  1.1910  0.8017 -1.6153
 3641SOL     OW22555   0.018   4.459   4.782  0.1058  0.2226  0.0107
 3641SOL    HW122556   4.661   4.479   4.798  0.1573  0.3838  0.1149
 3641SOL    HW222557   0.028   4.372   4.819 -1.7984 -0.7519 -1.7744
 3642SOL     OW22558   2.848   2.529   3.746 -0.2406  0.2606  0.1133
 3642SOL    HW122559   2.759   2.526   3.781 -1.0074 -0.0830 -1.8718
 3642SOL    HW222560   2.903   2.547   3.823  0.2622  4.3409 -1.1935
 3643SOL     OW22561   2.101   1.146   5.851 -0.0707  0.2307  0.3476
 3643SOL    HW122562   2.091   1.130   5.758 -0.5115  0.7030  0.3160
 3643SOL    HW222563   2.131   1.056   5.860 -0.5855 -0.0440 -0.7587
 3644SOL     OW22564   2.611   1.776   7.970 -0.1008 -0.6608 -0.8842
 3644SOL    HW122565   2.570   1.771   7.884  1.0194  0.8084 -1.4982
 3644SOL    HW222566   2.530   1.804   8.013  1.4114  0.0942  1.4656
 3645SOL     OW22567   3.714   2.083  11.308 -0.0683 -0.2798  0.2658
 3645SOL    HW122568   3.782   2.024  11.342 -0.8171 -0.7682  0.9323
 3645SOL    HW222569   3.729   2.159  11.365  0.6665 -0.4756  0.3274
 3646SOL     OW22570   2.287   4.323  16.698 -0.1625  0.2741  0.6920
 3646SOL    HW122571   2.300   4.248  16.639  1.1592  0.3443  0.8906
 3646SOL    HW222572   2.358   4.386  16.687 -0.8185  1.2001  1.8905
 3647SOL     OW22573   2.656   1.669   5.070 -0.2232 -0.0245 -0.4098
 3647SOL    HW122574   2.661   1.763   5.087  1.1881 -0.4432  1.5294
 3647SOL    HW222575   2.700   1.639   5.150  3.8829  2.0971 -1.8254
 3648SOL     OW22576   1.912   2.685   8.472  0.1939  0.0680  0.1898
 3648SOL    HW122577   1.878   2.614   8.418  1.6300  1.3071 -2.3990
 3648SOL    HW222578   1.953   2.651   8.551 -0.3141 -0.1802  0.3390
 3649SOL     OW22579   2.272   1.645   5.911  0.2320  0.8966  0.4532
 3649SOL    HW122580   2.218   1.566   5.919  1.3096 -0.0030 -1.2764
 3649SOL    HW222581   2.212   1.711   5.877  1.3091  2.3058  1.3048
 3650SOL     OW22582   3.166   0.284   0.534 -0.5727 -0.6807 -0.1544
 3650SOL    HW122583   3.090   0.260   0.480 -1.2542 -0.4210  0.6873
 3650SOL    HW222584   3.239   0.299   0.474  0.0877  0.3440  0.9152
 3651SOL     OW22585   1.289   2.855   3.708 -0.4480 -0.2657  0.0181
 3651SOL    HW122586   1.317   2.946   3.711  0.8838 -0.6922  0.3543
 3651SOL    HW222587   1.299   2.839   3.614  0.5135  0.3355  0.0170
 3652SOL     OW22588   2.779   4.052  14.522  0.1177  0.0549 -0.3352
 3652SOL    HW122589   2.755   4.095  14.605  1.8765  1.4238 -0.5466
 3652SOL    HW222590   2.707   4.077  14.463  1.5761  1.1404 -1.6399
 3653SOL     OW22591   0.467   3.156   5.553  0.1005  0.0978 -0.6864
 3653SOL    HW122592   0.384   3.142   5.507  0.8293  2.1698 -2.6554
 3653SOL    HW222593   0.450   3.101   5.629  2.2318  0.4197  0.0314
 3654SOL     OW22594   3.562   0.244  15.278 -0.0262  0.6370 -0.8437
 3654SOL    HW122595   3.617   0.188  15.333  1.3912 -0.0552 -2.9599
 3654SOL    HW222596   3.488   0.182  15.274 -0.2920  0.8073  1.8789
 3655SOL     OW22597   1.673   0.451   0.724 -0.5938  0.0496 -0.5165
 3655SOL    HW122598   1.609   0.413   0.664  1.4621 -0.2741 -2.5462
 3655SOL    HW222599   1.672   0.391   0.799  0.7492  0.2646 -0.3155
 3656SOL     OW22600   1.472   4.465  15.600 -0.1612 -0.0945  0.4467
 3656SOL    HW122601   1.548   4.515  15.569 -0.8268  1.3608  1.1956
 3656SOL    HW222602   1.427   4.538  15.641 -2.0962 -1.2001  0.2765
 3657SOL     OW22603   2.109   3.724   1.108 -0.2062  0.6997 -0.5916
 3657SOL    HW122604   2.135   3.780   1.035  1.0902 -1.8514 -2.1283
 3657SOL    HW222605   2.177   3.748   1.171 -1.2078 -0.1083  0.7879
 3658SOL     OW22606   0.246   1.425   3.430  0.0283  0.1739  0.4870
 3658SOL    HW122607   0.154   1.443   3.408  0.2693  0.3867 -0.3662
 3658SOL    HW222608   0.236   1.337   3.467 -0.1381 -0.4046 -0.9036
 3659SOL     OW22609   1.360   2.619   5.906 -0.3808  0.0293 -0.4137
 3659SOL    HW122610   1.312   2.558   5.962 -0.1011  0.3796  0.2014
 3659SOL    HW222611   1.307   2.697   5.922  3.5449  2.3202  1.3638
 3660SOL     OW22612   2.948   0.746  16.288  0.1925  0.1437  0.0666
 3660SOL    HW122613   2.918   0.758  16.378  2.4699 -0.1574  0.8573
 3660SOL    HW222614   2.968   0.653  16.300 -1.3384 -0.2075 -0.1832
 3661SOL     OW22615   2.196   2.016   6.876  0.2037  0.4212 -0.2437
 3661SOL    HW122616   2.125   1.983   6.820 -0.7432  0.8025  0.7444
 3661SOL    HW222617   2.143   2.086   6.913 -0.3095 -0.2255  0.2420
 3662SOL     OW22618   0.240   3.061   7.560  0.4472 -0.2480  0.8015
 3662SOL    HW122619   0.146   3.044   7.561  0.0251  1.9547  0.0964
 3662SOL    HW222620   0.251   3.018   7.475  0.8539  1.8861 -0.2367
 3663SOL     OW22621   1.989   0.435   8.595  0.3492  0.2785  0.5111
 3663SOL    HW122622   2.030   0.360   8.551  0.6641  0.0723  1.1562
 3663SOL    HW222623   1.987   0.506   8.531  1.8643  0.8778  1.1310
 3664SOL     OW22624   2.340   4.109   2.593  0.9151  0.2126 -0.2231
 3664SOL    HW122625   2.294   4.029   2.618  2.0977 -0.5715 -0.5682
 3664SOL    HW222626   2.383   4.074   2.515  0.7215 -2.3323  0.8437
 3665SOL     OW22627   4.470   3.846   4.385 -0.5588  0.5418 -0.1912
 3665SOL    HW122628   4.531   3.915   4.408 -0.3390  1.3653 -3.1598
 3665SOL    HW222629   4.388   3.896   4.387 -1.1942 -0.6177  2.7271
 3666SOL     OW22630   1.270   4.209   6.202 -0.1936 -0.2809  0.0476
 3666SOL    HW122631   1.347   4.264   6.216 -0.3275  0.8680 -3.7325
 3666SOL    HW222632   1.310   4.122   6.196 -0.2415 -0.3754  1.1206
 3667SOL     OW22633   4.238   3.926   7.904  0.1055 -0.5678 -0.0328
 3667SOL    HW122634   4.154   3.924   7.859  0.3308  0.6569 -0.5096
 3667SOL    HW222635   4.251   4.016   7.933 -2.2707 -0.7468  1.6225
 3668SOL     OW22636   2.922   1.182  10.000  0.5929 -0.0526 -0.8017
 3668SOL    HW122637   2.871   1.203   9.922  2.1676  0.5911 -1.6525
 3668SOL    HW222638   2.971   1.262  10.016  0.5138  0.1259 -1.4517
 3669SOL     OW22639   3.370   1.727   5.316  0.1459 -0.0192  0.4674
 3669SOL    HW122640   3.462   1.737   5.291 -0.3363 -1.2236 -1.7257
 3669SOL    HW222641   3.384   1.725   5.411 -0.2195 -2.9521  0.4506
 3670SOL     OW22642   3.461   4.310  11.151  0.2795 -0.0877 -0.4545
 3670SOL    HW122643   3.537   4.328  11.207  0.2721 -2.1250  0.2377
 3670SOL    HW222644   3.415   4.392  11.165  1.7766  0.5993  0.5126
 3671SOL     OW22645   1.293   3.807   2.237  0.0097 -0.3727 -0.3336
 3671SOL    HW122646   1.254   3.734   2.189  1.2578 -1.5749  0.4795
 3671SOL    HW222647   1.386   3.784   2.241 -0.3052 -1.7248 -0.6861
 3672SOL     OW22648   1.133   0.550  10.623 -0.2122  0.0662 -0.4011
 3672SOL    HW122649   1.158   0.631  10.579 -1.9969  0.2816 -1.0091
 3672SOL    HW222650   1.224   0.523  10.633 -0.6521 -0.7023  1.5619
 3673SOL     OW22651   0.515   3.166   4.226  0.1137  0.1305  0.1354
 3673SOL    HW122652   0.476   3.174   4.314 -2.4246  0.9030 -1.0567
 3673SOL    HW222653   0.537   3.073   4.233  1.1385  0.2959 -0.9535
 3674SOL     OW22654   3.350   0.795   6.779 -0.0244  0.3230 -0.4633
 3674SOL    HW122655   3.277   0.739   6.753  0.4108 -1.9367  3.1807
 3674SOL    HW222656   3.327   0.877   6.736  0.4399  0.8922  0.3633
 3675SOL     OW22657   1.940   3.181   4.005  0.4640  0.1361 -0.4029
 3675SOL    HW122658   1.845   3.181   3.989  0.3688 -1.1221  0.1323
 3675SOL    HW222659   1.963   3.134   3.925 -0.6893 -1.2495  0.0745
 3676SOL     OW22660   2.808   2.633   5.136 -0.1354  0.6591 -0.2604
 3676SOL    HW122661   2.887   2.592   5.099  0.1504  0.2664  0.7792
 3676SOL    HW222662   2.841   2.705   5.189  0.1020 -0.3114  0.9169
 3677SOL     OW22663   4.264   3.812  17.639 -1.3009 -0.2198 -0.0596
 3677SOL    HW122664   4.250   3.821  17.545  1.3174  0.8888 -0.3584
 3677SOL    HW222665   4.357   3.838  17.642 -0.8025 -2.2222  2.0810
 3678SOL     OW22666   2.537   1.355   7.899 -0.4568 -0.4299  0.1185
 3678SOL    HW122667   2.585   1.430   7.936  0.9084 -0.5967 -1.3606
 3678SOL    HW222668   2.494   1.389   7.821  0.2708 -1.6614 -0.8094
 3679SOL     OW22669   4.537   3.811   3.102  0.3997  0.2892  0.1279
 3679SOL    HW122670   4.487   3.850   3.173 -2.7728 -1.8383 -0.9304
 3679SOL    HW222671   4.509   3.854   3.020 -1.4844 -1.6420 -0.2346
 3680SOL     OW22672   0.019   3.826  11.539 -0.3450  0.3286  1.0266
 3680SOL    HW122673   0.067   3.746  11.561 -1.3439 -0.6801 -0.4351
 3680SOL    HW222674   0.094   3.880  11.514  1.4948 -1.8035  2.0031
 3681SOL     OW22675   4.378   1.303   3.614 -0.6090  0.6080 -0.0836
 3681SOL    HW122676   4.423   1.323   3.532 -0.3211 -0.7544 -0.2543
 3681SOL    HW222677   4.429   1.239   3.663 -1.3621 -1.1087 -1.5150
 3682SOL     OW22678   1.224   2.883   1.886  0.7728  0.3011 -0.3636
 3682SOL    HW122679   1.200   2.881   1.794  1.4202 -0.9152 -0.5152
 3682SOL    HW222680   1.311   2.923   1.880  0.5638  1.0382  1.5883
 3683SOL     OW22681   3.860   3.513  12.921  0.7985  0.0733 -0.6735
 3683SOL    HW122682   3.880   3.580  12.986 -2.1815  0.0232  0.2956
 3683SOL    HW222683   3.852   3.567  12.843  1.6616 -0.1651 -0.9336
 3684SOL     OW22684   2.212   4.137   5.649  0.0525  0.3661  1.2748
 3684SOL    HW122685   2.211   4.231   5.668  1.0268  0.4076  1.1028
 3684SOL    HW222686   2.144   4.101   5.706 -1.1661  0.1724 -0.3019
 3685SOL     OW22687   0.748   2.749   3.560 -0.3364  0.4053  0.0051
 3685SOL    HW122688   0.750   2.677   3.624 -0.0460  0.2289 -0.2025
 3685SOL    HW222689   0.709   2.692   3.494  0.3205 -1.6070  1.3390
 3686SOL     OW22690   1.836   2.399   0.699 -0.6897 -0.2441 -0.3720
 3686SOL    HW122691   1.839   2.448   0.617 -0.8046  1.4661  0.6676
 3686SOL    HW222692   1.820   2.467   0.764 -2.8522 -2.0190  0.9244
 3687SOL     OW22693   1.162   2.876   4.900  0.0124  0.3650  0.2439
 3687SOL    HW122694   1.178   2.897   4.992  1.1640  0.0733  0.1139
 3687SOL    HW222695   1.245   2.892   4.856  0.2846 -0.2092  0.5415
 3688SOL     OW22696   4.693   2.498   5.159  0.4629 -0.5000  0.1707
 3688SOL    HW122697   0.042   2.457   5.178 -0.0432 -2.7325 -2.3667
 3688SOL    HW222698   4.717   2.590   5.158 -2.9093  0.3098 -2.3699
 3689SOL     OW22699   2.552   0.318  17.183  0.1047  0.1661  0.2095
 3689SOL    HW122700   2.627   0.377  17.178 -0.7155  1.1623 -0.4968
 3689SOL    HW222701   2.546   0.311  17.278  0.9942 -0.3220  0.2230
 3690SOL     OW22702   1.829   1.192   7.694  0.7130 -0.2783 -0.0457
 3690SOL    HW122703   1.878   1.158   7.769  0.5355 -0.9441 -0.2278
 3690SOL    HW222704   1.897   1.249   7.660  1.3732 -0.4886  0.9198
 3691SOL     OW22705   0.992   1.330   3.773  0.2535  0.5000  0.4757
 3691SOL    HW122706   0.987   1.310   3.679  1.0151 -1.1317  0.7770
 3691SOL    HW222707   0.905   1.307   3.803  0.5015 -0.4089  0.4946
 3692SOL     OW22708   2.410   4.614  17.574  0.5648 -0.2519 -0.0649
 3692SOL    HW122709   2.402   4.691  17.517  0.4740 -0.5350 -0.4301
 3692SOL    HW222710   2.318   4.604  17.601  0.4747  0.2666 -0.1758
 3693SOL     OW22711   4.655   0.391   3.429 -0.0522 -0.1812  0.4540
 3693SOL    HW122712   4.670   0.388   3.523  1.3578 -0.2205  0.2236
 3693SOL    HW222713   4.667   0.300   3.403  0.1416 -0.0896  0.2169
 3694SOL     OW22714   4.354   4.025   0.496 -0.0284  0.1620 -0.2797
 3694SOL    HW122715   4.288   3.962   0.467  1.3092 -0.9045 -1.0222
 3694SOL    HW222716   4.304   4.098   0.532  0.5896  1.0395 -1.1985
 3695SOL     OW22717   0.664   1.194   0.047  0.2601 -0.1763 -0.0693
 3695SOL    HW122718   0.747   1.185   0.094 -1.4363 -0.1555  2.9600
 3695SOL    HW222719   0.657   1.287   0.029 -0.3174 -0.2167 -0.0541
 3696SOL     OW22720   1.914   3.887   1.591  0.5743 -0.3008  0.1501
 3696SOL    HW122721   1.980   3.919   1.652 -0.4417 -1.3212  1.7813
 3696SOL    HW222722   1.954   3.817   1.540 -1.6871 -1.6803  0.2571
 3697SOL     OW22723   2.380   2.679   9.714  0.3902 -0.1051  0.1686
 3697SOL    HW122724   2.368   2.637   9.629  1.7366 -0.1505  0.0110
 3697SOL    HW222725   2.329   2.620   9.769 -0.2733  2.8038  2.7062
 3698SOL     OW22726   1.262   1.917   5.150  0.5183 -0.0471 -0.0299
 3698SOL    HW122727   1.236   1.969   5.074  1.2045  1.9334  1.0826
 3698SOL    HW222728   1.348   1.948   5.179  1.0059 -0.3565 -1.1600
 3699SOL     OW22729   0.883   1.391   6.766  0.1355  0.1151  0.1076
 3699SOL    HW122730   0.860   1.462   6.706  0.5850 -0.2698 -0.5237
 3699SOL    HW222731   0.800   1.361   6.801 -0.3166 -1.4735 -2.3241
 3700SOL     OW22732   3.390   3.849   0.152  0.2196  0.2166  0.3380
 3700SOL    HW122733   3.362   3.928   0.105 -0.2157 -0.2331 -0.1615
 3700SOL    HW222734   3.410   3.783   0.085 -0.7155 -0.8386  1.0995
 3701SOL     OW22735   3.225   0.936   2.028 -0.7358  0.3561  0.2216
 3701SOL    HW122736   3.275   0.994   1.970 -0.8781 -1.5825 -1.8365
 3701SOL    HW222737   3.188   1.000   2.088 -2.0400 -0.2119  0.0112
 3702SOL     OW22738   0.630   2.704   8.656  0.2273  0.9604 -0.0379
 3702SOL    HW122739   0.606   2.769   8.590 -0.4747  2.4194  1.6406
 3702SOL    HW222740   0.698   2.658   8.606 -1.3386 -1.5276  0.1039
 3703SOL     OW22741   0.513   2.939   6.667  0.4881  0.0489 -0.2007
 3703SOL    HW122742   0.509   2.859   6.616  2.5454  1.0490 -1.9215
 3703SOL    HW222743   0.494   2.911   6.757  0.5874 -0.8079 -0.4548
 3704SOL     OW22744   1.208   3.405   2.655  0.0667  0.1188  0.1603
 3704SOL    HW122745   1.186   3.347   2.582 -0.3623  0.3161  0.1288
 3704SOL    HW222746   1.198   3.353   2.735 -0.3463 -0.5482 -0.3231
 3705SOL     OW22747   1.927   3.455   7.486 -0.5690  0.0425 -0.1166
 3705SOL    HW122748   1.972   3.421   7.563 -2.5769 -0.1531  0.9666
 3705SOL    HW222749   1.841   3.415   7.501 -0.2594 -0.0353  1.3914
 3706SOL     OW22750   4.030   1.220   2.458  0.1962 -0.6229 -0.1642
 3706SOL    HW122751   4.028   1.279   2.383 -1.4043 -0.6825 -0.1600
 3706SOL    HW222752   4.120   1.190   2.444  1.6694  2.0895  3.5088
 3707SOL     OW22753   1.014   3.809   0.876 -0.3964 -0.3341  0.2277
 3707SOL    HW122754   0.997   3.800   0.782 -0.5192 -1.5321  0.3583
 3707SOL    HW222755   0.931   3.852   0.895  0.0507 -0.3603  2.2173
 3708SOL     OW22756   3.959   4.304   2.311  0.0649  0.6462 -0.8982
 3708SOL    HW122757   4.018   4.332   2.241  0.2837  1.5117 -0.3705
 3708SOL    HW222758   4.014   4.278   2.384 -0.4916  0.6143 -0.4879
 3709SOL     OW22759   3.459   3.329   5.753 -0.2179 -0.0513 -0.1313
 3709SOL    HW122760   3.552   3.306   5.754  0.0720  1.1688  0.9417
 3709SOL    HW222761   3.465   3.424   5.743  0.9289 -0.1582 -0.4594
 3710SOL     OW22762   3.824   1.831  13.151  0.3021  0.2421  0.2547
 3710SOL    HW122763   3.905   1.834  13.101  0.8205  0.3549  1.0923
 3710SOL    HW222764   3.769   1.846  13.074  1.5928  2.3159 -0.2720
 3711SOL     OW22765   0.654   0.326  12.410  0.2033 -0.6771 -0.2563
 3711SOL    HW122766   0.722   0.388  12.382 -1.9543  0.8233 -2.1208
 3711SOL    HW222767   0.616   0.303  12.326  2.8665  0.5178 -1.7755
 3712SOL     OW22768   1.526   0.004  16.429  0.4215  0.5465  0.4587
 3712SOL    HW122769   1.618   4.724  16.453 -0.1629 -2.2397  0.8237
 3712SOL    HW222770   1.480   4.700  16.503  0.4830  1.1021  0.7955
 3713SOL     OW22771   1.418   0.908   1.981  1.2732  0.4344 -0.6950
 3713SOL    HW122772   1.386   0.970   2.046 -1.1685 -0.3196 -1.1987
 3713SOL    HW222773   1.513   0.897   1.990  1.0911  1.1167  2.0199
 3714SOL     OW22774   2.786   4.104   0.064 -0.3516 -0.0167  0.3848
 3714SOL    HW122775   2.800   4.139  17.718  3.7866 -0.8370  0.7058
 3714SOL    HW222776   2.753   4.018   0.041  0.6221  0.0630 -1.3134
 3715SOL     OW22777   0.411   4.657   7.770  0.0493 -0.1124 -0.4098
 3715SOL    HW122778   0.373   0.002   7.805 -0.1809 -1.5328  2.5989
 3715SOL    HW222779   0.501   4.690   7.765 -0.1744  0.3510 -1.4653
 3716SOL     OW22780   3.997   3.968   2.319  0.3633 -0.3269 -0.0487
 3716SOL    HW122781   4.075   4.008   2.279  0.5109  0.3842  0.9444
 3716SOL    HW222782   3.924   4.018   2.282  1.7015  0.9260 -1.0156
 3717SOL     OW22783   0.681   3.106   6.997  0.0311 -0.7145  0.7511
 3717SOL    HW122784   0.695   3.198   6.976  0.7246 -1.0611 -0.2972
 3717SOL    HW222785   0.671   3.115   7.092  0.1772 -1.4378  0.8369
 3718SOL     OW22786   2.611   4.391   5.122  0.2402 -0.0473 -0.0414
 3718SOL    HW122787   2.667   4.380   5.198 -0.4705 -0.8348  0.3617
 3718SOL    HW222788   2.657   4.350   5.049  0.0494 -0.4742  0.0829
 3719SOL     OW22789   3.900   2.677   8.926 -0.3422  0.3379 -0.3880
 3719SOL    HW122790   3.922   2.766   8.899  1.2385 -0.6696 -2.3986
 3719SOL    HW222791   3.849   2.647   8.851  1.1302 -0.6239 -1.0106
 3720SOL     OW22792   3.820   1.110  10.109  0.0613 -0.3583 -0.2055
 3720SOL    HW122793   3.896   1.153  10.148 -1.3272  2.2292 -0.3596
 3720SOL    HW222794   3.775   1.182  10.066  1.2667  2.5236  3.3259
 3721SOL     OW22795   0.940   1.700   6.107  0.3270 -0.8989  0.9184
 3721SOL    HW122796   0.921   1.608   6.085 -0.9679 -0.4991  0.3665
 3721SOL    HW222797   0.975   1.691   6.195  1.7276  2.8475  0.7346
 3722SOL     OW22798   3.707   2.734   5.333 -0.0575  0.8737 -0.9795
 3722SOL    HW122799   3.651   2.661   5.356  1.3036  0.0054 -0.4349
 3722SOL    HW222800   3.797   2.705   5.348 -0.2078  1.5437  1.2645
 3723SOL     OW22801   2.536   0.435   5.443  0.5616 -0.1119 -0.6149
 3723SOL    HW122802   2.502   0.520   5.413 -2.2431 -0.6589  1.0468
 3723SOL    HW222803   2.478   0.374   5.398  1.0317 -0.1499 -1.1803
 3724SOL     OW22804   1.588   1.458  14.679 -0.7581 -0.2304  0.0346
 3724SOL    HW122805   1.546   1.401  14.615 -1.1546 -0.2649  0.3274
 3724SOL    HW222806   1.534   1.442  14.756 -0.5922  2.0191  0.6176
 3725SOL     OW22807   3.363   1.479   7.215 -0.0485  0.6580 -0.1247
 3725SOL    HW122808   3.443   1.526   7.191  0.1124 -0.5661 -2.0092
 3725SOL    HW222809   3.379   1.444   7.303 -0.1446  0.0550 -0.3468
 3726SOL     OW22810   0.155   1.830   4.001 -0.8120 -0.3520  0.5566
 3726SOL    HW122811   0.103   1.861   3.927  1.1467 -2.7120 -1.7924
 3726SOL    HW222812   0.219   1.900   4.015 -1.4038  0.4028 -0.4774
 3727SOL     OW22813   3.933   3.535  15.127  0.4999 -0.4119  0.3632
 3727SOL    HW122814   3.932   3.603  15.195 -1.2805  0.9873 -1.0661
 3727SOL    HW222815   3.935   3.586  15.046 -1.0344  0.7173  1.0206
 3728SOL     OW22816   3.902   4.311  16.845 -0.1478  0.6634  0.5129
 3728SOL    HW122817   3.860   4.330  16.928  0.7881 -1.2782  1.4280
 3728SOL    HW222818   3.983   4.359  16.864  0.6817 -0.4130 -0.3073
 3729SOL     OW22819   0.212   1.107  10.053 -0.1257 -0.1589 -0.4317
 3729SOL    HW122820   0.254   1.029  10.088  0.0416 -0.9221 -2.3428
 3729SOL    HW222821   0.119   1.090  10.043  0.0050 -2.0410  1.6532
 3730SOL     OW22822   4.002   0.475  15.913 -0.0201  0.1228 -0.0073
 3730SOL    HW122823   4.015   0.527  15.992 -2.0853 -1.5221  1.3968
 3730SOL    HW222824   3.918   0.505  15.880  0.3336  0.7928 -0.3081
 3731SOL     OW22825   4.463   1.432   2.405  0.4950  0.5368  0.4888
 3731SOL    HW122826   4.552   1.451   2.436  1.2548 -3.1260  0.5047
 3731SOL    HW222827   4.420   1.517   2.420 -0.2552  0.6179 -2.2839
 3732SOL     OW22828   4.710   0.015   2.350  0.4377 -0.7207  0.3484
 3732SOL    HW122829   0.047   0.065   2.387 -1.6376  2.4207  0.1088
 3732SOL    HW222830   4.723   0.043   2.260 -2.7926 -0.4437 -0.0327
 3733SOL     OW22831   0.822   4.289   8.660 -0.4158 -0.6845 -0.3402
 3733SOL    HW122832   0.756   4.307   8.727  0.0056  0.5600 -0.2580
 3733SOL    HW222833   0.815   4.376   8.620  0.3321 -0.2205  0.5402
 3734SOL     OW22834   2.850   2.452   1.203  0.1818  0.3784  0.1368
 3734SOL    HW122835   2.790   2.403   1.259  1.0540 -0.5358  0.2787
 3734SOL    HW222836   2.915   2.384   1.184  0.4867  0.6144  0.3478
 3735SOL     OW22837   1.074   2.747   7.888  0.2698  0.0886 -0.0521
 3735SOL    HW122838   1.129   2.731   7.965 -0.5948 -2.4791  0.0387
 3735SOL    HW222839   1.126   2.702   7.821  0.2715 -1.1402  0.7670
 3736SOL     OW22840   1.082   3.364   1.840  0.3179 -0.0723  0.0350
 3736SOL    HW122841   1.161   3.390   1.792  1.7969 -0.3993  2.2619
 3736SOL    HW222842   1.112   3.377   1.930 -1.1632 -0.2935  0.5580
 3737SOL     OW22843   1.877   3.016   5.881  0.5280  0.0566  0.1670
 3737SOL    HW122844   1.784   3.015   5.858  0.2331 -0.2537  1.4068
 3737SOL    HW222845   1.919   2.981   5.802 -0.5281  1.4436 -1.0280
 3738SOL     OW22846   0.204   2.360   5.125 -0.0766 -0.1776  0.3993
 3738SOL    HW122847   0.284   2.388   5.079 -0.2258 -1.5340 -0.7042
 3738SOL    HW222848   0.253   2.303   5.185 -2.4927 -0.9754  1.6016
 3739SOL     OW22849   2.868   3.511   4.991  0.1651 -0.2466  0.7100
 3739SOL    HW122850   2.870   3.607   5.001  0.9168 -0.1658 -0.2384
 3739SOL    HW222851   2.826   3.498   4.907  3.7315  0.2844 -1.1776
 3740SOL     OW22852   2.967   4.649   1.453  0.1696 -0.3477  0.3298
 3740SOL    HW122853   2.914   4.592   1.509 -0.9173 -0.7330 -1.0852
 3740SOL    HW222854   2.959   4.736   1.493 -2.0171 -1.1795  1.6905
 3741SOL     OW22855   3.245   0.139  10.454  0.1154 -0.1866  0.2323
 3741SOL    HW122856   3.221   0.077  10.385  2.0160 -0.6804  0.0379
 3741SOL    HW222857   3.167   0.194  10.461 -1.3571 -2.5491  2.5023
 3742SOL     OW22858   3.464   2.299   4.370 -0.3772  0.1839 -0.0478
 3742SOL    HW122859   3.373   2.323   4.348 -0.1975  3.4080  2.7297
 3742SOL    HW222860   3.449   2.266   4.458 -0.1851 -1.4844 -0.6490
 3743SOL     OW22861   1.090   3.671   5.283  0.1347 -0.9849  0.2480
 3743SOL    HW122862   1.112   3.626   5.365  1.2764  1.5690  1.3603
 3743SOL    HW222863   1.168   3.726   5.277 -0.2999 -0.3180  0.7006
 3744SOL     OW22864   1.524   3.167   3.286 -0.2357  0.1295  0.2327
 3744SOL    HW122865   1.569   3.098   3.236  2.1544  1.7451  0.1482
 3744SOL    HW222866   1.455   3.194   3.226  1.1219  1.3590 -0.7722
 3745SOL     OW22867   4.168   4.175   8.582 -0.2503  0.3113  0.3043
 3745SOL    HW122868   4.249   4.150   8.626 -0.0483  1.0239  0.3380
 3745SOL    HW222869   4.203   4.231   8.512 -0.1540  0.0668  0.1587
 3746SOL     OW22870   1.274   0.469  11.589 -0.5297  0.1331  0.0569
 3746SOL    HW122871   1.345   0.483  11.651 -1.4859  0.6117  1.0324
 3746SOL    HW222872   1.287   0.544  11.530 -0.9624 -0.1621 -0.4152
 3747SOL     OW22873   3.146   0.458   2.783 -0.7112  0.1227  0.7969
 3747SOL    HW122874   3.155   0.394   2.711 -0.3312  0.7561  0.2845
 3747SOL    HW222875   3.106   0.397   2.845  0.2468  0.0479  1.3353
 3748SOL     OW22876   0.131   0.041   6.861 -0.5846  0.2894 -0.2633
 3748SOL    HW122877   0.181   0.116   6.892  0.3201  0.1275 -1.3165
 3748SOL    HW222878   0.144   0.057   6.767  0.9851 -2.0815 -0.4490
 3749SOL     OW22879   0.067   1.542  13.649 -0.4071  0.0504 -0.0067
 3749SOL    HW122880   0.057   1.449  13.629  0.4990  0.1147 -0.7341
 3749SOL    HW222881   4.715   1.565  13.681 -0.5757  1.6297 -1.5907
 3750SOL     OW22882   3.688   0.078  15.448  0.5159  0.2267 -1.1170
 3750SOL    HW122883   3.671   4.730  15.491 -0.4027  0.8951 -0.1806
 3750SOL    HW222884   3.778   0.057  15.423 -0.0940 -0.9607 -2.3322
 3751SOL     OW22885   2.774   2.317   7.857  0.2251 -0.2642 -0.7397
 3751SOL    HW122886   2.834   2.295   7.787  0.8267 -2.1064  0.3566
 3751SOL    HW222887   2.746   2.233   7.894 -0.7963  2.0170  3.7551
 3752SOL     OW22888   3.105   1.194   0.137 -0.5586  0.2085 -0.0603
 3752SOL    HW122889   3.177   1.137   0.110 -0.5925  0.2884 -0.3237
 3752SOL    HW222890   3.042   1.177   0.066 -1.8119  1.3844  0.7638
 3753SOL     OW22891   2.269   3.210   2.768  0.1001  0.0759 -0.2392
 3753SOL    HW122892   2.232   3.138   2.718 -1.0145  0.7481 -0.3641
 3753SOL    HW222893   2.205   3.194   2.837 -0.3642  2.5579 -0.0822
 3754SOL     OW22894   0.437   3.976   0.571 -0.6544  0.1823 -0.2438
 3754SOL    HW122895   0.458   3.887   0.543  1.9857  0.4476  0.8321
 3754SOL    HW222896   0.525   4.014   0.566 -0.4238  0.0618  2.6661
 3755SOL     OW22897   1.228   0.303   5.841 -0.3690 -0.4788  0.0765
 3755SOL    HW122898   1.273   0.224   5.873  1.4948  0.1625 -0.9151
 3755SOL    HW222899   1.149   0.307   5.895  0.4026  2.9639  0.9082
 3756SOL     OW22900   3.660   2.624   5.049  0.0586  0.2693 -0.2984
 3756SOL    HW122901   3.750   2.649   5.027  0.2354  2.4694  3.0171
 3756SOL    HW222902   3.645   2.659   5.137 -1.3195 -2.3396  0.5014
 3757SOL     OW22903   4.132   2.942   6.149 -0.0906  0.4498  0.0163
 3757SOL    HW122904   4.109   2.983   6.066  3.3410 -0.6520 -1.4404
 3757SOL    HW222905   4.202   2.893   6.106  0.7151  1.6902 -0.0681
 3758SOL     OW22906   1.843   0.530   7.600  0.2342  0.4162 -0.2433
 3758SOL    HW122907   1.937   0.539   7.581  0.2107  0.5880 -0.2704
 3758SOL    HW222908   1.797   0.605   7.564  1.8717  1.2412 -0.6185
 3759SOL     OW22909   2.600   4.470   5.678 -0.0607  0.1082 -0.8126
 3759SOL    HW122910   2.516   4.458   5.722  0.6010  0.8891  0.6652
 3759SOL    HW222911   2.580   4.434   5.592  1.2981  0.2409 -1.1736
 3760SOL     OW22912   2.647   0.519   4.618  0.0354  0.3086 -0.1228
 3760SOL    HW122913   2.642   0.551   4.708 -0.5722 -5.2664  1.8228
 3760SOL    HW222914   2.581   0.575   4.577  1.1964 -0.9273 -3.6743
 3761SOL     OW22915   1.241   1.988   9.652  0.4099 -0.1819 -0.1918
 3761SOL    HW122916   1.188   1.911   9.670 -0.3407  0.2269 -0.6554
 3761SOL    HW222917   1.308   1.974   9.719  2.3638  1.1933 -1.8514
 3762SOL     OW22918   2.309   2.467   1.461 -0.2340 -0.2340  0.3653
 3762SOL    HW122919   2.333   2.382   1.499  0.0934 -0.4817 -0.3729
 3762SOL    HW222920   2.376   2.484   1.394  1.0679 -2.5439  1.0838
 3763SOL     OW22921   0.557   1.509   7.139 -0.2737  0.3780 -0.2927
 3763SOL    HW122922   0.624   1.463   7.191 -0.1274 -0.7666 -1.5059
 3763SOL    HW222923   0.536   1.587   7.191 -0.6983  0.9335 -1.3069
 3764SOL     OW22924   1.370   1.374   0.320 -0.1267 -1.1436 -0.4936
 3764SOL    HW122925   1.299   1.311   0.313 -0.7686 -0.6812  1.7082
 3764SOL    HW222926   1.362   1.391   0.414  1.8194  1.5542 -0.8129
 3765SOL     OW22927   0.172   0.834  12.091 -0.1063 -0.6071  0.7735
 3765SOL    HW122928   0.183   0.832  12.186  3.4227  0.3615  0.3950
 3765SOL    HW222929   0.114   0.909  12.086  2.7749  1.5596 -0.2120
 3766SOL     OW22930   3.773   1.199   4.119 -0.2307  0.0516 -0.1762
 3766SOL    HW122931   3.752   1.251   4.041  1.5259 -1.0063 -1.3588
 3766SOL    HW222932   3.732   1.114   4.102 -0.5315  0.0303  0.6786
 3767SOL     OW22933   1.670   3.893   7.263  0.3902 -0.4196  0.4098
 3767SOL    HW122934   1.670   3.987   7.246  2.3792 -0.5533 -0.2845
 3767SOL    HW222935   1.603   3.860   7.203 -0.2946  0.8572  0.4650
 3768SOL     OW22936   4.357   3.790   8.539  0.2948 -0.2050 -0.4692
 3768SOL    HW122937   4.425   3.820   8.600  0.3876 -0.3502 -0.5007
 3768SOL    HW222938   4.362   3.858   8.471  3.1587 -0.0948 -0.1693
 3769SOL     OW22939   3.222   0.720   5.430  0.7419 -0.1013  0.1002
 3769SOL    HW122940   3.230   0.711   5.525  0.1219 -0.0018  0.1585
 3769SOL    HW222941   3.138   0.677   5.420  1.3627 -0.8871 -1.6602
 3770SOL     OW22942   3.094   0.778   0.220 -0.3576  0.2272 -0.2924
 3770SOL    HW122943   3.038   0.853   0.237  1.9524  1.7503  0.4891
 3770SOL    HW222944   3.070   0.759   0.129  1.1002  0.3443 -0.7041
 3771SOL     OW22945   2.515   0.826  12.174  0.2340  0.1232 -0.1862
 3771SOL    HW122946   2.466   0.777  12.108 -0.9019 -0.7088  1.2524
 3771SOL    HW222947   2.588   0.765  12.185  1.0336  1.3338  1.2076
 3772SOL     OW22948   0.132   1.663   4.928 -0.6691  0.1160  0.8270
 3772SOL    HW122949   0.128   1.571   4.953  0.0763 -0.3167 -0.6255
 3772SOL    HW222950   0.225   1.670   4.906 -0.6128  0.1934  1.0846
 3773SOL     OW22951   4.233   3.443  15.323  0.4013  0.5715  0.7769
 3773SOL    HW122952   4.253   3.510  15.258  3.3361 -1.3801 -0.3272
 3773SOL    HW222953   4.146   3.466  15.355  0.7972  3.0355  0.0956
 3774SOL     OW22954   3.938   2.351   6.792 -0.2155 -0.2702 -0.7195
 3774SOL    HW122955   3.874   2.376   6.859  0.3999  0.6815 -0.4905
 3774SOL    HW222956   3.942   2.419   6.724  0.4117  1.1198  0.7063
 3775SOL     OW22957   1.362   0.465   7.974  0.2735  0.0104  0.3318
 3775SOL    HW122958   1.335   0.388   7.924 -1.4446 -0.0181  1.2999
 3775SOL    HW222959   1.408   0.422   8.045 -1.2597 -1.0126  0.7091
 3776SOL     OW22960   2.560   1.779   7.686  0.5728 -0.3377  0.3581
 3776SOL    HW122961   2.627   1.823   7.633  0.5534 -0.2218  0.4310
 3776SOL    HW222962   2.489   1.842   7.674 -1.1002 -2.7327 -2.2229
 3777SOL     OW22963   2.676   3.375  15.358  0.7243 -0.1912  0.3470
 3777SOL    HW122964   2.584   3.396  15.344  1.1290  0.4233 -1.4093
 3777SOL    HW222965   2.719   3.424  15.287  0.9213 -0.1379  0.5023
 3778SOL     OW22966   4.518   2.504   8.640 -1.0975 -0.2693 -0.5182
 3778SOL    HW122967   4.475   2.566   8.581  0.8636 -0.7872 -2.5140
 3778SOL    HW222968   4.492   2.535   8.727  1.3859 -0.3744  0.2512
 3779SOL     OW22969   2.236   1.241  14.683  0.1633  0.3402 -0.4922
 3779SOL    HW122970   2.313   1.267  14.734  0.2517 -0.6834 -0.0990
 3779SOL    HW222971   2.191   1.326  14.680 -0.5380 -0.0132  0.1872
 3780SOL     OW22972   0.096   1.352   4.113  0.2809 -0.4984 -0.2104
 3780SOL    HW122973   0.057   1.427   4.068  1.5182 -0.1247 -0.6650
 3780SOL    HW222974   0.146   1.392   4.183  1.9205  1.2024 -2.3426
 3781SOL     OW22975   2.304   1.886   5.129 -0.5168  0.2975  0.1802
 3781SOL    HW122976   2.212   1.875   5.149 -0.9236  0.0357 -1.7824
 3781SOL    HW222977   2.315   1.981   5.115  1.7477  0.3226  2.0048
 3782SOL     OW22978   3.984   2.298   8.766  0.2468  0.4355  0.0635
 3782SOL    HW122979   4.053   2.359   8.741  0.3269 -0.5538 -2.1374
 3782SOL    HW222980   3.947   2.328   8.849  0.3084  0.2926  0.1412
 3783SOL     OW22981   1.801   3.758   6.058  0.1080  0.0817  0.3516
 3783SOL    HW122982   1.779   3.757   6.151 -1.7850 -1.2523 -0.1082
 3783SOL    HW222983   1.824   3.665   6.050  1.9298  0.5755 -0.1026
 3784SOL     OW22984   4.457   0.642   1.827  0.0407  0.3268 -0.0981
 3784SOL    HW122985   4.545   0.616   1.802  0.7877  3.6516 -0.9605
 3784SOL    HW222986   4.484   0.719   1.877 -0.2059  0.3893 -0.0615
 3785SOL     OW22987   4.258   3.609   9.669 -0.1792 -0.7187 -0.3363
 3785SOL    HW122988   4.195   3.575   9.733 -1.4014 -0.8256 -1.6050
 3785SOL    HW222989   4.210   3.682   9.630  3.0913  0.5145 -2.0381
 3786SOL     OW22990   4.409   1.509   1.615 -0.1115  0.0178 -0.1290
 3786SOL    HW122991   4.358   1.562   1.555  1.0087  3.0702  1.6305
 3786SOL    HW222992   4.386   1.420   1.590 -0.7286 -0.4343  2.0378
 3787SOL     OW22993   4.076   3.921   0.100 -0.1060  0.0131  0.7690
 3787SOL    HW122994   4.121   3.877   0.028  0.6154  1.8086  0.1306
 3787SOL    HW222995   4.139   3.962   0.159  0.6138 -0.1921  0.1287
 3788SOL     OW22996   2.050   1.671   2.872 -0.4963 -0.4715  0.2869
 3788SOL    HW122997   2.128   1.727   2.875 -0.8436  0.1763 -2.8802
 3788SOL    HW222998   1.972   1.721   2.896 -0.6428 -0.8951  0.6925
 3789SOL     OW22999   3.959   3.428   3.335  0.8308  0.0379 -0.1604
 3789SOL    HW123000   3.969   3.429   3.240 -0.1182  1.4978 -0.2432
 3789SOL    HW223001   3.906   3.508   3.337  0.0282 -0.4163 -2.9495
 3790SOL     OW23002   2.927   1.253  10.367  0.4476 -0.2372  0.2727
 3790SOL    HW123003   2.939   1.164  10.333 -0.7093 -0.7721  1.2800
 3790SOL    HW223004   2.843   1.240  10.410  0.6882 -0.3493  0.7149
 3791SOL     OW23005   3.368   2.509   6.566 -0.1868  0.7321 -0.3718
 3791SOL    HW123006   3.280   2.493   6.602 -0.7416  0.5618 -1.8035
 3791SOL    HW223007   3.414   2.473   6.641 -1.5729  0.2960  0.2718
 3792SOL     OW23008   3.515   0.165   8.613 -0.3282 -0.0953  0.2895
 3792SOL    HW123009   3.482   0.167   8.703  1.5134  1.6545  0.9288
 3792SOL    HW223010   3.566   0.246   8.613 -1.6783  0.7656  0.4933
 3793SOL     OW23011   4.307   2.264  13.152 -0.0427 -0.1123  0.0513
 3793SOL    HW123012   4.362   2.235  13.224  0.0277 -0.1011  0.0025
 3793SOL    HW223013   4.269   2.346  13.185 -3.4516 -1.5510 -0.3244
 3794SOL     OW23014   1.274   2.437  11.100 -0.1692  0.5180  0.0337
 3794SOL    HW123015   1.195   2.466  11.147 -1.0563 -0.5686 -0.7994
 3794SOL    HW223016   1.337   2.509  11.108  0.2949  0.1470 -0.2622
 3795SOL     OW23017   3.539   2.055   5.132  0.0269 -0.3130  0.6016
 3795SOL    HW123018   3.620   2.102   5.113 -0.2430  0.8681  2.3630
 3795SOL    HW223019   3.568   1.964   5.136  0.0162 -0.4019 -1.4636
 3796SOL     OW23020   2.794   1.806   4.745  0.6888  0.0084 -0.0819
 3796SOL    HW123021   2.754   1.892   4.732  0.7594  0.1064  0.3546
 3796SOL    HW223022   2.877   1.836   4.708  2.7182 -0.9407  3.6643
 3797SOL     OW23023   1.034   3.705  10.881  0.1565  0.2278  0.4041
 3797SOL    HW123024   1.087   3.784  10.890 -0.8532  0.7059  1.9434
 3797SOL    HW223025   0.944   3.735  10.869 -0.1825 -0.5387  1.0150
 3798SOL     OW23026   1.974   2.277   8.533  0.2224 -0.0058  0.4453
 3798SOL    HW123027   1.967   2.217   8.459  0.0268  2.9997 -1.9695
 3798SOL    HW223028   1.958   2.362   8.492  0.7305 -0.0390  0.1671
 3799SOL     OW23029   3.306   1.952  13.690  0.4365 -0.4040  0.7938
 3799SOL    HW123030   3.369   1.927  13.623  0.9042  1.6450  0.4746
 3799SOL    HW223031   3.225   1.903  13.677  0.0547  0.1859  0.9669
 3800SOL     OW23032   1.641   1.337   0.227  0.4161  0.3498 -0.0797
 3800SOL    HW123033   1.633   1.423   0.184 -1.5552 -1.0303 -2.4478
 3800SOL    HW223034   1.565   1.331   0.284 -0.6374  2.3730 -1.2773
 3801SOL     OW23035   3.298   3.792   0.455 -1.0963  0.5442 -0.0460
 3801SOL    HW123036   3.232   3.774   0.389  0.1101 -2.2040 -0.4958
 3801SOL    HW223037   3.332   3.873   0.417  1.6120 -0.9005 -0.7228
 3802SOL     OW23038   3.552   0.362   5.145 -0.2723 -0.1720 -0.3594
 3802SOL    HW123039   3.468   0.322   5.123 -0.4618  0.5786 -1.0106
 3802SOL    HW223040   3.579   0.386   5.056  1.1996  1.5942  0.5523
 3803SOL     OW23041   4.639   3.594   3.291 -0.1099 -0.3306  0.0939
 3803SOL    HW123042   4.615   3.509   3.255 -0.8139 -0.3643  0.6306
 3803SOL    HW223043   4.591   3.643   3.224 -2.1867 -0.3142  1.5749
 3804SOL     OW23044   1.680   0.665   2.245 -0.2251  0.5052  0.3100
 3804SOL    HW123045   1.628   0.736   2.283  0.9474  0.7505  1.4629
 3804SOL    HW223046   1.755   0.679   2.303  0.7271  1.9158 -1.3123
 3805SOL     OW23047   1.346   4.045  11.575  0.0877 -0.6007 -0.3735
 3805SOL    HW123048   1.296   4.080  11.501 -0.4028 -0.4702  0.0143
 3805SOL    HW223049   1.431   4.087  11.568 -0.6780  0.9575 -0.3021
 3806SOL     OW23050   1.772   0.575  12.802 -0.1644 -0.1876 -0.0919
 3806SOL    HW123051   1.760   0.625  12.722  0.9240  0.2209  0.0071
 3806SOL    HW223052   1.699   0.598  12.860 -0.3385 -1.5139  0.2338
 3807SOL     OW23053   0.397   1.163  11.298  0.2733 -0.4520 -0.5642
 3807SOL    HW123054   0.313   1.118  11.307  1.4571 -2.1718  1.8348
 3807SOL    HW223055   0.416   1.178  11.391  1.9576 -1.8258 -0.6882
 3808SOL     OW23056   0.582   0.282   7.735  0.3617 -0.6756 -0.4986
 3808SOL    HW123057   0.667   0.313   7.767 -0.8957  0.9841  1.2082
 3808SOL    HW223058   0.598   0.259   7.643  1.6765  0.5817 -0.5938
 3809SOL     OW23059   2.166   3.135  13.811  0.3205  0.2012  0.4598
 3809SOL    HW123060   2.085   3.183  13.797  0.5409  0.2012 -0.7522
 3809SOL    HW223061   2.198   3.137  13.721  2.6816  0.2189  1.2882
 3810SOL     OW23062   1.113   0.802   3.387  0.0064  0.1100  0.3201
 3810SOL    HW123063   1.185   0.838   3.336  0.1086 -0.7999 -0.1741
 3810SOL    HW223064   1.132   0.820   3.479  0.5827 -1.0360  0.4187
 3811SOL     OW23065   1.360   2.248  13.035  0.4863 -0.4340  0.0648
 3811SOL    HW123066   1.378   2.163  13.075 -0.9656 -1.9686 -2.5114
 3811SOL    HW223067   1.449   2.247  12.999  0.5691  1.1593  0.2540
 3812SOL     OW23068   3.635   0.244  10.884 -0.0696  0.0798  0.1322
 3812SOL    HW123069   3.678   0.201  10.810  0.7579  0.9423  0.1118
 3812SOL    HW223070   3.679   0.196  10.955 -1.6388  1.0919  1.7916
 3813SOL     OW23071   4.187   0.014   7.785  0.0714  0.1830 -0.7485
 3813SOL    HW123072   4.275   4.729   7.818  0.1082  0.1728 -0.8553
 3813SOL    HW223073   4.197   0.035   7.692  0.6835  0.3818 -0.6374
 3814SOL     OW23074   3.377   2.939   9.112  0.0193 -0.4780  0.1066
 3814SOL    HW123075   3.421   2.912   9.193  0.4728  0.3266  0.1243
 3814SOL    HW223076   3.298   2.885   9.118 -1.2639  1.5745  1.3000
 3815SOL     OW23077   2.083   2.433   9.455  0.2492 -0.4553  0.2523
 3815SOL    HW123078   2.007   2.491   9.462  0.4901 -0.0751 -0.2823
 3815SOL    HW223079   2.057   2.389   9.536  1.7643 -0.4138  0.7470
 3816SOL     OW23080   3.523   0.668   3.079  0.0434 -0.1481 -0.5895
 3816SOL    HW123081   3.448   0.610   3.066  0.4283 -0.1673 -2.6503
 3816SOL    HW223082   3.587   0.643   3.013  2.1974  0.0041  1.4453
 3817SOL     OW23083   2.356   3.089  13.591  0.2252 -0.0679 -0.0537
 3817SOL    HW123084   2.331   3.033  13.517  0.6287 -0.5912  0.2094
 3817SOL    HW223085   2.422   3.037  13.636 -0.3693 -0.5050  0.3156
 3818SOL     OW23086   0.253   2.122   6.182  0.3603  0.2369  0.3532
 3818SOL    HW123087   0.339   2.081   6.189  0.9089  1.4204  0.3651
 3818SOL    HW223088   0.279   2.207   6.215  1.6193  0.3081 -0.8205
 3819SOL     OW23089   3.763   4.058  10.666 -0.0760 -0.4752  0.2733
 3819SOL    HW123090   3.843   4.030  10.709 -0.1654  0.1069  0.8321
 3819SOL    HW223091   3.796   4.042  10.578  1.6230 -3.3880  1.4685
 3820SOL     OW23092   4.117   0.673   2.275 -0.2853  0.4415  0.0850
 3820SOL    HW123093   4.212   0.682   2.286 -0.5197  2.7845  0.3472
 3820SOL    HW223094   4.089   0.759   2.307  1.2673  1.1400 -0.4091
 3821SOL     OW23095   1.170   0.743   4.475  0.4845  0.4512 -0.0839
 3821SOL    HW123096   1.259   0.759   4.509 -0.4616  1.1980  2.0554
 3821SOL    HW223097   1.181   0.788   4.391 -0.3725  0.8954  0.0500
 3822SOL     OW23098   4.016   1.250   5.411  0.4417 -0.0963  0.1988
 3822SOL    HW123099   4.036   1.275   5.320 -1.9269 -1.4952 -0.7154
 3822SOL    HW223100   3.925   1.278   5.405  0.3640 -0.8606 -2.3735
 3823SOL     OW23101   2.834   2.137   5.042  0.3118 -0.0274 -0.1297
 3823SOL    HW123102   2.746   2.123   5.010  1.8301 -3.1803 -2.8020
 3823SOL    HW223103   2.860   2.045   5.034 -0.0163  0.0070 -1.4907
 3824SOL     OW23104   2.073   0.893   4.604 -0.9424  0.2225 -0.6021
 3824SOL    HW123105   2.022   0.950   4.661 -1.1874  0.4307 -1.0274
 3824SOL    HW223106   2.130   0.858   4.672 -2.6797  0.4588  0.9611
 3825SOL     OW23107   0.502   1.674   8.803 -0.3601 -0.2225  0.5908
 3825SOL    HW123108   0.509   1.620   8.882  1.6318  0.2572  0.7378
 3825SOL    HW223109   0.414   1.709   8.808 -0.2187  0.1804  0.2686
 3826SOL     OW23110   2.319   0.935   1.436 -0.0239  0.4644 -0.1965
 3826SOL    HW123111   2.399   0.987   1.426  1.4023 -1.7603 -0.4682
 3826SOL    HW223112   2.341   0.853   1.392  0.5267 -0.2070  1.3075
 3827SOL     OW23113   0.765   1.420   4.931  0.1512  0.5113 -0.0097
 3827SOL    HW123114   0.681   1.434   4.974 -0.3125 -1.9034 -0.0869
 3827SOL    HW223115   0.809   1.369   4.999 -2.7700 -1.0066  0.7314
 3828SOL     OW23116   1.912   4.492   9.050 -0.0998 -0.0306 -0.3412
 3828SOL    HW123117   1.843   4.557   9.036  0.1262  0.3420  0.3054
 3828SOL    HW223118   1.886   4.422   8.991 -0.9129  1.0137 -1.2245
 3829SOL     OW23119   2.194   1.606   3.279 -0.0275  0.3254  0.1730
 3829SOL    HW123120   2.139   1.684   3.269 -0.9009 -0.4903 -1.3999
 3829SOL    HW223121   2.250   1.622   3.355 -0.0158 -1.6283  0.5620
 3830SOL     OW23122   2.432   4.158   2.881  0.2399  0.5381  0.1916
 3830SOL    HW123123   2.340   4.133   2.873  0.2896  0.4832 -0.2240
 3830SOL    HW223124   2.460   4.158   2.789  0.9866 -2.3643  0.4132
 3831SOL     OW23125   4.722   2.929   7.517  0.4022  0.5168  0.0008
 3831SOL    HW123126   4.636   2.927   7.559  1.5564  3.2390  2.4259
 3831SOL    HW223127   4.703   2.992   7.447 -1.0751  0.0873  0.0085
 3832SOL     OW23128   3.852   1.268   1.760  0.6314 -0.1891 -0.6038
 3832SOL    HW123129   3.912   1.310   1.699 -0.1389  2.6114  0.5935
 3832SOL    HW223130   3.845   1.184   1.715 -1.0835 -0.1680 -0.3958
 3833SOL     OW23131   2.867   3.836   6.564  0.3179 -0.3675  0.3002
 3833SOL    HW123132   2.927   3.903   6.598  0.3984 -0.4121  0.2468
 3833SOL    HW223133   2.796   3.851   6.626 -0.1029 -0.2843 -0.2042
 3834SOL     OW23134   3.630   4.494   4.321 -0.4312  0.1984  0.2360
 3834SOL    HW123135   3.686   4.443   4.379 -0.3986 -0.0570 -0.0211
 3834SOL    HW223136   3.635   4.447   4.238  1.7831 -0.7325  0.8881
 3835SOL     OW23137   1.960   3.482   8.110  0.2172 -0.2846 -0.2233
 3835SOL    HW123138   1.966   3.388   8.128 -0.1762 -0.7206 -2.3593
 3835SOL    HW223139   2.030   3.518   8.165 -1.8046  1.5451  1.1260
 3836SOL     OW23140   2.511   2.231   0.117 -0.0760 -0.1246  0.0651
 3836SOL    HW123141   2.589   2.175   0.120  0.4641  0.5651 -1.0201
 3836SOL    HW223142   2.518   2.262   0.207 -1.9097  1.6577 -0.4105
 3837SOL     OW23143   1.147   3.633   4.778  0.0065 -0.1403  0.4443
 3837SOL    HW123144   1.155   3.618   4.873  0.6881  3.5086  0.9404
 3837SOL    HW223145   1.071   3.691   4.776  0.2831  0.2542  1.5592
 3838SOL     OW23146   4.509   2.320   5.235  0.5035  0.1494 -0.1786
 3838SOL    HW123147   4.570   2.356   5.172 -1.6797 -0.2966 -2.5566
 3838SOL    HW223148   4.565   2.326   5.312  0.5615  2.3980 -0.3951
 3839SOL     OW23149   4.483   1.980   8.961 -0.2053 -0.3152  0.7847
 3839SOL    HW123150   4.480   1.948   8.870 -0.2841 -1.5356  1.2096
 3839SOL    HW223151   4.575   1.995   8.982 -0.1614  1.9756 -1.1038
 3840SOL     OW23152   2.844   0.430   2.974  0.0497  0.3343  0.0972
 3840SOL    HW123153   2.852   0.347   2.927  1.0640  0.1402  0.6196
 3840SOL    HW223154   2.809   0.483   2.902  0.1550  0.4704  0.1460
 3841SOL     OW23155   4.377   0.940  11.524 -0.3514 -0.0653 -0.2330
 3841SOL    HW123156   4.326   0.959  11.603  0.4615 -0.1851  0.3147
 3841SOL    HW223157   4.336   0.854  11.522  0.6943 -0.5717  0.2320
 3842SOL     OW23158   2.101   3.793  17.713  0.1615  0.2853  0.6776
 3842SOL    HW123159   2.085   3.716  17.658 -1.1267  1.0474 -0.0185
 3842SOL    HW223160   2.122   3.854  17.642 -1.6949 -0.6946 -0.7234
 3843SOL     OW23161   4.557   0.944   7.523  0.4692  0.5255 -0.1476
 3843SOL    HW123162   4.479   0.956   7.577  0.0508  3.7745 -1.4604
 3843SOL    HW223163   4.561   0.849   7.520 -0.4920  0.3667  2.8142
 3844SOL     OW23164   4.132   1.023   6.821 -0.0134 -0.5013 -0.2351
 3844SOL    HW123165   4.126   1.002   6.914  0.0791  1.6131  0.2400
 3844SOL    HW223166   4.039   1.040   6.807 -0.3738 -0.9786  1.6188
 3845SOL     OW23167   1.719   3.109   2.929 -0.3133 -0.5013  0.1332
 3845SOL    HW123168   1.734   3.190   2.978  0.3659 -0.6431  0.1579
 3845SOL    HW223169   1.661   3.141   2.861  0.6198 -0.0939 -0.4697
 3846SOL     OW23170   4.054   2.859  13.385  0.0836 -0.0766  0.0230
 3846SOL    HW123171   4.135   2.864  13.335 -1.2608  1.2614 -2.0221
 3846SOL    HW223172   4.013   2.775  13.364 -0.4758 -0.1201  1.2569
 3847SOL     OW23173   4.207   3.909  14.558  0.8023  0.3826  0.1152
 3847SOL    HW123174   4.202   3.956  14.641 -0.1569  1.4153 -0.5342
 3847SOL    HW223175   4.296   3.921  14.526  0.4235 -0.0958 -1.1082
 3848SOL     OW23176   0.094   2.191   9.289  0.0590 -0.0489  0.0542
 3848SOL    HW123177   0.002   2.218   9.294  0.1169 -0.0336  0.9736
 3848SOL    HW223178   0.130   2.257   9.229 -0.4290 -0.9970 -1.2919
 3849SOL     OW23179   1.675   0.979  16.247  0.1780 -0.6158  0.0764
 3849SOL    HW123180   1.610   0.988  16.178 -1.6782 -1.6271  1.6907
 3849SOL    HW223181   1.635   1.018  16.325  0.2916  0.3347 -0.3374
 3850SOL     OW23182   3.747   4.091   2.279 -0.2714  0.3127  0.4226
 3850SOL    HW123183   3.795   4.165   2.316  0.8350 -0.2858  0.1751
 3850SOL    HW223184   3.657   4.118   2.258  0.7624  1.1212 -2.9695
 3851SOL     OW23185   4.280   1.786   7.178 -0.5356 -0.4981  0.2352
 3851SOL    HW123186   4.206   1.837   7.143  2.2663  2.7010 -0.9660
 3851SOL    HW223187   4.260   1.706   7.129  0.5958 -0.9230  0.4626
 3852SOL     OW23188   2.243   4.697   5.614  0.2187 -0.2295  0.6358
 3852SOL    HW123189   2.203   0.049   5.611 -1.2003 -0.8705  1.1907
 3852SOL    HW223190   2.172   4.636   5.632  0.4931 -0.8944 -0.5451
 3853SOL     OW23191   4.330   0.140   8.793  0.2574 -0.0801 -0.5660
 3853SOL    HW123192   4.290   0.224   8.774 -2.7896 -1.1018  1.2652
 3853SOL    HW223193   4.328   0.137   8.889 -0.7407 -2.1456 -0.6484
 3854SOL     OW23194   0.550   3.778   4.561  0.1916 -0.3695  0.3051
 3854SOL    HW123195   0.626   3.720   4.570 -0.8016 -1.7147  0.0030
 3854SOL    HW223196   0.597   3.858   4.539  1.0405  0.1681  4.1504
 3855SOL     OW23197   2.378   3.264   4.697 -0.2923  0.4627  0.7697
 3855SOL    HW123198   2.398   3.207   4.771 -2.0793 -1.6816 -0.4097
 3855SOL    HW223199   2.313   3.208   4.655 -1.6793  1.9889  0.9008
 3856SOL     OW23200   2.941   3.909   6.996  0.1319  0.4794 -0.1633
 3856SOL    HW123201   2.935   3.886   7.089 -0.9925  1.5175  0.0211
 3856SOL    HW223202   2.981   3.996   6.991  0.1157  0.3585 -2.3846
 3857SOL     OW23203   2.495   3.691   9.388  0.5870  0.0624 -0.0026
 3857SOL    HW123204   2.590   3.691   9.392  0.5843  0.0937  0.0619
 3857SOL    HW223205   2.491   3.610   9.337 -1.1349  1.2525 -1.7687
 3858SOL     OW23206   3.007   2.499   6.224  0.0518 -0.1003 -0.3053
 3858SOL    HW123207   3.082   2.443   6.204 -1.7653 -1.6681 -2.6823
 3858SOL    HW223208   3.027   2.535   6.310 -1.0258  2.3147 -1.0679
 3859SOL     OW23209   2.204   2.105   9.724  0.0406 -0.3794 -0.3926
 3859SOL    HW123210   2.268   2.074   9.788  2.0252 -0.7295 -2.5647
 3859SOL    HW223211   2.135   2.039   9.729 -0.7806  0.4491 -0.6800
 3860SOL     OW23212   3.597   4.190   5.377 -0.6024 -0.3118  0.6825
 3860SOL    HW123213   3.545   4.235   5.310  0.8128  2.0743  1.1787
 3860SOL    HW223214   3.679   4.224   5.341 -0.9751  0.1313  0.2513
 3861SOL     OW23215   3.653   2.639  15.143 -0.0313 -0.0162  0.1308
 3861SOL    HW123216   3.603   2.662  15.221  1.7493 -0.0233  1.2862
 3861SOL    HW223217   3.740   2.678  15.155 -0.3210  0.8199 -0.5199
 3862SOL     OW23218   1.974   2.498   3.325 -0.4226 -0.1263 -0.1533
 3862SOL    HW123219   2.032   2.574   3.326  1.3017 -1.4200 -0.8870
 3862SOL    HW223220   2.017   2.433   3.381  0.6964 -2.5958 -3.9139
 3863SOL     OW23221   4.029   3.379   6.941 -0.1693  0.4788 -0.2795
 3863SOL    HW123222   4.121   3.394   6.920  0.1748 -1.1402  0.0254
 3863SOL    HW223223   3.992   3.345   6.859  0.3096  0.6296 -0.5557
 3864SOL     OW23224   4.291   0.181   1.851  0.2704 -0.0810 -0.2665
 3864SOL    HW123225   4.201   0.150   1.842  0.9589 -1.7017 -1.7634
 3864SOL    HW223226   4.277   0.260   1.903  0.3905 -0.9089  1.0142
 3865SOL     OW23227   2.481   2.354   2.275  0.9138 -0.0851 -0.4060
 3865SOL    HW123228   2.519   2.426   2.326  0.8556 -0.3529  0.0188
 3865SOL    HW223229   2.545   2.284   2.288  1.6076  0.9667  1.8462
 3866SOL     OW23230   1.049   0.398   1.720  0.1043  0.4994  0.2685
 3866SOL    HW123231   1.142   0.414   1.736  0.3394  0.2202 -0.7723
 3866SOL    HW223232   1.053   0.388   1.625 -0.6525 -1.6021  0.4504
 3867SOL     OW23233   1.472   3.939   4.155  0.2197  0.5175 -0.3176
 3867SOL    HW123234   1.551   3.891   4.128 -0.3318 -0.1806 -0.6925
 3867SOL    HW223235   1.507   4.028   4.164  0.3390  0.3707  0.6624
 3868SOL     OW23236   1.836   4.001   7.042  0.0346 -0.1360 -0.3035
 3868SOL    HW123237   1.744   3.977   7.033 -0.1910  1.1866 -1.5348
 3868SOL    HW223238   1.877   3.925   7.084  0.1740 -1.0334 -2.0931
 3869SOL     OW23239   2.118   3.181   2.983 -0.0755 -0.4934  0.3061
 3869SOL    HW123240   2.159   3.237   3.049  1.4074  2.0880 -2.8030
 3869SOL    HW223241   2.049   3.135   3.030 -0.6023 -0.6307 -0.5865
 3870SOL     OW23242   0.780   2.591   7.070 -0.0087  0.4614  0.1044
 3870SOL    HW123243   0.771   2.619   6.979 -2.4712 -0.9981 -0.0870
 3870SOL    HW223244   0.704   2.534   7.079  0.0624  0.1346 -1.3661
 3871SOL     OW23245   0.796   2.869   4.486 -0.1604 -0.3546  0.0565
 3871SOL    HW123246   0.755   2.945   4.528  1.2905 -0.4907  1.7217
 3871SOL    HW223247   0.749   2.874   4.403  0.6227 -1.6402 -0.4661
 3872SOL     OW23248   3.622   2.504  14.086 -0.2527  1.1329  0.5249
 3872SOL    HW123249   3.668   2.437  14.036 -0.1959  1.4794  0.1170
 3872SOL    HW223250   3.534   2.483  14.053  0.0834  2.9431 -1.5491
 3873SOL     OW23251   4.534   2.295  17.000  0.4242 -0.2307 -0.0503
 3873SOL    HW123252   4.511   2.386  17.018 -0.6025 -0.5858  0.4466
 3873SOL    HW223253   4.562   2.304  16.909 -0.2777  0.9005 -0.1555
 3874SOL     OW23254   2.916   2.972   0.851 -0.5434  0.0836 -0.5953
 3874SOL    HW123255   2.853   2.969   0.780 -0.0456 -0.7910 -0.9937
 3874SOL    HW223256   2.986   3.012   0.799 -0.0971  0.1805  0.0666
 3875SOL     OW23257   1.725   2.037   8.270  0.4194  0.4125  0.0761
 3875SOL    HW123258   1.667   2.058   8.343 -0.6170 -1.4118 -0.2134
 3875SOL    HW223259   1.683   2.062   8.187 -0.3321 -0.0263  0.3184
 3876SOL     OW23260   0.485   3.332   2.988 -0.4601  0.4383 -0.0173
 3876SOL    HW123261   0.406   3.289   2.956  0.1221 -0.1640 -0.6218
 3876SOL    HW223262   0.466   3.426   2.996 -1.0725  0.2478  0.7718
 3877SOL     OW23263   2.455   0.971  15.342  0.2433  0.4648 -0.4814
 3877SOL    HW123264   2.471   1.036  15.274  0.0796  1.9454  0.8709
 3877SOL    HW223265   2.533   0.967  15.398 -0.7676  2.7632  1.1107
 3878SOL     OW23266   2.268   2.506   7.876 -0.4362 -0.5226  0.8211
 3878SOL    HW123267   2.222   2.448   7.815  1.6801 -0.6802 -0.5967
 3878SOL    HW223268   2.350   2.503   7.828 -0.4972  3.1701  0.4371
 3879SOL     OW23269   3.869   1.104   3.518 -0.0201  0.1663 -0.4284
 3879SOL    HW123270   3.961   1.109   3.545  0.1287  0.6998 -1.0457
 3879SOL    HW223271   3.868   1.018   3.475 -0.2875  0.3273 -0.7399
 3880SOL     OW23272   3.527   0.070  14.032 -0.0631  0.1940  0.0004
 3880SOL    HW123273   3.595   0.077  13.964 -0.6911 -0.0798 -0.6570
 3880SOL    HW223274   3.448   0.055  13.981 -0.1040  0.1683  0.0716
 3881SOL     OW23275   1.256   1.732   8.505  0.0840  0.3493  0.3120
 3881SOL    HW123276   1.347   1.708   8.523  0.0223 -0.7815 -0.9672
 3881SOL    HW223277   1.267   1.827   8.507  0.6863  0.2813  0.3876
 3882SOL     OW23278   1.492   3.058  15.069  0.2122 -0.3450 -0.0980
 3882SOL    HW123279   1.419   3.103  15.025  0.0428 -1.5173 -1.0108
 3882SOL    HW223280   1.467   3.065  15.161 -0.1548 -2.5861 -0.0167
 3883SOL     OW23281   0.890   1.182  17.552 -0.2077  0.3480  0.3782
 3883SOL    HW123282   0.933   1.115  17.605 -0.9777 -0.5719 -0.1597
 3883SOL    HW223283   0.938   1.261  17.577 -1.6970  0.5328  2.6218
 3884SOL     OW23284   3.328   4.565   4.172  0.8080 -0.2313  0.6227
 3884SOL    HW123285   3.320   4.548   4.266  0.7448 -0.0659  0.6479
 3884SOL    HW223286   3.290   4.485   4.134 -0.7807  2.5541 -3.6288
 3885SOL     OW23287   2.398   2.713  17.338 -0.0393 -0.1717 -0.3651
 3885SOL    HW123288   2.452   2.784  17.373 -0.5710 -1.0743  2.2654
 3885SOL    HW223289   2.380   2.653  17.410  0.2725  1.9275  1.4532
 3886SOL     OW23290   4.232   2.444   4.585 -0.5470 -0.5630  0.3664
 3886SOL    HW123291   4.259   2.369   4.533  1.1281  1.0575 -1.0891
 3886SOL    HW223292   4.310   2.498   4.576  0.9444 -2.7450  0.2563
 3887SOL     OW23293   4.634   2.503   5.593 -0.1421 -0.3166  0.6648
 3887SOL    HW123294   4.696   2.468   5.528 -1.5821  0.3267 -1.0624
 3887SOL    HW223295   4.556   2.505   5.537 -0.9724 -0.0900  1.8298
 3888SOL     OW23296   1.497   3.214  12.031 -0.3395 -0.8051  0.0250
 3888SOL    HW123297   1.566   3.267  12.072 -0.5814  0.1455 -0.8030
 3888SOL    HW223298   1.442   3.187  12.105  0.7539 -2.4696  0.2530
 3889SOL     OW23299   4.012   3.757  17.381  0.4325 -0.3788  0.8941
 3889SOL    HW123300   4.019   3.667  17.347  2.8249  0.5708 -1.1625
 3889SOL    HW223301   4.012   3.807  17.299 -1.9010  0.1271  1.2146
 3890SOL     OW23302   2.598   3.747   5.067  0.1189  0.5551 -0.0543
 3890SOL    HW123303   2.556   3.744   4.981  1.0127  0.2668 -0.4787
 3890SOL    HW223304   2.523   3.772   5.121  0.9668  0.4528  1.1638
 3891SOL     OW23305   4.490   1.380  16.168 -0.2496 -0.0957 -0.3032
 3891SOL    HW123306   4.551   1.332  16.224  0.9272  0.4419 -1.1230
 3891SOL    HW223307   4.516   1.471  16.186  0.0423 -0.2549  0.0736
 3892SOL     OW23308   0.290   2.234  16.495 -0.5216  0.1282  0.2896
 3892SOL    HW123309   0.206   2.204  16.458 -0.1280 -0.0268 -0.4827
 3892SOL    HW223310   0.318   2.158  16.547  0.7469 -0.3474 -1.0612
 3893SOL     OW23311   2.840   4.428   4.885  0.0189  0.6555 -0.4261
 3893SOL    HW123312   2.881   4.438   4.971  0.9609 -1.1825 -0.6421
 3893SOL    HW223313   2.805   4.339   4.885  3.0074 -0.5185  0.9478
 3894SOL     OW23314   3.176   2.566   4.124 -0.1651  0.3978 -0.0125
 3894SOL    HW123315   3.271   2.573   4.137 -0.0397 -0.8981 -0.2192
 3894SOL    HW223316   3.145   2.600   4.208 -1.2950  0.0506 -0.2951
 3895SOL     OW23317   2.521   1.711  11.829 -0.4081 -0.4163 -0.1282
 3895SOL    HW123318   2.526   1.627  11.875 -0.5696 -0.1906  0.3061
 3895SOL    HW223319   2.554   1.771  11.896  0.5101  0.6464 -1.5464
 3896SOL     OW23320   0.458   1.604   8.094 -0.6998  0.2365  0.1796
 3896SOL    HW123321   0.430   1.575   8.008  0.6215 -1.0872  0.1917
 3896SOL    HW223322   0.553   1.594   8.098 -0.5736  0.3297 -3.1009
 3897SOL     OW23323   3.305   1.290  10.325 -0.2139  0.2882 -0.1072
 3897SOL    HW123324   3.308   1.218  10.388  0.0920 -0.8498 -1.4124
 3897SOL    HW223325   3.333   1.356  10.388 -0.0850  0.1002  0.0353
 3898SOL     OW23326   2.953   1.229  17.650  0.4415  0.2261  0.4016
 3898SOL    HW123327   3.016   1.300  17.651  0.6516  0.0769 -1.8551
 3898SOL    HW223328   2.880   1.269  17.603 -0.6311 -1.2612  0.8035
 3899SOL     OW23329   0.696   2.598   9.513 -0.3285  0.4692 -0.1960
 3899SOL    HW123330   0.654   2.627   9.431 -0.0426 -2.0393 -1.2182
 3899SOL    HW223331   0.767   2.663   9.512  0.0286  0.0752  0.3652
 3900SOL     OW23332   2.382   4.480  14.046  0.4074  0.0823 -0.2364
 3900SOL    HW123333   2.314   4.548  14.045  0.2642 -0.0182  2.1838
 3900SOL    HW223334   2.358   4.435  13.965  2.4507 -0.4940 -0.5076
 3901SOL     OW23335   2.288   4.432   3.464 -0.0796 -0.0225 -0.5495
 3901SOL    HW123336   2.344   4.482   3.405 -0.6599 -0.2036 -1.2570
 3901SOL    HW223337   2.213   4.492   3.463  1.4534  1.9002 -1.3952
 3902SOL     OW23338   0.552   1.911   9.154  0.5078  0.1082 -0.1237
 3902SOL    HW123339   0.530   1.945   9.067  2.8501  2.7034  0.3254
 3902SOL    HW223340   0.631   1.963   9.168  1.0074 -0.6037 -0.2943
 3903SOL     OW23341   3.565   1.554   7.952  0.5718 -0.1597 -0.4193
 3903SOL    HW123342   3.502   1.488   7.981 -0.2098  0.8112  0.0822
 3903SOL    HW223343   3.625   1.499   7.901 -0.5062 -1.6632 -0.0765
 3904SOL     OW23344   3.909   3.959   4.277 -0.0844  0.2707  0.3309
 3904SOL    HW123345   3.900   3.879   4.328  0.5681 -0.3955 -0.6149
 3904SOL    HW223346   3.879   3.935   4.189 -0.8797  2.1521  0.0821
 3905SOL     OW23347   1.972   1.602   6.885  0.1915  0.3044  0.1314
 3905SOL    HW123348   1.981   1.588   6.979  1.3387  2.7515  0.4068
 3905SOL    HW223349   2.063   1.588   6.857  0.6157  1.9806  0.6427
 3906SOL     OW23350   0.277   1.205  12.533 -0.0917 -0.6942 -0.1637
 3906SOL    HW123351   0.336   1.174  12.464  2.1687  0.8422  1.0936
 3906SOL    HW223352   0.192   1.180  12.496 -0.0612  0.0333 -0.7235
 3907SOL     OW23353   3.617   1.025   4.846 -0.1179 -0.1666  0.2032
 3907SOL    HW123354   3.630   1.019   4.751 -0.2785  0.4062  0.1424
 3907SOL    HW223355   3.702   1.005   4.886  0.5898  1.0127 -0.6645
 3908SOL     OW23356   4.696   0.987  12.992  0.6119  0.2267 -0.0332
 3908SOL    HW123357   4.693   0.916  12.927  1.6710  0.3081 -0.1698
 3908SOL    HW223358   4.628   0.963  13.055  0.7031 -0.0284 -0.0315
 3909SOL     OW23359   4.491   2.569   8.898 -0.0391 -0.3156 -0.1284
 3909SOL    HW123360   4.537   2.648   8.928 -1.6991  0.1526  1.1392
 3909SOL    HW223361   4.402   2.603   8.898 -0.8458 -2.4687  0.0365
 3910SOL     OW23362   3.476   0.584   0.776 -0.1254 -0.0259 -0.4428
 3910SOL    HW123363   3.499   0.664   0.823  0.0406  0.2380 -0.9751
 3910SOL    HW223364   3.385   0.597   0.747 -0.5534  0.2713  1.0462
 3911SOL     OW23365   4.574   0.765   8.735 -0.1657  0.0443  0.4528
 3911SOL    HW123366   4.554   0.739   8.646  1.3283  2.5099 -0.6019
 3911SOL    HW223367   4.579   0.674   8.766 -2.2481 -0.5004 -0.8433
 3912SOL     OW23368   4.192   3.524   7.537 -0.3991 -0.8465 -0.0428
 3912SOL    HW123369   4.124   3.525   7.469  0.0723  0.4187 -0.4864
 3912SOL    HW223370   4.142   3.531   7.618 -2.6616  1.4404 -1.6619
 3913SOL     OW23371   3.679   1.551   6.264 -0.5702 -0.0850  0.3722
 3913SOL    HW123372   3.689   1.461   6.231  1.4047  0.3886 -0.3054
 3913SOL    HW223373   3.762   1.589   6.235 -0.7083  0.0330  0.1288
 3914SOL     OW23374   0.206   4.075   7.703 -0.1648 -0.4660  0.0192
 3914SOL    HW123375   0.296   4.096   7.728 -0.6511  2.1176 -0.3443
 3914SOL    HW223376   0.153   4.120   7.768 -0.5598  0.2446 -0.7901
 3915SOL     OW23377   0.066   1.775   3.542  0.1484  0.4387  0.5937
 3915SOL    HW123378   0.142   1.721   3.563  0.8611  1.1182 -0.2385
 3915SOL    HW223379   0.050   1.814   3.628 -2.0282  3.9887 -1.4156
 3916SOL     OW23380   0.727   4.564   1.950  0.0221  0.0651  0.1059
 3916SOL    HW123381   0.671   4.641   1.948  0.3840  0.3287  0.0065
 3916SOL    HW223382   0.774   4.562   1.867 -1.7658 -0.7233 -0.8689
 3917SOL     OW23383   1.245   0.396   7.478  0.4324  0.0827  0.1050
 3917SOL    HW123384   1.271   0.366   7.391  0.9933  0.7636  0.0414
 3917SOL    HW223385   1.171   0.443   7.439 -1.8008 -1.9377  1.8805
 3918SOL     OW23386   0.519   0.562   1.378  0.6725  0.3703 -0.2078
 3918SOL    HW123387   0.428   0.544   1.401  0.7945 -0.5768 -0.4540
 3918SOL    HW223388   0.573   0.520   1.446  0.5434 -1.9626 -1.5387
 3919SOL     OW23389   0.958   3.055   7.065 -0.3614  0.0978 -0.2503
 3919SOL    HW123390   1.022   3.075   6.997  0.4738 -1.6705  0.0113
 3919SOL    HW223391   0.881   3.034   7.011 -0.5876  0.9253 -0.2538
 3920SOL     OW23392   0.292   3.277   7.115  0.3856 -0.0618 -0.0192
 3920SOL    HW123393   0.340   3.241   7.189 -0.1241  2.0067  1.3231
 3920SOL    HW223394   0.290   3.368   7.144 -1.2285  0.6229 -2.2639
 3921SOL     OW23395   0.565   2.137   9.628  0.4057  0.7696  0.2256
 3921SOL    HW123396   0.556   2.163   9.537 -0.0215  2.8319  0.8456
 3921SOL    HW223397   0.658   2.157   9.641  0.2070  0.2554  2.4387
 3922SOL     OW23398   2.233   2.399   6.839  0.4573 -0.1590 -0.3042
 3922SOL    HW123399   2.261   2.488   6.863  0.1466  0.2842 -1.5741
 3922SOL    HW223400   2.155   2.413   6.785 -0.7320 -3.2299  0.6336
 3923SOL     OW23401   2.894   3.278   7.859 -0.0197  0.0686  0.2933
 3923SOL    HW123402   2.857   3.236   7.937 -1.2883  1.1196  0.2669
 3923SOL    HW223403   2.854   3.227   7.789  0.6521  0.1233 -0.1258
 3924SOL     OW23404   0.944   3.278   4.788  0.1078 -0.5586 -0.5074
 3924SOL    HW123405   1.028   3.306   4.750 -0.4025 -0.5421 -1.6079
 3924SOL    HW223406   0.965   3.186   4.805  0.3495 -0.0900  1.7831
 3925SOL     OW23407   2.096   3.945  10.270 -0.0151  0.0248 -0.0885
 3925SOL    HW123408   2.061   4.011  10.329 -2.0069 -0.8209 -0.2901
 3925SOL    HW223409   2.150   4.013  10.230  1.6642 -0.8640  0.6811
 3926SOL     OW23410   2.982   1.418   0.301 -0.3252  0.0416 -0.3114
 3926SOL    HW123411   2.992   1.444   0.209  1.6844 -0.2431 -0.1810
 3926SOL    HW223412   3.016   1.330   0.283  0.6765  0.0575  1.5785
 3927SOL     OW23413   2.215   2.580   6.048  0.2456 -0.3218 -0.0766
 3927SOL    HW123414   2.210   2.485   6.063  2.1913 -0.7083 -1.8692
 3927SOL    HW223415   2.133   2.600   6.004  0.7151  0.3991 -0.6186
 3928SOL     OW23416   1.611   2.763  14.057 -0.3376  0.1949 -0.0221
 3928SOL    HW123417   1.522   2.728  14.050 -0.5913  0.8922 -0.2880
 3928SOL    HW223418   1.661   2.703  14.001  1.0571  1.4711 -0.1403
 3929SOL     OW23419   4.625   1.093   3.463 -0.0830  0.2147  0.1758
 3929SOL    HW123420   4.541   1.046   3.455 -0.9090  1.7506 -0.0496
 3929SOL    HW223421   4.596   1.182   3.446 -0.1716  0.1641  0.0611
 3930SOL     OW23422   3.673   2.258   1.973 -0.6429  0.3629  0.5015
 3930SOL    HW123423   3.763   2.227   1.969 -0.8113 -0.0307 -0.3801
 3930SOL    HW223424   3.693   2.345   1.939  2.7875 -1.9940 -3.4730
 3931SOL     OW23425   3.152   3.062   7.538  0.1717  0.2717  0.7238
 3931SOL    HW123426   3.133   3.093   7.450 -0.3350  0.5059  0.9136
 3931SOL    HW223427   3.147   3.149   7.579 -2.3272  0.3503  0.2250
 3932SOL     OW23428   0.931   4.060   4.918  0.8656 -0.0320 -0.6871
 3932SOL    HW123429   0.991   4.132   4.937 -0.8412  0.9520  0.9616
 3932SOL    HW223430   0.845   4.100   4.902  1.5717  1.0723 -1.7181
 3933SOL     OW23431   0.694   1.261   5.958  0.2656 -0.4548 -0.1499
 3933SOL    HW123432   0.600   1.278   5.962 -0.6335 -5.2576 -0.1147
 3933SOL    HW223433   0.708   1.273   5.864  1.1997 -0.3585 -0.0015
 3934SOL     OW23434   4.701   1.851   8.780 -0.8349  0.0209 -0.4594
 3934SOL    HW123435   4.674   1.921   8.721 -1.2331 -0.1097 -0.4307
 3934SOL    HW223436   4.621   1.800   8.771 -1.4018  0.8919 -0.3332
 3935SOL     OW23437   0.875   2.233   4.877 -0.4882 -0.2700  0.0453
 3935SOL    HW123438   0.950   2.242   4.819  0.0746 -0.2602  0.7812
 3935SOL    HW223439   0.805   2.240   4.812 -1.0144 -3.6242  0.2911
 3936SOL     OW23440   4.443   1.003  10.105  0.3008 -0.0596  0.1956
 3936SOL    HW123441   4.475   0.946  10.175  0.3839  0.0225  0.2245
 3936SOL    HW223442   4.365   0.961  10.069 -0.4495  0.0364  1.7127
 3937SOL     OW23443   3.430   3.967  12.700 -0.0438  0.3302  0.6079
 3937SOL    HW123444   3.392   3.884  12.731 -1.2886  0.6737  0.0026
 3937SOL    HW223445   3.386   4.025  12.762  0.1683  0.6826  0.4296
 3938SOL     OW23446   1.148   0.736  16.426  0.3475 -0.1362  0.2355
 3938SOL    HW123447   1.118   0.725  16.335 -2.2694 -3.7650  1.5138
 3938SOL    HW223448   1.243   0.734  16.418  0.5256  2.3360  1.9327
 3939SOL     OW23449   1.066   2.945   8.558  0.0285 -0.0301 -0.6060
 3939SOL    HW123450   1.086   2.954   8.465  0.4085 -1.8608 -0.6989
 3939SOL    HW223451   1.136   2.887   8.589 -1.7277 -1.2849  1.0150
 3940SOL     OW23452   0.418   1.933  11.814 -0.2587  0.2843 -0.3702
 3940SOL    HW123453   0.364   1.971  11.745 -1.0469  0.6031  0.4254
 3940SOL    HW223454   0.353   1.942  11.884  1.5669  3.8275  0.8488
 3941SOL     OW23455   4.468   0.886   9.808  0.3881  0.0512  0.6500
 3941SOL    HW123456   4.450   0.821   9.876 -0.1399  0.3378  0.7844
 3941SOL    HW223457   4.387   0.934   9.791  0.3480 -1.3977 -3.4202
 3942SOL     OW23458   4.068   2.936   7.380 -0.4497  0.1329  0.3334
 3942SOL    HW123459   4.057   2.954   7.473  1.1500  0.2632  0.4922
 3942SOL    HW223460   4.070   3.024   7.342  3.0302 -0.8751 -1.7855
 3943SOL     OW23461   1.285   3.530   8.670  1.1654 -0.9160 -0.2465
 3943SOL    HW123462   1.325   3.527   8.583  0.3403  0.7684 -0.6762
 3943SOL    HW223463   1.347   3.474   8.717 -0.9609 -1.2106  2.2253
 3944SOL     OW23464   1.926   1.422   6.233 -0.2363 -0.4965 -0.1997
 3944SOL    HW123465   1.921   1.355   6.164  0.1020 -1.4225  0.6672
 3944SOL    HW223466   1.836   1.423   6.266 -0.2040 -2.6141 -0.0068
 3945SOL     OW23467   2.230   3.857   2.674  0.0852  0.3749  0.6914
 3945SOL    HW123468   2.154   3.855   2.731 -0.7068 -0.1376 -0.3720
 3945SOL    HW223469   2.197   3.836   2.586  1.5136 -0.0002  0.2439
 3946SOL     OW23470   2.886   2.568   1.694  0.6851 -0.2420 -0.1069
 3946SOL    HW123471   2.807   2.557   1.747  1.2154 -0.5703  0.6175
 3946SOL    HW223472   2.938   2.498   1.735  0.5072 -0.0154  0.5055
 3947SOL     OW23473   1.163   4.063   5.884 -0.3001  0.2000 -0.6352
 3947SOL    HW123474   1.122   4.126   5.826 -1.0757 -0.1431 -0.4553
 3947SOL    HW223475   1.096   4.033   5.945 -0.0824  2.8426  0.9177
 3948SOL     OW23476   3.600   3.745   4.747  0.5351 -0.2788 -0.0126
 3948SOL    HW123477   3.570   3.670   4.695 -0.0056 -0.3315  0.3747
 3948SOL    HW223478   3.689   3.713   4.761 -0.8419 -2.1988  4.3299
 3949SOL     OW23479   1.776   1.150   8.912  0.1116  0.2392  0.1443
 3949SOL    HW123480   1.716   1.091   8.957 -0.1074  0.8450  0.6470
 3949SOL    HW223481   1.862   1.134   8.953  0.1908 -0.9344 -0.4559
 3950SOL     OW23482   2.716   3.521   7.192 -0.3982 -0.4933  0.0252
 3950SOL    HW123483   2.633   3.562   7.167 -1.0410 -0.8737  1.5570
 3950SOL    HW223484   2.690   3.436   7.228 -1.9876  0.2241  0.5626
 3951SOL     OW23485   0.935   2.210   2.984 -0.0075 -0.1134 -0.1393
 3951SOL    HW123486   0.944   2.114   2.987 -2.7398 -0.4195 -1.4832
 3951SOL    HW223487   1.025   2.236   2.965 -0.0388  1.3098  1.6624
 3952SOL     OW23488   3.802   2.584   9.588 -0.4388  0.1452 -0.2858
 3952SOL    HW123489   3.766   2.506   9.545  0.4687 -2.0591  2.9097
 3952SOL    HW223490   3.841   2.549   9.668  0.3194 -0.1333 -0.7681
 3953SOL     OW23491   3.813   2.523   7.630 -0.2419  0.0367  0.6035
 3953SOL    HW123492   3.732   2.506   7.581 -0.2573  1.1019  0.2594
 3953SOL    HW223493   3.827   2.433   7.658  0.8166 -0.7415 -2.4519
 3954SOL     OW23494   3.638   4.681  15.129  0.0176  0.1397 -0.4611
 3954SOL    HW123495   3.626   4.706  15.038 -0.8306  0.1938 -0.3373
 3954SOL    HW223496   3.568   4.722  15.180 -1.1905 -0.7547 -1.4036
 3955SOL     OW23497   2.502   4.493  16.694 -0.0415  0.1897  0.0651
 3955SOL    HW123498   2.496   4.578  16.738  0.6954  1.4844 -2.3570
 3955SOL    HW223499   2.549   4.515  16.614  0.1648 -0.8864 -0.1130
 3956SOL     OW23500   0.358   0.821   8.459 -0.0023 -0.2754  0.8159
 3956SOL    HW123501   0.341   0.805   8.366 -0.9475  2.8516  0.4562
 3956SOL    HW223502   0.380   0.914   8.458  0.1245 -0.3039  0.9505
 3957SOL     OW23503   1.446   3.726   1.597 -0.2425  0.2381 -0.0458
 3957SOL    HW123504   1.490   3.802   1.559 -1.6355 -0.0714 -2.2846
 3957SOL    HW223505   1.492   3.709   1.679  2.3260  2.3195 -1.0324
 3958SOL     OW23506   0.378   3.485   8.210  0.1594 -0.1351  0.5557
 3958SOL    HW123507   0.356   3.576   8.188 -1.8265 -0.1638  2.4617
 3958SOL    HW223508   0.332   3.454   8.132  3.8009 -2.1511 -0.7730
 3959SOL     OW23509   3.947   4.610   3.190  0.7787 -0.1025  0.6480
 3959SOL    HW123510   3.907   4.529   3.221 -1.9469  1.0942  0.2943
 3959SOL    HW223511   3.878   4.669   3.220  1.0215 -1.1223  3.2352
 3960SOL     OW23512   1.099   0.037   7.192  0.7203  0.1231  0.0639
 3960SOL    HW123513   1.160   0.109   7.209 -0.1876  0.7913  0.4886
 3960SOL    HW223514   1.146   4.722   7.126 -0.7611 -1.9607  0.6034
 3961SOL     OW23515   3.747   2.208   2.403 -0.2248 -0.5858 -0.2616
 3961SOL    HW123516   3.797   2.249   2.332  0.1202  0.3875  0.5514
 3961SOL    HW223517   3.707   2.134   2.355 -1.3089  0.4735 -0.9985
 3962SOL     OW23518   0.806   4.370  10.720  0.2307  0.1395  0.1070
 3962SOL    HW123519   0.732   4.378  10.660  0.6728 -1.9195 -0.7127
 3962SOL    HW223520   0.883   4.360  10.664  0.4787  0.9852  0.2857
 3963SOL     OW23521   3.954   4.046   7.236 -0.1519  0.4219  0.2521
 3963SOL    HW123522   3.866   4.018   7.260  0.0405 -0.0920  0.3535
 3963SOL    HW223523   3.935   4.072   7.145 -2.0104 -1.7481  0.0282
 3964SOL     OW23524   3.179   4.077   4.924  0.2578  0.5272 -0.3962
 3964SOL    HW123525   3.227   4.110   4.848 -0.8733  1.0584 -0.8843
 3964SOL    HW223526   3.175   4.150   4.985 -1.4648  0.8505 -0.9087
 3965SOL     OW23527   3.499   1.749   4.233  0.6995 -0.7936  0.3849
 3965SOL    HW123528   3.469   1.828   4.279  0.7473  0.3871 -1.6252
 3965SOL    HW223529   3.579   1.727   4.281  1.3324  2.2186  0.6940
 3966SOL     OW23530   0.772   0.276  11.885 -0.3029 -0.3984  0.3414
 3966SOL    HW123531   0.761   0.299  11.793  2.9997  0.6156  0.2235
 3966SOL    HW223532   0.853   0.226  11.891 -0.3600 -0.7329 -1.7287
 3967SOL     OW23533   4.178   0.823   4.798  0.5788 -0.0091  0.4486
 3967SOL    HW123534   4.244   0.885   4.829 -0.4634  1.4717 -0.3199
 3967SOL    HW223535   4.216   0.737   4.817 -0.0824 -0.1841  1.0049
 3968SOL     OW23536   1.250   1.721   0.417 -0.3378 -0.3014  0.2249
 3968SOL    HW123537   1.172   1.744   0.366  0.2931  1.4042  0.0385
 3968SOL    HW223538   1.319   1.720   0.351 -1.1317 -2.2652 -0.5908
 3969SOL     OW23539   0.573   2.433   6.909 -0.4227 -0.0131 -0.3976
 3969SOL    HW123540   0.598   2.497   6.842 -1.7251  2.9517  1.8949
 3969SOL    HW223541   0.614   2.352   6.881  0.5181  0.4840 -0.4514
 3970SOL     OW23542   1.297   1.021   1.050 -0.3172 -0.6596 -0.3451
 3970SOL    HW123543   1.276   0.978   0.967  3.6682 -2.8620 -0.1628
 3970SOL    HW223544   1.219   1.076   1.063  1.2012  1.3847  0.1337
 3971SOL     OW23545   1.456   1.475   9.481 -0.7703 -0.3997  0.8616
 3971SOL    HW123546   1.537   1.526   9.486 -0.0959 -1.1447 -2.2494
 3971SOL    HW223547   1.408   1.529   9.419  0.5841 -0.0258  0.1366
 3972SOL     OW23548   4.070   4.601   4.819 -0.3444 -0.3673 -0.5401
 3972SOL    HW123549   4.036   4.682   4.781 -1.6884 -1.2336 -1.1906
 3972SOL    HW223550   4.090   4.553   4.739  2.7858  1.7575 -1.0193
 3973SOL     OW23551   3.433   1.660   1.628 -0.2094  0.5154  0.1444
 3973SOL    HW123552   3.432   1.735   1.687  0.0774  1.3292 -0.8785
 3973SOL    HW223553   3.481   1.592   1.674  3.1078  2.1650 -0.8744
 3974SOL     OW23554   4.635   1.180  12.656 -0.2216 -0.7705  0.5880
 3974SOL    HW123555   4.655   1.273  12.668  1.5120 -1.3126  1.8710
 3974SOL    HW223556   4.724   1.151  12.674 -0.1665  0.1205  1.8049
 3975SOL     OW23557   1.142   1.771   6.811 -0.2383  0.0197  0.3328
 3975SOL    HW123558   1.150   1.705   6.880  2.0508  1.2843  1.2514
 3975SOL    HW223559   1.049   1.789   6.821 -0.4024 -0.1208 -0.9336
 3976SOL     OW23560   0.804   0.287   1.784  0.3383 -0.1115  0.1380
 3976SOL    HW123561   0.894   0.317   1.773  0.1946  0.1532 -0.3394
 3976SOL    HW223562   0.823   0.195   1.765 -0.4482 -0.5683  1.5560
 3977SOL     OW23563   2.523   2.432   7.749  0.1795 -0.0287 -0.1750
 3977SOL    HW123564   2.550   2.521   7.724  0.9400 -0.5569 -1.2270
 3977SOL    HW223565   2.612   2.403   7.768 -0.1920  0.6246  2.6857
 3978SOL     OW23566   1.910   1.835   2.464  0.0480  0.3287 -0.0292
 3978SOL    HW123567   1.910   1.792   2.378 -0.8580 -1.3233  0.8011
 3978SOL    HW223568   2.005   1.823   2.475  0.3497  2.2337 -0.5919
 3979SOL     OW23569   2.016   4.175  16.721 -0.2334 -0.5712 -0.7192
 3979SOL    HW123570   2.088   4.164  16.659  0.9039 -1.6776  0.7937
 3979SOL    HW223571   2.021   4.270  16.735 -0.3842 -0.7324  0.4407
 3980SOL     OW23572   1.189   1.134   4.172 -0.6282 -0.5638  0.1056
 3980SOL    HW123573   1.195   1.156   4.080 -0.1709  0.6093  0.4258
 3980SOL    HW223574   1.147   1.213   4.207 -0.4320 -0.4508  0.0838
 3981SOL     OW23575   0.311   1.452   9.154  0.4123  0.1232 -0.5723
 3981SOL    HW123576   0.326   1.409   9.238 -0.1758  1.8605  0.4279
 3981SOL    HW223577   0.382   1.517   9.152 -0.1781  0.8342  1.6829
 3982SOL     OW23578   4.065   1.024  15.312 -0.1751  0.3843  0.6838
 3982SOL    HW123579   4.015   1.096  15.350  1.2865  1.7454  0.0523
 3982SOL    HW223580   4.157   1.051  15.315 -0.2043  0.6954 -1.3157
 3983SOL     OW23581   2.266   4.634  16.964  0.0380  0.1386  0.4581
 3983SOL    HW123582   2.278   4.657  17.056  2.5131 -0.4724  0.2747
 3983SOL    HW223583   2.346   4.666  16.923 -0.0708 -0.1314  0.0405
 3984SOL     OW23584   0.612   4.481   2.901  0.9348  0.5076 -0.1295
 3984SOL    HW123585   0.694   4.525   2.925 -0.8102  2.0785  2.9314
 3984SOL    HW223586   0.548   4.552   2.911  1.3042  0.8626 -0.2971
 3985SOL     OW23587   2.765   4.452   1.872  0.4376 -0.4835 -0.1940
 3985SOL    HW123588   2.696   4.515   1.893  0.5500 -0.3254 -0.3038
 3985SOL    HW223589   2.719   4.368   1.870  1.8866 -1.3060  1.1531
 3986SOL     OW23590   0.788   0.799   4.837  0.1758  0.2025 -0.1613
 3986SOL    HW123591   0.707   0.847   4.822  0.0106 -0.2579 -0.7576
 3986SOL    HW223592   0.805   0.770   4.747  0.1336  0.5443 -0.2781
 3987SOL     OW23593   3.968   3.287   6.702 -0.4808 -0.1406  0.0416
 3987SOL    HW123594   3.964   3.351   6.631  0.3216  0.0603  0.1852
 3987SOL    HW223595   3.880   3.250   6.691 -0.4647 -0.0642 -0.3386
 3988SOL     OW23596   1.994   3.158  16.732  0.6465 -0.4286 -0.0442
 3988SOL    HW123597   1.987   3.166  16.827 -4.5146  1.3445 -0.5842
 3988SOL    HW223598   1.952   3.074  16.712  1.7854 -0.9898 -0.1086
 3989SOL     OW23599   3.885   1.817   8.754  0.0216 -0.3024 -0.1803
 3989SOL    HW123600   3.940   1.889   8.785 -0.3188 -0.2807  0.3546
 3989SOL    HW223601   3.951   1.748   8.749  0.0626 -0.2015 -1.0732
 3990SOL     OW23602   2.160   3.392   3.653  0.1447 -0.6278 -0.1960
 3990SOL    HW123603   2.144   3.309   3.609  1.2290 -0.3282 -1.1530
 3990SOL    HW223604   2.220   3.424   3.585 -0.9381 -1.2748 -1.4498
 3991SOL     OW23605   1.207   4.046   5.503  0.0803 -0.3099 -0.4976
 3991SOL    HW123606   1.279   4.019   5.560 -1.4038  2.6090  2.7587
 3991SOL    HW223607   1.145   3.985   5.543 -0.2731  1.1786  1.2226
 3992SOL     OW23608   1.928   2.669   7.215  0.3441  0.1986 -0.1475
 3992SOL    HW123609   1.885   2.653   7.299  0.6973  1.1134  0.2143
 3992SOL    HW223610   1.952   2.762   7.209  1.1422 -0.0734 -1.0617
 3993SOL     OW23611   1.251   3.184  12.175 -0.0753  0.3772  0.8024
 3993SOL    HW123612   1.193   3.238  12.121 -2.3894 -2.2553  0.6582
 3993SOL    HW223613   1.244   3.231  12.257 -2.7152 -1.1035  1.4174
 3994SOL     OW23614   4.443   3.386   8.360  0.2398 -0.1496 -0.5199
 3994SOL    HW123615   4.370   3.445   8.342  3.4044  3.6743 -0.6196
 3994SOL    HW223616   4.510   3.451   8.381  0.7108 -0.5355 -0.8241
 3995SOL     OW23617   1.752   3.964   7.890  0.0243  0.1426  0.0629
 3995SOL    HW123618   1.749   3.924   7.977 -1.4786  1.9806  0.8512
 3995SOL    HW223619   1.731   3.889   7.835  1.0638 -1.0442  1.2783
 3996SOL     OW23620   2.097   2.580   3.629 -0.2990 -0.3198  0.5651
 3996SOL    HW123621   2.002   2.590   3.622 -0.3476 -0.0358  1.5950
 3996SOL    HW223622   2.109   2.486   3.614 -0.2559 -0.1158 -0.6574
 3997SOL     OW23623   1.684   0.910   7.272  0.2710 -0.1016 -0.1195
 3997SOL    HW123624   1.607   0.865   7.306 -2.1952  2.7079 -1.9286
 3997SOL    HW223625   1.687   0.995   7.317 -0.6790  1.0707 -2.2355
 3998SOL     OW23626   3.177   0.676   5.152  0.4819  0.1034 -0.4588
 3998SOL    HW123627   3.256   0.645   5.108 -0.7581 -2.5561 -0.8120
 3998SOL    HW223628   3.206   0.690   5.242  0.7626 -0.5742 -0.4466
 3999SOL     OW23629   2.325   2.726  10.056  0.6781 -0.3123  0.1554
 3999SOL    HW123630   2.299   2.676   9.978 -0.5599 -3.4245  2.6059
 3999SOL    HW223631   2.284   2.810  10.038  0.9568 -0.1568  0.2501
 4000SOL     OW23632   4.359   4.088   0.066  0.1289 -0.3427  0.1385
 4000SOL    HW123633   4.398   4.001   0.057 -2.5283 -1.3520 -1.4620
 4000SOL    HW223634   4.399   4.116   0.148 -0.4142  2.6315 -0.6220
 4001SOL     OW23635   2.069   1.169   0.865 -0.1114  0.2653  0.1812
 4001SOL    HW123636   1.997   1.223   0.899  0.5192  1.3775 -0.2194
 4001SOL    HW223637   2.141   1.224   0.897  2.2518 -2.6947 -0.0186
 4002SOL     OW23638   2.211   2.450   2.260 -0.9625  0.0883 -0.0847
 4002SOL    HW123639   2.165   2.369   2.238 -0.3126 -0.3409  0.1395
 4002SOL    HW223640   2.301   2.417   2.268 -1.4671 -1.1051  0.7958
 4003SOL     OW23641   0.292   0.251  12.001 -0.3726  0.4678  0.2011
 4003SOL    HW123642   0.331   0.177  11.955  1.9146  0.8005  1.6264
 4003SOL    HW223643   0.291   0.228  12.093 -0.7547 -0.5524 -0.0664
 4004SOL     OW23644   0.947   2.470   4.191 -0.2887 -0.4403 -0.3043
 4004SOL    HW123645   0.956   2.560   4.160  0.4959 -0.5750 -0.4667
 4004SOL    HW223646   0.891   2.426   4.127  0.7257 -0.8129 -0.9205
 4005SOL     OW23647   2.862   2.707   8.352  0.1243  0.0362 -0.4781
 4005SOL    HW123648   2.893   2.616   8.355  0.1409  0.1236  1.5290
 4005SOL    HW223649   2.782   2.711   8.405 -0.2479 -0.7404 -0.9688
 4006SOL     OW23650   1.609   1.916   6.583 -0.3766 -0.0242 -0.4254
 4006SOL    HW123651   1.526   1.949   6.618 -0.6509 -0.9198 -0.2218
 4006SOL    HW223652   1.597   1.828   6.546  0.1505 -0.5343  0.6154
 4007SOL     OW23653   0.656   1.974   0.974 -0.4900 -0.6427 -0.4316
 4007SOL    HW123654   0.603   1.943   1.048 -1.4533 -0.2246 -0.9492
 4007SOL    HW223655   0.592   2.031   0.931  1.4473  1.6827 -0.1878
 4008SOL     OW23656   1.207   1.485   2.301 -0.0201 -0.3414 -0.3010
 4008SOL    HW123657   1.259   1.412   2.267  0.2340  0.3915 -1.5000
 4008SOL    HW223658   1.206   1.550   2.230  1.3956 -0.6145 -0.5619
 4009SOL     OW23659   4.720   3.246   8.960  0.1120 -0.4531 -0.0232
 4009SOL    HW123660   0.001   3.334   8.994 -1.2763  0.0829 -0.7247
 4009SOL    HW223661   0.055   3.262   8.897 -1.3669 -0.3565 -1.6483
 4010SOL     OW23662   3.984   0.684   5.572 -0.9117  0.3320  0.1038
 4010SOL    HW123663   3.940   0.639   5.645 -0.1150 -1.5182 -0.5534
 4010SOL    HW223664   3.948   0.635   5.499 -0.4124 -0.7771  0.5900
 4011SOL     OW23665   1.046   0.650  16.168 -0.0899 -0.2434 -0.0022
 4011SOL    HW123666   0.980   0.590  16.203 -1.2257  1.4780  0.8431
 4011SOL    HW223667   1.028   0.642  16.075 -4.0240  1.4802  0.6067
 4012SOL     OW23668   4.188   2.056   6.198 -0.2322 -0.6755 -0.1130
 4012SOL    HW123669   4.270   2.035   6.243 -0.6610 -0.7791  0.6138
 4012SOL    HW223670   4.209   2.017   6.113 -0.4326  0.1822 -0.5608
 4013SOL     OW23671   3.759   4.335   6.172  0.4558  0.0946 -0.3482
 4013SOL    HW123672   3.840   4.382   6.193  0.3343 -0.0968  0.5572
 4013SOL    HW223673   3.744   4.368   6.084  1.5573  0.6641 -0.3270
 4014SOL     OW23674   4.181   0.743  15.657 -0.2205  0.1350 -0.5710
 4014SOL    HW123675   4.141   0.784  15.734 -3.9239 -2.1709 -1.2541
 4014SOL    HW223676   4.268   0.783  15.653 -0.3380  0.5707  1.2586
 4015SOL     OW23677   1.156   0.411   3.829  0.2496 -0.3129 -0.0907
 4015SOL    HW123678   1.185   0.364   3.751  1.6747 -1.2073  0.9801
 4015SOL    HW223679   1.223   0.380   3.890  0.7174  1.1743  0.1572
 4016SOL     OW23680   0.262   3.967  11.190 -0.3868  0.1503 -0.6533
 4016SOL    HW123681   0.329   3.971  11.123 -2.0954  1.9771 -2.2669
 4016SOL    HW223682   0.184   3.976  11.134 -3.4488 -2.6609  3.1288
 4017SOL     OW23683   3.678   3.068   3.490 -0.1048 -0.2403 -0.5433
 4017SOL    HW123684   3.657   2.982   3.454 -0.0593 -1.2691  1.8936
 4017SOL    HW223685   3.592   3.099   3.516 -0.4963  0.1491 -2.3214
 4018SOL     OW23686   2.967   1.390  16.705  0.0805 -0.4405 -0.2200
 4018SOL    HW123687   3.009   1.475  16.710 -0.8285  0.0193 -0.4591
 4018SOL    HW223688   2.876   1.414  16.691 -0.0022  0.3068  1.5453
 4019SOL     OW23689   1.725   2.838   2.094  0.2826 -0.5435 -0.1971
 4019SOL    HW123690   1.779   2.806   2.166 -0.6307 -0.0082  0.7388
 4019SOL    HW223691   1.795   2.870   2.038 -0.1998  3.1876  1.2939
 4020SOL     OW23692   2.923   3.342   4.296  0.4319  0.5568  0.2085
 4020SOL    HW123693   2.961   3.371   4.379 -2.4523  0.1490  1.6960
 4020SOL    HW223694   2.918   3.249   4.316  0.0006  0.4074 -0.5807
 4021SOL     OW23695   3.237   2.779   0.188 -0.7167 -0.2508 -0.2390
 4021SOL    HW123696   3.208   2.698   0.147  0.2135 -0.8723  0.3318
 4021SOL    HW223697   3.317   2.757   0.235  0.8147  2.1038 -1.7367
 4022SOL     OW23698   2.099   0.056   1.115 -0.4926  0.0995  0.2816
 4022SOL    HW123699   2.050   0.006   1.181  0.2272 -2.0173 -0.7801
 4022SOL    HW223700   2.142   0.117   1.174 -0.3601  0.4254 -0.1486
 4023SOL     OW23701   3.812   1.977  14.114  0.2825 -0.1080 -0.1688
 4023SOL    HW123702   3.864   1.912  14.067 -0.8679 -0.3968 -1.0493
 4023SOL    HW223703   3.768   1.913  14.170  2.8573 -0.2338  1.7041
 4024SOL     OW23704   3.633   1.401   3.158 -0.2956 -0.0591  0.6000
 4024SOL    HW123705   3.689   1.330   3.126  1.2254  0.5140  1.9508
 4024SOL    HW223706   3.595   1.366   3.238 -2.7689 -1.4556 -1.2005
 4025SOL     OW23707   4.499   2.526  13.020 -0.4135 -0.0515 -0.0388
 4025SOL    HW123708   4.563   2.517  13.091  0.0735 -1.5709 -0.6548
 4025SOL    HW223709   4.525   2.454  12.963 -0.0803  0.0134  0.0315
 4026SOL     OW23710   4.235   0.623  10.715 -0.4520 -0.1482  0.5477
 4026SOL    HW123711   4.306   0.663  10.765 -1.6898  0.8089  1.5740
 4026SOL    HW223712   4.218   0.537  10.753  0.2864 -0.5972 -0.1494
 4027SOL     OW23713   3.210   0.224   1.584 -0.0475 -0.6397  0.0214
 4027SOL    HW123714   3.239   0.189   1.500 -0.1489 -2.0538  0.5863
 4027SOL    HW223715   3.131   0.267   1.551  0.3643 -1.3454 -1.8413
 4028SOL     OW23716   1.979   2.846   8.067  0.6237  0.7831 -0.1473
 4028SOL    HW123717   1.999   2.756   8.041 -0.4527  0.4793  0.0965
 4028SOL    HW223718   1.998   2.846   8.160  1.7401 -0.9399 -0.3676
 4029SOL     OW23719   4.525   1.061  11.964  0.5420  0.3344  0.4681
 4029SOL    HW123720   4.470   1.041  12.040  0.1342  1.1318  0.3832
 4029SOL    HW223721   4.609   1.059  12.010 -0.5238 -0.4143  2.4167
 4030SOL     OW23722   0.200   0.141   5.649  0.2066  0.0663 -0.4874
 4030SOL    HW123723   0.284   0.097   5.664  1.1955  1.8479 -0.7662
 4030SOL    HW223724   0.226   0.231   5.670  1.6180 -0.4841  0.1322
 4031SOL     OW23725   4.181   3.814   0.571 -0.3023 -0.0351  0.2266
 4031SOL    HW123726   4.130   3.875   0.624 -0.6871 -1.0427  1.0170
 4031SOL    HW223727   4.122   3.739   0.562  0.7060 -0.9145  0.8809
 4032SOL     OW23728   3.648   0.103  14.295  0.0191  0.5018  0.3060
 4032SOL    HW123729   3.740   0.122  14.277  0.8631 -2.1350  1.7347
 4032SOL    HW223730   3.611   0.082  14.209  1.2548 -0.0644 -0.0906
 4033SOL     OW23731   1.853   0.048  16.465  0.6908 -1.1076  0.0169
 4033SOL    HW123732   1.852   0.135  16.505  0.9392 -1.0367 -0.1328
 4033SOL    HW223733   1.928   0.047  16.405  0.6169  2.6628 -0.1031
 4034SOL     OW23734   0.765   1.098  16.952  0.1319 -0.1777 -0.1054
 4034SOL    HW123735   0.769   1.147  16.870  3.0269 -2.4439 -1.3434
 4034SOL    HW223736   0.705   1.026  16.932 -0.8373  0.5311  0.2873
 4035SOL     OW23737   3.930   4.069   5.182  0.1095  0.3014 -0.2923
 4035SOL    HW123738   3.987   4.034   5.250  2.4242  1.6913 -1.5147
 4035SOL    HW223739   3.912   4.156   5.216 -0.0928  0.6282 -1.2228
 4036SOL     OW23740   4.114   3.532   4.109  0.1046 -0.3271 -0.2006
 4036SOL    HW123741   4.143   3.546   4.019  3.9517 -2.4462  0.6900
 4036SOL    HW223742   4.193   3.484   4.136 -1.2044 -1.8781  0.8536
 4037SOL     OW23743   4.516   4.105   2.255  0.2527 -0.2652 -0.1693
 4037SOL    HW123744   4.604   4.129   2.285  0.4250 -1.0714 -0.0411
 4037SOL    HW223745   4.535   4.116   2.162 -0.9439  0.6824 -0.3020
 4038SOL     OW23746   2.335   0.535   6.723 -0.3268  0.1668 -0.1892
 4038SOL    HW123747   2.385   0.557   6.802  0.4851  0.5791 -0.8148
 4038SOL    HW223748   2.249   0.565   6.751  0.2131  0.9284  0.6561
 4039SOL     OW23749   3.855   2.243   2.660 -0.0423  0.6751 -0.2510
 4039SOL    HW123750   3.772   2.285   2.685 -1.0551 -0.8623 -1.0644
 4039SOL    HW223751   3.836   2.210   2.572  0.8721 -0.9538  0.1676
 4040SOL     OW23752   0.873   2.433   7.860 -0.2171  0.0291 -0.0664
 4040SOL    HW123753   0.907   2.407   7.946 -0.0192  1.0671  0.1688
 4040SOL    HW223754   0.814   2.358   7.852  0.8390 -0.8570  0.4257
 4041SOL     OW23755   2.375   0.799   7.716 -0.4326 -0.4821  0.1216
 4041SOL    HW123756   2.327   0.832   7.793 -2.2876 -0.8038 -0.9077
 4041SOL    HW223757   2.400   0.884   7.681 -2.9179 -0.8147 -2.5061
 4042SOL     OW23758   0.554   3.463  15.726  0.6969  0.0570 -0.2045
 4042SOL    HW123759   0.545   3.495  15.636 -1.2749 -1.0664 -0.4072
 4042SOL    HW223760   0.479   3.503  15.770  0.8911 -0.0411  0.2178
 4043SOL     OW23761   1.084   0.413   8.034 -0.3024 -0.5485  0.0976
 4043SOL    HW123762   1.098   0.366   8.116 -0.8551 -0.3274  0.3212
 4043SOL    HW223763   1.162   0.467   8.044 -1.6361  1.0812  1.7239
 4044SOL     OW23764   1.071   0.395   3.157 -0.1707 -0.1003  0.0132
 4044SOL    HW123765   1.038   0.401   3.247  0.1674 -0.4306  0.1595
 4044SOL    HW223766   0.996   0.353   3.114 -0.4439  3.5091 -2.9070
 4045SOL     OW23767   0.903   1.931   7.954 -0.2841  0.1995  0.1249
 4045SOL    HW123768   0.867   1.896   8.035 -0.3335 -0.0651 -0.0139
 4045SOL    HW223769   0.994   1.902   7.952 -0.0478  0.9431 -0.2169
 4046SOL     OW23770   2.098   4.461   2.531  0.1778  0.3788  0.0194
 4046SOL    HW123771   2.058   4.374   2.530  1.7775 -0.3078 -2.7448
 4046SOL    HW223772   2.166   4.450   2.464  0.4492  0.3938  0.2901
 4047SOL     OW23773   4.272   0.583   8.318 -0.7512  0.8401 -0.4972
 4047SOL    HW123774   4.269   0.674   8.290 -1.9456  1.0067  0.1885
 4047SOL    HW223775   4.188   0.566   8.361 -0.1235  0.0188  0.4258
 4048SOL     OW23776   2.691   4.547   4.528 -0.5714 -0.2807  0.1763
 4048SOL    HW123777   2.599   4.522   4.518 -0.4893  0.0163 -1.3252
 4048SOL    HW223778   2.689   4.623   4.587 -2.7001 -0.3408  0.1882
 4049SOL     OW23779   3.706   2.701   3.682 -0.2888  0.4057 -0.0944
 4049SOL    HW123780   3.791   2.665   3.657  0.8678  1.4556  2.3420
 4049SOL    HW223781   3.697   2.769   3.615  2.5387 -0.2588 -1.1209
 4050SOL     OW23782   2.216   1.243  10.477 -0.4829  0.0590  0.2123
 4050SOL    HW123783   2.209   1.191  10.397 -1.5802 -1.2238  1.1327
 4050SOL    HW223784   2.308   1.267  10.466 -0.0103 -1.9541 -0.3337
 4051SOL     OW23785   3.594   4.091  11.517 -0.3550 -0.2175 -0.2296
 4051SOL    HW123786   3.658   4.162  11.520 -0.7234  0.1443 -1.0583
 4051SOL    HW223787   3.645   4.022  11.559  0.0286 -1.1295 -2.1969
 4052SOL     OW23788   3.775   0.557  13.037 -0.1410  0.0972 -0.0692
 4052SOL    HW123789   3.828   0.633  13.013 -1.0887  0.5285 -0.7681
 4052SOL    HW223790   3.839   0.506  13.087  0.9025  0.1701 -1.3194
 4053SOL     OW23791   1.533   0.326   4.605 -0.1081 -0.3403  0.7468
 4053SOL    HW123792   1.609   0.360   4.558 -0.9040 -1.3177 -1.2669
 4053SOL    HW223793   1.544   0.359   4.695  2.0693  4.0311 -1.1043
 4054SOL     OW23794   1.274   4.702  16.602 -0.2705 -0.3823 -0.1554
 4054SOL    HW123795   1.183   4.728  16.612  0.7130  1.9528  2.8982
 4054SOL    HW223796   1.299   4.657  16.683 -2.6133 -0.4894  0.4887
 4055SOL     OW23797   2.239   0.807  15.029 -0.1283  0.0451  0.6147
 4055SOL    HW123798   2.275   0.879  15.079  0.2426 -1.4722  2.5416
 4055SOL    HW223799   2.176   0.850  14.971  0.0427  1.2430  1.3260
 4056SOL     OW23800   1.185   2.236   4.320  0.3309 -0.0627  0.3947
 4056SOL    HW123801   1.201   2.184   4.399 -0.3762 -0.8526  0.0207
 4056SOL    HW223802   1.153   2.167   4.262  1.7140  0.3128 -0.8117
 4057SOL     OW23803   2.606   4.301   3.789 -0.1621  0.5410  0.1792
 4057SOL    HW123804   2.534   4.278   3.732 -0.6733 -0.8412  1.3821
 4057SOL    HW223805   2.590   4.391   3.818  1.1934  0.5584  0.8823
 4058SOL     OW23806   0.363   4.660   4.230 -0.5574  0.0288  0.3790
 4058SOL    HW123807   0.442   4.712   4.216 -0.4313 -0.8661 -2.3280
 4058SOL    HW223808   0.386   4.582   4.178  0.0706  0.2664  0.3016
 4059SOL     OW23809   1.033   2.106   1.431  0.2225 -0.2286  0.2763
 4059SOL    HW123810   1.103   2.110   1.496 -0.2515  1.5558  0.6703
 4059SOL    HW223811   0.953   2.137   1.473 -1.3893 -5.1287  0.8356
 4060SOL     OW23812   3.433   2.242   4.677 -0.0844  0.0827 -0.2310
 4060SOL    HW123813   3.371   2.245   4.750 -0.3579  1.1801 -0.5027
 4060SOL    HW223814   3.476   2.327   4.690 -1.1974  0.8947 -1.7369
 4061SOL     OW23815   1.267   3.822   6.867 -0.1245 -0.0027 -0.1650
 4061SOL    HW123816   1.188   3.866   6.834 -1.0182 -1.5073 -0.0432
 4061SOL    HW223817   1.243   3.764   6.940  1.0437  2.1032  1.8703
 4062SOL     OW23818   1.986   4.282   5.833 -0.1903 -0.5675 -0.0878
 4062SOL    HW123819   2.034   4.306   5.912  1.4294  0.4828 -1.4130
 4062SOL    HW223820   2.003   4.188   5.836 -4.1427 -1.2635  1.2267
 4063SOL     OW23821   0.065   1.018   5.575 -0.1622  0.4773  0.3923
 4063SOL    HW123822   0.118   0.958   5.523 -2.0774  0.9283 -2.0532
 4063SOL    HW223823   4.715   0.981   5.556 -0.2522  0.9186 -0.0581
 4064SOL     OW23824   3.644   4.209   1.786 -0.1611  0.0045 -0.0427
 4064SOL    HW123825   3.678   4.281   1.838 -2.4490  0.0616  1.4007
 4064SOL    HW223826   3.594   4.163   1.853  1.6729  0.6595  1.7735
 4065SOL     OW23827   4.534   4.357   6.605 -0.5878  0.3396 -0.2258
 4065SOL    HW123828   4.450   4.335   6.566  0.3784 -1.9778 -0.9517
 4065SOL    HW223829   4.599   4.359   6.536  1.7363  2.0927  2.0286
 4066SOL     OW23830   4.426   4.526  15.443  0.0849  0.3102  0.3707
 4066SOL    HW123831   4.489   4.580  15.491  1.5441 -0.9325 -0.1768
 4066SOL    HW223832   4.368   4.499  15.514  2.1353 -0.2510  1.8191
 4067SOL     OW23833   0.799   3.767   2.886 -0.0634 -0.3503 -0.0451
 4067SOL    HW123834   0.755   3.794   2.805 -0.6681  0.5949  0.5976
 4067SOL    HW223835   0.881   3.749   2.839 -0.6101 -0.6106 -0.9029
 4068SOL     OW23836   2.148   2.798   1.376 -0.3782  0.1155 -0.2241
 4068SOL    HW123837   2.163   2.713   1.335 -1.1871 -1.2036  2.2668
 4068SOL    HW223838   2.113   2.856   1.308  1.5733  1.4177 -0.1199
 4069SOL     OW23839   1.738   3.597   4.884  0.4425 -0.4887  0.0460
 4069SOL    HW123840   1.743   3.690   4.860  1.3791 -0.4179  0.5008
 4069SOL    HW223841   1.677   3.565   4.819 -2.4467  1.6972  1.6502
 4070SOL     OW23842   1.338   4.515   6.398 -0.1509 -0.3119 -0.2399
 4070SOL    HW123843   1.265   4.575   6.410 -2.6863 -3.0662 -1.8227
 4070SOL    HW223844   1.316   4.451   6.464 -2.0552 -0.4088 -0.9741
 4071SOL     OW23845   2.948   3.960  16.047  0.5932  0.8468 -0.0409
 4071SOL    HW123846   2.860   3.984  16.017  0.4791 -0.1981 -0.5355
 4071SOL    HW223847   2.959   3.980  16.140  2.1213  0.2708 -0.0956
 4072SOL     OW23848   3.322   3.255  15.582 -0.3404 -0.2824 -0.1241
 4072SOL    HW123849   3.296   3.180  15.636 -1.9005  0.7637  0.5939
 4072SOL    HW223850   3.345   3.211  15.500 -2.0646 -1.7432  0.1715
 4073SOL     OW23851   0.817   0.740   2.938  0.4133 -0.3171 -0.2013
 4073SOL    HW123852   0.799   0.669   2.878 -0.6973 -1.1736  1.1503
 4073SOL    HW223853   0.901   0.707   2.970  0.2942 -0.8439 -0.4321
 4074SOL     OW23854   4.178   4.300  15.284  0.0705 -0.4458  0.6922
 4074SOL    HW123855   4.164   4.206  15.290 -1.2824 -0.3104 -0.4129
 4074SOL    HW223856   4.126   4.334  15.356 -0.3729  0.7439 -0.1976
 4075SOL     OW23857   1.258   3.338   9.526 -0.1045 -0.3212 -0.6038
 4075SOL    HW123858   1.323   3.273   9.553  0.8294  0.4448 -0.9681
 4075SOL    HW223859   1.221   3.352   9.613 -0.4485  0.5999 -0.8935
 4076SOL     OW23860   2.412   2.736   5.096  0.1105 -0.8053  0.6325
 4076SOL    HW123861   2.497   2.748   5.138  0.6488 -0.7622 -0.4793
 4076SOL    HW223862   2.363   2.719   5.176 -0.0050  0.9274  0.9217
 4077SOL     OW23863   2.699   4.700   5.741 -0.1123  0.0496  0.0760
 4077SOL    HW123864   2.618   0.015   5.753 -0.4882 -1.1317  2.3194
 4077SOL    HW223865   2.662   4.617   5.712  1.1710  0.3830 -2.5610
 4078SOL     OW23866   0.657   0.012  16.350 -0.2448  0.5243  0.0640
 4078SOL    HW123867   0.660   0.078  16.419 -0.9274  1.0919 -0.4511
 4078SOL    HW223868   0.733   0.046  16.301 -2.0099  2.2670 -1.4536
 4079SOL     OW23869   0.094   1.484   7.955 -0.2353 -0.4737  0.8238
 4079SOL    HW123870   0.149   1.409   7.935 -2.0776 -1.9929  1.4521
 4079SOL    HW223871   0.071   1.515   7.868  1.1439  0.4036  0.7679
 4080SOL     OW23872   0.249   1.607   2.486 -0.0816  0.4691 -0.8844
 4080SOL    HW123873   0.324   1.615   2.427  0.7125 -1.7054 -0.1670
 4080SOL    HW223874   0.243   1.696   2.520  0.6723 -0.4401  1.5932
 4081SOL     OW23875   3.146   2.372  13.568  0.6147  0.8477 -0.0997
 4081SOL    HW123876   3.127   2.280  13.552 -1.5434  1.4258 -0.8541
 4081SOL    HW223877   3.235   2.380  13.603  0.9109 -1.2110 -0.3463
 4082SOL     OW23878   3.269   3.930   5.528 -0.1941 -0.4058 -0.0870
 4082SOL    HW123879   3.231   3.969   5.450  0.5718  0.3447 -0.0827
 4082SOL    HW223880   3.330   3.998   5.555  0.2113 -0.5126 -0.7267
 4083SOL     OW23881   2.626   3.938   1.162  0.1258  0.0983 -0.3129
 4083SOL    HW123882   2.651   3.869   1.100 -2.2636  0.8612 -2.1212
 4083SOL    HW223883   2.681   4.012   1.138 -2.8053  2.0596 -0.9538
 4084SOL     OW23884   3.416   0.770  15.141  0.3085  0.5899  0.5300
 4084SOL    HW123885   3.328   0.798  15.114  0.1222 -0.4304  0.0915
 4084SOL    HW223886   3.392   0.707  15.210  2.0410 -0.7310 -0.0741
 4085SOL     OW23887   0.152   0.693   5.907 -0.0020 -0.6552  0.7364
 4085SOL    HW123888   0.065   0.660   5.884  0.7120 -0.8831 -1.6432
 4085SOL    HW223889   0.145   0.743   5.988  1.0651  1.7672 -0.6713
 4086SOL     OW23890   2.171   2.351   9.210  0.7691 -0.3720  0.1787
 4086SOL    HW123891   2.124   2.352   9.294 -1.1504  0.7560 -0.9071
 4086SOL    HW223892   2.252   2.371   9.258  0.4398 -0.5130  0.8010
 4087SOL     OW23893   4.347   2.818   7.070 -0.6959 -0.1197  0.4308
 4087SOL    HW123894   4.360   2.911   7.091 -0.6799  0.4878 -2.2603
 4087SOL    HW223895   4.405   2.774   7.132  0.5379  0.7001 -0.1563
 4088SOL     OW23896   4.131   2.315   7.776 -0.2534 -0.7623 -0.1956
 4088SOL    HW123897   4.158   2.360   7.856 -1.8204  1.8946 -1.1770
 4088SOL    HW223898   4.216   2.284   7.744  1.0041  1.3258  1.1313
 4089SOL     OW23899   3.637   1.275  16.117  0.1553 -0.4527  0.3281
 4089SOL    HW123900   3.698   1.223  16.065  0.5377  1.2544 -0.9029
 4089SOL    HW223901   3.644   1.232  16.202 -1.8579 -2.2212 -0.4017
 4090SOL     OW23902   4.297   2.202  16.897 -0.3013 -0.2746 -0.0284
 4090SOL    HW123903   4.370   2.217  16.956 -1.3347  1.9986  0.6540
 4090SOL    HW223904   4.230   2.247  16.949 -0.4388  1.2391 -1.5359
 4091SOL     OW23905   4.060   1.369  14.414  0.2824 -0.6176  0.2426
 4091SOL    HW123906   4.117   1.356  14.338  0.6364  2.8769 -0.0623
 4091SOL    HW223907   4.119   1.378  14.488  0.7479 -1.2978 -0.0448
 4092SOL     OW23908   4.006   2.531  11.678  0.3401 -0.0388  0.3903
 4092SOL    HW123909   3.911   2.544  11.686  0.5698  0.6134  2.0728
 4092SOL    HW223910   4.033   2.622  11.667 -0.2944 -0.2779 -3.1357
 4093SOL     OW23911   3.786   4.659  17.624 -0.4305  0.3126 -0.5625
 4093SOL    HW123912   3.736   4.696  17.551 -0.0936  0.6222 -0.6410
 4093SOL    HW223913   3.840   4.735  17.650  0.0448 -0.2315  0.0374
 4094SOL     OW23914   2.217   1.630  11.793  0.2777 -0.8118 -0.0981
 4094SOL    HW123915   2.276   1.702  11.814 -1.0085  0.0546  0.5408
 4094SOL    HW223916   2.214   1.586  11.878  1.3936 -0.8024 -0.0595
 4095SOL     OW23917   4.153   4.031   3.797  0.2737 -0.3573  0.6436
 4095SOL    HW123918   4.229   4.071   3.756  0.3676 -2.1010 -0.8279
 4095SOL    HW223919   4.096   4.023   3.720  2.4164 -0.8052 -0.8815
 4096SOL     OW23920   2.063   0.047   6.627  0.6728 -0.0392 -0.9333
 4096SOL    HW123921   1.993   0.002   6.674  0.0860  0.3191 -1.4612
 4096SOL    HW223922   2.058   4.736   6.544 -0.7862 -0.4978 -0.5740
 4097SOL     OW23923   3.821   2.309  16.598  0.0528  0.6319  0.6128
 4097SOL    HW123924   3.781   2.351  16.522  1.5345 -0.5804 -0.8130
 4097SOL    HW223925   3.815   2.217  16.573  2.2404  0.2402  1.5165
 4098SOL     OW23926   1.756   0.147   9.848  0.0372 -0.2334 -0.1281
 4098SOL    HW123927   1.768   0.092   9.770 -1.3917  1.4135 -1.5120
 4098SOL    HW223928   1.848   0.161   9.872  0.1544 -0.3746 -0.4772
 4099SOL     OW23929   1.452   4.370   4.611  0.0066 -0.4378 -0.1534
 4099SOL    HW123930   1.544   4.389   4.592 -0.1111  0.3017  0.0244
 4099SOL    HW223931   1.417   4.354   4.523  0.4513  2.2087 -0.8011
 4100SOL     OW23932   4.537   0.882   3.205  0.0628 -0.3879  0.0565
 4100SOL    HW123933   4.491   0.966   3.214  0.1660 -0.2468 -0.7207
 4100SOL    HW223934   4.583   0.895   3.122 -0.4089 -0.0001 -0.1421
 4101SOL     OW23935   4.288   0.865   8.293  0.7917 -0.1599  0.0477
 4101SOL    HW123936   4.366   0.849   8.347  1.1033 -0.8833 -0.6272
 4101SOL    HW223937   4.242   0.932   8.343  0.0277 -0.7174  0.0902
 4102SOL     OW23938   4.483   3.533   2.694 -0.4434  0.2324  0.4941
 4102SOL    HW123939   4.577   3.520   2.707 -0.3060  0.8183  0.0440
 4102SOL    HW223940   4.472   3.625   2.715 -2.8822 -0.4317  2.2154
 4103SOL     OW23941   1.444   0.134   6.495 -0.1539 -0.3823  0.6708
 4103SOL    HW123942   1.478   0.220   6.470 -0.4325 -0.9127 -1.5671
 4103SOL    HW223943   1.351   0.148   6.478  0.0136  0.0616  0.0984
 4104SOL     OW23944   2.433   1.825   9.293  0.1829  0.1128  0.6781
 4104SOL    HW123945   2.499   1.827   9.224 -0.3862 -1.3393  0.0997
 4104SOL    HW223946   2.407   1.733   9.297  0.9690 -0.1745 -1.0791
 4105SOL     OW23947   3.581   1.583   7.106 -0.0315 -0.1822  0.2223
 4105SOL    HW123948   3.544   1.672   7.103 -0.9352 -0.5826 -0.6113
 4105SOL    HW223949   3.647   1.584   7.036 -1.0760  1.5222 -0.7571
 4106SOL     OW23950   0.504   1.639   9.180  0.0660 -0.4436  0.1213
 4106SOL    HW123951   0.565   1.629   9.254 -0.0976 -0.1527  0.2983
 4106SOL    HW223952   0.528   1.730   9.162 -0.6537 -0.5944 -1.5597
 4107SOL     OW23953   3.682   2.786  16.556 -0.7449 -0.7108 -0.5530
 4107SOL    HW123954   3.742   2.842  16.506 -0.0656  0.3698  1.4855
 4107SOL    HW223955   3.732   2.773  16.636  0.3916  0.4486 -1.0815
 4108SOL     OW23956   4.464   1.610   2.022 -0.3418 -0.0873 -0.2648
 4108SOL    HW123957   4.468   1.520   2.054  2.4246  0.9162  2.1948
 4108SOL    HW223958   4.504   1.590   1.937  1.2535  0.7079  0.2914
 4109SOL     OW23959   0.935   4.719  16.133  0.3151  0.0677  0.6660
 4109SOL    HW123960   0.895   4.632  16.126  1.7565 -0.5387 -0.1125
 4109SOL    HW223961   0.992   4.696  16.206  0.3966 -1.7648  0.0301
 4110SOL     OW23962   1.853   0.205   2.042 -0.0198 -0.1014 -0.2988
 4110SOL    HW123963   1.909   0.179   2.115 -1.4170  1.3796  1.2821
 4110SOL    HW223964   1.791   0.256   2.094  0.3027 -0.5588  0.5413
 4111SOL     OW23965   2.885   3.420   3.887  0.1209 -0.0809  0.0159
 4111SOL    HW123966   2.833   3.361   3.941  0.7357 -0.9495 -0.3404
 4111SOL    HW223967   2.964   3.413   3.940  0.5266 -1.9025 -0.8220
 4112SOL     OW23968   3.993   4.627   6.385 -0.3243  0.0513  0.1926
 4112SOL    HW123969   3.900   4.604   6.390 -0.7338  1.6770  0.0858
 4112SOL    HW223970   4.040   4.565   6.441  3.1462 -0.3191 -3.1380
 4113SOL     OW23971   2.259   0.076  10.479  0.5826  0.1347  0.1196
 4113SOL    HW123972   2.236   0.136  10.550 -2.6845 -0.0865 -0.7318
 4113SOL    HW223973   2.264   0.138  10.406 -2.7783  1.8546  1.3093
 4114SOL     OW23974   2.945   3.534   0.317  0.5244 -0.4487  0.1671
 4114SOL    HW123975   3.020   3.531   0.257  0.6437 -3.6299  0.4439
 4114SOL    HW223976   2.877   3.487   0.269 -0.2266  1.5075 -0.6339
 4115SOL     OW23977   1.006   3.625   3.135  0.4140 -0.0282  0.2012
 4115SOL    HW123978   1.087   3.584   3.163  0.4244 -0.6136 -0.6716
 4115SOL    HW223979   0.974   3.558   3.074  4.4216 -0.6644 -1.2310
 4116SOL     OW23980   2.300   3.007   1.753 -0.5788 -0.1646 -0.2927
 4116SOL    HW123981   2.268   3.060   1.826  1.2085 -0.6974  0.8867
 4116SOL    HW223982   2.237   2.935   1.752 -0.6696 -0.0909  0.1054
 4117SOL     OW23983   0.811   3.741   2.412 -0.2630  0.2982 -0.3061
 4117SOL    HW123984   0.894   3.696   2.396  1.2725  3.7260 -1.8480
 4117SOL    HW223985   0.749   3.673   2.385 -1.9961  0.9757  1.9551
 4118SOL     OW23986   2.387   0.606   1.924 -0.0921  0.4739  0.6604
 4118SOL    HW123987   2.399   0.638   1.835  1.0195 -2.1336 -0.1371
 4118SOL    HW223988   2.293   0.611   1.942 -0.3040  0.8471 -0.5643
 4119SOL     OW23989   2.997   4.550   4.228  0.4072 -0.4775  0.4215
 4119SOL    HW123990   2.948   4.476   4.263 -1.6065 -0.2164 -1.8030
 4119SOL    HW223991   3.046   4.569   4.308 -1.3649  1.5612  1.0260
 4120SOL     OW23992   3.145   3.539   3.480  0.5932 -0.3481 -0.5680
 4120SOL    HW123993   3.234   3.511   3.461  2.0574  2.8612  1.4138
 4120SOL    HW223994   3.121   3.489   3.558 -2.2583  1.1181 -0.4901
 4121SOL     OW23995   0.648   3.096  12.129  0.6857  0.4994 -0.0478
 4121SOL    HW123996   0.713   3.149  12.175  0.7325  0.4438 -0.0505
 4121SOL    HW223997   0.671   3.129  12.042  0.5176 -1.2721 -0.7526
 4122SOL     OW23998   0.100   3.782  17.327  0.4270 -0.2039  0.1768
 4122SOL    HW123999   0.177   3.836  17.345  0.6792 -0.9088  1.2128
 4122SOL    HW224000   0.129   3.729  17.253 -1.2194  0.8006 -1.1795
 4123SOL     OW24001   1.883   0.910  11.201  0.1882 -0.1007  0.7021
 4123SOL    HW124002   1.933   0.985  11.168 -1.8980  1.5950  1.3411
 4123SOL    HW224003   1.820   0.963  11.251 -0.3547  0.2764 -0.3826
 4124SOL     OW24004   0.650   0.586   6.174  0.4029 -0.4161  0.6196
 4124SOL    HW124005   0.558   0.568   6.158 -0.0708  0.2440  2.5642
 4124SOL    HW224006   0.647   0.680   6.190  2.4512 -0.4303  1.1521
 4125SOL     OW24007   3.072   2.018   1.499 -0.1584  0.0441 -0.0084
 4125SOL    HW124008   3.165   2.012   1.522  0.5005  0.7970 -2.4454
 4125SOL    HW224009   3.051   2.111   1.503 -1.2572 -0.2114  0.1367
 4126SOL     OW24010   3.835   4.497   9.093 -0.1697 -0.3082  0.6487
 4126SOL    HW124011   3.758   4.544   9.061 -0.5914 -1.7813 -0.5159
 4126SOL    HW224012   3.869   4.541   9.170 -0.3584  1.7915 -0.4742
 4127SOL     OW24013   4.566   4.623  13.683  0.0776 -0.0411  0.0079
 4127SOL    HW124014   4.648   4.622  13.732  0.1011 -1.6019 -0.0595
 4127SOL    HW224015   4.587   4.600  13.593 -0.0836  2.0978 -0.5663
 4128SOL     OW24016   1.835   0.738   3.203  0.1526 -0.3531 -0.0688
 4128SOL    HW124017   1.910   0.788   3.235  1.1277 -1.6307 -0.3428
 4128SOL    HW224018   1.807   0.734   3.295  0.4420  0.7260  0.0624
 4129SOL     OW24019   4.027   4.399   4.343  0.5744 -0.2322 -0.3441
 4129SOL    HW124020   3.957   4.339   4.365 -1.5277  1.4672 -2.3752
 4129SOL    HW224021   4.085   4.339   4.297 -0.5834 -1.1400 -0.6045
 4130SOL     OW24022   0.998   4.623   7.393 -0.4584 -0.1205 -0.9399
 4130SOL    HW124023   0.960   4.548   7.349  1.3317 -1.4966 -0.1293
 4130SOL    HW224024   1.028   4.673   7.317 -0.5392  0.8541 -0.3401
 4131SOL     OW24025   2.912   4.130   0.593 -0.0354 -0.2387  0.0761
 4131SOL    HW124026   2.989   4.073   0.589 -0.1981 -0.4022 -0.7824
 4131SOL    HW224027   2.865   4.104   0.513 -1.2619  0.6080  0.5228
 4132SOL     OW24028   1.971   2.107  17.322  0.4947 -0.2911  0.0517
 4132SOL    HW124029   1.995   2.124  17.413 -3.5220  1.1468  0.8472
 4132SOL    HW224030   2.050   2.058  17.297  0.5937 -0.8352  1.4537
 4133SOL     OW24031   2.897   4.355   1.422  0.1879  0.6112 -0.3215
 4133SOL    HW124032   2.951   4.304   1.362  0.1095 -1.7779  1.6017
 4133SOL    HW224033   2.850   4.279   1.457 -1.0394  1.8530  0.7015
 4134SOL     OW24034   0.948   3.109  11.954 -0.0908 -0.2161  0.6741
 4134SOL    HW124035   0.963   3.104  11.859  1.5958  1.0435  0.8893
 4134SOL    HW224036   0.941   3.203  11.973 -3.6446 -0.1901 -0.5719
 4135SOL     OW24037   2.336   1.241   2.296  0.5477 -0.0850  0.0075
 4135SOL    HW124038   2.410   1.209   2.244  0.4349  1.4052 -1.0575
 4135SOL    HW224039   2.350   1.211   2.386 -1.4266  0.2459  0.4213
 4136SOL     OW24040   1.533   3.396   3.739  0.2547  0.8326  0.4956
 4136SOL    HW124041   1.591   3.360   3.806  0.0252  2.7327  1.7476
 4136SOL    HW224042   1.564   3.367   3.653  2.0736  3.6184  0.1767
 4137SOL     OW24043   0.173   4.487   6.291  0.4146  0.2689  0.1272
 4137SOL    HW124044   0.253   4.492   6.239 -0.4175  2.0479 -1.0118
 4137SOL    HW224045   0.211   4.472   6.377  1.6795  0.9494 -0.3160
 4138SOL     OW24046   1.059   0.074  13.597 -0.5630 -0.2340  0.0314
 4138SOL    HW124047   1.107   0.113  13.524 -0.9847 -0.4125 -0.3310
 4138SOL    HW224048   1.119   0.041  13.664 -1.3394 -1.1001  0.2994
 4139SOL     OW24049   2.555   1.805   3.199 -0.0173 -0.5385  0.5242
 4139SOL    HW124050   2.573   1.781   3.290 -0.6917  0.2225  0.8610
 4139SOL    HW224051   2.487   1.869   3.220  1.6029  0.7014  1.9669
 4140SOL     OW24052   3.681   2.377   6.254 -0.2689  0.2289 -0.1619
 4140SOL    HW124053   3.654   2.318   6.325 -1.6028  0.7558 -0.2373
 4140SOL    HW224054   3.594   2.410   6.232 -1.0570 -1.9281 -0.3592
 4141SOL     OW24055   2.620   0.405  14.486 -0.0270 -0.4366  0.2109
 4141SOL    HW124056   2.678   0.378  14.557  0.2967  0.4698  0.2785
 4141SOL    HW224057   2.681   0.428  14.417 -2.0731 -0.8380 -1.7492
 4142SOL     OW24058   2.318   0.443   4.411  0.6287 -0.1370  0.1811
 4142SOL    HW124059   2.254   0.492   4.360 -1.4663 -1.8498  1.1290
 4142SOL    HW224060   2.349   0.380   4.346  1.7719  0.4008  0.2092
 4143SOL     OW24061   2.648   0.821   2.044  0.3263 -1.0580 -0.7782
 4143SOL    HW124062   2.661   0.882   2.117  0.0647 -1.5243 -0.3361
 4143SOL    HW224063   2.592   0.758   2.090  0.4235 -0.1881  0.5203
 4144SOL     OW24064   3.854   0.629   3.529 -0.3459  0.0385  0.0310
 4144SOL    HW124065   3.762   0.618   3.555  0.2754 -0.9615  1.8046
 4144SOL    HW224066   3.898   0.555   3.572 -1.0458 -0.2514  0.2536
 4145SOL     OW24067   4.460   2.927   7.581  0.2593 -0.1404  0.1619
 4145SOL    HW124068   4.384   2.905   7.635 -0.8898  0.3925 -1.2332
 4145SOL    HW224069   4.441   3.014   7.546  2.9050 -0.1146 -1.2002
 4146SOL     OW24070   3.819   4.526   2.862  0.6275 -0.3573  0.4654
 4146SOL    HW124071   3.823   4.466   2.788 -2.2537  0.6649 -0.5231
 4146SOL    HW224072   3.751   4.485   2.914  2.1444 -1.7476  1.3544
 4147SOL     OW24073   4.367   1.787  11.076 -0.0030 -0.3384  0.1144
 4147SOL    HW124074   4.457   1.794  11.045  0.1667  0.2850  0.7607
 4147SOL    HW224075   4.385   1.732  11.152  1.6807 -1.0429 -0.8069
 4148SOL     OW24076   1.097   4.468  14.118 -0.1197 -0.1651 -0.2893
 4148SOL    HW124077   1.136   4.504  14.038 -0.6200  0.6390 -0.1745
 4148SOL    HW224078   1.098   4.376  14.093 -1.1364 -0.5430  1.1049
 4149SOL     OW24079   3.428   0.050   0.397  0.0005 -0.1661 -0.5397
 4149SOL    HW124080   3.384   4.707   0.429  0.4663  0.1877  0.9606
 4149SOL    HW224081   3.445   0.023   0.306 -0.9233 -1.8920 -0.1984
 4150SOL     OW24082   2.053   2.288   5.867  0.0597  0.1026 -0.0088
 4150SOL    HW124083   2.082   2.200   5.841 -0.4129 -0.7434  2.2861
 4150SOL    HW224084   2.119   2.343   5.826 -1.2976  1.5834 -0.1970
 4151SOL     OW24085   3.348   3.697   5.893  0.3120  0.5221  0.5431
 4151SOL    HW124086   3.317   3.781   5.860  0.8142 -0.2840 -2.0366
 4151SOL    HW224087   3.388   3.661   5.813 -0.0740  2.3009 -0.4437
 4152SOL     OW24088   2.176   3.116   4.644  0.1705 -0.2717  0.0132
 4152SOL    HW124089   2.108   3.103   4.711  1.6469 -1.6634  1.2410
 4152SOL    HW224090   2.156   3.038   4.591 -1.2403  1.5171 -2.0713
 4153SOL     OW24091   3.104   4.262   5.421 -0.0934  0.1088  0.3355
 4153SOL    HW124092   3.146   4.323   5.360 -0.5035  1.8090  1.7607
 4153SOL    HW224093   3.088   4.181   5.372  1.1800 -0.8816  1.5691
 4154SOL     OW24094   3.544   2.427   7.052  0.0379  0.2714 -0.0118
 4154SOL    HW124095   3.514   2.498   7.109  1.8988  1.8719 -1.0386
 4154SOL    HW224096   3.495   2.353   7.089  1.2651 -0.3922  0.3012
 4155SOL     OW24097   3.596   3.529   9.398 -0.5721 -0.4053 -0.1643
 4155SOL    HW124098   3.601   3.452   9.342  2.2258 -0.7782  0.5939
 4155SOL    HW224099   3.593   3.495   9.487  0.4301  0.0273  0.0301
 4156SOL     OW24100   3.492   1.451   2.638 -0.1639 -0.0788  0.1535
 4156SOL    HW124101   3.413   1.465   2.690 -1.1012  1.0941 -1.6113
 4156SOL    HW224102   3.521   1.360   2.648  2.2500  0.6233 -0.5554
 4157SOL     OW24103   3.585   4.330   1.541 -0.6283 -0.4126  0.0931
 4157SOL    HW124104   3.496   4.294   1.543 -0.5211 -0.5842  2.1017
 4157SOL    HW224105   3.609   4.280   1.619  1.3886 -1.7078 -1.3344
 4158SOL     OW24106   2.657   1.976   6.477 -0.6962  0.4156 -0.2379
 4158SOL    HW124107   2.585   1.930   6.520 -0.2323  0.3737  0.5042
 4158SOL    HW224108   2.678   2.029   6.554  0.5240 -0.6041  0.1294
 4159SOL     OW24109   3.683   3.530   7.607  0.2520 -0.0994 -0.5812
 4159SOL    HW124110   3.589   3.542   7.596  0.2273  2.4903  2.5044
 4159SOL    HW224111   3.703   3.605   7.663 -0.2556 -0.2692 -0.1728
 4160SOL     OW24112   0.925   4.703   3.605  0.1155  0.5890  0.7889
 4160SOL    HW124113   0.938   4.616   3.567  0.5978  1.4169 -0.9157
 4160SOL    HW224114   0.949   0.018   3.528  0.5854 -1.3493 -0.3254
 4161SOL     OW24115   2.561   3.197  13.975 -0.0844 -0.4143  0.7398
 4161SOL    HW124116   2.611   3.181  14.055 -1.2499 -0.7534  1.3994
 4161SOL    HW224117   2.483   3.143  13.987  0.3861 -1.4356 -0.8317
 4162SOL     OW24118   0.503   4.664   5.922 -0.0213 -0.3428  0.4508
 4162SOL    HW124119   0.497   4.711   5.838  0.4443 -1.4381 -0.1889
 4162SOL    HW224120   0.505   0.006   5.978  1.0858  1.7375 -2.4830
 4163SOL     OW24121   0.677   1.859  10.624  0.4125  0.3109  0.0784
 4163SOL    HW124122   0.747   1.813  10.670  0.1545  0.8428  1.0118
 4163SOL    HW224123   0.619   1.884  10.696  0.2960 -0.5698  0.2827
 4164SOL     OW24124   1.420   3.611   6.686 -0.4521 -0.0253  0.2434
 4164SOL    HW124125   1.462   3.554   6.751 -1.5553  1.0108  1.8800
 4164SOL    HW224126   1.374   3.665   6.751 -0.5504 -1.6739  1.5424
 4165SOL     OW24127   2.845   0.407   5.378  0.3364  0.4236  0.4224
 4165SOL    HW124128   2.751   0.396   5.391  0.5833  0.7045  2.3907
 4165SOL    HW224129   2.867   0.321   5.341  0.2861  1.1194 -1.2372
 4166SOL     OW24130   2.295   1.597  12.050 -0.2349 -0.1966  0.6518
 4166SOL    HW124131   2.304   1.692  12.045  1.8423 -0.3461  1.1875
 4166SOL    HW224132   2.385   1.566  12.064 -1.0841 -2.1234  1.7976
 4167SOL     OW24133   2.158   2.322   6.536  0.0650  0.1607  0.4162
 4167SOL    HW124134   2.178   2.414   6.519 -1.6556  0.1680 -1.4922
 4167SOL    HW224135   2.245   2.284   6.554  0.1654 -0.6852 -1.8196
 4168SOL     OW24136   1.607   0.991  12.553 -0.3928 -0.7417  0.3010
 4168SOL    HW124137   1.523   0.946  12.562 -0.5707 -0.6395 -0.8507
 4168SOL    HW224138   1.663   0.914  12.541 -0.8002 -0.8277 -0.9643
 4169SOL     OW24139   2.684   0.927   7.395 -0.1477  0.2155  0.3460
 4169SOL    HW124140   2.633   0.955   7.471  0.9098  0.4167  0.9733
 4169SOL    HW224141   2.651   0.839   7.376 -0.7568  0.8477 -1.5516
 4170SOL     OW24142   2.654   3.625   7.708  0.2422  0.1430 -0.1901
 4170SOL    HW124143   2.646   3.720   7.695  0.0486  0.0802 -0.5442
 4170SOL    HW224144   2.720   3.615   7.776 -3.3501 -2.2303  2.8876
 4171SOL     OW24145   2.377   2.054  14.017 -0.1676 -0.2600  0.2627
 4171SOL    HW124146   2.419   2.140  14.012  2.3237 -1.6272 -2.0076
 4171SOL    HW224147   2.364   2.040  14.111  0.8422 -0.0690  0.4278
 4172SOL     OW24148   0.158   0.050   6.542  0.6119  0.0566 -0.0432
 4172SOL    HW124149   0.181   0.060   6.450  1.5659  0.0869  0.2039
 4172SOL    HW224150   0.183   4.695   6.558 -1.8360 -0.5737  0.1767
 4173SOL     OW24151   4.153   1.442  12.860  0.4388 -0.1497  0.1974
 4173SOL    HW124152   4.063   1.469  12.843  0.2854 -0.9452 -0.2563
 4173SOL    HW224153   4.194   1.458  12.776  0.3998 -0.4186  0.1257
 4174SOL     OW24154   4.062   1.932   4.447 -0.6099 -0.1771 -0.3636
 4174SOL    HW124155   4.046   1.838   4.440 -1.5920 -0.0146 -0.3102
 4174SOL    HW224156   4.157   1.931   4.438 -0.5515 -2.3697  0.4291
 4175SOL     OW24157   2.436   2.791  15.532  0.0876  0.7106  0.0068
 4175SOL    HW124158   2.473   2.869  15.491  1.5012 -0.1068 -0.2893
 4175SOL    HW224159   2.350   2.773  15.495  1.1132  0.8889 -2.4823
 4176SOL     OW24160   3.592   4.569  15.534  0.9618  0.1458 -0.3078
 4176SOL    HW124161   3.508   4.580  15.490  0.2362 -0.5684  0.8948
 4176SOL    HW224162   3.609   4.478  15.510 -0.7680 -0.5282  1.0573
 4177SOL     OW24163   3.124   4.582   4.475  0.1048  0.4419  0.3426
 4177SOL    HW124164   3.113   4.553   4.566 -1.3760 -0.6864 -0.1809
 4177SOL    HW224165   3.136   4.676   4.486 -1.4420  0.9176 -1.9934
 4178SOL     OW24166   0.078   2.590  16.756  0.0772 -0.6260  0.2356
 4178SOL    HW124167   0.163   2.548  16.772 -0.1891 -1.1972  0.1448
 4178SOL    HW224168   0.056   2.549  16.672  0.3702 -0.0723 -0.1095
 4179SOL     OW24169   3.277   0.115  17.415 -0.1177 -0.5601 -0.2391
 4179SOL    HW124170   3.315   0.174  17.350  1.8311 -2.0041 -0.4226
 4179SOL    HW224171   3.267   0.032  17.369  0.4160 -0.4709 -0.5227
 4180SOL     OW24172   1.346   0.884  10.227  0.0469  0.8924  0.0533
 4180SOL    HW124173   1.317   0.960  10.278 -1.3209  0.3991  0.0120
 4180SOL    HW224174   1.337   0.932  10.144 -1.3586  1.1885  0.3761
 4181SOL     OW24175   4.528   3.649   1.496 -0.1725  0.5551 -0.0172
 4181SOL    HW124176   4.606   3.611   1.535  0.9768  1.6161 -1.2902
 4181SOL    HW224177   4.510   3.588   1.425 -2.0100  0.3159  0.6501
 4182SOL     OW24178   2.831   0.881   6.075 -0.4450 -0.1274 -0.3313
 4182SOL    HW124179   2.899   0.941   6.044  0.9420 -1.4281  0.1503
 4182SOL    HW224180   2.881   0.826   6.136 -2.2579  1.1007  2.2291
 4183SOL     OW24181   1.393   4.329   8.406  0.3448  0.3577 -0.0939
 4183SOL    HW124182   1.459   4.398   8.408  0.2861  0.3534  1.4215
 4183SOL    HW224183   1.390   4.324   8.310 -0.0605 -0.0968 -0.0572
 4184SOL     OW24184   4.054   0.785   3.282 -0.1092 -0.0510  0.4756
 4184SOL    HW124185   4.030   0.873   3.308 -0.9534 -0.4844  1.1681
 4184SOL    HW224186   4.043   0.784   3.187 -2.8731 -1.1318  0.8044
 4185SOL     OW24187   0.703   1.711   2.353  0.8037 -0.1266 -0.3373
 4185SOL    HW124188   0.724   1.623   2.383 -3.1382 -0.8888  0.1580
 4185SOL    HW224189   0.727   1.753   2.435 -0.0490 -2.1501  0.9456
 4186SOL     OW24190   1.637   3.081   0.040 -0.2574 -0.6755  0.6027
 4186SOL    HW124191   1.665   3.143   0.107 -1.5911  2.5147 -1.7978
 4186SOL    HW224192   1.709   3.093  17.720 -0.8867  1.6549  0.3143
 4187SOL     OW24193   0.648   3.404   5.515 -0.6036  0.0111 -0.3739
 4187SOL    HW124194   0.738   3.393   5.547 -0.4228  1.8580 -0.2795
 4187SOL    HW224195   0.607   3.318   5.521 -0.6046 -0.1178 -2.2762
 4188SOL     OW24196   2.176   0.860  10.753  0.2320  0.2475 -0.0516
 4188SOL    HW124197   2.120   0.928  10.717  0.0755  0.2850  0.2617
 4188SOL    HW224198   2.115   0.794  10.785 -0.5074  0.5924 -0.7403
 4189SOL     OW24199   1.503   2.666   6.265 -0.0697  0.4401 -0.6678
 4189SOL    HW124200   1.509   2.575   6.238 -0.1663  0.0167  0.7153
 4189SOL    HW224201   1.429   2.658   6.326  0.0597 -1.6646 -0.8199
 4190SOL     OW24202   0.343   1.647   1.100 -0.2287  0.5203  0.2595
 4190SOL    HW124203   0.436   1.671   1.109 -0.1794  0.8049 -0.9469
 4190SOL    HW224204   0.322   1.635   1.192 -1.0212  0.8040  0.1116
 4191SOL     OW24205   1.853   1.742   1.770  0.2681  0.5705 -0.3321
 4191SOL    HW124206   1.904   1.771   1.694  0.4362  2.1389  0.3708
 4191SOL    HW224207   1.766   1.766   1.739  0.1343  0.0367 -0.3625
 4192SOL     OW24208   1.325   0.735  14.664 -0.0840  0.4269 -0.0115
 4192SOL    HW124209   1.398   0.784  14.702 -0.5478  1.6148 -0.6471
 4192SOL    HW224210   1.280   0.808  14.622 -1.0945 -1.8841 -2.8936
 4193SOL     OW24211   1.276   2.612   4.699  0.2822  0.1196  0.2310
 4193SOL    HW124212   1.266   2.610   4.604 -0.0931 -2.2103  0.3126
 4193SOL    HW224213   1.300   2.704   4.699  0.6403  0.0269  1.5140
 4194SOL     OW24214   1.564   1.269   3.597  0.2386  0.1014 -0.5140
 4194SOL    HW124215   1.534   1.303   3.513  0.1104  1.2356 -0.0120
 4194SOL    HW224216   1.510   1.320   3.658  0.9859  0.2017  0.0702
 4195SOL     OW24217   4.344   2.584   5.207 -0.0263 -0.1190 -0.0818
 4195SOL    HW124218   4.362   2.596   5.300 -2.4596 -1.1947  0.5195
 4195SOL    HW224219   4.358   2.490   5.203  1.5990  0.1465 -0.7960
 4196SOL     OW24220   3.071   3.654   6.512  0.6751 -0.3541  0.2758
 4196SOL    HW124221   3.114   3.738   6.494 -2.2930  0.8483 -1.1040
 4196SOL    HW224222   2.985   3.691   6.531  0.1684 -1.7712  0.7373
 4197SOL     OW24223   4.288   3.582  10.036  0.3598  0.0889 -0.3717
 4197SOL    HW124224   4.262   3.669  10.065 -2.4671 -0.7277 -0.4898
 4197SOL    HW224225   4.216   3.567   9.975  1.9380 -1.0583 -1.9415
 4198SOL     OW24226   0.391   1.784   5.157  0.0904  0.1331  0.4140
 4198SOL    HW124227   0.412   1.763   5.248 -2.3926  1.9103  1.4039
 4198SOL    HW224228   0.333   1.858   5.173 -0.7740 -0.0658 -1.7220
 4199SOL     OW24229   0.324   1.004   5.234  0.7647  0.3002  0.7404
 4199SOL    HW124230   0.300   0.923   5.189  0.9120  0.1434  0.9491
 4199SOL    HW224231   0.324   0.973   5.324 -3.1869  1.8267  1.3005
 4200SOL     OW24232   4.060   2.429   2.738 -0.1422 -0.0966  0.2959
 4200SOL    HW124233   4.120   2.463   2.671  0.1151 -0.4251  0.3585
 4200SOL    HW224234   3.984   2.391   2.695  0.1930  1.2200 -1.4227
 4201SOL     OW24235   0.115   4.461  14.521 -0.4082  0.5181  0.0892
 4201SOL    HW124236   0.192   4.419  14.559 -0.0909 -0.7464 -1.9011
 4201SOL    HW224237   0.062   4.470  14.600 -0.6195  0.6364 -0.0638
 4202SOL     OW24238   0.900   0.625   5.557  0.5992  0.5763  0.2478
 4202SOL    HW124239   0.896   0.543   5.605 -0.2260  1.0808  1.0288
 4202SOL    HW224240   0.879   0.606   5.465  2.4606  0.5873 -0.2025
 4203SOL     OW24241   2.098   1.029   1.571  0.1220 -0.1355 -0.1761
 4203SOL    HW124242   2.115   1.121   1.551 -1.6601  0.0349 -0.9982
 4203SOL    HW224243   2.168   0.991   1.518  1.3701  0.8345  0.8007
 4204SOL     OW24244   4.514   4.723   8.641 -0.4778  0.2466 -0.3379
 4204SOL    HW124245   4.594   0.029   8.671 -0.7672  0.5402  0.0266
 4204SOL    HW224246   4.449   0.030   8.696 -0.6809 -0.2105 -0.2200
 4205SOL     OW24247   0.173   2.503   4.801 -0.3030 -0.2174  0.1084
 4205SOL    HW124248   0.101   2.471   4.746  0.3383  0.0222 -0.8619
 4205SOL    HW224249   0.252   2.473   4.756 -0.0709 -0.5119  0.7037
 4206SOL     OW24250   1.537   3.670   1.266 -0.6795 -0.2721 -0.6295
 4206SOL    HW124251   1.471   3.729   1.229 -0.7500 -0.0193 -0.1064
 4206SOL    HW224252   1.594   3.738   1.303  0.9142 -1.6283 -0.6064
 4207SOL     OW24253   3.507   1.928   3.057 -0.1362  0.8638  0.6180
 4207SOL    HW124254   3.437   1.990   3.033  0.1977  0.9659 -0.0894
 4207SOL    HW224255   3.557   1.916   2.977  0.2836 -1.5563  1.2612
 4208SOL     OW24256   3.288   3.827  10.622 -0.7024 -0.6416 -0.4253
 4208SOL    HW124257   3.308   3.742  10.585 -1.9278 -1.3347  0.5036
 4208SOL    HW224258   3.363   3.852  10.677 -2.6253  0.1276  1.8111
 4209SOL     OW24259   3.460   1.660   8.681  0.0124 -0.4406  0.1992
 4209SOL    HW124260   3.522   1.716   8.728  1.3101 -1.1086 -0.7218
 4209SOL    HW224261   3.501   1.661   8.594 -0.2157 -0.5299  0.0899
 4210SOL     OW24262   4.078   4.707   8.254 -0.4971  0.1305 -0.3464
 4210SOL    HW124263   4.054   0.006   8.168 -0.1720  0.4084 -0.3246
 4210SOL    HW224264   4.103   4.619   8.224  0.8489 -0.1225  1.5369
 4211SOL     OW24265   3.214   3.109   2.039 -0.2847 -0.3429  0.2827
 4211SOL    HW124266   3.147   3.176   2.056 -2.3358 -2.3834  0.1747
 4211SOL    HW224267   3.169   3.065   1.967 -2.5494 -0.2951  1.6583
 4212SOL     OW24268   0.569   2.847  12.309 -0.3280 -0.4524  0.1475
 4212SOL    HW124269   0.599   2.899  12.233  1.2286 -2.6192 -0.7176
 4212SOL    HW224270   0.599   2.904  12.380  1.9545 -0.0664 -1.1324
 4213SOL     OW24271   2.434   3.207   0.622  0.0288  0.4841 -0.5229
 4213SOL    HW124272   2.483   3.126   0.636  0.0632  0.3184 -1.5869
 4213SOL    HW224273   2.496   3.280   0.630 -1.0278  0.9565  3.4162
 4214SOL     OW24274   2.542   0.284   2.883 -0.0952 -0.8214  0.1759
 4214SOL    HW124275   2.551   0.379   2.879  1.5674 -0.9981 -0.0432
 4214SOL    HW224276   2.531   0.266   2.977 -2.2610  1.2070  0.3274
 4215SOL     OW24277   0.423   3.032  11.934 -0.4991  0.1042 -0.4283
 4215SOL    HW124278   0.513   3.058  11.951 -0.0318 -0.4302 -2.1382
 4215SOL    HW224279   0.438   2.969  11.864 -0.1687  1.1219 -1.2687
 4216SOL     OW24280   1.244   0.078   5.193  0.4786 -0.2181  0.8755
 4216SOL    HW124281   1.340   0.069   5.195  0.7092  1.8257 -0.5104
 4216SOL    HW224282   1.208   0.016   5.130  1.4522  0.1708 -0.0662
 4217SOL     OW24283   3.438   4.497   4.551  0.4986  0.3459  0.1604
 4217SOL    HW124284   3.370   4.430   4.541 -1.3923  1.9930  2.1714
 4217SOL    HW224285   3.486   4.515   4.470 -0.1332  0.5198 -0.1732
 4218SOL     OW24286   1.576   1.275   0.549  0.1913 -0.3722  0.3065
 4218SOL    HW124287   1.640   1.216   0.509 -0.8579 -1.2397 -0.0792
 4218SOL    HW224288   1.596   1.363   0.520  0.5460 -0.5303  0.0711
 4219SOL     OW24289   0.250   4.667  14.221 -0.6835  0.4697  0.2330
 4219SOL    HW124290   0.224   4.578  14.246 -1.2895  0.2357 -1.2147
 4219SOL    HW224291   0.208   4.712  14.294  0.1528  1.2195  0.2504
 4220SOL     OW24292   3.623   1.828   2.836  0.3142  0.7238  0.1710
 4220SOL    HW124293   3.586   1.795   2.754 -1.5960 -0.0477  1.3341
 4220SOL    HW224294   3.625   1.749   2.890  0.6257 -0.0680 -1.0071
 4221SOL     OW24295   1.329   0.591   4.799 -0.1247 -0.1222  0.0595
 4221SOL    HW124296   1.347   0.648   4.874  0.1785 -0.1215 -0.0127
 4221SOL    HW224297   1.405   0.535   4.816  1.2986  2.1754  1.3433
 4222SOL     OW24298   4.459   0.671   6.950  0.1954  0.3700 -0.2184
 4222SOL    HW124299   4.368   0.669   6.981  0.5742  1.6996  0.9525
 4222SOL    HW224300   4.486   0.743   7.006  1.4119 -1.7296  1.8612
 4223SOL     OW24301   2.272   2.780   7.945 -0.0996 -0.0717  0.9985
 4223SOL    HW124302   2.277   2.688   7.920 -0.7586 -0.7453  3.4196
 4223SOL    HW224303   2.239   2.776   8.034  0.8961  0.6296  1.3986
 4224SOL     OW24304   2.620   0.662   3.993 -0.2445  0.2512 -0.1189
 4224SOL    HW124305   2.676   0.633   3.921 -1.1748 -0.5942 -0.5022
 4224SOL    HW224306   2.681   0.674   4.066 -1.6943 -1.0749  1.3105
 4225SOL     OW24307   1.455   2.090   2.242 -0.0491 -0.1298 -0.1921
 4225SOL    HW124308   1.451   1.999   2.271 -0.4371 -0.2948 -0.7594
 4225SOL    HW224309   1.361   2.106   2.237 -0.0908 -0.9205 -2.1020
 4226SOL     OW24310   4.129   4.252   9.086  0.5024 -0.4680 -0.0842
 4226SOL    HW124311   4.074   4.217   9.155  1.4705 -1.9194 -0.0624
 4226SOL    HW224312   4.069   4.287   9.019  1.4593  0.4637 -0.4701
 4227SOL     OW24313   4.052   3.581  16.986  0.3153 -0.6680  0.4516
 4227SOL    HW124314   4.028   3.596  16.895  0.2932  1.3921  0.7805
 4227SOL    HW224315   4.143   3.554  16.985 -0.0003 -1.6474 -0.6985
 4228SOL     OW24316   3.420   3.722   6.455  0.4774 -0.6245 -0.0946
 4228SOL    HW124317   3.411   3.627   6.454 -0.3370 -0.5626  0.5428
 4228SOL    HW224318   3.484   3.734   6.526 -0.5866  1.0705  0.6017
 4229SOL     OW24319   3.576   4.620   3.509  0.0373  0.8063  0.1535
 4229SOL    HW124320   3.515   4.591   3.577 -0.9655 -0.7119 -1.3489
 4229SOL    HW224321   3.634   4.668   3.567 -1.9838 -0.3108  3.1104
 4230SOL     OW24322   1.056   0.099  13.998  0.4009 -0.3322  0.4344
 4230SOL    HW124323   0.988   0.128  14.059  4.1635  2.8712  3.0695
 4230SOL    HW224324   1.119   0.170  14.000 -0.3873  0.3941 -1.0775
 4231SOL     OW24325   2.931   2.318   4.278 -0.0714 -0.3669  0.9652
 4231SOL    HW124326   2.885   2.295   4.359 -0.2639  4.4439  2.2346
 4231SOL    HW224327   2.904   2.407   4.255  0.9029 -1.0815 -2.8512
 4232SOL     OW24328   0.025   4.409  12.509  0.0525 -0.3208  0.3533
 4232SOL    HW124329   4.722   4.335  12.555 -0.1354 -0.4691 -0.0410
 4232SOL    HW224330   0.019   4.381  12.417  3.2026 -0.2758  0.1209
 4233SOL     OW24331   4.407   2.766  13.019  0.0657 -0.5764  0.2868
 4233SOL    HW124332   4.464   2.809  13.082 -3.0021  1.2586  1.8057
 4233SOL    HW224333   4.430   2.673  13.013 -0.0945 -0.4460 -2.2841
 4234SOL     OW24334   4.579   0.950   6.564 -0.2210 -0.3265 -0.3950
 4234SOL    HW124335   4.581   1.045   6.550  1.1984  0.0011  2.0302
 4234SOL    HW224336   4.516   0.934   6.634 -0.2169  2.4340  0.2321
 4235SOL     OW24337   3.227   4.199  11.239  0.0790 -0.2486  0.1039
 4235SOL    HW124338   3.188   4.185  11.153  1.2091  0.1141 -0.4639
 4235SOL    HW224339   3.311   4.238  11.213 -0.7558 -0.1088 -2.4011
 4236SOL     OW24340   2.135   3.477   3.140 -0.1446  0.4622  0.4002
 4236SOL    HW124341   2.067   3.541   3.162  1.2968  1.6234  1.5196
 4236SOL    HW224342   2.167   3.493   3.051 -0.2299  1.3438  0.5238
 4237SOL     OW24343   2.869   1.706   7.881  0.4655  0.2132 -0.1582
 4237SOL    HW124344   2.784   1.746   7.903 -0.0655 -1.0683  0.0912
 4237SOL    HW224345   2.875   1.703   7.786  2.1384 -0.6527 -0.0282
 4238SOL     OW24346   1.063   0.504   7.262  0.0337  0.0191  0.2240
 4238SOL    HW124347   1.070   0.586   7.212  1.0141  0.1893  0.6304
 4238SOL    HW224348   0.969   0.506   7.279 -0.0289  1.4435 -0.2546
 4239SOL     OW24349   3.034   3.866   5.022  0.6995 -0.3610  0.2781
 4239SOL    HW124350   3.086   3.932   4.977  1.4335 -0.9644  0.2379
 4239SOL    HW224351   2.999   3.816   4.949 -1.9591  1.4468  0.3239
 4240SOL     OW24352   1.014   4.226  10.457  0.3129 -0.5169  1.1741
 4240SOL    HW124353   1.037   4.285  10.529 -2.0654  1.3670  0.4148
 4240SOL    HW224354   1.088   4.238  10.398  0.4995 -0.0126  1.5132
 4241SOL     OW24355   3.582   0.332  15.879 -0.3989  0.4468  0.3996
 4241SOL    HW124356   3.502   0.372  15.847 -0.9388  0.9937  2.3879
 4241SOL    HW224357   3.564   0.239  15.891 -1.5577  0.9008  2.1417
 4242SOL     OW24358   1.204   0.087  12.325 -0.1786  0.1610 -0.0700
 4242SOL    HW124359   1.211   0.159  12.263 -2.8376 -0.9098 -1.6276
 4242SOL    HW224360   1.285   0.088  12.375 -0.3461 -2.8481  0.2582
 4243SOL     OW24361   0.434   1.936   6.684 -0.3333 -0.1861 -0.0184
 4243SOL    HW124362   0.376   1.866   6.713 -1.4261  0.8986  0.4489
 4243SOL    HW224363   0.463   1.976   6.766 -1.2919 -0.3027  0.3725
 4244SOL     OW24364   1.885   1.206   7.038 -0.3756 -0.4813  0.3146
 4244SOL    HW124365   1.877   1.294   7.076  0.8586  0.7432 -2.2189
 4244SOL    HW224366   1.819   1.209   6.969  0.6967  0.8978 -0.6752
 4245SOL     OW24367   4.629   1.124   3.129 -0.5155 -0.4745 -0.1957
 4245SOL    HW124368   4.581   1.206   3.114 -0.4964 -0.5152 -0.4747
 4245SOL    HW224369   4.628   1.073   3.048 -2.7270 -0.5150 -0.1227
 4246SOL     OW24370   1.156   3.513   5.482  0.4057  0.3967  0.3220
 4246SOL    HW124371   1.245   3.479   5.489  1.1271  1.7234 -2.3109
 4246SOL    HW224372   1.108   3.443   5.438  0.9013  0.9528 -1.1123
 4247SOL     OW24373   2.291   0.819   4.395  0.1693 -0.0358 -0.1656
 4247SOL    HW124374   2.293   0.854   4.306  0.3759 -1.6145 -0.7683
 4247SOL    HW224375   2.200   0.841   4.416  0.7295  0.8592  1.3920
 4248SOL     OW24376   1.185   0.549   2.123  0.1672  0.0664 -0.1270
 4248SOL    HW124377   1.205   0.459   2.095 -0.9427 -0.0860 -0.4583
 4248SOL    HW224378   1.175   0.544   2.218 -0.6982 -1.3308 -0.2750
 4249SOL     OW24379   1.680   0.038  12.371  0.2952  0.2518  0.3685
 4249SOL    HW124380   1.664   0.130  12.395 -1.2276  0.7282 -2.4083
 4249SOL    HW224381   1.621   0.036  12.296  1.2154 -1.2778 -0.3145
 4250SOL     OW24382   1.453   1.222   1.577 -0.2067  0.4197  0.2735
 4250SOL    HW124383   1.360   1.243   1.586 -0.1058  0.4094  1.4112
 4250SOL    HW224384   1.492   1.289   1.634  3.0322  0.2956 -1.8019
 4251SOL     OW24385   2.806   2.017  17.464  0.2223 -0.0539  0.2143
 4251SOL    HW124386   2.780   1.934  17.424 -0.1289 -0.4021  1.1818
 4251SOL    HW224387   2.900   2.029  17.448  0.0228  1.3786  0.0898
 4252SOL     OW24388   3.473   1.713   2.281  0.1092  0.3771 -0.0211
 4252SOL    HW124389   3.539   1.645   2.294  0.2698  0.7269  0.9910
 4252SOL    HW224390   3.472   1.723   2.186  1.4657  1.3156  0.0768
 4253SOL     OW24391   1.588   2.245  16.451  0.7261  0.0146  0.2804
 4253SOL    HW124392   1.532   2.200  16.387 -0.8519  0.6539  1.2047
 4253SOL    HW224393   1.663   2.261  16.394  0.3326 -0.3862 -0.3571
 4254SOL     OW24394   4.322   1.162   0.166 -0.1160 -0.8051 -0.1664
 4254SOL    HW124395   4.241   1.140   0.121  0.4670  1.0477 -2.1255
 4254SOL    HW224396   4.281   1.171   0.253  0.3452 -0.7342  0.0428
 4255SOL     OW24397   2.466   0.670   5.287  0.1819  0.8801  0.8033
 4255SOL    HW124398   2.472   0.755   5.330  1.8377  1.4829 -0.6128
 4255SOL    HW224399   2.553   0.662   5.248 -0.5378  0.1401 -0.6956
 4256SOL     OW24400   3.953   3.588   3.744 -0.7287 -0.4032 -0.3335
 4256SOL    HW124401   3.971   3.666   3.797 -0.0032 -1.4550  0.9627
 4256SOL    HW224402   3.870   3.612   3.703 -1.3890 -0.9187  0.6991
 4257SOL     OW24403   2.143   1.786   9.784 -0.4194 -0.4285  0.1945
 4257SOL    HW124404   2.093   1.789   9.703  1.5763 -0.6654 -1.0473
 4257SOL    HW224405   2.212   1.720   9.780  0.2195  0.2295  0.3974
 4258SOL     OW24406   3.608   2.006   4.529  0.0131  0.0531  0.6674
 4258SOL    HW124407   3.628   2.033   4.619 -1.5222 -0.3321  1.1152
 4258SOL    HW224408   3.681   2.036   4.474 -1.3513  1.6793 -0.2460
 4259SOL     OW24409   2.116   2.431   1.673  0.2919  0.0148  0.1484
 4259SOL    HW124410   2.158   2.349   1.701 -0.5952 -0.3873  0.3045
 4259SOL    HW224411   2.179   2.465   1.609 -0.1310 -1.8616 -1.2906
 4260SOL     OW24412   1.305   1.174   2.099 -0.5080 -0.1695 -0.1147
 4260SOL    HW124413   1.226   1.228   2.086  0.2469  0.8802 -0.3842
 4260SOL    HW224414   1.356   1.234   2.153 -0.6337 -0.2920  0.1399
 4261SOL     OW24415   1.631   2.196   8.466 -0.2001 -0.3657  0.5256
 4261SOL    HW124416   1.588   2.161   8.543 -1.4045  1.0298  0.4789
 4261SOL    HW224417   1.699   2.249   8.507 -0.1438 -1.4322  1.8127
 4262SOL     OW24418   0.502   4.277   2.654 -0.1126 -0.2256 -0.4143
 4262SOL    HW124419   0.469   4.365   2.634  0.3274 -0.3288 -1.5903
 4262SOL    HW224420   0.570   4.266   2.588 -0.2728 -0.4304 -0.5456
 4263SOL     OW24421   4.233   2.725   4.104  0.6584  0.5558  0.0793
 4263SOL    HW124422   4.278   2.775   4.172  0.8096  0.6257 -0.0713
 4263SOL    HW224423   4.287   2.740   4.026 -1.2853 -0.0267 -1.3782
 4264SOL     OW24424   4.472   0.548  12.316  0.0700 -0.4614 -0.2842
 4264SOL    HW124425   4.546   0.509  12.271 -1.2405 -0.5941 -2.3176
 4264SOL    HW224426   4.418   0.586  12.246 -1.1848  0.4864  1.1851
 4265SOL     OW24427   3.606   0.017   5.373 -0.4819 -0.0094  0.0743
 4265SOL    HW124428   3.598   4.710   5.287 -1.3523 -1.5388  0.9288
 4265SOL    HW224429   3.601   0.108   5.341 -1.9216 -0.8894 -2.2703
 4266SOL     OW24430   3.376   0.056   0.942  0.2817 -0.3150  0.3660
 4266SOL    HW124431   3.386   0.074   0.848 -0.3589 -2.9217 -0.2108
 4266SOL    HW224432   3.384   0.145   0.976 -0.0188 -0.2637  0.3037
 4267SOL     OW24433   2.218   3.950  16.845  0.4493  0.8308  0.4974
 4267SOL    HW124434   2.312   3.971  16.842  0.4439  0.4020 -2.3737
 4267SOL    HW224435   2.177   4.028  16.808  0.7816 -0.5915 -2.8565
 4268SOL     OW24436   1.173   3.912   3.545  0.4336  0.1954 -0.2920
 4268SOL    HW124437   1.107   3.855   3.585 -0.3115  1.9921  1.0703
 4268SOL    HW224438   1.137   3.910   3.456  1.9677  0.4779 -0.9202
 4269SOL     OW24439   4.098   3.729   2.477 -0.6736  0.0954  0.3685
 4269SOL    HW124440   4.007   3.720   2.506 -0.7877 -1.2631 -0.3804
 4269SOL    HW224441   4.096   3.824   2.466  0.9088  0.1923  1.0173
 4270SOL     OW24442   2.715   3.261   4.031 -0.2469 -0.2873  0.5270
 4270SOL    HW124443   2.725   3.166   4.024  1.9867 -0.1332  1.6944
 4270SOL    HW224444   2.670   3.264   4.116 -3.1738  0.5480 -1.0657
 4271SOL     OW24445   2.106   4.457   6.929  0.1767 -0.0780  0.6232
 4271SOL    HW124446   2.168   4.513   6.882 -0.3826  2.0188  2.3743
 4271SOL    HW224447   2.124   4.486   7.018  0.3474 -0.3843  0.6872
 4272SOL     OW24448   2.701   4.193   6.639  0.0816 -0.4507  0.5562
 4272SOL    HW124449   2.766   4.254   6.605 -1.8764  1.1619 -0.2502
 4272SOL    HW224450   2.640   4.197   6.565 -0.1080  0.7513  0.7739
 4273SOL     OW24451   3.536   0.604  15.692  0.4336 -0.2364  0.1250
 4273SOL    HW124452   3.530   0.689  15.737 -1.1515 -0.3328  0.1239
 4273SOL    HW224453   3.585   0.631  15.615  3.8918 -1.3474  1.9503
 4274SOL     OW24454   0.718   0.076   4.683 -0.0865  0.1724 -0.1414
 4274SOL    HW124455   0.644   0.046   4.630  0.7041  0.4214 -1.3631
 4274SOL    HW224456   0.796   0.030   4.653  0.9609  1.5546  0.4827
 4275SOL     OW24457   0.185   1.053   0.836 -0.0172  0.0534 -0.2570
 4275SOL    HW124458   0.106   1.107   0.844  0.9290  1.1935  1.2888
 4275SOL    HW224459   0.193   1.038   0.741 -2.2544 -2.4008 -0.0952
 4276SOL     OW24460   0.607   2.373   8.821 -0.3454 -0.1070  0.4415
 4276SOL    HW124461   0.636   2.333   8.738 -0.8390  0.4997 -0.0187
 4276SOL    HW224462   0.513   2.381   8.809 -0.0007  1.5879 -1.1360
 4277SOL     OW24463   3.063   2.437  14.434  0.2317 -0.2226 -0.4579
 4277SOL    HW124464   3.123   2.433  14.508  1.2260 -0.2999 -1.2791
 4277SOL    HW224465   2.989   2.481  14.477 -0.1548 -0.7579 -0.5779
 4278SOL     OW24466   1.833   2.244   5.181  0.3258 -0.2888 -0.5109
 4278SOL    HW124467   1.800   2.333   5.168 -0.7556 -0.8254 -1.4195
 4278SOL    HW224468   1.812   2.239   5.274  1.7393 -3.4380 -0.3795
 4279SOL     OW24469   0.690   4.058   2.071  0.0064 -0.2847  0.3650
 4279SOL    HW124470   0.713   3.965   2.068  2.8142  0.4102 -0.2372
 4279SOL    HW224471   0.639   4.060   2.151  0.0710 -2.5311  0.4687
 4280SOL     OW24472   0.364   2.018   3.556 -0.2099 -0.5416 -0.6491
 4280SOL    HW124473   0.384   1.924   3.551 -0.8552 -0.6282 -1.6657
 4280SOL    HW224474   0.310   2.037   3.479 -0.1785 -0.0884 -0.5597
 4281SOL     OW24475   4.658   4.574   7.487 -0.1040  0.4973  0.1982
 4281SOL    HW124476   4.652   4.668   7.466 -0.1282  0.4519  0.0049
 4281SOL    HW224477   4.725   4.572   7.554 -0.1383  0.2143  0.2219
 4282SOL     OW24478   2.315   2.104   4.361  0.3244 -0.7117 -0.2848
 4282SOL    HW124479   2.220   2.094   4.362  0.3035 -0.3221  1.4218
 4282SOL    HW224480   2.331   2.151   4.279 -0.4667 -0.5627 -0.3469
 4283SOL     OW24481   3.815   0.899  17.494  0.1311  0.4360  0.2585
 4283SOL    HW124482   3.858   0.825  17.451  1.0575 -0.1892  2.2673
 4283SOL    HW224483   3.839   0.889  17.586 -0.3678 -0.5057  0.2877
 4284SOL     OW24484   2.550   3.017  10.679 -0.1975  0.4514 -0.5207
 4284SOL    HW124485   2.509   3.013  10.593  3.6656 -1.0213 -2.2726
 4284SOL    HW224486   2.628   3.068  10.655  1.1237 -1.2567  0.1436
 4285SOL     OW24487   1.641   1.365   5.042  0.3597  0.1435 -0.0977
 4285SOL    HW124488   1.691   1.360   5.123 -0.0443 -0.8174  0.0883
 4285SOL    HW224489   1.677   1.446   5.005  0.4568  0.6563  1.1078
 4286SOL     OW24490   3.408   0.456  11.853 -0.2684 -0.1423  0.0901
 4286SOL    HW124491   3.315   0.461  11.875 -0.2453 -0.3682  0.2520
 4286SOL    HW224492   3.417   0.368  11.817 -0.1751  0.4801 -1.3805
 4287SOL     OW24493   4.488   3.251   7.757 -0.3322  0.1552 -0.0317
 4287SOL    HW124494   4.459   3.195   7.829 -0.2798 -2.5144 -2.0959
 4287SOL    HW224495   4.407   3.242   7.707 -0.6214 -0.7495  0.6030
 4288SOL     OW24496   3.494   4.387  13.420 -0.1837  0.0972  0.7032
 4288SOL    HW124497   3.473   4.310  13.474 -1.5191 -0.3000 -0.4014
 4288SOL    HW224498   3.547   4.347  13.351  0.3137 -0.0133  1.1447
 4289SOL     OW24499   2.761   0.655   5.188  0.0026  0.3362 -0.3361
 4289SOL    HW124500   2.839   0.677   5.136  1.1721  1.2119  1.7710
 4289SOL    HW224501   2.705   0.728   5.161  1.5695  1.6761 -0.0367
 4290SOL     OW24502   2.422   2.742   6.751 -0.0238 -0.2967  0.4182
 4290SOL    HW124503   2.478   2.814   6.782 -1.1942 -0.0539  1.9951
 4290SOL    HW224504   2.408   2.769   6.660 -0.1050  2.0814  1.1350
 4291SOL     OW24505   2.722   2.066   4.751  0.1247  0.4530 -0.3512
 4291SOL    HW124506   2.791   2.131   4.740 -3.3920  3.5743 -4.1843
 4291SOL    HW224507   2.648   2.125   4.763  0.2596  0.2088  1.5771
 4292SOL     OW24508   3.608   3.149  12.239 -0.5802  0.1941  0.4490
 4292SOL    HW124509   3.620   3.100  12.320 -1.0829 -2.3681 -1.0177
 4292SOL    HW224510   3.528   3.194  12.265  0.2808  2.1335 -0.2950
 4293SOL     OW24511   4.358   0.153   0.719  0.2583  0.1656 -0.2740
 4293SOL    HW124512   4.428   0.105   0.763 -1.5681 -2.9638 -0.8493
 4293SOL    HW224513   4.322   0.087   0.661 -1.8737  1.3546 -0.2969
 4294SOL     OW24514   3.347   1.427   4.760  0.2720 -0.1805  0.5103
 4294SOL    HW124515   3.351   1.514   4.719 -1.6053 -0.5689 -0.4754
 4294SOL    HW224516   3.286   1.444   4.832  0.3905  1.5700  0.2136
 4295SOL     OW24517   0.523   1.142   7.405 -0.0493 -0.2766  0.0031
 4295SOL    HW124518   0.500   1.232   7.427  1.3953 -0.7714  3.6271
 4295SOL    HW224519   0.435   1.105   7.410 -0.1942 -0.1253 -1.5998
 4296SOL     OW24520   2.413   0.094   8.156  0.5383 -0.1236 -0.6426
 4296SOL    HW124521   2.454   0.153   8.093  1.0297  0.6556  0.4074
 4296SOL    HW224522   2.343   0.055   8.104  1.2164 -0.2815 -1.4286
 4297SOL     OW24523   1.101   0.078   5.428 -0.0342 -0.4279 -0.4415
 4297SOL    HW124524   1.080   0.166   5.396  0.0338 -0.3414 -0.2448
 4297SOL    HW224525   1.148   0.040   5.353 -0.5583 -0.3767 -0.8015
 4298SOL     OW24526   1.802   0.783   4.981  0.4351 -0.2153  0.5428
 4298SOL    HW124527   1.753   0.865   4.988  0.4818 -0.4397  3.4522
 4298SOL    HW224528   1.874   0.795   5.042  1.3390  0.7195 -0.7031
 4299SOL     OW24529   3.199   3.881   6.603 -0.3707 -0.3570  0.4591
 4299SOL    HW124530   3.223   3.955   6.658  1.0681 -1.6747  1.6109
 4299SOL    HW224531   3.286   3.846   6.582 -1.0078 -0.5980 -1.8765
 4300SOL     OW24532   2.334   2.088   6.613  0.3781  0.2332  0.0423
 4300SOL    HW124533   2.295   2.056   6.695 -0.4817  0.5996 -0.2196
 4300SOL    HW224534   2.388   2.016   6.581 -0.0392 -0.5537  1.1080
 4301SOL     OW24535   1.193   0.278   8.264 -0.6925  0.5483  0.1247
 4301SOL    HW124536   1.140   0.340   8.314 -0.1237  1.5005 -0.4649
 4301SOL    HW224537   1.247   0.243   8.335  0.0166  0.0315 -0.6630
 4302SOL     OW24538   3.625   1.622  13.100  0.0840 -0.6083 -0.4059
 4302SOL    HW124539   3.627   1.572  13.182 -1.7675 -1.3786 -0.8495
 4302SOL    HW224540   3.692   1.688  13.119 -1.9323  1.2747  0.1389
 4303SOL     OW24541   3.680   4.165  13.416 -0.3613  0.1553  0.0959
 4303SOL    HW124542   3.623   4.115  13.357 -0.7994  0.3570  0.3478
 4303SOL    HW224543   3.627   4.156  13.496 -1.1822 -0.2199 -0.4852
 4304SOL     OW24544   3.479   0.965  14.934  0.3562 -0.3712  0.0753
 4304SOL    HW124545   3.521   0.901  14.876  0.5029 -1.0906  0.9697
 4304SOL    HW224546   3.436   0.901  14.990  0.9946  0.1164  1.1249
 4305SOL     OW24547   2.328   1.045  12.233  0.3224  0.6810  0.3646
 4305SOL    HW124548   2.377   0.972  12.195 -0.5251  1.5728 -2.4416
 4305SOL    HW224549   2.388   1.119  12.224  0.6221  0.5166  1.0083
 4306SOL     OW24550   2.717   2.551   7.581  0.7033 -0.1467 -0.2614
 4306SOL    HW124551   2.781   2.615   7.551  2.4965 -0.2423  3.3338
 4306SOL    HW224552   2.655   2.606   7.629 -1.8596 -1.0449 -2.4925
 4307SOL     OW24553   4.331   2.021   3.839 -0.2240 -0.2386  0.0464
 4307SOL    HW124554   4.325   2.103   3.790  0.8122  0.3085  0.8047
 4307SOL    HW224555   4.269   2.028   3.912  1.0624 -0.6435  1.1872
 4308SOL     OW24556   1.011   1.332  14.098  0.1562 -0.1294 -0.2195
 4308SOL    HW124557   0.953   1.274  14.049 -1.6233  0.6311  0.9548
 4308SOL    HW224558   0.985   1.418  14.067  2.6655  0.9345  0.6719
 4309SOL     OW24559   2.370   2.020  13.741  0.2578  0.2734 -0.7206
 4309SOL    HW124560   2.383   2.005  13.835  0.7196  1.0999 -0.6563
 4309SOL    HW224561   2.289   2.070  13.736  0.7370  0.7373 -3.3725
 4310SOL     OW24562   3.271   0.616   0.533  0.2699 -0.7366 -0.4871
 4310SOL    HW124563   3.320   0.638   0.454  0.6026 -2.0380 -0.6310
 4310SOL    HW224564   3.291   0.523   0.533  0.4518 -0.6972 -0.5696
 4311SOL     OW24565   3.105   4.336   0.592 -0.4470 -0.4983  0.6847
 4311SOL    HW124566   3.019   4.294   0.587 -1.6018  1.9798 -0.3664
 4311SOL    HW224567   3.156   4.294   0.523  1.0251  0.9598  0.8886
 4312SOL     OW24568   3.146   2.307   3.986 -0.4992 -0.1231 -0.7307
 4312SOL    HW124569   3.232   2.265   3.980 -0.1230  0.8460 -2.1168
 4312SOL    HW224570   3.167   2.373   4.052  0.9663 -0.1942 -1.1128
 4313SOL     OW24571   1.806   1.533   8.188 -0.3386 -0.6284  0.9487
 4313SOL    HW124572   1.880   1.495   8.140  0.1434  1.4206  0.0497
 4313SOL    HW224573   1.774   1.600   8.128  0.1480  0.1768  1.5859
 4314SOL     OW24574   2.222   0.572   7.759  0.0264  0.2987  0.0070
 4314SOL    HW124575   2.148   0.565   7.698  1.5561 -3.0670 -1.5037
 4314SOL    HW224576   2.244   0.665   7.759  0.7139  0.1503 -3.1278
 4315SOL     OW24577   3.093   4.717   2.217 -0.0967 -0.3188  0.4149
 4315SOL    HW124578   3.187   4.731   2.228 -0.1807 -0.9888  1.9398
 4315SOL    HW224579   3.064   0.030   2.140  2.9373  3.3822  1.5798
 4316SOL     OW24580   1.196   4.568   4.738 -0.0198  0.2637  0.1935
 4316SOL    HW124581   1.132   4.626   4.778 -1.1053 -0.7393 -0.0669
 4316SOL    HW224582   1.142   4.489   4.730  0.6801 -0.3662  1.7516
 4317SOL     OW24583   4.677   2.584  15.894  0.5306 -0.6125  0.3727
 4317SOL    HW124584   4.726   2.542  15.823  0.8286  2.0628 -1.0381
 4317SOL    HW224585   0.006   2.567  15.963  0.5662  0.2194  0.5523
 4318SOL     OW24586   4.109   3.937  17.145 -0.2536  0.2638  0.4428
 4318SOL    HW124587   4.107   3.935  17.050  0.4226 -0.6683  0.4504
 4318SOL    HW224588   4.191   3.981  17.168  0.6359 -1.2435  0.1486
 4319SOL     OW24589   2.566   1.042   4.098  0.3509  0.2483  0.1816
 4319SOL    HW124590   2.527   1.127   4.078  0.5385  0.7730  2.1095
 4319SOL    HW224591   2.493   0.990   4.133  0.7702 -0.0283  0.6395
 4320SOL     OW24592   3.685   4.269   1.182  0.3483  0.8372  0.0767
 4320SOL    HW124593   3.612   4.217   1.147  0.8858  1.5927 -2.1743
 4320SOL    HW224594   3.761   4.234   1.135 -0.3470  0.6343 -0.9002
 4321SOL     OW24595   1.008   2.991   7.660  0.1444 -0.3825 -0.3480
 4321SOL    HW124596   0.945   3.014   7.729 -1.6320  2.7307 -3.0045
 4321SOL    HW224597   0.981   3.063   7.603  0.5378  0.3527  0.3759
 4322SOL     OW24598   2.903   1.252   5.761 -0.3363 -0.3785  0.0723
 4322SOL    HW124599   2.966   1.190   5.725 -0.4429  0.0382 -0.8570
 4322SOL    HW224600   2.952   1.325   5.722 -1.5058  0.3096 -0.1166
 4323SOL     OW24601   0.990   4.643   3.231 -0.3551  0.2878 -0.2189
 4323SOL    HW124602   1.058   4.617   3.170 -0.3465 -0.3932  0.0795
 4323SOL    HW224603   1.049   4.675   3.299 -1.1009 -0.9928  1.0355
 4324SOL     OW24604   3.317   3.893   0.933  0.1983 -0.0701 -0.1425
 4324SOL    HW124605   3.373   3.816   0.944  0.5792  0.3438  0.8231
 4324SOL    HW224606   3.341   3.921   0.844  0.3622 -0.9552 -0.3754
 4325SOL     OW24607   4.043   1.087   9.205 -0.4108  0.4408  0.3831
 4325SOL    HW124608   4.094   1.121   9.131  0.3966  0.0667  0.7655
 4325SOL    HW224609   3.982   1.156   9.231 -0.9018 -0.6317  2.0413
 4326SOL     OW24610   0.768   0.552   2.758  0.8318  0.0491 -0.2675
 4326SOL    HW124611   0.727   0.558   2.671  2.1063  0.8003 -0.8178
 4326SOL    HW224612   0.844   0.498   2.735 -0.1106 -1.4680  0.2014
 4327SOL     OW24613   0.799   0.191   5.355  0.0717  0.7189  0.4166
 4327SOL    HW124614   0.761   0.103   5.350  0.9088  0.5027 -2.0281
 4327SOL    HW224615   0.885   0.177   5.314 -0.2457 -1.3287  0.4342
 4328SOL     OW24616   1.957   2.134  10.346  0.3128  0.1100  0.1214
 4328SOL    HW124617   1.981   2.043  10.329 -0.9367 -0.1450 -0.2752
 4328SOL    HW224618   1.987   2.173  10.264  1.0888 -0.1480  0.2834
 4329SOL     OW24619   0.866   0.293   3.027 -0.2509  0.5631 -0.7011
 4329SOL    HW124620   0.787   0.346   3.019 -0.1103  0.6560 -1.5085
 4329SOL    HW224621   0.834   0.217   3.075 -0.6076 -0.5819 -2.7600
 4330SOL     OW24622   3.731   3.850   2.054 -0.6523  0.2673  0.0422
 4330SOL    HW124623   3.793   3.854   2.127 -1.9831 -0.9764  1.2646
 4330SOL    HW224624   3.758   3.931   2.010  3.5790 -0.8458  0.6200
 4331SOL     OW24625   3.354   0.194   2.939  0.1802  0.5813 -0.0719
 4331SOL    HW124626   3.264   0.204   2.908  0.4887  1.9756 -0.5038
 4331SOL    HW224627   3.358   0.099   2.947  1.2991  0.6379  0.0655
 4332SOL     OW24628   4.197   2.457   8.695 -0.2447  0.4080  0.0435
 4332SOL    HW124629   4.142   2.519   8.648 -4.0210 -2.3318  0.7808
 4332SOL    HW224630   4.266   2.437   8.631 -0.9903  2.4678 -1.4164
 4333SOL     OW24631   4.208   3.605   6.624 -0.1385  0.3597 -0.0808
 4333SOL    HW124632   4.163   3.534   6.578  0.2775  0.8731 -1.2776
 4333SOL    HW224633   4.131   3.658   6.647  1.2291  2.6831 -0.8814
 4334SOL     OW24634   2.175   4.281  10.546  0.0780  0.7228 -0.2697
 4334SOL    HW124635   2.237   4.301  10.476  0.4733  0.5367  0.0291
 4334SOL    HW224636   2.152   4.369  10.576  0.5589  1.1669 -1.2152
 4335SOL     OW24637   3.266   4.221   7.629  0.0204  0.2523  0.1736
 4335SOL    HW124638   3.239   4.260   7.712 -1.5573 -0.7809  0.1221
 4335SOL    HW224639   3.310   4.296   7.589  1.8094 -0.5471  0.6018
 4336SOL     OW24640   0.268   1.458   8.753 -0.3058 -0.2673 -0.0669
 4336SOL    HW124641   0.269   1.501   8.667  0.0146 -0.8136 -0.3382
 4336SOL    HW224642   0.235   1.533   8.801 -0.2483  0.0867 -0.5766
 4337SOL     OW24643   3.733   1.784  14.299  0.0340  0.4813  0.0703
 4337SOL    HW124644   3.708   1.780  14.392  0.2905 -2.3569  0.0206
 4337SOL    HW224645   3.818   1.740  14.309  0.2435  1.1385  1.3527
 4338SOL     OW24646   1.378   2.757   1.450 -0.9722 -0.0752  0.0899
 4338SOL    HW124647   1.423   2.819   1.508  0.0312 -0.8905  0.1798
 4338SOL    HW224648   1.427   2.752   1.368 -0.8896  0.7379  0.0880
 4339SOL     OW24649   0.583   2.581   3.451 -0.3223 -0.3452  0.2800
 4339SOL    HW124650   0.566   2.501   3.401  1.0108  0.1082 -0.9327
 4339SOL    HW224651   0.515   2.645   3.432 -0.8595 -0.4253  2.0224
 4340SOL     OW24652   2.163   1.033   8.853  0.1652 -0.2000 -0.2053
 4340SOL    HW124653   2.097   1.019   8.785 -0.9634 -0.6478  0.9850
 4340SOL    HW224654   2.187   1.125   8.841  1.2269 -0.4613 -0.0863
 4341SOL     OW24655   1.321   4.399  10.974 -0.4905  0.1688  0.4279
 4341SOL    HW124656   1.409   4.367  10.957 -0.8465  0.0071 -1.1581
 4341SOL    HW224657   1.268   4.319  10.981  0.0889 -0.4088 -1.7936
 4342SOL     OW24658   2.628   2.579  10.514 -0.4444  0.0724  0.0393
 4342SOL    HW124659   2.717   2.612  10.523 -0.9409  1.5446 -0.4192
 4342SOL    HW224660   2.578   2.652  10.551  0.0203  1.3061 -1.7569
 4343SOL     OW24661   0.663   4.480   6.873  0.3020  0.5914 -0.2640
 4343SOL    HW124662   0.618   4.434   6.801 -0.3680 -0.7107  0.9800
 4343SOL    HW224663   0.603   4.545   6.909 -0.1340  0.2224 -0.3253
 4344SOL     OW24664   4.015   1.385   7.065 -0.4439 -0.0793  0.1108
 4344SOL    HW124665   4.046   1.332   7.139 -1.1738 -1.1729 -0.3654
 4344SOL    HW224666   3.941   1.333   7.031  0.1159 -1.3452  0.8249
 4345SOL     OW24667   3.035   2.962   4.136  0.4360 -0.2842  0.0807
 4345SOL    HW124668   3.038   3.057   4.146  0.8502 -0.2190 -0.7060
 4345SOL    HW224669   3.115   2.935   4.180 -0.6682 -0.7985  1.7707
 4346SOL     OW24670   3.775   3.408  13.587 -0.4083  0.3335 -0.9493
 4346SOL    HW124671   3.842   3.458  13.633 -1.0150 -0.3408  0.7090
 4346SOL    HW224672   3.698   3.423  13.642  0.1825 -0.5650  0.1263
 4347SOL     OW24673   0.011   0.267  17.639 -0.3336  0.2739 -0.0933
 4347SOL    HW124674   4.670   0.281  17.584 -1.0728 -0.7693  0.6927
 4347SOL    HW224675   0.005   0.175  17.664  2.2497 -0.3163 -1.6144
 4348SOL     OW24676   1.112   4.017   7.369 -0.2802  0.2782 -0.0726
 4348SOL    HW124677   1.122   3.956   7.295 -0.3646  2.0378 -1.5530
 4348SOL    HW224678   1.201   4.049   7.351 -0.4916  1.3721  0.8583
 4349SOL     OW24679   0.619   1.029   3.022  0.0893  0.0280 -0.1183
 4349SOL    HW124680   0.710   1.030   2.992  0.3299 -1.2101  0.5925
 4349SOL    HW224681   0.575   0.970   2.962  0.4222  0.3465 -0.6815
 4350SOL     OW24682   2.776   0.238   6.563  0.6422 -0.0917  0.6518
 4350SOL    HW124683   2.779   0.321   6.612 -1.0325 -0.7253  1.8345
 4350SOL    HW224684   2.684   0.214   6.561 -0.0551  2.8341 -1.6533
 4351SOL     OW24685   3.791   3.091   9.308  0.1020 -0.4096 -0.1483
 4351SOL    HW124686   3.791   3.170   9.255 -3.8212 -2.0766 -2.6012
 4351SOL    HW224687   3.723   3.107   9.374 -1.5121  0.3161 -2.0099
 4352SOL     OW24688   1.350   3.415   1.704  0.5171  0.4692  0.3027
 4352SOL    HW124689   1.379   3.482   1.766 -1.4725 -0.2165  1.9586
 4352SOL    HW224690   1.407   3.427   1.628  0.2380  0.1474  0.0400
 4353SOL     OW24691   1.906   4.484   8.011 -0.2759  0.6659  0.3807
 4353SOL    HW124692   1.891   4.425   7.937  0.0191  0.4615  0.4850
 4353SOL    HW224693   1.996   4.459   8.033 -0.7401  0.0927  1.6346
 4354SOL     OW24694   2.429   4.521   6.919 -0.7726 -0.1698 -0.2886
 4354SOL    HW124695   2.409   4.591   6.857 -0.7372 -0.0707 -0.1887
 4354SOL    HW224696   2.432   4.571   7.001 -1.1540 -0.9923  0.2261
 4355SOL     OW24697   3.888   3.235   6.016 -0.4032 -0.9305 -0.0578
 4355SOL    HW124698   3.867   3.188   6.097  0.5020 -1.7264 -0.2871
 4355SOL    HW224699   3.888   3.326   6.045 -1.5586 -0.8781 -0.1933
 4356SOL     OW24700   3.488   4.397  16.251 -0.2460  0.4539 -0.5364
 4356SOL    HW124701   3.529   4.359  16.173  1.3775  0.4783  0.3176
 4356SOL    HW224702   3.549   4.467  16.274 -0.1019 -0.0144  0.4784
 4357SOL     OW24703   2.937   0.741   7.375 -0.2396 -0.0954  0.3222
 4357SOL    HW124704   2.946   0.825   7.330 -1.4260 -0.0151  0.2466
 4357SOL    HW224705   2.897   0.690   7.304  1.2578  0.0015 -0.5885
 4358SOL     OW24706   2.304   1.377   9.974  0.7663 -0.0471  0.1756
 4358SOL    HW124707   2.272   1.293   9.940 -1.5262  1.0274 -0.3637
 4358SOL    HW224708   2.381   1.342  10.019  0.4551 -2.0907 -0.8480
 4359SOL     OW24709   0.799   2.942   6.010  0.6887 -0.4161 -0.1988
 4359SOL    HW124710   0.800   3.016   6.071  1.3705 -1.5350  1.1502
 4359SOL    HW224711   0.758   2.983   5.934 -1.2666  0.7220  1.4842
 4360SOL     OW24712   1.336   3.153   5.636 -0.0285  0.8010  0.3495
 4360SOL    HW124713   1.283   3.192   5.705  0.6651  2.2311  0.0807
 4360SOL    HW224714   1.361   3.231   5.586  0.1295  0.3630 -0.2612
 4361SOL     OW24715   4.002   0.514   4.757 -0.3626  0.1083  0.1781
 4361SOL    HW124716   4.085   0.467   4.754  1.7258  3.6747  1.8741
 4361SOL    HW224717   3.940   0.451   4.720  0.5264  0.8729 -2.6082
 4362SOL     OW24718   3.525   4.218  17.499 -0.2942 -0.5512  0.0829
 4362SOL    HW124719   3.587   4.280  17.539 -0.4798 -0.4764  0.2581
 4362SOL    HW224720   3.571   4.201  17.417  0.3929  0.5658  0.2349
 4363SOL     OW24721   0.304   2.224   9.572 -0.6437  0.2415  0.3270
 4363SOL    HW124722   0.276   2.263   9.655 -1.6273 -0.0495  0.1363
 4363SOL    HW224723   0.386   2.176   9.586 -1.4113 -1.4247 -0.8326
 4364SOL     OW24724   2.419   2.852   3.437  0.1594 -0.0833 -0.3265
 4364SOL    HW124725   2.475   2.833   3.512 -1.6471 -1.5579  0.6288
 4364SOL    HW224726   2.480   2.903   3.383  0.2374 -1.5025 -1.6012
 4365SOL     OW24727   3.097   2.265   5.473  0.1475  0.3226  0.0907
 4365SOL    HW124728   3.020   2.274   5.529  1.3278  0.4991  1.6906
 4365SOL    HW224729   3.099   2.175   5.440  1.1342  0.4146 -0.1031
 4366SOL     OW24730   3.680   3.824   6.364 -0.5922  0.3901  0.0067
 4366SOL    HW124731   3.718   3.739   6.384 -1.5724 -0.2066 -0.7284
 4366SOL    HW224732   3.588   3.801   6.362 -0.7319  0.9248  0.1602
 4367SOL     OW24733   3.664   3.408   8.097 -0.5437 -0.0039 -0.4810
 4367SOL    HW124734   3.655   3.371   8.185  2.3036  0.9448  0.2096
 4367SOL    HW224735   3.618   3.349   8.037  0.1346  0.0241 -1.0278
 4368SOL     OW24736   3.609   4.248  16.859 -0.4805 -0.4990  0.2888
 4368SOL    HW124737   3.691   4.237  16.812  0.0647  1.0222  0.8965
 4368SOL    HW224738   3.640   4.295  16.936  0.6684 -1.1693  0.2255
 4369SOL     OW24739   1.097   0.033   2.395 -0.2347  0.0771  0.3822
 4369SOL    HW124740   1.007   0.000   2.385  0.0690 -0.7785  0.4169
 4369SOL    HW224741   1.143   4.687   2.375  0.0303  0.5033 -0.7253
 4370SOL     OW24742   1.180   3.602  10.644  0.3826 -0.2919  0.3578
 4370SOL    HW124743   1.210   3.627  10.732 -0.4516  0.0674  0.5416
 4370SOL    HW224744   1.112   3.667  10.626  0.0665 -0.4399  1.0107
 4371SOL     OW24745   2.560   3.234   5.540 -0.4317  0.0295 -0.4915
 4371SOL    HW124746   2.489   3.284   5.580 -0.4331 -1.1283  0.9951
 4371SOL    HW224747   2.635   3.262   5.593 -0.7574 -1.1654  0.6144
 4372SOL     OW24748   0.118   2.245  14.729  0.2767  0.2777  0.4598
 4372SOL    HW124749   0.113   2.270  14.821 -1.0358  1.0684  0.1907
 4372SOL    HW224750   0.125   2.333  14.693  1.4816  0.9998  2.5008
 4373SOL     OW24751   2.344   2.574   9.457 -0.3408 -0.6836 -0.1940
 4373SOL    HW124752   2.253   2.545   9.455 -0.9696  1.4034 -1.6163
 4373SOL    HW224753   2.384   2.488   9.470 -0.3469 -0.8605 -1.2852
 4374SOL     OW24754   2.432   0.294   0.951  0.0366  0.7863 -0.0627
 4374SOL    HW124755   2.505   0.254   0.998  0.5385  1.0890 -0.5928
 4374SOL    HW224756   2.474   0.318   0.869  0.6168  0.1261  0.0342
 4375SOL     OW24757   2.567   0.492   8.313 -0.2272  0.7058  0.7473
 4375SOL    HW124758   2.598   0.571   8.356  0.7654  1.1450 -0.7897
 4375SOL    HW224759   2.569   0.514   8.220 -0.4715 -0.0113  0.5748
 4376SOL     OW24760   0.064   2.754   5.181  0.7448  0.1595  0.1517
 4376SOL    HW124761   4.733   2.818   5.155 -0.2682 -1.1424 -0.4764
 4376SOL    HW224762   0.144   2.806   5.174 -0.0597  1.3256 -0.3666
 4377SOL     OW24763   1.915   2.240   8.100  0.4736  0.1304  0.2651
 4377SOL    HW124764   1.997   2.224   8.147  0.9057 -0.1513 -0.5679
 4377SOL    HW224765   1.950   2.302   8.036  1.5427 -0.4324  0.3007
 4378SOL     OW24766   1.942   3.194  11.260 -0.5606  0.2018  0.1146
 4378SOL    HW124767   1.874   3.154  11.205  2.3756 -1.3064 -2.3857
 4378SOL    HW224768   1.929   3.148  11.342  3.4222 -2.9875 -1.0863
 4379SOL     OW24769   4.239   0.826  15.322 -0.3483  0.0196 -0.3627
 4379SOL    HW124770   4.153   0.868  15.321 -1.3970 -2.1690 -0.7515
 4379SOL    HW224771   4.292   0.906  15.319 -0.6626  0.1366 -2.6150
 4380SOL     OW24772   1.172   3.870   3.945 -0.0962  0.2350 -0.2979
 4380SOL    HW124773   1.258   3.900   3.914  0.2055 -1.0446 -0.7091
 4380SOL    HW224774   1.124   3.952   3.952 -0.4164  0.0970 -0.8559
 4381SOL     OW24775   3.754   2.318   4.832 -0.3380 -0.1270  0.0735
 4381SOL    HW124776   3.828   2.358   4.879 -1.3229 -0.0670  1.5614
 4381SOL    HW224777   3.710   2.388   4.783  1.2361 -0.5237 -1.9272
 4382SOL     OW24778   4.326   1.731   4.107  0.0825  0.2470 -0.1914
 4382SOL    HW124779   4.279   1.805   4.068  1.7043  1.1206 -0.5104
 4382SOL    HW224780   4.312   1.735   4.201  1.6082  3.0885 -0.1022
 4383SOL     OW24781   1.927   3.214   8.205 -0.5374 -0.6675  0.3200
 4383SOL    HW124782   1.872   3.202   8.282 -0.5665  0.3517  0.4591
 4383SOL    HW224783   1.897   3.146   8.145 -0.6371 -2.2523  2.1712
 4384SOL     OW24784   1.062   2.446   1.944 -0.5418  0.5962 -0.1263
 4384SOL    HW124785   1.063   2.530   1.990  1.1017  0.3502  0.2864
 4384SOL    HW224786   0.967   2.431   1.951  0.1460 -3.6536  0.4847
 4385SOL     OW24787   0.585   1.609  15.869 -0.6077  0.3362  0.4104
 4385SOL    HW124788   0.554   1.667  15.938  0.9736  1.4501  0.2170
 4385SOL    HW224789   0.513   1.599  15.808  0.9997 -0.8139 -1.3191
 4386SOL     OW24790   0.316   2.986   5.736  0.0683  0.0515 -0.5397
 4386SOL    HW124791   0.337   2.893   5.725 -2.1208 -0.2770 -2.0042
 4386SOL    HW224792   0.234   2.988   5.785  0.4080 -0.8988  0.0780
 4387SOL     OW24793   1.762   1.740   4.207  0.0235 -0.3456 -0.0808
 4387SOL    HW124794   1.850   1.740   4.245  0.5359 -0.2725 -1.2670
 4387SOL    HW224795   1.718   1.768   4.287 -1.5159  0.9776 -1.3931
 4388SOL     OW24796   1.022   2.046   3.331  0.5766  1.0860  0.3728
 4388SOL    HW124797   0.956   2.021   3.267  0.6424  0.9435  0.3612
 4388SOL    HW224798   0.982   2.011   3.411 -0.6666  0.6026 -0.4574
 4389SOL     OW24799   3.339   1.944  16.599 -0.6327 -0.1816  0.5357
 4389SOL    HW124800   3.408   2.009  16.590  0.2040 -1.2543 -0.8428
 4389SOL    HW224801   3.395   1.867  16.597 -1.2954 -0.6675  0.4357
 4390SOL     OW24802   1.699   1.137   5.632  0.2793  0.6562 -0.4464
 4390SOL    HW124803   1.626   1.143   5.693 -0.7862  0.6918 -1.7191
 4390SOL    HW224804   1.706   1.226   5.597 -1.4661  1.4034  1.1216
 4391SOL     OW24805   0.437   1.046   0.627  0.4664  0.2119  0.0187
 4391SOL    HW124806   0.477   1.035   0.540 -0.2578  0.7777 -0.3820
 4391SOL    HW224807   0.454   0.958   0.662  0.7385 -0.2282 -1.1877
 4392SOL     OW24808   4.068   0.629  11.968 -0.6527 -0.4058 -0.3778
 4392SOL    HW124809   4.016   0.687  12.022  0.3918  1.6422 -1.5662
 4392SOL    HW224810   4.067   0.666  11.880  0.8772  1.0660  0.2376
 4393SOL     OW24811   4.506   3.434   7.116 -0.4537 -0.2000  0.2001
 4393SOL    HW124812   4.515   3.512   7.172 -0.4198  1.0906 -1.5945
 4393SOL    HW224813   4.431   3.463   7.064 -0.9303 -0.9467  0.4854
 4394SOL     OW24814   1.422   2.044   8.902  0.1645 -0.1098  0.1797
 4394SOL    HW124815   1.490   2.025   8.967  0.6596 -1.2856 -0.6783
 4394SOL    HW224816   1.381   2.124   8.935 -1.5335  0.0057 -2.1783
 4395SOL     OW24817   2.684   3.769  13.316 -0.2314 -0.5975  0.1629
 4395SOL    HW124818   2.706   3.688  13.270 -1.0471 -1.1314  0.7081
 4395SOL    HW224819   2.743   3.831  13.274 -1.1923  1.0796  1.2896
 4396SOL     OW24820   2.900   3.265   5.141 -0.3051 -0.3232 -0.1562
 4396SOL    HW124821   2.903   3.323   5.064 -0.0560 -0.7632 -0.4795
 4396SOL    HW224822   2.978   3.298   5.184 -1.6642  1.2638  1.0959
 4397SOL     OW24823   2.666   4.499  17.713 -0.3856  0.3537  0.1932
 4397SOL    HW124824   2.593   4.539  17.665 -0.2550 -0.0699 -0.3621
 4397SOL    HW224825   2.689   4.570   0.031 -0.5100  1.8046 -1.4941
 4398SOL     OW24826   2.605   1.056  14.643  0.1281 -0.2193  0.2503
 4398SOL    HW124827   2.639   1.069  14.555  2.8951 -0.0732  1.3577
 4398SOL    HW224828   2.545   0.984  14.621 -0.0894  0.0350  0.0004
 4399SOL     OW24829   4.707   2.761  15.591 -0.5240 -0.2307 -0.1699
 4399SOL    HW124830   4.637   2.798  15.536 -1.3297  0.8773  1.6205
 4399SOL    HW224831   0.038   2.774  15.523  0.9493 -0.9827  1.1426
 4400SOL     OW24832   3.143   2.904  12.460 -0.2600 -0.3153  0.2496
 4400SOL    HW124833   3.061   2.922  12.413 -0.0142 -0.2671 -0.1650
 4400SOL    HW224834   3.124   2.816  12.492  0.6475 -0.6620 -0.1622
 4401SOL     OW24835   1.473   3.200   4.676  0.0003 -0.1417 -0.1080
 4401SOL    HW124836   1.460   3.140   4.602 -0.3019  0.3663 -0.4665
 4401SOL    HW224837   1.566   3.220   4.676  0.2751 -1.3582 -3.6813
 4402SOL     OW24838   4.304   1.110   2.149  0.1081 -0.5261 -0.3021
 4402SOL    HW124839   4.288   1.016   2.162 -0.3296 -0.0222  2.6738
 4402SOL    HW224840   4.319   1.107   2.054 -3.0697  1.1420 -0.8518
 4403SOL     OW24841   2.157   0.545  14.792  0.6531 -0.0908 -0.3638
 4403SOL    HW124842   2.182   0.456  14.767  0.1655 -0.2767 -0.1799
 4403SOL    HW224843   2.156   0.591  14.708 -0.7828 -0.3945 -0.5140
 4404SOL     OW24844   2.978   4.474   3.014 -0.4354 -0.1463 -0.3179
 4404SOL    HW124845   2.960   4.567   3.024 -1.0869 -0.4451  1.3705
 4404SOL    HW224846   2.919   4.445   3.084  1.0108  0.3561  1.1168
 4405SOL     OW24847   3.840   0.562   8.116 -0.2085  0.3207 -0.0196
 4405SOL    HW124848   3.768   0.620   8.094  0.5611  1.7239  1.1604
 4405SOL    HW224849   3.913   0.622   8.132 -1.0568  1.8436 -1.8577
 4406SOL     OW24850   2.049   2.792   5.173  0.2929 -0.5518  0.0830
 4406SOL    HW124851   1.971   2.781   5.226  0.9441 -3.5585  0.3923
 4406SOL    HW224852   2.117   2.771   5.237 -1.2418  1.0659  2.2286
 4407SOL     OW24853   0.666   4.523   5.707 -0.0385 -0.4216  0.8000
 4407SOL    HW124854   0.636   4.519   5.798 -0.6226  2.3354  0.7324
 4407SOL    HW224855   0.761   4.527   5.724  0.1565  2.0762 -0.9649
 4408SOL     OW24856   3.123   0.523  11.878 -0.7302 -0.4867 -0.3764
 4408SOL    HW124857   3.056   0.516  11.946 -1.1330 -0.4134 -0.7652
 4408SOL    HW224858   3.161   0.604  11.913 -2.0308  0.1028 -0.2997
 4409SOL     OW24859   2.762   1.525  17.646  0.2439  0.0514  0.1244
 4409SOL    HW124860   2.778   1.576  17.566  0.5936 -0.4667 -0.1422
 4409SOL    HW224861   2.753   1.439  17.606 -2.1933 -0.3409  1.5415
 4410SOL     OW24862   3.319   0.161   4.374 -0.5757  0.0578  0.1802
 4410SOL    HW124863   3.233   0.199   4.358 -0.3744 -0.1126 -1.3318
 4410SOL    HW224864   3.335   0.141   4.282  0.5212  1.0967  0.1337
 4411SOL     OW24865   0.196   1.470   9.666 -0.6664  0.1350 -0.1310
 4411SOL    HW124866   0.118   1.460   9.611 -1.4409  2.1211  0.6059
 4411SOL    HW224867   0.201   1.565   9.678 -1.3250  0.4269 -2.1684
 4412SOL     OW24868   1.593   4.249   4.953 -0.4751  0.0047  0.5367
 4412SOL    HW124869   1.654   4.195   5.003  0.6330  0.3753 -0.3985
 4412SOL    HW224870   1.626   4.338   4.968  0.6172 -0.8275  2.9983
 4413SOL     OW24871   3.214   4.380   2.079  0.4391 -0.9475 -0.1205
 4413SOL    HW124872   3.172   4.301   2.111 -0.9005  0.7023  2.2185
 4413SOL    HW224873   3.148   4.414   2.018  1.4239  3.1273  1.0461
 4414SOL     OW24874   0.661   2.161   9.349 -0.6185  0.2246 -0.1057
 4414SOL    HW124875   0.736   2.104   9.334 -1.8447 -0.0356 -5.1743
 4414SOL    HW224876   0.656   2.213   9.269 -0.9372 -0.5297 -0.5822
 4415SOL     OW24877   3.486   3.980   4.765 -0.2114  0.5865 -0.0709
 4415SOL    HW124878   3.496   3.992   4.859 -0.4676 -1.3850  0.2062
 4415SOL    HW224879   3.507   3.887   4.755 -0.7346  0.7712 -2.8728
 4416SOL     OW24880   0.636   1.315   4.114 -0.1104  0.3083 -0.8212
 4416SOL    HW124881   0.582   1.238   4.130 -2.4872  1.7553 -1.8524
 4416SOL    HW224882   0.679   1.318   4.199 -0.7857 -1.9784 -0.3780
 4417SOL     OW24883   2.974   0.944   4.606  0.8284  0.2562  0.1060
 4417SOL    HW124884   3.066   0.919   4.597  0.6473 -0.5269  0.3826
 4417SOL    HW224885   2.977   1.035   4.637  2.8074  0.9684 -2.1736
 4418SOL     OW24886   1.235   2.764   8.658  0.1515 -0.4243  0.3489
 4418SOL    HW124887   1.259   2.675   8.635  0.4383 -0.2463 -0.0456
 4418SOL    HW224888   1.234   2.758   8.753 -0.3669 -1.6210  0.2651
 4419SOL     OW24889   1.642   4.561  10.346  0.3527  0.0483 -0.0733
 4419SOL    HW124890   1.732   4.584  10.371  0.6167  0.5209 -1.4399
 4419SOL    HW224891   1.636   4.615  10.267 -3.4729  0.6975  0.6955
 4420SOL     OW24892   4.635   2.651   7.848 -0.1684  0.5613  0.2209
 4420SOL    HW124893   4.694   2.608   7.910  1.8095  0.4772 -1.7133
 4420SOL    HW224894   4.584   2.718   7.893 -0.2233  0.4830  0.2753
 4421SOL     OW24895   4.262   2.650   6.870 -0.0795 -0.5862 -0.1035
 4421SOL    HW124896   4.278   2.717   6.938  0.2696  1.1611 -1.9140
 4421SOL    HW224897   4.168   2.637   6.872 -0.5355  2.6137 -0.4208
 4422SOL     OW24898   0.711   3.238   9.875 -0.6023  0.2283  0.3910
 4422SOL    HW124899   0.750   3.184   9.806 -1.4942  0.7413 -0.5131
 4422SOL    HW224900   0.667   3.299   9.817  0.2976  0.9888  0.5036
 4423SOL     OW24901   1.014   2.023   2.221  0.1951  0.4960 -0.5276
 4423SOL    HW124902   1.040   2.115   2.218 -1.4389  0.9244 -1.1230
 4423SOL    HW224903   1.076   1.987   2.285  0.6205  0.5556 -0.9053
 4424SOL     OW24904   2.021   1.783   4.999  0.9202  0.0824 -0.6194
 4424SOL    HW124905   1.926   1.793   4.992  0.8187 -0.0961  0.4575
 4424SOL    HW224906   2.031   1.691   4.975 -1.3289 -0.1573 -0.6455
 4425SOL     OW24907   1.612   0.805   9.595 -0.1803 -0.0512  0.3321
 4425SOL    HW124908   1.666   0.821   9.517 -1.5567  1.2910 -0.3622
 4425SOL    HW224909   1.608   0.709   9.594  1.7932 -0.1260  0.3640
 4426SOL     OW24910   3.006   2.006   9.202 -0.0968 -0.2690 -0.0207
 4426SOL    HW124911   2.998   1.977   9.293  0.7080 -0.4752 -0.0162
 4426SOL    HW224912   3.015   2.101   9.212  1.0080 -0.2932 -0.8537
 4427SOL     OW24913   2.552   4.395   3.041  0.0402  0.6782 -0.1707
 4427SOL    HW124914   2.614   4.416   2.971  2.2682 -0.7864  1.3630
 4427SOL    HW224915   2.493   4.333   2.996 -0.2343  0.7426  0.1024
 4428SOL     OW24916   1.543   0.114   3.120  0.9115 -0.1494 -0.2386
 4428SOL    HW124917   1.466   0.169   3.110 -0.4470 -1.8860  0.7092
 4428SOL    HW224918   1.544   0.091   3.213  2.4576 -0.6423 -0.3656
 4429SOL     OW24919   0.182   3.195   9.849  0.0285 -0.1853 -0.2164
 4429SOL    HW124920   0.108   3.243   9.810 -0.4462  1.3409  2.5296
 4429SOL    HW224921   0.234   3.160   9.777  1.1072 -2.8325  1.8381
 4430SOL     OW24922   2.732   0.583   1.063 -0.5441  0.0399 -0.1313
 4430SOL    HW124923   2.675   0.593   0.987  1.0641  0.7341 -1.2455
 4430SOL    HW224924   2.668   0.543   1.121 -0.8832  2.3144  1.0788
 4431SOL     OW24925   3.348   4.661   3.005  0.0753 -0.1796 -0.2906
 4431SOL    HW124926   3.364   4.686   3.096  3.5108 -4.7667  0.3452
 4431SOL    HW224927   3.314   4.573   3.023  1.6200 -0.7892 -0.3593
 4432SOL     OW24928   2.364   3.576  11.586 -0.1290 -0.1952 -0.4678
 4432SOL    HW124929   2.455   3.551  11.597 -0.4062 -0.4667  1.1168
 4432SOL    HW224930   2.346   3.644  11.652  0.2945 -0.5572  0.0151
 4433SOL     OW24931   0.121   4.091  16.105  0.6291  0.5167  0.5082
 4433SOL    HW124932   0.026   4.080  16.095  0.5414  0.9425  0.8630
 4433SOL    HW224933   0.125   4.125  16.194  1.5235  1.9089 -0.0587
 4434SOL     OW24934   1.147   0.868   8.484  0.1398 -0.2067  0.5710
 4434SOL    HW124935   1.090   0.923   8.538  1.5852  3.1847 -1.4056
 4434SOL    HW224936   1.161   0.792   8.541 -0.9782  0.9677  2.4120
 4435SOL     OW24937   2.023   3.012   2.189  0.0282  0.0158 -0.6389
 4435SOL    HW124938   1.979   3.021   2.105 -0.8064 -1.8299 -0.3777
 4435SOL    HW224939   2.107   2.978   2.157 -0.5620 -0.4404 -1.6884
 4436SOL     OW24940   3.142   4.088   8.003 -0.4183 -0.2281  0.3388
 4436SOL    HW124941   3.115   4.173   8.037 -0.6358 -0.0738 -0.2218
 4436SOL    HW224942   3.222   4.107   7.954 -0.6225 -0.5567 -0.1212
 4437SOL     OW24943   0.620   1.552   6.355  0.5068  0.4853 -0.1346
 4437SOL    HW124944   0.707   1.592   6.346  0.8360 -0.6277 -2.0403
 4437SOL    HW224945   0.569   1.632   6.366  0.3538  0.2586  0.8044
 4438SOL     OW24946   1.302   0.755   9.536  0.6998  0.4354  0.2241
 4438SOL    HW124947   1.343   0.791   9.458  1.3401  2.1392  1.3429
 4438SOL    HW224948   1.369   0.786   9.597  1.7590 -0.9394 -0.2460
 4439SOL     OW24949   4.325   3.996   9.453  0.1618 -0.4434 -0.4040
 4439SOL    HW124950   4.353   4.021   9.541  0.7245  0.0143 -0.7104
 4439SOL    HW224951   4.408   4.000   9.406  1.0457 -1.1606  1.1200
 4440SOL     OW24952   3.667   2.868   2.586  0.0818  0.8195  0.3079
 4440SOL    HW124953   3.584   2.871   2.634 -0.7612  2.1107 -1.2573
 4440SOL    HW224954   3.652   2.793   2.529  0.5719  0.1631  1.0359
 4441SOL     OW24955   3.958   3.609  13.206  0.2748  0.0637 -0.0708
 4441SOL    HW124956   4.051   3.591  13.219  0.5928  0.5382 -1.6134
 4441SOL    HW224957   3.946   3.691  13.253  1.5833  1.7474 -2.6692
 4442SOL     OW24958   1.449   0.819   2.936 -0.3107  0.7277  0.3829
 4442SOL    HW124959   1.425   0.760   3.007  0.2085 -0.2877 -0.2849
 4442SOL    HW224960   1.369   0.817   2.882  1.2130  0.2835 -1.8630
 4443SOL     OW24961   4.075   4.326   1.549 -0.2547 -0.3157  0.5335
 4443SOL    HW124962   4.033   4.248   1.512 -1.2295  1.0959 -1.3360
 4443SOL    HW224963   4.044   4.313   1.639  0.0828 -1.9258  0.4032
 4444SOL     OW24964   1.256   1.627  12.312  0.4573 -0.1963  0.2245
 4444SOL    HW124965   1.254   1.561  12.242  0.1038 -0.2443  0.2801
 4444SOL    HW224966   1.229   1.703  12.261  0.4248 -1.6947 -2.0300
 4445SOL     OW24967   4.372   3.674   8.051  0.6632  0.1838 -0.2374
 4445SOL    HW124968   4.465   3.669   8.032  1.1603  1.6103  1.7294
 4445SOL    HW224969   4.347   3.751   8.000  1.7818 -0.1344 -1.2388
 4446SOL     OW24970   0.006   1.494   2.491  0.2152  0.0822  0.2421
 4446SOL    HW124971   4.714   1.535   2.573 -1.4030  0.1679 -0.3411
 4446SOL    HW224972   0.093   1.533   2.481  0.5071 -0.3512  1.1144
 4447SOL     OW24973   3.627   1.175   2.908 -0.1883 -0.3319  0.3526
 4447SOL    HW124974   3.587   1.143   2.989 -2.8104 -0.8658 -1.1599
 4447SOL    HW224975   3.548   1.148   2.862  0.6513 -0.3411 -1.1002
 4448SOL     OW24976   3.807   0.730   8.965 -0.4711  0.2703 -0.5935
 4448SOL    HW124977   3.782   0.780   8.887  0.6113  0.8909 -0.5404
 4448SOL    HW224978   3.870   0.788   9.007 -1.8353  0.1725  1.6130
 4449SOL     OW24979   4.149   3.247  15.178  0.3068 -0.4609 -0.4966
 4449SOL    HW124980   4.193   3.306  15.239 -0.3053 -2.6681  2.0735
 4449SOL    HW224981   4.179   3.274  15.091 -0.1379  0.6319 -0.3075
 4450SOL     OW24982   1.758   4.082   8.362 -0.7123  0.4132  0.7693
 4450SOL    HW124983   1.810   4.128   8.428  1.0546  1.3777 -1.2935
 4450SOL    HW224984   1.735   4.151   8.300 -0.4105  1.5992  1.9824
 4451SOL     OW24985   3.508   2.319   1.555 -0.4060 -0.4537  0.1694
 4451SOL    HW124986   3.565   2.385   1.594 -1.0177 -0.6233  1.3263
 4451SOL    HW224987   3.573   2.249   1.546  0.3536  0.1481  0.9347
 4452SOL     OW24988   3.822   3.028   6.199 -0.3011  0.2038  0.5401
 4452SOL    HW124989   3.852   2.963   6.136 -2.5254 -1.5303  1.2304
 4452SOL    HW224990   3.859   2.996   6.282  0.1846  0.5261  0.4410
 4453SOL     OW24991   3.319   2.291   8.079 -0.1010  0.0192  0.0415
 4453SOL    HW124992   3.316   2.326   7.989 -1.1671 -2.0202 -0.7275
 4453SOL    HW224993   3.246   2.231   8.063  0.3128 -1.0012  2.0483
 4454SOL     OW24994   2.291   2.695   3.234 -0.0838 -0.1870  0.0811
 4454SOL    HW124995   2.341   2.725   3.310  1.2981 -1.2360 -0.4147
 4454SOL    HW224996   2.248   2.775   3.204 -0.0881 -0.8236 -1.6457
 4455SOL     OW24997   2.014   0.327   3.532  0.3429 -0.2095 -0.7299
 4455SOL    HW124998   1.992   0.313   3.625  3.5767  0.9293  0.1786
 4455SOL    HW224999   2.002   0.421   3.529 -2.5810 -0.5645 -0.5337
 4456SOL     OW25000   2.082   4.423  15.220 -0.3387 -0.2327 -0.3314
 4456SOL    HW125001   2.164   4.424  15.270 -0.2556 -1.0998 -0.4519
 4456SOL    HW225002   2.099   4.497  15.163 -5.9407  0.4992 -1.0228
 4457SOL     OW25003   2.316   4.110   6.956  0.1812  0.4639 -0.2835
 4457SOL    HW125004   2.259   4.088   7.029 -0.2298  0.4816 -0.5978
 4457SOL    HW225005   2.383   4.169   6.992  0.1117 -0.3632  1.1822
 4458SOL     OW25006   4.357   1.799  13.182  0.3772 -0.5132  0.3229
 4458SOL    HW125007   4.404   1.816  13.263  1.7558  1.6016 -0.9213
 4458SOL    HW225008   4.423   1.752  13.131  0.1620  0.0050 -0.4304
 4459SOL     OW25009   0.222   1.804  14.157 -0.1170  1.0600 -0.3357
 4459SOL    HW125010   0.245   1.831  14.246  0.5810  1.4862 -0.6419
 4459SOL    HW225011   0.156   1.870  14.134  0.7587  2.2596  0.5695
 4460SOL     OW25012   0.490   0.104   5.704 -0.0460 -0.2080 -0.1261
 4460SOL    HW125013   0.505   0.033   5.642 -4.0619  0.7688 -2.2117
 4460SOL    HW225014   0.508   0.180   5.648 -0.7604 -0.3146 -0.4965
 4461SOL     OW25015   0.405   1.123  10.870 -0.5226  0.0071  0.0342
 4461SOL    HW125016   0.442   1.172  10.943 -0.9823  1.2895 -0.5936
 4461SOL    HW225017   0.385   1.193  10.807  1.6218  0.8050  0.2184
 4462SOL     OW25018   2.416   2.945   2.734  0.3895 -0.1331 -0.4067
 4462SOL    HW125019   2.451   2.878   2.792  0.0095  1.5035  1.7023
 4462SOL    HW225020   2.473   2.931   2.658  1.7949 -1.6769  0.9268
 4463SOL     OW25021   1.809   0.210   1.771 -0.3859 -0.9086 -0.0068
 4463SOL    HW125022   1.819   0.187   1.864  2.4714  0.0829 -0.0439
 4463SOL    HW225023   1.846   0.297   1.785  1.1159 -1.6710  0.8569
 4464SOL     OW25024   1.363   4.011   5.075  0.0413  0.5737 -0.0692
 4464SOL    HW125025   1.454   3.987   5.097 -0.7321 -0.6859  1.8222
 4464SOL    HW225026   1.325   4.014   5.163  3.9963 -1.2719  1.7162
 4465SOL     OW25027   0.857   4.575   8.552 -0.2303 -0.1065 -0.6269
 4465SOL    HW125028   0.928   4.585   8.616  0.1869  0.2039 -1.1417
 4465SOL    HW225029   0.849   4.657   8.504 -1.7359 -0.1050 -0.3589
 4466SOL     OW25030   2.257   2.343  15.088 -0.6906  0.2831  0.8152
 4466SOL    HW125031   2.184   2.357  15.149 -0.5856  1.3571  0.7003
 4466SOL    HW225032   2.213   2.301  15.015 -0.8202  1.0903  0.4254
 4467SOL     OW25033   1.925   3.126   7.600 -0.1983  0.2398  0.1911
 4467SOL    HW125034   2.001   3.183   7.616  0.3992 -0.5895  0.3250
 4467SOL    HW225035   1.950   3.037   7.625 -2.0145 -0.4243 -0.4269
 4468SOL     OW25036   2.831   4.601   1.050 -0.0412 -0.3439 -0.2809
 4468SOL    HW125037   2.842   4.618   0.956 -0.5875  0.0074 -0.2797
 4468SOL    HW225038   2.784   4.518   1.046 -1.4706  0.5102 -1.1602
 4469SOL     OW25039   0.460   3.228   8.951  0.4661 -0.5642  0.6379
 4469SOL    HW125040   0.546   3.257   8.923  0.4349  1.1035  2.3243
 4469SOL    HW225041   0.477   3.144   8.994  0.3808 -1.4175 -0.9866
 4470SOL     OW25042   2.117   0.822   3.306  0.5357  0.9535  0.2347
 4470SOL    HW125043   2.122   0.858   3.394 -0.4828 -0.6497  0.9467
 4470SOL    HW225044   2.203   0.847   3.272  0.8278 -0.1140  0.1888
 4471SOL     OW25045   4.590   0.515   8.844 -0.1966  0.2890  0.0229
 4471SOL    HW125046   4.545   0.433   8.866  1.4908 -0.4633  0.6453
 4471SOL    HW225047   4.648   0.523   8.919  0.6129 -0.9785 -0.4492
 4472SOL     OW25048   3.665   2.410   3.299  0.5123 -0.7152  0.0329
 4472SOL    HW125049   3.619   2.373   3.224 -1.2683 -1.7061  1.6260
 4472SOL    HW225050   3.678   2.499   3.265  2.5303 -0.4663  1.4487
 4473SOL     OW25051   4.673   0.571   8.257  0.2065  0.1909  0.4616
 4473SOL    HW125052   4.719   0.629   8.317 -1.3391  0.2593  1.5834
 4473SOL    HW225053   0.001   0.540   8.192 -0.4207  1.9227 -0.9897
 4474SOL     OW25054   0.914   3.817   4.785 -0.0529  0.1362  1.0116
 4474SOL    HW125055   0.952   3.884   4.842 -0.3728  2.7319 -1.8160
 4474SOL    HW225056   0.881   3.879   4.720 -1.0656 -0.3234  1.0959
 4475SOL     OW25057   3.359   2.189   4.962  0.1830 -0.2376  0.1711
 4475SOL    HW125058   3.325   2.164   5.048  1.9411 -2.4458  0.2057
 4475SOL    HW225059   3.449   2.156   4.969  0.1217 -0.0572  1.6444
 4476SOL     OW25060   3.442   1.066   8.404  0.2579  0.2232  0.0758
 4476SOL    HW125061   3.449   1.008   8.479  1.3140 -1.7138 -1.5348
 4476SOL    HW225062   3.521   1.118   8.420 -0.4713  0.5258  2.7391
 4477SOL     OW25063   2.953   1.969  17.083  0.4434  0.0330 -0.3306
 4477SOL    HW125064   3.019   1.928  17.027  0.0334 -1.4060  0.2442
 4477SOL    HW225065   2.992   2.036  17.140 -2.9388 -0.4969  2.5967
 4478SOL     OW25066   0.377   0.280   0.675 -0.3469  0.1495 -0.4360
 4478SOL    HW125067   0.463   0.300   0.712  1.0237 -1.0022 -3.0038
 4478SOL    HW225068   0.366   0.186   0.692 -0.9133  0.5289  1.2209
 4479SOL     OW25069   0.097   1.865  10.850 -0.1217 -0.2977  0.2212
 4479SOL    HW125070   0.135   1.802  10.789  0.6255  0.3978 -0.0279
 4479SOL    HW225071   0.154   1.939  10.826  0.7602 -2.2798 -3.7698
 4480SOL     OW25072   4.107   4.143   6.286 -0.2601 -0.4658  0.3045
 4480SOL    HW125073   4.146   4.092   6.215  0.1535 -2.1706  1.7687
 4480SOL    HW225074   4.079   4.075   6.347 -0.1829 -1.8516 -1.1923
 4481SOL     OW25075   4.144   0.677   9.539 -0.3816  0.6043  0.4976
 4481SOL    HW125076   4.152   0.662   9.633  2.5621 -3.1294 -0.3720
 4481SOL    HW225077   4.050   0.659   9.534 -0.2573  0.2052 -0.4250
 4482SOL     OW25078   1.385   0.620   3.694  0.4300  0.6834 -0.1565
 4482SOL    HW125079   1.342   0.703   3.676 -2.5279 -0.2616  2.4171
 4482SOL    HW225080   1.444   0.643   3.765  0.0081  1.5136 -0.0762
 4483SOL     OW25081   2.578   3.989  17.137 -0.5729  0.5802  0.0107
 4483SOL    HW125082   2.670   3.965  17.136 -0.5267  0.7828 -1.7936
 4483SOL    HW225083   2.567   4.032  17.052 -1.3788  1.1625  0.4040
 4484SOL     OW25084   4.090   4.275   2.570 -0.6192  0.4880  0.1683
 4484SOL    HW125085   4.081   4.369   2.590 -0.8915  0.1982  1.3661
 4484SOL    HW225086   4.184   4.263   2.581 -0.5018 -1.3685 -2.8458
 4485SOL     OW25087   4.044   0.183   3.192 -0.1459 -0.0299  0.3379
 4485SOL    HW125088   3.975   0.207   3.254  0.4015 -0.8722  1.2790
 4485SOL    HW225089   4.079   0.270   3.173 -1.2245 -0.1617 -2.1791
 4486SOL     OW25090   4.381   3.812   9.146 -0.2146  0.2486  0.0551
 4486SOL    HW125091   4.383   3.745   9.215 -0.1594 -2.5438 -2.6570
 4486SOL    HW225092   4.291   3.842   9.157 -0.6800 -0.6534 -1.2632
 4487SOL     OW25093   2.448   0.833  12.432 -0.0025  0.4196 -0.6476
 4487SOL    HW125094   2.458   0.852  12.339 -2.2813 -1.2549 -1.2205
 4487SOL    HW225095   2.539   0.819  12.459 -0.0108  0.0163 -0.8284
 4488SOL     OW25096   1.283   1.591   9.305 -0.5961 -0.2761  0.2049
 4488SOL    HW125097   1.218   1.533   9.266  0.9971 -1.8789 -0.0411
 4488SOL    HW225098   1.345   1.597   9.233 -1.1726  2.1289 -0.0960
 4489SOL     OW25099   0.632   1.820   3.942 -0.0138 -0.2554 -0.0971
 4489SOL    HW125100   0.640   1.754   4.010  0.1828 -1.2578 -1.0906
 4489SOL    HW225101   0.669   1.770   3.869  0.6064 -0.6286  0.4693
 4490SOL     OW25102   1.553   1.735  11.240 -0.0536  0.1602 -0.0314
 4490SOL    HW125103   1.634   1.763  11.282  0.7712  1.0492 -2.2177
 4490SOL    HW225104   1.518   1.823  11.223  1.7572  1.1759  1.5034
 4491SOL     OW25105   1.869   2.836   7.776 -0.2919 -0.2038  0.2774
 4491SOL    HW125106   1.962   2.850   7.757 -1.1882  3.3105 -1.4804
 4491SOL    HW225107   1.860   2.741   7.770 -1.1310 -0.1275  0.3541
 4492SOL     OW25108   1.675   4.092   2.657 -0.8560  0.2974  0.4225
 4492SOL    HW125109   1.724   4.164   2.697  0.9616 -1.2217  0.9053
 4492SOL    HW225110   1.723   4.076   2.576 -0.7257 -1.5556  0.8687
 4493SOL     OW25111   2.005   2.111  13.648  0.4834  0.3134 -0.5961
 4493SOL    HW125112   2.083   2.165  13.662  0.1401  0.7132 -0.2048
 4493SOL    HW225113   2.008   2.064  13.731 -2.2395 -0.1284 -0.7466
 4494SOL     OW25114   0.180   3.902   8.054 -0.1502 -0.2117 -0.3798
 4494SOL    HW125115   0.105   3.883   7.998  1.8748 -0.0680 -3.1988
 4494SOL    HW225116   0.151   3.981   8.099  2.2439 -0.0694  0.9622
 4495SOL     OW25117   0.777   1.454   3.352  0.2744 -0.2451  0.0695
 4495SOL    HW125118   0.684   1.472   3.363  1.0460  2.4708  2.0667
 4495SOL    HW225119   0.761   1.403   3.272  0.3169  1.7672 -1.2372
 4496SOL     OW25120   1.124   1.337   7.410  0.1024  0.4406 -0.6938
 4496SOL    HW125121   1.188   1.294   7.353  2.8697  1.0306  1.9443
 4496SOL    HW225122   1.065   1.263   7.420 -0.3276  0.8416 -0.2538
 4497SOL     OW25123   3.079   4.473   6.056 -0.0566 -0.1199 -0.2440
 4497SOL    HW125124   2.999   4.503   6.012 -1.0585  1.0940  2.4376
 4497SOL    HW225125   3.056   4.380   6.060 -0.5895 -0.0110 -0.8164
 4498SOL     OW25126   0.685   0.771   0.499 -0.0723  0.1638 -0.1648
 4498SOL    HW125127   0.684   0.677   0.516  1.4236  0.2681  0.5332
 4498SOL    HW225128   0.622   0.809   0.560 -1.0449 -0.9500 -0.4773
 4499SOL     OW25129   1.360   0.604  14.383  0.2602 -0.1104 -0.3834
 4499SOL    HW125130   1.368   0.512  14.360  0.6190 -0.2834  0.4046
 4499SOL    HW225131   1.421   0.608  14.458  0.6708 -0.1472 -0.7156
 4500SOL     OW25132   4.618   0.206   1.881 -0.0574  0.1796 -0.1692
 4500SOL    HW125133   4.547   0.146   1.855  0.5326  0.0139 -1.3748
 4500SOL    HW225134   4.626   0.182   1.973 -1.1362  1.5464  0.2827
 4501SOL     OW25135   2.372   0.908   7.421 -0.4149  0.0853 -0.1060
 4501SOL    HW125136   2.443   0.955   7.465 -1.1372  0.1006  1.0173
 4501SOL    HW225137   2.367   0.946   7.333 -2.1107 -2.5816 -1.1717
 4502SOL     OW25138   3.138   1.852   2.961 -0.3183  0.3839  0.1566
 4502SOL    HW125139   3.113   1.944   2.955  0.0071  0.6595  2.9658
 4502SOL    HW225140   3.173   1.858   3.050  0.3546 -0.1279 -0.0695
 4503SOL     OW25141   2.790   3.994   5.115  0.7048  0.6071 -0.1194
 4503SOL    HW125142   2.742   3.913   5.099 -0.3469  1.2839 -0.3747
 4503SOL    HW225143   2.879   3.963   5.099  0.0587  0.3113 -3.2628
 4504SOL     OW25144   1.770   4.723   9.611  0.3532 -0.5121 -0.3904
 4504SOL    HW125145   1.816   4.651   9.569 -2.9284 -1.1483 -2.8976
 4504SOL    HW225146   1.750   0.039   9.533  0.2422  1.4285  0.9304
 4505SOL     OW25147   3.588   0.961  14.128  0.2015  0.4630  0.4367
 4505SOL    HW125148   3.521   1.011  14.080 -1.0755 -4.0599 -2.4931
 4505SOL    HW225149   3.544   0.878  14.146  0.2861  0.1734 -0.6590
 4506SOL     OW25150   3.026   2.740  10.916 -0.0733 -0.2320  0.4110
 4506SOL    HW125151   3.034   2.822  10.965 -0.4333  0.0007  0.0863
 4506SOL    HW225152   2.957   2.772  10.858 -1.1095 -1.0843  1.1741
 4507SOL     OW25153   2.379   0.446  13.372 -0.6272 -0.0115 -0.1179
 4507SOL    HW125154   2.426   0.529  13.381 -0.3785 -0.2273  0.5876
 4507SOL    HW225155   2.293   0.462  13.410 -1.1821 -1.7899 -0.6603
 4508SOL     OW25156   4.431   4.436   5.060 -0.4744  0.1651 -0.0491
 4508SOL    HW125157   4.512   4.487   5.062 -0.0498 -0.4171 -1.7056
 4508SOL    HW225158   4.359   4.498   5.068 -1.9108 -1.1544 -2.6048
 4509SOL     OW25159   0.962   3.657  11.457 -0.7199 -0.0780 -0.6045
 4509SOL    HW125160   0.918   3.724  11.405 -1.8633  1.0778  1.8262
 4509SOL    HW225161   1.035   3.716  11.471  0.3407 -1.4465 -0.3181
 4510SOL     OW25162   1.953   1.370   5.642  0.0078 -0.0122 -0.3144
 4510SOL    HW125163   1.870   1.383   5.596 -0.3872 -0.5433  0.2528
 4510SOL    HW225164   1.968   1.275   5.634  3.3105  0.4914 -0.0248
 4511SOL     OW25165   1.317   0.095  11.881  0.1289 -0.7661  0.5222
 4511SOL    HW125166   1.299   0.003  11.862 -0.4696 -0.8930  1.7121
 4511SOL    HW225167   1.311   0.126  11.790  0.8449  1.0000  1.0900
 4512SOL     OW25168   2.631   1.698   3.448 -0.2351  0.3317  0.2133
 4512SOL    HW125169   2.591   1.688   3.534 -0.0951  3.1072  0.6105
 4512SOL    HW225170   2.650   1.605   3.437  1.7013  0.4173  2.7872
 4513SOL     OW25171   4.576   3.570   3.587 -0.4677 -0.2180  0.5209
 4513SOL    HW125172   4.580   3.550   3.493  1.8528  1.4594  0.2525
 4513SOL    HW225173   4.519   3.648   3.587 -0.1318  0.0368 -3.7732
 4514SOL     OW25174   0.259   3.585   6.885 -0.1492 -0.0283  0.0554
 4514SOL    HW125175   0.343   3.632   6.889  0.7681 -1.5883 -0.7185
 4514SOL    HW225176   0.250   3.545   6.972 -0.3726  0.6363  0.3344
 4515SOL     OW25177   3.440   2.125   1.857  0.5527 -0.1109  0.2160
 4515SOL    HW125178   3.361   2.172   1.881 -0.8607 -1.0698 -2.5420
 4515SOL    HW225179   3.509   2.185   1.886 -1.3930  1.7015  1.0344
 4516SOL     OW25180   0.311   2.785   7.073 -0.0319 -0.1875  0.3160
 4516SOL    HW125181   0.347   2.696   7.068  1.4535  0.5390 -2.0935
 4516SOL    HW225182   0.375   2.828   7.016 -0.7997  0.5153 -0.0200
 4517SOL     OW25183   2.121   3.234   1.524 -0.3200  0.2715  0.3455
 4517SOL    HW125184   2.053   3.190   1.575 -2.4989  1.0626 -1.8553
 4517SOL    HW225185   2.092   3.326   1.522 -0.6168  0.2087  2.3179
 4518SOL     OW25186   4.344   2.469   1.604 -0.1396 -0.5350  0.0512
 4518SOL    HW125187   4.315   2.384   1.572 -2.2397 -1.0094  3.2074
 4518SOL    HW225188   4.418   2.451   1.662 -3.2987  1.5757  4.7333
 4519SOL     OW25189   1.606   1.778   1.362  0.3012 -0.1231 -0.1817
 4519SOL    HW125190   1.552   1.857   1.363  1.6956  0.8322 -0.2711
 4519SOL    HW225191   1.633   1.780   1.454  4.6926 -1.1090 -1.4596
 4520SOL     OW25192   2.568   2.517   6.848 -0.5577  0.0152  0.0225
 4520SOL    HW125193   2.609   2.514   6.762 -1.3026  0.1730 -0.3464
 4520SOL    HW225194   2.502   2.574   6.808 -1.9128  0.4897  2.8868
 4521SOL     OW25195   0.940   3.414   2.942  0.5400  0.1395 -0.4564
 4521SOL    HW125196   0.868   3.351   2.951  1.7526 -1.1487  0.2853
 4521SOL    HW225197   1.008   3.359   2.903 -0.5734 -0.9789 -0.8431
 4522SOL     OW25198   3.806   4.188  17.425 -1.2212  0.5229  0.0525
 4522SOL    HW125199   3.850   4.162  17.344 -0.2566  1.0256  0.4165
 4522SOL    HW225200   3.834   4.119  17.486  0.4004 -0.2166 -1.5046
 4523SOL     OW25201   3.238   1.652   7.762 -0.0155  0.4395 -0.1333
 4523SOL    HW125202   3.200   1.613   7.684  2.0570 -2.2105  0.1720
 4523SOL    HW225203   3.313   1.701   7.730 -0.1774 -0.5236 -1.9855
 4524SOL     OW25204   2.098   0.940  17.483  0.0321 -0.6689 -0.0321
 4524SOL    HW125205   2.133   0.851  17.488 -0.1931 -0.6392  1.8764
 4524SOL    HW225206   2.056   0.934  17.397 -1.1245  0.8923  0.4320
 4525SOL     OW25207   1.012   3.999  12.462  0.6790  0.5904  0.1458
 4525SOL    HW125208   1.078   3.989  12.394 -1.2491  2.1754 -1.9648
 4525SOL    HW225209   0.943   3.937  12.439 -0.0717  1.5639 -0.2255
 4526SOL     OW25210   0.014   3.239   0.317  0.1408  0.1149  0.3015
 4526SOL    HW125211   4.711   3.327   0.318  0.9312  0.4854 -0.8422
 4526SOL    HW225212   0.074   3.251   0.243  1.0658 -0.3517  0.9824
 4527SOL     OW25213   0.135   2.676  10.643 -0.0285 -0.0125  0.6842
 4527SOL    HW125214   0.173   2.629  10.568  1.4903  1.5681  0.4561
 4527SOL    HW225215   0.178   2.760  10.627  0.3906 -0.6933 -1.8489
 4528SOL     OW25216   0.366   2.009   4.030  0.8093  0.4603  0.1445
 4528SOL    HW125217   0.398   1.938   3.974 -2.8090 -0.7922 -0.3242
 4528SOL    HW225218   0.437   2.070   4.050 -0.7086  2.3175 -0.1276
 4529SOL     OW25219   1.960   3.189   8.968  0.4487 -0.5821 -0.8366
 4529SOL    HW125220   1.912   3.113   8.937 -0.4884 -0.3294 -0.0295
 4529SOL    HW225221   1.904   3.267   8.959  0.4604 -0.3980  0.6264
 4530SOL     OW25222   1.005   2.659   7.170  0.0251 -0.1199  0.3494
 4530SOL    HW125223   0.923   2.623   7.137  0.4047 -0.7505  0.0987
 4530SOL    HW225224   0.956   2.707   7.237  0.7009 -1.7527  2.0007
 4531SOL     OW25225   3.122   3.091   3.526  0.2857  0.3707  0.0355
 4531SOL    HW125226   3.045   3.036   3.542 -0.2839  1.7734  2.1280
 4531SOL    HW225227   3.193   3.046   3.572 -0.8332 -3.3724 -1.8526
 4532SOL     OW25228   3.911   3.339   3.835  0.3606 -0.2746 -0.3782
 4532SOL    HW125229   3.998   3.300   3.828 -0.4736 -1.6041 -3.7706
 4532SOL    HW225230   3.925   3.422   3.790 -0.0258  0.8676  1.6472
 4533SOL     OW25231   3.343   0.435  15.756  0.2534  0.2371  0.4704
 4533SOL    HW125232   3.309   0.476  15.835  0.4027  0.3937  0.4522
 4533SOL    HW225233   3.415   0.489  15.724  0.7432 -0.8272 -0.2199
 4534SOL     OW25234   3.455   4.551   7.912  0.1782  0.8301  0.0847
 4534SOL    HW125235   3.511   4.490   7.864 -0.3273 -0.4637  1.1233
 4534SOL    HW225236   3.502   4.566   7.994 -1.3344 -2.0901  1.5083
 4535SOL     OW25237   0.445   3.979   5.821  0.3499 -0.2647 -0.1393
 4535SOL    HW125238   0.372   4.040   5.807  1.0866  0.1667 -2.0999
 4535SOL    HW225239   0.394   3.898   5.828 -0.9274  0.6958  1.6829
 4536SOL     OW25240   2.880   2.934   9.104 -0.8128  0.1457 -0.0555
 4536SOL    HW125241   2.835   2.857   9.068 -3.1958  0.8029  1.5049
 4536SOL    HW225242   2.930   2.962   9.028 -1.7187  2.8703  0.3661
 4537SOL     OW25243   0.110   3.859   6.918 -0.0088 -0.1486  0.0184
 4537SOL    HW125244   0.081   3.873   7.008 -0.0434  0.5003 -0.0940
 4537SOL    HW225245   0.117   3.765   6.903 -1.2699 -0.4096  1.0128
 4538SOL     OW25246   4.617   3.852  14.683 -0.3624  0.0182 -0.2496
 4538SOL    HW125247   4.686   3.853  14.750  2.9635  0.3346 -3.6276
 4538SOL    HW225248   4.610   3.758  14.672 -3.1583 -0.0837  2.2399
 4539SOL     OW25249   0.213   0.816  11.324 -0.2297  0.0471  0.4071
 4539SOL    HW125250   0.165   0.897  11.340 -1.1244  0.0593 -2.3769
 4539SOL    HW225251   0.187   0.800  11.234  2.1880  2.0808 -0.6687
 4540SOL     OW25252   3.644   3.248  16.024 -0.0624  0.0854  0.8335
 4540SOL    HW125253   3.589   3.190  16.076  0.6565  0.6243  2.1668
 4540SOL    HW225254   3.602   3.253  15.938 -0.4237  0.4962  1.0355
 4541SOL     OW25255   2.447   4.062   2.285  0.7044 -0.3384 -0.2162
 4541SOL    HW125256   2.459   3.972   2.315 -1.4120 -0.6047 -0.1431
 4541SOL    HW225257   2.518   4.060   2.221  0.5263  0.6394 -0.4400
 4542SOL     OW25258   3.992   4.112   1.724 -0.4071  0.8214 -0.0266
 4542SOL    HW125259   3.916   4.060   1.751  0.0811 -0.1182 -0.4556
 4542SOL    HW225260   4.065   4.052   1.740 -1.7222 -0.6612  0.4565
 4543SOL     OW25261   3.037   4.138   2.072  0.1755 -0.1491  0.4744
 4543SOL    HW125262   2.977   4.197   2.118  0.5810  1.1226 -0.6475
 4543SOL    HW225263   3.008   4.059   2.117 -0.7337  0.3204  0.7039
 4544SOL     OW25264   1.585   1.619   4.750 -0.1108  0.5328  0.9540
 4544SOL    HW125265   1.504   1.604   4.799  1.2471  0.6739  3.2060
 4544SOL    HW225266   1.590   1.536   4.703  1.2210  1.1641 -0.0146
 4545SOL     OW25267   1.975   0.730   7.908 -0.5690 -0.0714 -0.2147
 4545SOL    HW125268   1.891   0.774   7.897 -1.6921 -1.7661  1.5713
 4545SOL    HW225269   1.955   0.646   7.867  1.2396 -0.0274 -1.1975
 4546SOL     OW25270   3.476   2.388  14.450 -0.1887  0.1948 -0.5534
 4546SOL    HW125271   3.455   2.314  14.393  0.5789 -0.4768  0.0500
 4546SOL    HW225272   3.395   2.415  14.494 -0.3083 -0.6880 -0.2273
 4547SOL     OW25273   0.745   2.099   7.267  0.5216  0.8941 -0.2590
 4547SOL    HW125274   0.766   2.189   7.291  1.9366 -0.1313  2.3665
 4547SOL    HW225275   0.655   2.098   7.234  0.6795  1.2118 -0.6964
 4548SOL     OW25276   0.846   0.134   5.963 -0.3320 -0.6136  0.4822
 4548SOL    HW125277   0.883   0.216   5.995 -4.3811  1.9877 -1.4253
 4548SOL    HW225278   0.800   0.170   5.887  0.6325  0.6682  0.5042
 4549SOL     OW25279   0.591   2.019   5.705  0.6688  0.4552  0.1220
 4549SOL    HW125280   0.536   2.043   5.780  1.8072 -1.1800  1.4731
 4549SOL    HW225281   0.564   1.929   5.691 -1.2135  0.6503  2.4002
 4550SOL     OW25282   3.190   0.998   7.915 -1.0134  0.2954  0.3111
 4550SOL    HW125283   3.279   0.965   7.898 -0.2108  1.7649  1.6303
 4550SOL    HW225284   3.145   0.946   7.849  1.6046  1.4765 -2.4204
 4551SOL     OW25285   4.242   1.697   7.798 -0.1026  0.2039 -0.5919
 4551SOL    HW125286   4.186   1.693   7.720 -0.4918  1.0206 -0.3478
 4551SOL    HW225287   4.316   1.643   7.771  0.2762  1.2934 -1.7605
 4552SOL     OW25288   1.910   0.445   1.837 -0.1485  0.3826  0.2571
 4552SOL    HW125289   1.930   0.479   1.924 -1.1691  2.4369 -0.2914
 4552SOL    HW225290   1.890   0.524   1.785  0.9284 -1.4055 -2.8792
 4553SOL     OW25291   2.017   1.964   4.123 -0.2894  0.0863  0.1971
 4553SOL    HW125292   2.002   1.899   4.191  0.2437 -0.9556 -0.6748
 4553SOL    HW225293   2.110   1.952   4.102 -0.5087  2.3606 -2.0902
 4554SOL     OW25294   1.720   2.266  10.294  0.2857  0.0402 -0.1353
 4554SOL    HW125295   1.723   2.362  10.297  1.6939 -0.0102  0.1144
 4554SOL    HW225296   1.809   2.243  10.322  0.6756 -0.2792 -1.6269
 4555SOL     OW25297   2.421   0.010  15.996  0.2573 -0.0811  0.0035
 4555SOL    HW125298   2.411   0.099  16.029 -1.6385 -0.7118  1.1083
 4555SOL    HW225299   2.459   0.025  15.910 -0.5675 -0.9810 -0.5089
 4556SOL     OW25300   1.543   3.339   5.982  0.1277 -0.4705 -0.1849
 4556SOL    HW125301   1.581   3.325   6.069  0.8128  1.6399 -0.1703
 4556SOL    HW225302   1.603   3.283   5.933  0.4641 -0.3145  0.0490
 4557SOL     OW25303   0.428   2.973   8.752 -0.3148  0.4525 -0.5502
 4557SOL    HW125304   0.422   3.021   8.670  1.1711 -0.8637 -1.4281
 4557SOL    HW225305   0.489   3.038   8.787  1.1545 -0.5854 -1.1793
 4558SOL     OW25306   2.745   3.826   0.673  0.0749 -0.5219 -0.2900
 4558SOL    HW125307   2.809   3.808   0.741 -1.1294 -0.5553  0.8357
 4558SOL    HW225308   2.790   3.804   0.591 -0.3674  0.4792 -0.8112
 4559SOL     OW25309   2.980   3.830  17.366  0.6978 -0.6149 -0.6535
 4559SOL    HW125310   3.060   3.851  17.414  0.9290 -0.0735 -1.2700
 4559SOL    HW225311   2.966   3.746  17.410 -0.3206 -0.6242 -1.0077
 4560SOL     OW25312   0.970   2.998   4.774  0.1449  0.2777  0.2203
 4560SOL    HW125313   0.965   2.984   4.679  0.1211 -1.0882  0.4320
 4560SOL    HW225314   1.045   2.951   4.810 -0.1561 -1.4784 -1.4498
 4561SOL     OW25315   2.010   2.909   9.863 -0.2537  0.1635  0.0197
 4561SOL    HW125316   1.998   2.913   9.958  1.1448  0.2617  0.1936
 4561SOL    HW225317   2.103   2.930   9.860 -0.4203  0.7883 -0.9316
 4562SOL     OW25318   2.147   3.025   2.615  0.5265 -0.0312 -0.1653
 4562SOL    HW125319   2.085   2.978   2.559 -1.1516  1.2598  0.6255
 4562SOL    HW225320   2.227   3.013   2.564  0.5626  2.9380 -0.7785
 4563SOL     OW25321   3.320   2.249   5.658 -0.3817  0.1528 -0.3530
 4563SOL    HW125322   3.328   2.154   5.650  0.5681  0.1675  0.5499
 4563SOL    HW225323   3.242   2.267   5.605 -1.2846 -2.8411 -0.0332
 4564SOL     OW25324   4.174   3.274   4.630 -0.4513 -0.3818  0.8032
 4564SOL    HW125325   4.098   3.308   4.583  0.2691  0.4761  0.2598
 4564SOL    HW225326   4.188   3.191   4.583  0.5071  0.3798 -0.2543
 4565SOL     OW25327   4.018   0.841  12.146 -0.9660  0.2319  0.0057
 4565SOL    HW125328   4.007   0.875  12.235  0.9072 -1.2595  0.7857
 4565SOL    HW225329   3.965   0.900  12.091 -0.4956  0.9603  0.3388
 4566SOL     OW25330   3.692   1.343   3.569  0.1033  0.3865  0.7305
 4566SOL    HW125331   3.724   1.432   3.583  1.1782  0.3026 -1.3247
 4566SOL    HW225332   3.774   1.295   3.566  0.0168  0.3750 -1.1630
 4567SOL     OW25333   1.568   0.449   4.089  0.1463  0.0605 -0.3185
 4567SOL    HW125334   1.485   0.460   4.136 -0.7232 -0.7137 -1.6745
 4567SOL    HW225335   1.622   0.411   4.159 -0.6899 -0.9266 -0.2119
 4568SOL     OW25336   2.351   0.664   3.869  1.1002  0.3359 -0.5817
 4568SOL    HW125337   2.414   0.666   3.942  0.1680 -0.2788  0.2515
 4568SOL    HW225338   2.399   0.725   3.814  0.6844  0.9360 -0.2778
 4569SOL     OW25339   0.387   0.567   6.081  0.1788 -0.4660  0.1988
 4569SOL    HW125340   0.333   0.501   6.125  0.6675  0.2497  1.8537
 4569SOL    HW225341   0.322   0.599   6.019  0.7969  0.7822  0.1853
 4570SOL     OW25342   0.986   2.962  12.183 -0.0582 -0.0418 -0.5148
 4570SOL    HW125343   0.953   3.025  12.246 -0.8447 -0.4808 -0.4800
 4570SOL    HW225344   0.980   3.015  12.103  0.5064  0.5200 -0.1802
 4571SOL     OW25345   3.345   0.529  14.619 -0.3460  0.0642  0.0051
 4571SOL    HW125346   3.439   0.515  14.630  0.3678  3.4313 -1.8809
 4571SOL    HW225347   3.311   0.455  14.670  0.6205 -0.1788  0.3027
 4572SOL     OW25348   1.952   0.527  10.111  0.9152 -0.3857  0.2024
 4572SOL    HW125349   1.968   0.501  10.021 -4.0234 -0.3242 -0.6962
 4572SOL    HW225350   1.901   0.461  10.158 -1.4709  1.2871 -0.0470
 4573SOL     OW25351   3.996   2.693   6.909 -0.0998 -0.5026 -0.3578
 4573SOL    HW125352   3.931   2.629   6.939  0.6397 -0.2146  1.8328
 4573SOL    HW225353   3.998   2.748   6.988 -0.1815 -0.7033 -0.2156
 4574SOL     OW25354   3.415   3.117  15.367 -0.1376 -0.2707 -0.1144
 4574SOL    HW125355   3.488   3.177  15.351 -0.8205  0.3500 -0.8956
 4574SOL    HW225356   3.419   3.065  15.287  0.9989  0.2052 -0.3643
 4575SOL     OW25357   0.592   1.730   4.987 -0.8136 -0.0755  0.0896
 4575SOL    HW125358   0.630   1.806   4.943  0.3897 -0.4654  0.4602
 4575SOL    HW225359   0.520   1.769   5.038 -0.1415 -1.0731  1.8055
 4576SOL     OW25360   3.998   1.266   7.768 -0.1619  0.0393 -0.2294
 4576SOL    HW125361   4.049   1.254   7.848 -0.9192  2.0730  0.5634
 4576SOL    HW225362   3.957   1.180   7.759 -2.0892  0.7319  2.0965
 4577SOL     OW25363   4.582   4.362   4.539 -0.4523 -0.5242 -0.3483
 4577SOL    HW125364   4.525   4.322   4.606 -3.7298 -0.6057 -3.1763
 4577SOL    HW225365   4.520   4.398   4.476 -0.2381 -0.7411 -0.6771
 4578SOL     OW25366   3.540   2.843   9.319  0.7723  0.2387 -0.1095
 4578SOL    HW125367   3.564   2.820   9.408  0.2976 -1.5368 -0.4439
 4578SOL    HW225368   3.607   2.789   9.277  0.0831  0.6973 -1.8189
 4579SOL     OW25369   4.426   2.060   6.370 -0.0438 -0.1745 -0.1792
 4579SOL    HW125370   4.493   2.048   6.303 -0.7051  3.6626 -1.5506
 4579SOL    HW225371   4.466   2.129   6.424 -0.0368  0.6818 -1.2700
 4580SOL     OW25372   2.509   3.729   7.163  0.0835  0.0768  0.1853
 4580SOL    HW125373   2.584   3.768   7.117 -0.4883 -1.2925 -1.9524
 4580SOL    HW225374   2.464   3.804   7.201 -0.4820  0.2238 -0.7760
 4581SOL     OW25375   4.150   3.528   1.806  0.3139  0.6310  0.1448
 4581SOL    HW125376   4.088   3.546   1.735  0.2849  0.6500  0.1751
 4581SOL    HW225377   4.186   3.442   1.785  0.6714  0.4064  1.7050
 4582SOL     OW25378   4.471   3.473   9.157  0.0472 -0.5249 -0.0760
 4582SOL    HW125379   4.485   3.557   9.113  1.8958 -0.6092  0.3326
 4582SOL    HW225380   4.504   3.503   9.241  0.7555 -0.4725 -0.3705
 4583SOL     OW25381   4.589   1.932  12.872  0.5823 -0.7926 -0.0500
 4583SOL    HW125382   4.518   1.975  12.920 -0.6480 -2.1396 -0.6600
 4583SOL    HW225383   4.625   1.871  12.935  0.4096  2.4891  3.2254
 4584SOL     OW25384   2.693   1.113   6.760 -0.1484 -0.0846 -0.0729
 4584SOL    HW125385   2.653   1.186   6.714 -1.1205 -0.1039  0.7532
 4584SOL    HW225386   2.652   1.115   6.846  1.2235  1.7532  0.5351
 4585SOL     OW25387   3.776   1.957   8.293 -0.2193 -0.0165 -0.1276
 4585SOL    HW125388   3.820   1.891   8.347  1.3319  1.2057  0.1046
 4585SOL    HW225389   3.825   1.946   8.212 -0.8536  2.1845 -0.8142
 4586SOL     OW25390   2.254   4.318  11.768  0.1782  0.4538 -0.2399
 4586SOL    HW125391   2.335   4.367  11.782 -0.7609  2.5229 -2.0503
 4586SOL    HW225392   2.240   4.334  11.675 -0.0943 -1.0224 -0.4559
 4587SOL     OW25393   4.394   2.714  10.920  0.0679 -0.0391  0.4652
 4587SOL    HW125394   4.477   2.762  10.924  0.2874 -0.2377 -1.7592
 4587SOL    HW225395   4.373   2.694  10.829  1.8202  1.5666 -0.2918
 4588SOL     OW25396   1.050   4.214   7.194 -0.0845  0.0832 -0.3093
 4588SOL    HW125397   0.996   4.281   7.236 -1.6628 -1.0954 -0.4382
 4588SOL    HW225398   1.067   4.152   7.266 -0.0828  0.8210  0.3248
 4589SOL     OW25399   3.456   3.757   8.052  0.4271 -0.1712  0.3744
 4589SOL    HW125400   3.456   3.830   7.990 -0.0297  0.2601  0.8883
 4589SOL    HW225401   3.410   3.687   8.004 -1.5167  0.0537  1.8982
 4590SOL     OW25402   3.843   2.312  15.046 -0.7910 -0.2054 -0.4385
 4590SOL    HW125403   3.785   2.344  15.115 -0.7690 -1.8489  0.3309
 4590SOL    HW225404   3.833   2.217  15.040 -2.5818 -0.0359  0.0264
 4591SOL     OW25405   0.740   1.558   7.924 -0.2552  0.8906 -0.3323
 4591SOL    HW125406   0.774   1.568   8.013 -3.7626 -0.6147  1.1641
 4591SOL    HW225407   0.722   1.647   7.893 -0.7356  0.9392  0.0955
 4592SOL     OW25408   1.622   1.303   7.284  0.3414 -1.0051  0.0785
 4592SOL    HW125409   1.616   1.222   7.334 -1.9060 -1.2768 -0.5991
 4592SOL    HW225410   1.587   1.358   7.354  0.9632 -0.2286 -0.2195
 4593SOL     OW25411   0.643   2.009   7.859  0.1410 -0.1528 -0.2258
 4593SOL    HW125412   0.732   1.984   7.882  0.1085 -0.6996 -0.6973
 4593SOL    HW225413   0.637   2.094   7.902 -0.9971 -0.2804 -0.1246
 4594SOL     OW25414   0.629   4.012   4.463 -0.4796 -0.5665 -0.7207
 4594SOL    HW125415   0.604   4.100   4.490 -1.9968 -0.9958 -0.7513
 4594SOL    HW225416   0.725   4.016   4.466 -0.4787 -0.9437 -0.1965
 4595SOL     OW25417   0.127   2.641   9.042  0.0033  0.2024 -0.2321
 4595SOL    HW125418   0.117   2.675   9.131 -0.8811  1.4309 -0.8009
 4595SOL    HW225419   0.129   2.723   8.993 -2.6165 -1.5522 -3.2974
 4596SOL     OW25420   1.222   1.096   8.246 -0.3202  0.6457  0.6800
 4596SOL    HW125421   1.243   1.022   8.304 -0.9267  1.0927  1.4636
 4596SOL    HW225422   1.288   1.090   8.176 -0.5861 -1.8906  0.6425
 4597SOL     OW25423   4.559   0.365  12.041 -0.1515 -0.4784 -0.6639
 4597SOL    HW125424   4.488   0.304  12.061 -1.2848  1.0965  0.1062
 4597SOL    HW225425   4.588   0.344  11.953  0.1822 -1.4077 -0.3300
 4598SOL     OW25426   3.648   3.043   6.964 -0.2016  0.7689 -0.6291
 4598SOL    HW125427   3.672   2.963   7.012 -2.6954 -0.7015 -1.8056
 4598SOL    HW225428   3.586   3.002   6.904 -0.7699  2.6161 -1.2893
 4599SOL     OW25429   0.492   0.266  11.657  0.2140 -0.4188  0.5843
 4599SOL    HW125430   0.460   0.353  11.634 -0.6670 -0.7136  0.7156
 4599SOL    HW225431   0.562   0.252  11.593  0.2746 -2.1087  1.0278
 4600SOL     OW25432   1.494   2.357   4.522 -0.1852  0.3044  0.1589
 4600SOL    HW125433   1.475   2.274   4.565  1.0418 -1.2923 -2.3761
 4600SOL    HW225434   1.413   2.407   4.538 -1.0250 -0.3236 -2.1670
 4601SOL     OW25435   0.717   1.107  17.356  0.3154  0.6081 -0.1464
 4601SOL    HW125436   0.772   1.154  17.419 -0.7846 -2.0339  2.7342
 4601SOL    HW225437   0.639   1.103  17.410  0.6693  0.3470  0.3505
 4602SOL     OW25438   1.501   4.160  14.625 -0.4832  0.2325  0.3360
 4602SOL    HW125439   1.541   4.073  14.627  0.3906  0.6225 -0.8248
 4602SOL    HW225440   1.426   4.168  14.685 -0.7523 -2.3200  0.3501
 4603SOL     OW25441   3.212   1.678   0.143  0.2748 -0.3524 -0.2756
 4603SOL    HW125442   3.184   1.681   0.234 -0.1109  1.0756 -0.4323
 4603SOL    HW225443   3.130   1.654   0.100  1.1544 -3.1077 -0.4110
 4604SOL     OW25444   1.748   3.290   4.675 -0.2921  0.4881 -0.8005
 4604SOL    HW125445   1.784   3.220   4.729 -1.3088 -0.4550 -1.3508
 4604SOL    HW225446   1.764   3.257   4.587  0.3017  3.0283 -1.6296
 4605SOL     OW25447   2.080   2.004   5.421 -0.6763  0.1925  0.5185
 4605SOL    HW125448   2.051   2.029   5.333  0.7539 -0.7568 -0.2202
 4605SOL    HW225449   2.114   1.918   5.394 -1.2104  0.1142  0.0945
 4606SOL     OW25450   0.734   4.236   4.892  0.1909 -0.1456  0.2077
 4606SOL    HW125451   0.663   4.180   4.925  2.0902 -1.1342  2.6884
 4606SOL    HW225452   0.771   4.271   4.973  2.3116 -3.0744  0.4844
 4607SOL     OW25453   1.043   0.540  15.901  0.3346 -0.3554 -0.2582
 4607SOL    HW125454   0.996   0.586  15.831  1.0667  0.8963  0.0565
 4607SOL    HW225455   1.024   0.448  15.884 -0.7034 -0.6376  2.3832
 4608SOL     OW25456   2.024   4.248   0.059 -0.3394 -0.2228 -0.0985
 4608SOL    HW125457   2.111   4.251   0.099 -0.9855  1.6943  1.1448
 4608SOL    HW225458   2.039   4.179  17.735  0.8642  0.2264 -0.2939
 4609SOL     OW25459   3.157   1.173   7.304  0.0903  0.2548 -0.1474
 4609SOL    HW125460   3.084   1.167   7.366  0.1349  0.1090 -0.1095
 4609SOL    HW225461   3.230   1.191   7.363  0.6934  2.1860 -1.4741
 4610SOL     OW25462   1.504   2.030   5.234 -0.1148  0.5486  0.0787
 4610SOL    HW125463   1.524   2.001   5.323  1.2116  0.7289 -0.1569
 4610SOL    HW225464   1.457   2.110   5.257 -0.1599  0.1292  1.4288
 4611SOL     OW25465   2.142   2.625   4.214  0.8293  0.0805 -0.2913
 4611SOL    HW125466   2.126   2.658   4.125 -2.1227 -2.3682 -0.6846
 4611SOL    HW225467   2.232   2.592   4.212  0.7778 -0.0289 -0.7989
 4612SOL     OW25468   1.137   1.827   7.772 -0.2630  0.5048  0.8762
 4612SOL    HW125469   1.111   1.748   7.820  3.5728 -1.5752 -0.5117
 4612SOL    HW225470   1.092   1.803   7.691  2.4199 -1.0777 -0.1213
 4613SOL     OW25471   3.430   2.550   9.132 -0.5623  0.5261 -0.3665
 4613SOL    HW125472   3.359   2.497   9.168 -1.5098  1.8281 -0.3081
 4613SOL    HW225473   3.461   2.593   9.211  1.2830 -1.6950  0.1399
 4614SOL     OW25474   0.322   0.352   1.774 -0.2736  0.0614  0.1108
 4614SOL    HW125475   0.354   0.359   1.864  0.0372 -0.9118  0.0753
 4614SOL    HW225476   0.341   0.259   1.758  1.4484  0.2729  0.8847
 4615SOL     OW25477   2.591   1.075   8.823 -0.5126  0.1553 -0.7364
 4615SOL    HW125478   2.669   1.129   8.810  1.0438 -1.3695  2.0843
 4615SOL    HW225479   2.637   1.000   8.862  1.1964  0.0942 -2.8682
 4616SOL     OW25480   2.398   3.619   6.351 -0.1418  0.6902 -0.5721
 4616SOL    HW125481   2.354   3.670   6.283 -0.3144  0.7847 -0.3873
 4616SOL    HW225482   2.324   3.591   6.404  1.3838 -1.4862  0.3975
 4617SOL     OW25483   3.401   3.912   3.465 -0.2552  0.4449  0.0873
 4617SOL    HW125484   3.391   4.006   3.485  0.2881  0.5711 -0.2344
 4617SOL    HW225485   3.333   3.898   3.400  1.0921  0.2100 -1.2579
 4618SOL     OW25486   3.544   0.761   5.689  0.6866 -0.1791 -0.4949
 4618SOL    HW125487   3.568   0.854   5.694  0.1213  0.0170 -1.6200
 4618SOL    HW225488   3.449   0.762   5.679  0.9274 -2.3993 -2.9505
 4619SOL     OW25489   0.162   2.579  14.871 -0.0817  0.2499 -0.2678
 4619SOL    HW125490   0.198   2.552  14.786 -0.8638  1.8202 -1.1112
 4619SOL    HW225491   0.174   2.503  14.928  3.1524 -0.2254 -1.5481
 4620SOL     OW25492   2.318   4.119   4.466  0.8945  0.0080  0.2715
 4620SOL    HW125493   2.411   4.140   4.456  0.4276 -0.0982 -4.5654
 4620SOL    HW225494   2.309   4.144   4.558  0.6685 -0.7601  0.4513
 4621SOL     OW25495   0.782   3.477   2.686 -0.3230 -0.6484 -0.0787
 4621SOL    HW125496   0.845   3.451   2.753  1.8161  0.0325 -1.8159
 4621SOL    HW225497   0.843   3.531   2.636  0.5518 -0.6114  1.0210
 4622SOL     OW25498   0.589   1.071   5.521  0.3934 -0.2421  0.5852
 4622SOL    HW125499   0.623   1.037   5.604 -0.8052 -1.4088  0.6026
 4622SOL    HW225500   0.659   1.048   5.461 -0.1271 -0.4620  0.0623
 4623SOL     OW25501   2.389   3.952   7.779  0.1415 -0.4702  0.6636
 4623SOL    HW125502   2.359   4.032   7.822 -1.8414 -1.3858  1.0100
 4623SOL    HW225503   2.373   3.895   7.854 -2.1140  0.8977  1.2095
 4624SOL     OW25504   0.198   3.919  10.670 -0.2146 -0.0511 -0.4763
 4624SOL    HW125505   0.234   3.835  10.640  2.1078  0.1411  1.7700
 4624SOL    HW225506   0.172   3.889  10.757  1.1408 -1.2856 -0.5030
 4625SOL     OW25507   4.060   1.926   1.963  0.1972 -0.0357 -0.3659
 4625SOL    HW125508   4.136   1.966   2.007  0.7659 -1.7877  0.2382
 4625SOL    HW225509   4.088   1.836   1.975 -0.3176  0.3142  3.4234
 4626SOL     OW25510   0.943   4.132  15.504  0.5171 -0.4498  0.1039
 4626SOL    HW125511   1.011   4.106  15.566  1.3397 -0.2750 -0.7143
 4626SOL    HW225512   0.865   4.095  15.543  0.9099 -0.7801  0.5715
 4627SOL     OW25513   3.520   0.257  11.669  0.1381  0.0884  0.0818
 4627SOL    HW125514   3.455   0.227  11.606  0.0749  0.1107  0.1357
 4627SOL    HW225515   3.558   0.323  11.611 -0.0884  0.3281  0.2041
 4628SOL     OW25516   2.056   2.755   2.579  0.0018 -0.6387 -0.0950
 4628SOL    HW125517   2.076   2.674   2.627  0.0586  0.2192  1.3494
 4628SOL    HW225518   2.110   2.744   2.501 -0.1696  0.0523 -0.3067
 4629SOL     OW25519   4.437   1.335  12.069  0.0972  0.0301 -0.1607
 4629SOL    HW125520   4.510   1.275  12.088 -1.5899 -2.0332 -0.1436
 4629SOL    HW225521   4.377   1.313  12.140 -0.4633  1.1540 -0.2910
 4630SOL     OW25522   0.738   2.368   5.890  0.6597 -0.6963 -0.0706
 4630SOL    HW125523   0.799   2.298   5.912 -2.5995 -3.3369  0.5795
 4630SOL    HW225524   0.787   2.394   5.812 -0.3522  1.4125 -0.0181
 4631SOL     OW25525   2.236   1.399   7.050 -0.2221  0.4425  0.1909
 4631SOL    HW125526   2.189   1.404   7.133  1.3931 -0.9323  1.1946
 4631SOL    HW225527   2.195   1.318   7.020 -0.8441  1.0603 -0.6184
 4632SOL     OW25528   0.404   0.632   3.823 -0.0129 -0.0310 -0.4912
 4632SOL    HW125529   0.475   0.648   3.885 -0.3660 -0.2575 -0.0300
 4632SOL    HW225530   0.374   0.720   3.798 -2.1523 -1.0220 -1.3965
 4633SOL     OW25531   0.215   0.653   2.850  0.1774  0.3562 -0.3278
 4633SOL    HW125532   0.216   0.718   2.921 -1.2161 -0.4722  0.4672
 4633SOL    HW225533   0.245   0.697   2.770  1.6239  1.6344  0.9124
 4634SOL     OW25534   1.802   3.118   6.690 -0.4566  0.9250  0.0077
 4634SOL    HW125535   1.854   3.038   6.695 -0.3963  0.8432 -1.7896
 4634SOL    HW225536   1.714   3.080   6.693  0.0437 -0.2685 -0.3571
 4635SOL     OW25537   4.323   2.419   7.399 -0.0948  0.1317  0.3053
 4635SOL    HW125538   4.321   2.362   7.322 -0.7267 -0.4634  0.7528
 4635SOL    HW225539   4.230   2.441   7.406  0.0170  0.2156  1.5273
 4636SOL     OW25540   3.545   2.777   2.011 -0.4104 -0.0451 -0.3631
 4636SOL    HW125541   3.527   2.749   1.922  2.4063 -0.7851 -0.6862
 4636SOL    HW225542   3.464   2.821   2.037 -0.3299  0.3892 -0.8564
 4637SOL     OW25543   2.870   4.415   3.883  0.4985 -0.0136  0.2455
 4637SOL    HW125544   2.866   4.414   3.979  0.8742  0.0083  0.2615
 4637SOL    HW225545   2.781   4.394   3.856  0.5796 -1.2762  0.9588
 4638SOL     OW25546   1.749   0.674   1.978  0.2408 -0.4140 -0.1174
 4638SOL    HW125547   1.745   0.766   1.951  2.2958 -0.0691  0.7716
 4638SOL    HW225548   1.737   0.676   2.073  0.9663 -5.2954  0.0423
 4639SOL     OW25549   1.658   0.413  10.497 -0.2860 -0.5268  0.4447
 4639SOL    HW125550   1.580   0.440  10.448  1.2962 -0.6148 -2.0746
 4639SOL    HW225551   1.640   0.446  10.585  2.8186  1.7177  0.2266
 4640SOL     OW25552   0.280   2.642   3.484  0.6261 -0.0586 -0.2754
 4640SOL    HW125553   0.236   2.688   3.412  0.7737  1.3931  0.5720
 4640SOL    HW225554   0.287   2.721   3.538  2.4066 -0.1115 -0.3993
 4641SOL     OW25555   0.153   2.487   3.733 -0.6150 -0.1030  0.0829
 4641SOL    HW125556   0.239   2.468   3.694  0.0316 -0.9850  1.8837
 4641SOL    HW225557   0.166   2.562   3.791 -0.0725 -1.3827  1.6162
 4642SOL     OW25558   2.587   1.195   9.134 -0.0379  0.0741 -0.4310
 4642SOL    HW125559   2.620   1.162   9.218 -0.6061  1.3842  0.2940
 4642SOL    HW225560   2.558   1.108   9.106  1.0809 -0.7942  1.0739
 4643SOL     OW25561   0.356   1.358  15.580 -0.0750  0.2797  0.0857
 4643SOL    HW125562   0.299   1.435  15.585 -0.3112  0.1587 -0.7229
 4643SOL    HW225563   0.369   1.351  15.485 -4.3347 -2.4692 -0.2633
 4644SOL     OW25564   2.669   3.747   0.969  0.3577  0.1056 -0.7279
 4644SOL    HW125565   2.740   3.684   0.977  0.4912  0.3412 -0.0204
 4644SOL    HW225566   2.620   3.720   0.892 -0.9131  0.8496 -0.1894
 4645SOL     OW25567   1.580   2.480   7.100 -0.1869 -0.3949 -0.0883
 4645SOL    HW125568   1.498   2.433   7.087 -1.1855  0.8900  1.5733
 4645SOL    HW225569   1.636   2.403   7.112 -2.6372 -2.1360  0.0376
 4646SOL     OW25570   1.235   3.283   5.075  0.6683  0.3546  0.0207
 4646SOL    HW125571   1.242   3.378   5.084 -0.3959  0.5150 -0.8722
 4646SOL    HW225572   1.224   3.277   4.980 -0.0594 -0.8349  0.1934
 4647SOL     OW25573   3.857   2.365  17.003 -0.1087 -0.1282 -0.0701
 4647SOL    HW125574   3.910   2.327  17.073  0.4733 -2.6633 -1.8695
 4647SOL    HW225575   3.770   2.341  17.033 -0.2172 -0.5266 -0.7091
 4648SOL     OW25576   1.000   0.985   8.703  0.3444 -0.4483 -0.1790
 4648SOL    HW125577   0.917   1.007   8.745 -0.1728 -0.0864 -1.3828
 4648SOL    HW225578   1.068   1.019   8.761  0.6520 -1.6149  0.1440
 4649SOL     OW25579   2.774   0.708   5.851  0.1635  0.3514  0.4265
 4649SOL    HW125580   2.773   0.746   5.940 -0.8688  0.4151  0.3773
 4649SOL    HW225581   2.784   0.616   5.873  0.6147  0.6125  1.3278
 4650SOL     OW25582   4.016   2.116   2.846  0.5120  0.1537 -0.4989
 4650SOL    HW125583   4.074   2.059   2.795 -1.0324 -0.3420 -1.7387
 4650SOL    HW225584   3.984   2.169   2.773 -0.1353  1.2003  0.5536
 4651SOL     OW25585   2.572   3.025   0.954 -0.4322  0.0367  0.0048
 4651SOL    HW125586   2.562   3.057   1.044  0.5710 -1.1556  0.5422
 4651SOL    HW225587   2.481   3.000   0.937 -0.8906 -0.3579  2.9636
 4652SOL     OW25588   4.614   3.547   5.603  0.8640  0.0719 -0.3779
 4652SOL    HW125589   4.596   3.636   5.633 -0.1390 -0.4946  0.6774
 4652SOL    HW225590   4.705   3.550   5.632  0.8293  2.3217 -0.5098
 4653SOL     OW25591   0.856   0.182   7.303 -0.2705 -0.2483  0.1797
 4653SOL    HW125592   0.869   0.234   7.223 -3.2323 -3.8623 -2.6722
 4653SOL    HW225593   0.930   0.123   7.291  1.3023  1.9554 -0.9278
 4654SOL     OW25594   2.859   0.704   6.505  0.2409 -0.0196  0.3899
 4654SOL    HW125595   2.824   0.790   6.529  0.1246  0.8157 -2.7895
 4654SOL    HW225596   2.864   0.661   6.590  0.2994 -2.6473 -0.9562
 4655SOL     OW25597   4.148   4.142   0.262 -0.3010  0.3140  0.0522
 4655SOL    HW125598   4.212   4.203   0.225 -0.1049 -1.2504 -2.2375
 4655SOL    HW225599   4.084   4.199   0.304 -1.1927 -0.1458 -0.6899
 4656SOL     OW25600   1.786   0.063   6.236  0.0093 -0.2975  0.1563
 4656SOL    HW125601   1.826   0.133   6.288 -0.4946  0.4777 -0.4962
 4656SOL    HW225602   1.701   0.039   6.272  1.5302 -2.9013  1.9497
 4657SOL     OW25603   4.422   1.050   3.744 -0.0243 -0.8167  0.2113
 4657SOL    HW125604   4.347   0.992   3.746 -1.1628  0.6649  0.7968
 4657SOL    HW225605   4.489   0.984   3.729  1.1697 -0.0951  2.3312
 4658SOL     OW25606   0.262   4.154   3.347  0.0825 -0.4944 -0.0285
 4658SOL    HW125607   0.234   4.199   3.267 -0.6031 -0.3070  0.3208
 4658SOL    HW225608   0.195   4.086   3.345 -0.4149 -0.0424  1.3708
 4659SOL     OW25609   3.382   2.113   1.256  0.0664  0.2474  0.9379
 4659SOL    HW125610   3.294   2.079   1.239  0.3734 -0.4220  0.6803
 4659SOL    HW225611   3.421   2.059   1.324  4.7609  0.5949 -1.4420
 4660SOL     OW25612   0.521   0.439   9.037  0.3087 -0.4603  0.2505
 4660SOL    HW125613   0.431   0.471   9.034 -0.3273 -2.3691 -0.7030
 4660SOL    HW225614   0.546   0.463   8.947  1.0918 -0.2412  0.5241
 4661SOL     OW25615   0.645   3.073  13.633 -0.0541 -0.0274  0.3008
 4661SOL    HW125616   0.648   3.048  13.725 -1.2191 -3.2813 -0.5476
 4661SOL    HW225617   0.553   3.096  13.625 -0.0117 -0.0461 -0.2970
 4662SOL     OW25618   2.200   4.417   4.211 -0.4202 -0.4471  0.1163
 4662SOL    HW125619   2.164   4.329   4.201 -1.6558  0.1551 -0.7265
 4662SOL    HW225620   2.246   4.424   4.128  1.7199  0.3263  1.3671
 4663SOL     OW25621   0.175   1.931   8.057  0.1360  0.4832 -0.2284
 4663SOL    HW125622   0.173   1.868   7.985 -0.5176  0.7669 -0.4586
 4663SOL    HW225623   0.267   1.937   8.081  1.1181 -0.9346 -3.6328
 4664SOL     OW25624   1.695   2.384   3.601 -0.1369  0.5260  0.3155
 4664SOL    HW125625   1.659   2.365   3.514  0.0989  0.7579  0.1668
 4664SOL    HW225626   1.621   2.364   3.658 -0.4874  0.8185 -0.0338
 4665SOL     OW25627   1.568   0.717  12.928 -0.0524 -0.0430 -0.0472
 4665SOL    HW125628   1.626   0.784  12.892  0.7434 -1.2514 -1.0207
 4665SOL    HW225629   1.518   0.763  12.996  1.2281  1.4584 -0.1190
 4666SOL     OW25630   0.248   2.677   8.402 -0.3120 -0.1952 -0.6670
 4666SOL    HW125631   0.276   2.587   8.416 -3.1667 -1.0372 -0.2056
 4666SOL    HW225632   0.212   2.686   8.490  1.3989 -3.0190  0.3206
 4667SOL     OW25633   2.626   2.093   2.404  0.1587 -0.1466  0.5416
 4667SOL    HW125634   2.720   2.079   2.415 -0.1311 -2.5177 -0.0465
 4667SOL    HW225635   2.581   2.028   2.458  1.0299 -0.6433  0.6776
 4668SOL     OW25636   0.032   3.036   9.142  0.8479 -0.4277  0.4526
 4668SOL    HW125637   0.012   3.114   9.089 -0.3686 -0.5852  0.6818
 4668SOL    HW225638   4.693   3.018   9.199 -0.0023  1.6043 -0.0041
 4669SOL     OW25639   3.028   2.228   6.399 -0.4001 -0.0721  0.2182
 4669SOL    HW125640   3.050   2.262   6.486  0.3648  0.4784 -0.1902
 4669SOL    HW225641   3.108   2.241   6.348 -1.3561  0.7250 -1.0830
 4670SOL     OW25642   1.726   0.940   1.908 -0.4066  0.1234  0.0700
 4670SOL    HW125643   1.663   0.972   1.843 -0.3364  1.4625  0.6670
 4670SOL    HW225644   1.805   0.988   1.885  0.3882 -1.3843 -0.3467
 4671SOL     OW25645   4.273   2.536  14.841 -0.2424 -0.3305  0.2034
 4671SOL    HW125646   4.260   2.459  14.786  4.1154  0.3389 -1.7380
 4671SOL    HW225647   4.204   2.520  14.906 -0.7063 -1.2359 -0.5090
 4672SOL     OW25648   3.910   3.727  15.306  0.3453  0.7660 -0.0715
 4672SOL    HW125649   3.902   3.795  15.240 -0.6830 -1.3648 -2.1588
 4672SOL    HW225650   3.848   3.752  15.374 -0.0173  1.6119 -0.7167
 4673SOL     OW25651   1.741   3.491  13.729 -0.3521 -0.1003  0.0801
 4673SOL    HW125652   1.693   3.470  13.810  0.2888  0.5272  0.6225
 4673SOL    HW225653   1.680   3.449  13.668 -1.2344  0.4270  0.5849
 4674SOL     OW25654   1.333   1.915   1.804 -0.9326  0.0181 -0.0971
 4674SOL    HW125655   1.284   1.966   1.868  1.6334 -0.0028  1.8572
 4674SOL    HW225656   1.410   1.888   1.853  0.1019  0.7506 -1.3116
 4675SOL     OW25657   3.257   0.965  12.676  0.2603 -0.3843  0.2799
 4675SOL    HW125658   3.274   0.871  12.673  0.6957 -0.3005  0.2309
 4675SOL    HW225659   3.196   0.968  12.750  3.2618  0.1404  2.6811
 4676SOL     OW25660   0.847   3.467  11.608 -0.0114 -0.6765 -0.1633
 4676SOL    HW125661   0.882   3.518  11.535 -0.6087  0.7423  0.5382
 4676SOL    HW225662   0.892   3.518  11.676  1.2835 -1.6342 -0.3174
 4677SOL     OW25663   0.710   2.114  16.889 -0.6943  0.0232  0.2264
 4677SOL    HW125664   0.784   2.113  16.950  0.4513 -4.2971 -1.1917
 4677SOL    HW225665   0.722   2.031  16.843  1.7618  0.4399  0.1099
 4678SOL     OW25666   1.913   1.441  16.432  0.2294  0.7580  0.2612
 4678SOL    HW125667   1.904   1.356  16.475  2.6109  1.1169  1.4932
 4678SOL    HW225668   1.821   1.465  16.432  0.1250  0.3482  0.9829
 4679SOL     OW25669   3.273   1.438  11.889  0.1723 -0.2473 -0.0037
 4679SOL    HW125670   3.197   1.437  11.948  0.5673  1.2436  0.5509
 4679SOL    HW225671   3.322   1.357  11.902  0.5248  0.1034  0.8931
 4680SOL     OW25672   3.888   0.552   7.185  0.5870 -0.0982  0.6509
 4680SOL    HW125673   3.938   0.528   7.107  0.0506 -0.3962  0.3988
 4680SOL    HW225674   3.825   0.604   7.135  2.3391  1.5398  0.1561
 4681SOL     OW25675   2.898   4.647   0.800 -0.8122 -0.5104  0.2964
 4681SOL    HW125676   2.819   4.625   0.752 -0.1981 -1.0189 -0.4884
 4681SOL    HW225677   2.962   4.640   0.728 -0.2373 -1.3783  0.8954
 4682SOL     OW25678   2.665   3.147  16.813 -0.4276 -0.1463 -0.0140
 4682SOL    HW125679   2.627   3.120  16.730 -2.8702 -0.7798  1.3107
 4682SOL    HW225680   2.755   3.115  16.801 -0.3484 -0.1203  0.4940
 4683SOL     OW25681   1.222   4.025  10.608 -0.1929  0.2181  0.5301
 4683SOL    HW125682   1.316   4.003  10.606 -0.4611 -0.9150  0.2225
 4683SOL    HW225683   1.196   3.993  10.521 -2.7933  2.1883  0.5950
 4684SOL     OW25684   1.917   1.075   1.803  0.6256  0.2099 -0.0075
 4684SOL    HW125685   1.932   1.169   1.799 -2.1591  0.5202 -2.8106
 4684SOL    HW225686   1.950   1.048   1.717  1.1432 -0.3758  0.3749
 4685SOL     OW25687   4.716   0.315   8.569 -0.0447 -0.2370 -0.2283
 4685SOL    HW125688   0.004   0.388   8.626  1.4446 -0.3339 -0.7253
 4685SOL    HW225689   0.032   0.252   8.619 -0.4128  0.1285  0.6059
 4686SOL     OW25690   0.708   4.476  17.096  0.3084 -0.1126 -0.0635
 4686SOL    HW125691   0.720   4.429  17.178  0.6044 -1.0320 -0.6377
 4686SOL    HW225692   0.686   4.401  17.041  1.6793 -0.7584  0.2852
 4687SOL     OW25693   2.358   0.057  16.592  0.9188 -0.0533  0.4635
 4687SOL    HW125694   2.367   0.152  16.594 -0.7476  0.0973  0.4641
 4687SOL    HW225695   2.271   0.044  16.631  1.4083 -0.7710  1.3449
 4688SOL     OW25696   3.815   1.061   7.483 -0.3177 -0.2646  0.4980
 4688SOL    HW125697   3.750   1.129   7.501  1.5237  1.3945  0.9039
 4688SOL    HW225698   3.764   0.999   7.431 -1.1236  1.0995 -0.3411
 4689SOL     OW25699   1.673   4.607   5.533 -0.6072 -1.1671  0.0669
 4689SOL    HW125700   1.714   4.669   5.473  0.4941 -0.2886  1.7526
 4689SOL    HW225701   1.717   4.624   5.616  0.7989  0.5817 -1.0242
 4690SOL     OW25702   2.351   3.721   6.080 -0.3002 -0.1194 -0.2290
 4690SOL    HW125703   2.282   3.786   6.070 -0.4086 -0.2810 -0.5427
 4690SOL    HW225704   2.313   3.650   6.028 -2.0223  0.0639  0.8071
 4691SOL     OW25705   1.405   1.636  16.163 -0.5992  0.1507  0.4078
 4691SOL    HW125706   1.495   1.662  16.143 -0.6101 -1.0233 -1.2570
 4691SOL    HW225707   1.417   1.550  16.204  0.2991 -0.4921 -1.1590
 4692SOL     OW25708   2.227   3.817   0.232  0.2128  0.1080  0.2909
 4692SOL    HW125709   2.278   3.891   0.200 -0.5580  0.9698  1.0405
 4692SOL    HW225710   2.169   3.800   0.158  1.0321  3.1502 -1.0546
 4693SOL     OW25711   2.004   0.966   6.122 -0.1468  0.0828 -0.0950
 4693SOL    HW125712   2.026   0.883   6.165  1.4949  0.7306  0.3258
 4693SOL    HW225713   2.089   0.992   6.088 -0.1501  0.5356  0.2341
 4694SOL     OW25714   1.168   3.211   8.532 -0.1086 -0.0012 -0.5276
 4694SOL    HW125715   1.127   3.244   8.612  1.4756  0.7467 -0.0136
 4694SOL    HW225716   1.163   3.118   8.554  1.1102  0.1848  0.5801
 4695SOL     OW25717   4.468   2.790   3.287 -0.0547 -0.0445  0.3336
 4695SOL    HW125718   4.376   2.770   3.268  0.1216 -1.8334  1.3311
 4695SOL    HW225719   4.472   2.885   3.281 -0.9207 -0.0921 -1.1541
 4696SOL     OW25720   3.282   0.834  14.134  0.2393 -0.2590  0.1570
 4696SOL    HW125721   3.325   0.839  14.220 -2.8285  1.3111  1.6001
 4696SOL    HW225722   3.194   0.826  14.170  0.0658  0.1124 -0.1875
 4697SOL     OW25723   2.064   2.554  15.663 -0.0701 -0.0433 -0.1710
 4697SOL    HW125724   2.128   2.483  15.652  0.9681  0.5474  2.1003
 4697SOL    HW225725   2.062   2.555  15.759 -0.8506  1.2815 -0.2063
 4698SOL     OW25726   0.543   2.437   7.690 -0.6117 -0.0408 -0.2565
 4698SOL    HW125727   0.459   2.454   7.731 -0.5343 -0.2163 -0.0204
 4698SOL    HW225728   0.568   2.525   7.662 -2.4560  0.3347 -0.6721
 4699SOL     OW25729   3.676   0.645   7.843  0.0826 -0.3755 -0.3524
 4699SOL    HW125730   3.583   0.653   7.820  0.0235  0.2928  0.1185
 4699SOL    HW225731   3.686   0.678   7.933 -0.5496  0.5624 -0.6246
 4700SOL     OW25732   1.419   0.910   8.401 -0.0401  0.5003  0.0084
 4700SOL    HW125733   1.407   0.838   8.340  3.7358 -0.1255 -0.0352
 4700SOL    HW225734   1.336   0.906   8.448  0.7976  1.3531  1.5965
 4701SOL     OW25735   0.024   2.530   8.091 -0.7859  0.0182 -0.1178
 4701SOL    HW125736   0.022   2.616   8.134  1.9046 -0.3934  0.8668
 4701SOL    HW225737   4.725   2.470   8.157  3.3745 -1.2160  0.9944
 4702SOL     OW25738   3.305   1.454   8.827  0.1220  0.6983 -0.0394
 4702SOL    HW125739   3.371   1.520   8.805  0.7593  0.5185  1.3078
 4702SOL    HW225740   3.339   1.434   8.915 -3.0535  1.3570  1.3276
 4703SOL     OW25741   2.890   2.967   8.492  0.4644 -0.1214  0.0579
 4703SOL    HW125742   2.879   3.012   8.576  0.4848  0.6838 -0.3736
 4703SOL    HW225743   2.932   2.886   8.519 -0.1426 -0.2093  0.7641
 4704SOL     OW25744   4.264   0.423  11.560 -0.3218  0.4393 -0.1465
 4704SOL    HW125745   4.229   0.372  11.486 -0.0241 -1.7681  1.2414
 4704SOL    HW225746   4.207   0.395  11.631  0.7323 -0.8045  0.2008
 4705SOL     OW25747   0.130   0.001   0.024  0.4687 -0.5237 -0.1222
 4705SOL    HW125748   0.093   0.067   0.082 -2.0190 -1.9073 -0.1183
 4705SOL    HW225749   0.223   0.022   0.019  0.4339 -0.4209 -0.3410
 4706SOL     OW25750   3.769   0.494  11.131  0.4089 -1.1830  0.0964
 4706SOL    HW125751   3.800   0.573  11.174  2.3713 -1.1819 -1.3416
 4706SOL    HW225752   3.750   0.521  11.041  0.9320  0.6035  0.5237
 4707SOL     OW25753   1.392   2.429  15.514  0.4001 -0.0277 -0.6950
 4707SOL    HW125754   1.486   2.422  15.526  0.1781  2.3954  2.3759
 4707SOL    HW225755   1.368   2.399  15.602 -0.9745 -4.0068 -2.4409
 4708SOL     OW25756   0.274   3.527   6.561  0.5775  0.2480  0.0218
 4708SOL    HW125757   0.190   3.497   6.526  2.2926 -1.3820 -2.6823
 4708SOL    HW225758   0.239   3.561   6.643  0.7765 -2.0649  1.0770
 4709SOL     OW25759   3.979   1.101   4.488  0.0474 -0.0983 -0.0260
 4709SOL    HW125760   3.986   1.169   4.421  1.4345 -0.4514 -0.2347
 4709SOL    HW225761   4.054   1.103   4.547 -2.0243 -1.1503  2.6387
 4710SOL     OW25762   1.337   1.776  12.524 -0.4686 -1.0720  0.1632
 4710SOL    HW125763   1.426   1.798  12.497 -0.6918 -0.1136  0.2282
 4710SOL    HW225764   1.307   1.714  12.458 -0.6177 -1.6183  0.7385
 4711SOL     OW25765   3.776   1.509   5.624  0.2344 -0.1235 -0.1710
 4711SOL    HW125766   3.821   1.552   5.697  0.9610  1.3243 -1.4630
 4711SOL    HW225767   3.825   1.546   5.550 -1.3100  3.3962  0.5494
 4712SOL     OW25768   1.275   4.574   7.881  0.4826  0.9928  0.1863
 4712SOL    HW125769   1.323   4.497   7.851 -0.6254  0.6241 -0.6613
 4712SOL    HW225770   1.342   4.641   7.871  0.8056  0.4723 -1.1137
 4713SOL     OW25771   3.005   3.548   1.285 -0.5592 -0.6214 -0.1578
 4713SOL    HW125772   3.094   3.561   1.254 -0.9752  0.3835 -0.9209
 4713SOL    HW225773   3.011   3.506   1.371 -0.3391  0.2413  0.2421
 4714SOL     OW25774   3.034   2.343   1.773  0.3568  0.2044  0.7800
 4714SOL    HW125775   3.104   2.347   1.709 -1.2523  3.0005 -0.7786
 4714SOL    HW225776   3.088   2.313   1.847 -0.5775 -1.7355  0.6790
 4715SOL     OW25777   0.503   0.004   7.363  0.4483  0.4897  0.2738
 4715SOL    HW125778   0.421   0.040   7.398 -1.7812 -4.4638  0.0539
 4715SOL    HW225779   0.497   4.650   7.394  1.3841  0.3504  0.0557
 4716SOL     OW25780   2.015   4.123   5.018  0.4144 -0.4609  0.0682
 4716SOL    HW125781   1.940   4.141   5.074 -1.1495 -2.9289 -1.2440
 4716SOL    HW225782   1.987   4.082   4.936 -0.0623 -1.3119  0.6509
 4717SOL     OW25783   3.330   0.316   3.187 -0.7533 -0.3745  0.2515
 4717SOL    HW125784   3.338   0.238   3.133  1.7207  0.5155 -0.6644
 4717SOL    HW225785   3.259   0.362   3.141  0.6737  0.9265 -0.6491
 4718SOL     OW25786   0.155   0.051  10.809  0.4749  0.1427 -0.1217
 4718SOL    HW125787   0.154   4.724  10.735 -1.9372  1.2657 -1.0496
 4718SOL    HW225788   0.071   0.094  10.793  0.0613 -1.0505 -1.2426
 4719SOL     OW25789   0.381   2.602   2.377 -0.5426 -0.4788 -0.2324
 4719SOL    HW125790   0.435   2.565   2.447  1.1862  0.8349 -0.8416
 4719SOL    HW225791   0.449   2.656   2.336 -0.5155 -0.3976 -0.0815
 4720SOL     OW25792   1.937   0.666   5.423  0.5029  0.3802  0.0396
 4720SOL    HW125793   1.867   0.656   5.488  0.3810  0.7847 -0.0295
 4720SOL    HW225794   1.996   0.716   5.480  0.2734  0.0168  0.6041
 4721SOL     OW25795   2.549   2.146   5.568  0.2482  0.1222 -0.3144
 4721SOL    HW125796   2.522   2.137   5.659 -1.3212 -1.3228 -0.9150
 4721SOL    HW225797   2.639   2.178   5.577 -0.7825  2.7318  0.6573
 4722SOL     OW25798   0.447   4.117  15.702  0.2797 -0.2095 -0.1449
 4722SOL    HW125799   0.431   4.190  15.762  1.1333  0.6584 -0.9836
 4722SOL    HW225800   0.368   4.071  15.732 -0.5853  1.2563 -0.1692
 4723SOL     OW25801   4.441   3.147   7.387 -0.3103  0.0114 -0.2057
 4723SOL    HW125802   4.376   3.128   7.319  0.4413  1.1469 -1.2224
 4723SOL    HW225803   4.524   3.124   7.346  0.0902 -0.4053  0.8186
 4724SOL     OW25804   4.372   2.013   6.901 -0.4054  0.5304  0.4854
 4724SOL    HW125805   4.427   1.959   6.958 -0.2640 -0.9989 -1.0796
 4724SOL    HW225806   4.315   1.941   6.871 -1.2009  0.9253  1.0646
 4725SOL     OW25807   3.459   3.049  11.434 -0.1806  0.0013  0.4443
 4725SOL    HW125808   3.415   3.098  11.364  1.7150 -1.0201 -1.4997
 4725SOL    HW225809   3.551   3.064  11.409 -0.8444  2.7718 -0.3672
 4726SOL     OW25810   0.445   3.873   8.476  0.1114 -0.4060  0.7236
 4726SOL    HW125811   0.421   3.822   8.399  0.1718 -0.3912  0.6945
 4726SOL    HW225812   0.513   3.817   8.512  0.0213 -0.1130  1.3571
 4727SOL     OW25813   2.647   3.390   8.675  0.4481  0.2706 -0.2213
 4727SOL    HW125814   2.560   3.427   8.689  1.0406  1.1450  1.1789
 4727SOL    HW225815   2.711   3.460   8.661  0.8694  0.2864  1.7810
 4728SOL     OW25816   0.347   0.177   7.816  0.2581  0.2637  0.3793
 4728SOL    HW125817   0.336   0.195   7.910  2.2617  1.4973  0.3840
 4728SOL    HW225818   0.429   0.221   7.791  0.9203 -1.3133 -0.1892
 4729SOL     OW25819   1.445   2.732   4.171  0.2447 -0.1649  0.1305
 4729SOL    HW125820   1.354   2.701   4.175  0.4778 -1.1360 -1.9561
 4729SOL    HW225821   1.498   2.668   4.218  2.2070  1.5578  0.2838
 4730SOL     OW25822   4.579   0.842   3.726 -0.1890  0.0169  0.4733
 4730SOL    HW125823   4.640   0.833   3.798  0.4352  0.9575  0.0595
 4730SOL    HW225824   4.587   0.759   3.679  0.6548  0.6344 -0.4849
 4731SOL     OW25825   2.869   1.117   3.869 -0.0062  0.0327 -0.3624
 4731SOL    HW125826   2.889   1.159   3.953 -2.6340 -0.4286  0.5149
 4731SOL    HW225827   2.930   1.045   3.885  1.1971  1.1679  0.1268
 4732SOL     OW25828   3.381   0.608   2.828  0.1218  0.0072  0.0927
 4732SOL    HW125829   3.443   0.540   2.853 -0.9756 -1.5914 -1.4881
 4732SOL    HW225830   3.303   0.564   2.795  0.8347 -1.1841  0.0159
 4733SOL     OW25831   2.504   1.698   5.680 -0.4082 -0.1276  0.4751
 4733SOL    HW125832   2.441   1.633   5.712 -0.9513 -0.8926 -2.1975
 4733SOL    HW225833   2.562   1.700   5.757  1.0646 -0.6767 -0.6286
 4734SOL     OW25834   2.539   0.954   5.427  0.0176  0.0282 -0.2665
 4734SOL    HW125835   2.595   0.946   5.504 -0.2721 -0.2904 -0.0878
 4734SOL    HW225836   2.591   1.016   5.376 -0.3839  1.1291  0.6389
 4735SOL     OW25837   2.506   0.475   6.482 -0.2450  0.2087  0.2069
 4735SOL    HW125838   2.445   0.478   6.557 -0.9738 -0.5230 -0.3567
 4735SOL    HW225839   2.471   0.546   6.428  1.0711 -0.0701 -0.9956
 4736SOL     OW25840   0.946   0.385  12.087  0.3315  0.1957  0.0681
 4736SOL    HW125841   0.972   0.414  11.999  0.2610 -0.5546 -0.2022
 4736SOL    HW225842   0.958   0.290  12.082  3.2389  0.5150  1.1402
 4737SOL     OW25843   0.786   2.413   1.990  0.2314  0.0161  0.1712
 4737SOL    HW125844   0.706   2.408   1.938 -0.1734  0.0132  0.7912
 4737SOL    HW225845   0.772   2.335   2.043 -2.4475 -0.4631 -1.2427
 4738SOL     OW25846   1.816   2.413   9.102 -0.3232  0.1333  0.7256
 4738SOL    HW125847   1.733   2.370   9.123 -0.3806 -0.0918  0.0128
 4738SOL    HW225848   1.806   2.441   9.011  2.0847  0.7399  0.6529
 4739SOL     OW25849   3.486   2.622   4.182 -0.8446 -0.3634  0.8618
 4739SOL    HW125850   3.543   2.677   4.236  0.9625 -1.5226  0.1180
 4739SOL    HW225851   3.503   2.657   4.094  2.1968  0.5272  1.8127
 4740SOL     OW25852   2.635   2.202  16.725  0.3716  0.0353  0.3959
 4740SOL    HW125853   2.580   2.261  16.776  0.0854  0.0159  0.1118
 4740SOL    HW225854   2.686   2.274  16.689  1.7844 -1.8457 -1.3782
 4741SOL     OW25855   0.505   2.408   7.285  0.1847 -0.0977 -0.0892
 4741SOL    HW125856   0.593   2.371   7.277  0.3422  0.1747  0.4384
 4741SOL    HW225857   0.524   2.489   7.333 -0.3473  1.5600 -2.6886
 4742SOL     OW25858   3.947   0.135   3.447 -0.2480 -0.0336 -0.9373
 4742SOL    HW125859   4.038   0.163   3.442 -0.3841  0.2125 -1.9739
 4742SOL    HW225860   3.932   0.163   3.537  2.4301 -0.6340 -0.3056
 4743SOL     OW25861   3.067   3.118   8.263  0.2419  0.3291 -0.3747
 4743SOL    HW125862   3.028   3.033   8.279  3.0895 -1.0922 -0.9440
 4743SOL    HW225863   3.000   3.164   8.314 -0.6353  0.2986 -1.5200
 4744SOL     OW25864   3.502   3.739   7.352 -0.1921  0.1336  0.2649
 4744SOL    HW125865   3.472   3.788   7.276  0.7940  1.6670  0.8458
 4744SOL    HW225866   3.515   3.649   7.323  1.7031  0.8873 -1.2117
 4745SOL     OW25867   4.619   1.658   5.257 -0.8609 -0.7122 -0.2989
 4745SOL    HW125868   4.576   1.573   5.257 -1.4499 -0.4157 -0.2696
 4745SOL    HW225869   4.603   1.685   5.347  1.1505  2.7376 -0.9691
 4746SOL     OW25870   0.022   1.433   9.424 -0.5843  0.0264 -0.3040
 4746SOL    HW125871   0.056   1.346   9.402 -0.9882 -0.5394  1.2689
 4746SOL    HW225872   4.663   1.418   9.426 -0.8241  1.4763 -0.7937
 4747SOL     OW25873   2.755   0.465  14.230 -0.3087 -0.4412  0.1500
 4747SOL    HW125874   2.707   0.455  14.147 -0.6509  2.0518  0.0552
 4747SOL    HW225875   2.785   0.376  14.249 -0.9660 -0.0952  2.7512
 4748SOL     OW25876   0.700   3.084   5.158  0.1238  0.2498 -0.2220
 4748SOL    HW125877   0.759   3.064   5.085 -0.0099  0.1255 -0.2980
 4748SOL    HW225878   0.617   3.089   5.109 -0.7564  0.7751  1.3188
 4749SOL     OW25879   2.686   3.874   7.982 -0.1541 -0.6178 -0.6131
 4749SOL    HW125880   2.675   3.952   8.037  1.0502 -0.5329 -0.4733
 4749SOL    HW225881   2.748   3.906   7.916 -1.3179 -1.1638 -1.9509
 4750SOL     OW25882   1.459   1.000   6.190  0.1387 -0.0575 -0.1875
 4750SOL    HW125883   1.546   0.975   6.158 -0.6449 -2.7548 -0.2138
 4750SOL    HW225884   1.403   0.931   6.155 -0.3019 -0.0994  0.5965
 4751SOL     OW25885   0.128   1.094   2.358 -0.3414 -0.0070  0.6113
 4751SOL    HW125886   0.177   1.026   2.312 -0.8623  0.2160 -0.2662
 4751SOL    HW225887   0.161   1.081   2.447 -0.0403 -0.4442  0.4368
 4752SOL     OW25888   1.555   2.101   1.687  0.2313  0.0316  0.0171
 4752SOL    HW125889   1.577   2.166   1.753  1.7674 -0.0895 -0.3840
 4752SOL    HW225890   1.477   2.144   1.652  1.5094  1.8443 -0.5768
 4753SOL     OW25891   3.261   4.060  14.670 -0.0480  0.1910  0.2053
 4753SOL    HW125892   3.261   4.077  14.576  0.3701  3.1522  0.7175
 4753SOL    HW225893   3.260   3.965  14.667  2.7558  0.1781 -1.1083
 4754SOL     OW25894   3.091   1.195   7.013 -0.0679  0.2112 -0.2760
 4754SOL    HW125895   3.077   1.203   7.107  1.1573 -1.8048  0.0649
 4754SOL    HW225896   3.177   1.155   7.019  0.9020  1.9990 -2.0004
 4755SOL     OW25897   4.639   2.061   2.038 -0.4589  0.0880 -0.3122
 4755SOL    HW125898   4.556   2.033   2.002 -0.1949  1.0409 -1.6479
 4755SOL    HW225899   4.693   2.097   1.968  0.8388  0.2279  0.7507
 4756SOL     OW25900   1.728   3.720  11.472 -0.6843  0.1694  0.4256
 4756SOL    HW125901   1.822   3.699  11.470 -0.9660 -1.2958  2.1973
 4756SOL    HW225902   1.715   3.747  11.563 -1.9904 -0.3396  0.3839
 4757SOL     OW25903   2.640   3.519  11.650  0.4774  0.1929 -0.0523
 4757SOL    HW125904   2.647   3.434  11.607  1.6510 -0.0931  0.7206
 4757SOL    HW225905   2.719   3.564  11.622 -1.1957  3.4066  0.2841
 4758SOL     OW25906   1.615   1.634   2.468 -0.2963  0.0452 -0.1577
 4758SOL    HW125907   1.612   1.689   2.390  0.0082  0.7295  0.3128
 4758SOL    HW225908   1.691   1.577   2.451  0.9396  0.2367  4.7753
 4759SOL     OW25909   0.502   2.958   6.326 -0.2480  0.1122  0.1666
 4759SOL    HW125910   0.511   2.999   6.412  1.0862  0.1455  0.0135
 4759SOL    HW225911   0.573   2.894   6.329  2.4757  3.1295  0.4597
 4760SOL     OW25912   3.314   2.990   8.112  0.7556  0.0314  0.3028
 4760SOL    HW125913   3.351   2.990   8.023  1.0334 -0.8168  0.4178
 4760SOL    HW225914   3.221   2.977   8.095  0.8823  2.6303 -2.3280
 4761SOL     OW25915   1.391   1.971   5.870 -0.1961  0.0748  0.4595
 4761SOL    HW125916   1.367   1.949   5.779  1.6027  1.4316 -0.3275
 4761SOL    HW225917   1.485   1.985   5.860 -0.5440  1.6986 -0.5258
 4762SOL     OW25918   2.881   2.569   6.847 -0.3191 -0.3207  0.0304
 4762SOL    HW125919   2.856   2.661   6.835 -0.5466 -0.4260 -0.3274
 4762SOL    HW225920   2.823   2.536   6.778 -1.1132  4.1756 -1.4670
 4763SOL     OW25921   3.220   0.999  13.400 -0.1410  0.3624  0.4171
 4763SOL    HW125922   3.171   0.922  13.371  1.8292 -0.3644 -0.9756
 4763SOL    HW225923   3.248   1.032  13.315  1.9642  1.1052  1.3825
 4764SOL     OW25924   0.723   2.087   2.685  0.1091 -0.3139  0.0935
 4764SOL    HW125925   0.802   2.035   2.673 -1.4098 -2.2485 -1.6639
 4764SOL    HW225926   0.666   2.031   2.739 -0.8537 -1.7978 -2.4662
 4765SOL     OW25927   2.971   2.040   4.220 -0.3332  0.0440  0.4246
 4765SOL    HW125928   2.966   2.135   4.231 -0.3771 -0.0686  1.3740
 4765SOL    HW225929   2.933   2.015   4.304  0.7352  2.3721  1.5977
 4766SOL     OW25930   2.968   4.142  10.723 -0.0169  0.1169 -0.5342
 4766SOL    HW125931   2.886   4.163  10.769  0.3864  0.8371 -0.1354
 4766SOL    HW225932   2.926   4.137  10.637 -0.6780 -1.1072 -0.1418
 4767SOL     OW25933   1.321   4.306   4.824 -0.5022 -0.4504 -0.0710
 4767SOL    HW125934   1.400   4.291   4.877 -0.3330  1.3019  0.1952
 4767SOL    HW225935   1.358   4.348   4.746 -1.1915  0.3254  0.0242
 4768SOL     OW25936   1.059   2.491  17.244  0.7048 -0.5531 -0.0907
 4768SOL    HW125937   1.083   2.520  17.332 -0.8272 -1.7777  0.7222
 4768SOL    HW225938   1.147   2.475  17.210 -0.0954 -0.1137 -2.3471
 4769SOL     OW25939   4.225   1.450  10.400 -0.1571 -0.7260 -0.3436
 4769SOL    HW125940   4.194   1.517  10.460 -2.2090 -1.3840 -0.6858
 4769SOL    HW225941   4.279   1.497  10.337  0.7073 -1.0021  0.1855
 4770SOL     OW25942   2.357   3.013  13.954 -0.2448  0.0844 -0.6629
 4770SOL    HW125943   2.281   3.047  13.908 -0.5534  1.6368  0.9842
 4770SOL    HW225944   2.405   2.970  13.883 -0.2561 -2.4465  0.8592
 4771SOL     OW25945   2.813   2.702   9.824 -0.0819 -0.2449 -0.1872
 4771SOL    HW125946   2.733   2.680   9.870 -0.1312 -0.3521 -0.3230
 4771SOL    HW225947   2.808   2.796   9.841  1.1246 -0.5867  2.0640
 4772SOL     OW25948   3.690   3.144  15.648  0.3650  0.2668 -0.1873
 4772SOL    HW125949   3.680   3.157  15.554 -0.6505  1.5775  0.0970
 4772SOL    HW225950   3.780   3.116  15.663  1.4998  1.1930 -5.3986
 4773SOL     OW25951   4.189   4.557   5.807 -0.4384  0.3589  0.2678
 4773SOL    HW125952   4.224   4.542   5.895  0.3950  2.3697  0.2675
 4773SOL    HW225953   4.176   4.651   5.801 -0.2365  0.5232  2.4122
 4774SOL     OW25954   0.513   2.299   4.413  0.4432  0.1896 -0.1240
 4774SOL    HW125955   0.552   2.386   4.404  0.7702 -0.2097 -2.5518
 4774SOL    HW225956   0.548   2.250   4.339  1.0799 -0.9614  0.9376
 4775SOL     OW25957   2.789   1.313   7.238 -0.2563 -0.2273 -0.4748
 4775SOL    HW125958   2.822   1.241   7.185  0.0382 -0.6103  0.2322
 4775SOL    HW225959   2.829   1.307   7.325 -1.3870 -0.0752  0.0522
 4776SOL     OW25960   3.687   1.645  14.028  0.4251 -0.8782 -0.2022
 4776SOL    HW125961   3.781   1.664  14.029 -0.3920  3.3188 -4.0053
 4776SOL    HW225962   3.660   1.641  14.120  1.8592  2.9367  0.3891
 4777SOL     OW25963   4.672   1.935   7.881 -0.0811  0.8105  0.2905
 4777SOL    HW125964   4.674   2.029   7.900 -1.4554  0.9615 -0.2862
 4777SOL    HW225965   0.026   1.906   7.896 -0.2826  0.3277  0.5484
 4778SOL     OW25966   3.440   4.019  16.855  0.1381  0.2941 -0.1762
 4778SOL    HW125967   3.384   4.015  16.933  2.8262 -1.4930  1.6727
 4778SOL    HW225968   3.505   4.086  16.877 -0.1427  0.4916  0.0427
 4779SOL     OW25969   0.883   3.347   5.642 -0.0232  0.3695 -0.2100
 4779SOL    HW125970   0.909   3.277   5.701  1.2227  2.8692  2.1974
 4779SOL    HW225971   0.886   3.422   5.701 -1.1593  0.3746 -0.1563
 4780SOL     OW25972   0.125   4.321   4.566  0.3939  0.3242 -0.3385
 4780SOL    HW125973   0.038   4.354   4.586  1.0297  0.8608  1.5511
 4780SOL    HW225974   0.162   4.288   4.648 -0.3726 -1.8916 -0.8863
 4781SOL     OW25975   0.173   2.005   2.984  0.0433  0.2052 -0.2275
 4781SOL    HW125976   0.185   1.925   2.932  1.6057  1.7195 -2.2061
 4781SOL    HW225977   0.129   1.956   3.054  0.7611  0.4818  0.4178
 4782SOL     OW25978   1.449   4.407   6.923 -0.6455  0.3371 -0.3649
 4782SOL    HW125979   1.505   4.368   6.856  0.7583  1.0302  0.4002
 4782SOL    HW225980   1.414   4.479   6.870 -1.3449  1.0547  1.0720
 4783SOL     OW25981   3.874   0.487  11.830 -0.2915 -0.2669 -0.1652
 4783SOL    HW125982   3.813   0.445  11.891  0.3170  1.0000  1.3228
 4783SOL    HW225983   3.962   0.464  11.860 -1.8581 -3.9924  1.5492
 4784SOL     OW25984   4.182   3.261   2.438  0.2413  0.1517 -1.0755
 4784SOL    HW125985   4.218   3.347   2.460 -1.1195  0.5001 -0.2503
 4784SOL    HW225986   4.098   3.281   2.478  0.4949 -1.5808  0.3041
 4785SOL     OW25987   2.018   4.603   1.287 -0.4641 -0.3265  0.0569
 4785SOL    HW125988   2.102   4.559   1.282 -1.0352 -1.3047 -1.0250
 4785SOL    HW225989   1.966   4.534   1.327 -1.9414  1.4175  1.1800
 4786SOL     OW25990   0.948   0.776  17.361 -0.2512  0.4746 -0.0248
 4786SOL    HW125991   0.854   0.785  17.346 -0.2885  0.1893  0.0341
 4786SOL    HW225992   0.945   0.704  17.424 -1.5234  0.9752  0.4906
 4787SOL     OW25993   0.597   2.677   1.815  0.8009 -0.2493  0.2392
 4787SOL    HW125994   0.630   2.704   1.901 -0.6939  2.4007  0.0048
 4787SOL    HW225995   0.573   2.586   1.829 -1.1494  0.5699  2.1738
 4788SOL     OW25996   3.776   1.612   3.564  0.2078 -0.4780  0.0893
 4788SOL    HW125997   3.764   1.648   3.476 -4.0499  1.4420  1.4497
 4788SOL    HW225998   3.869   1.590   3.557  0.6457  0.6054  2.7705
 4789SOL     OW25999   2.482   2.811   8.233 -0.6055 -0.1055 -0.0259
 4789SOL    HW126000   2.486   2.793   8.327  0.4329 -2.9435 -0.6100
 4789SOL    HW226001   2.540   2.740   8.206  0.2980  0.5906  0.0943
 4790SOL     OW26002   2.170   3.690  17.248  0.2233  0.5005  0.6241
 4790SOL    HW126003   2.120   3.706  17.168  0.4367  2.9730  0.9963
 4790SOL    HW226004   2.216   3.611  17.221  0.2811  0.2855  1.3376
 4791SOL     OW26005   1.350   4.346   1.994  0.2317  0.8076  0.0940
 4791SOL    HW126006   1.414   4.316   1.930 -2.1597 -2.1736 -0.9232
 4791SOL    HW226007   1.378   4.292   2.068 -0.2487  1.6947  0.9232
 4792SOL     OW26008   3.896   1.696   6.196 -0.1760  0.1566  0.4365
 4792SOL    HW126009   3.965   1.700   6.130 -0.4982  1.8494  0.1931
 4792SOL    HW226010   3.950   1.681   6.273 -1.7500  2.2344  1.9301
 4793SOL     OW26011   4.115   4.370   1.234 -0.5156 -0.0878  0.1492
 4793SOL    HW126012   4.143   4.390   1.324  1.1998  0.6622 -0.5655
 4793SOL    HW226013   4.023   4.396   1.237 -0.3290  0.7502 -1.3420
 4794SOL     OW26014   2.678   0.382   8.996  0.0162 -0.4333  0.0335
 4794SOL    HW126015   2.659   0.475   9.001 -1.5541 -0.8516  1.6298
 4794SOL    HW226016   2.620   0.342   9.060  0.8996 -0.4490  0.8340
 4795SOL     OW26017   3.948   3.330  17.727  0.5906  0.6020  0.2960
 4795SOL    HW126018   3.973   3.399  17.666  0.8427  0.7441  0.5589
 4795SOL    HW226019   3.891   3.374   0.048 -1.5278 -3.5944  1.3034
 4796SOL     OW26020   2.205   3.218   5.560  0.0438  0.4441 -0.3993
 4796SOL    HW126021   2.119   3.254   5.580 -1.2724 -2.7122 -0.2290
 4796SOL    HW226022   2.263   3.294   5.558  1.4486 -0.5891  0.3120
 4797SOL     OW26023   2.323   2.167   5.826 -0.2922  0.4677 -0.9278
 4797SOL    HW126024   2.367   2.142   5.907  2.3247  0.4233 -2.3363
 4797SOL    HW226025   2.346   2.258   5.806  1.0185 -0.0567 -1.7954
 4798SOL     OW26026   1.915   1.116  16.236 -0.0207  0.3228 -0.1138
 4798SOL    HW126027   1.912   1.171  16.315  0.4558  0.9375 -0.5213
 4798SOL    HW226028   1.839   1.059  16.245  0.4840  0.0890  2.4787
 4799SOL     OW26029   0.704   1.597  14.037 -0.5788  0.1351 -0.3132
 4799SOL    HW126030   0.649   1.674  14.023 -0.9362 -0.2332 -0.9314
 4799SOL    HW226031   0.729   1.624  14.125 -3.2550 -1.1392  0.8721
 4800SOL     OW26032   2.842   1.197   3.254 -0.2830  0.0822 -0.4939
 4800SOL    HW126033   2.937   1.190   3.250 -0.2268 -0.6168  1.6206
 4800SOL    HW226034   2.824   1.127   3.318 -0.0414  1.7773  1.4115
 4801SOL     OW26035   1.730   2.698  10.642  0.1303  0.4305  0.9949
 4801SOL    HW126036   1.681   2.722  10.720  2.6829 -0.5081  2.9127
 4801SOL    HW226037   1.815   2.737  10.661 -0.3915  1.0658  1.9990
 4802SOL     OW26038   3.422   3.907   8.581 -0.2886  0.7467 -0.1261
 4802SOL    HW126039   3.460   3.950   8.658  0.2904 -2.1401  1.1858
 4802SOL    HW226040   3.362   3.974   8.547  0.5105 -0.5625 -4.0796
 4803SOL     OW26041   0.383   1.268  10.219  0.5380  0.3157  0.1863
 4803SOL    HW126042   0.320   1.217  10.167  1.6419 -0.7273 -0.1477
 4803SOL    HW226043   0.344   1.354  10.208  1.1686  0.6430  0.5165
 4804SOL     OW26044   1.423   1.997   6.276  0.4588 -0.0034  0.5189
 4804SOL    HW126045   1.363   2.071   6.278 -0.0742 -0.5017  2.8894
 4804SOL    HW226046   1.505   2.031   6.310  0.0289  0.3942  1.1742
 4805SOL     OW26047   2.413   4.401   5.493  0.2341 -0.2261 -0.3977
 4805SOL    HW126048   2.390   4.313   5.465  0.1131 -0.0871 -0.7265
 4805SOL    HW226049   2.353   4.408   5.568  1.0125  0.7221  0.1329
 4806SOL     OW26050   0.298   0.589   5.468 -0.2114 -0.0860  0.3181
 4806SOL    HW126051   0.319   0.655   5.534  0.5109 -1.2044  1.1929
 4806SOL    HW226052   0.366   0.603   5.402 -2.7162  0.6003 -2.1314
 4807SOL     OW26053   2.269   0.800   4.818  0.1812 -0.1915  0.2847
 4807SOL    HW126054   2.275   0.710   4.851 -0.2868 -0.9714 -1.7718
 4807SOL    HW226055   2.359   0.834   4.812 -0.9201  2.8832  1.5850
 4808SOL     OW26056   0.744   2.973   4.046 -1.0986  0.0227  0.6519
 4808SOL    HW126057   0.823   3.023   4.028 -1.8870  1.4169  1.1124
 4808SOL    HW226058   0.688   2.989   3.970 -0.9792 -1.0550  0.3346
 4809SOL     OW26059   4.359   2.188   4.909  0.3662 -0.4698  0.3126
 4809SOL    HW126060   4.400   2.275   4.915 -0.6304  0.0913 -0.8948
 4809SOL    HW226061   4.269   2.220   4.904  1.1970  2.5616  4.1233
 4810SOL     OW26062   0.321   2.955   8.020 -0.2080 -0.0919 -0.1651
 4810SOL    HW126063   0.268   3.035   8.019 -1.3783 -0.8918 -2.7811
 4810SOL    HW226064   0.308   2.935   8.112  1.1649  1.2179  0.2947
 4811SOL     OW26065   4.454   2.265   4.076  0.2905 -0.8310  0.1793
 4811SOL    HW126066   4.399   2.203   4.125  2.1424 -1.9662  0.7940
 4811SOL    HW226067   4.456   2.232   3.987 -0.4731  3.2064 -1.3425
 4812SOL     OW26068   3.654   4.080  15.418 -0.4672  0.3903 -0.2509
 4812SOL    HW126069   3.693   4.084  15.331  3.0396  0.9669  1.3677
 4812SOL    HW226070   3.702   4.003  15.448 -1.6956 -0.9147 -1.6032
 4813SOL     OW26071   3.330   3.079   7.026 -0.1618  0.7068  0.2515
 4813SOL    HW126072   3.413   3.056   7.068  0.7837 -0.5669 -2.2950
 4813SOL    HW226073   3.351   3.141   6.956 -1.0995 -0.5534 -1.1812
 4814SOL     OW26074   3.592   4.256   6.365  0.4747  0.3685 -0.0280
 4814SOL    HW126075   3.651   4.253   6.289 -0.2749  1.1588 -0.6403
 4814SOL    HW226076   3.512   4.215   6.332  0.5829  0.9108 -0.9821
 4815SOL     OW26077   3.561   2.566  14.747 -0.3339 -0.5471  0.0417
 4815SOL    HW126078   3.467   2.551  14.762 -0.4636  0.2013 -0.0677
 4815SOL    HW226079   3.571   2.652  14.787  0.7075 -0.5176 -0.2823
 4816SOL     OW26080   3.905   4.110   5.997  0.2918  0.3256 -0.0034
 4816SOL    HW126081   3.856   4.180   6.042 -2.1370 -1.3149 -0.0670
 4816SOL    HW226082   3.881   4.031   6.045  0.4726  1.1258  1.3967
 4817SOL     OW26083   3.866   3.106  17.639 -0.0872  0.2472 -0.5000
 4817SOL    HW126084   3.936   3.167  17.663 -0.7073  0.8883 -0.3418
 4817SOL    HW226085   3.830   3.167  17.575 -4.0970 -0.4618  1.1029
 4818SOL     OW26086   1.719   4.299   7.659  0.2595 -0.1057 -0.0154
 4818SOL    HW126087   1.681   4.225   7.705 -0.8764  0.5282  0.0740
 4818SOL    HW226088   1.777   4.327   7.730  0.4551  0.4473 -0.3843
 4819SOL     OW26089   0.342   0.749   7.727 -0.3806 -0.4814  0.3158
 4819SOL    HW126090   0.321   0.737   7.634  0.2472 -0.2949  0.1472
 4819SOL    HW226091   0.332   0.664   7.768 -1.1613  0.1543  1.4291
 4820SOL     OW26092   2.525   1.661   4.798 -0.8740  0.0737 -0.1614
 4820SOL    HW126093   2.600   1.710   4.765 -0.4719  0.3232  1.1103
 4820SOL    HW226094   2.554   1.642   4.887  1.6705  0.4317 -0.9280
 4821SOL     OW26095   4.014   1.767   9.194 -0.2324  0.0446 -0.3785
 4821SOL    HW126096   3.975   1.854   9.183  1.7060  0.8060 -1.1235
 4821SOL    HW226097   4.084   1.785   9.132 -0.9775 -1.2209 -1.5812
 4822SOL     OW26098   1.589   1.637   1.953 -0.0373  0.0232  0.5345
 4822SOL    HW126099   1.577   1.729   1.974  2.7924  0.1856  1.4190
 4822SOL    HW226100   1.684   1.628   1.956 -0.0947 -0.1244  1.7478
 4823SOL     OW26101   3.347   4.427  17.447  0.0776  0.3337 -0.6110
 4823SOL    HW126102   3.356   4.488  17.520 -1.9363 -0.4062  0.2557
 4823SOL    HW226103   3.403   4.355  17.476  0.5655  0.6137 -0.8509
 4824SOL     OW26104   4.294   0.581   4.922  0.0908 -0.6002 -0.1085
 4824SOL    HW126105   4.352   0.628   4.982  1.7233  0.2171 -2.3125
 4824SOL    HW226106   4.351   0.542   4.857  1.1023 -1.4750  1.3165
 4825SOL     OW26107   4.271   1.194   6.385  0.0111 -0.0113 -0.0171
 4825SOL    HW126108   4.266   1.177   6.479 -1.8347 -1.4143 -0.3622
 4825SOL    HW226109   4.185   1.165   6.356 -1.0870  2.1479  1.1026
 4826SOL     OW26110   3.327   4.102  12.075 -0.3398  0.0276  0.3800
 4826SOL    HW126111   3.277   4.048  12.136  0.3005 -0.6513  0.2992
 4826SOL    HW226112   3.316   4.052  11.994  1.5583  1.1038 -0.5382
 4827SOL     OW26113   3.783   1.430   1.966 -0.0424 -0.4033 -0.3411
 4827SOL    HW126114   3.831   1.377   1.903  0.3340 -1.2101  0.6100
 4827SOL    HW226115   3.822   1.408   2.051  0.0710 -0.5802 -0.4394
 4828SOL     OW26116   3.485   2.830   8.269 -0.1197 -0.1489 -0.1102
 4828SOL    HW126117   3.443   2.802   8.350 -0.0739  2.1591  0.6968
 4828SOL    HW226118   3.443   2.902   8.222 -1.2974 -0.4951  0.4232
 4829SOL     OW26119   3.824   1.907   7.179  0.3113  0.0641  0.6334
 4829SOL    HW126120   3.839   1.969   7.250  0.0642  0.3580  0.4294
 4829SOL    HW226121   3.759   1.950   7.123 -1.6152  0.8815  3.5247
 4830SOL     OW26122   1.538   3.693   8.139  0.9417 -0.2114  0.1579
 4830SOL    HW126123   1.613   3.659   8.188  0.9624  0.7482  0.7993
 4830SOL    HW226124   1.543   3.785   8.166 -2.6538 -0.2036  0.7450
 4831SOL     OW26125   4.716   3.588   1.692  0.1369  0.3266  0.8037
 4831SOL    HW126126   4.720   3.674   1.735 -2.3111 -0.4881  2.6489
 4831SOL    HW226127   0.070   3.561   1.714  0.0403  0.7823  1.7658
 4832SOL     OW26128   2.172   0.844   2.545 -0.4375  0.1508 -0.1548
 4832SOL    HW126129   2.168   0.866   2.452 -1.0383  0.2512 -0.1032
 4832SOL    HW226130   2.266   0.848   2.564 -0.4222  1.4451 -0.5276
 4833SOL     OW26131   1.294   1.705   1.471  0.5248  0.2978  0.1220
 4833SOL    HW126132   1.333   1.680   1.554 -1.7228 -3.9860 -0.1397
 4833SOL    HW226133   1.338   1.788   1.453 -0.0835  0.5224 -0.3634
 4834SOL     OW26134   3.365   1.981   5.582 -0.6109  0.3619 -0.4308
 4834SOL    HW126135   3.403   2.026   5.506 -1.2023  0.8107 -0.4635
 4834SOL    HW226136   3.395   1.890   5.578 -1.0727  0.2261 -0.7159
 4835SOL     OW26137   1.893   3.350   3.339  0.5571 -0.7338  0.2345
 4835SOL    HW126138   1.867   3.376   3.251  2.8359  0.5106 -0.0628
 4835SOL    HW226139   1.930   3.430   3.376 -1.6422  0.8841 -1.0578
 4836SOL     OW26140   3.729   4.495  11.043  0.6425 -0.0242  0.4058
 4836SOL    HW126141   3.741   4.439  11.120  1.3921  1.7456  1.5616
 4836SOL    HW226142   3.637   4.505  11.018  0.0857  2.4260  3.4084
 4837SOL     OW26143   0.192   4.235  16.349  0.3396  0.9653 -0.1761
 4837SOL    HW126144   0.266   4.217  16.407  0.8858  1.1908 -0.8006
 4837SOL    HW226145   0.127   4.269  16.411  0.5880  0.3488  0.4110
 4838SOL     OW26146   1.372   3.536   5.192  0.0680 -0.6244 -0.5200
 4838SOL    HW126147   1.324   3.571   5.117 -3.1182  0.6761  2.1239
 4838SOL    HW226148   1.344   3.599   5.258  0.2685 -0.9428 -0.1319
 4839SOL     OW26149   2.282   3.863   4.121  0.1570  0.0382  0.2541
 4839SOL    HW126150   2.368   3.827   4.097 -0.0178  1.6864 -2.7699
 4839SOL    HW226151   2.295   3.954   4.097 -0.9268  0.1113 -0.0426
 4840SOL     OW26152   3.794   1.082   5.204  0.3687 -0.5721 -0.0038
 4840SOL    HW126153   3.872   1.043   5.166  2.4151  1.5736  2.0551
 4840SOL    HW226154   3.822   1.171   5.222 -1.8303 -0.1681  1.4428
 4841SOL     OW26155   1.821   2.043   7.948  0.0067 -0.2234 -0.1502
 4841SOL    HW126156   1.828   2.095   8.028  1.0862 -0.8053  0.1306
 4841SOL    HW226157   1.911   2.049   7.915  1.4407 -2.3671  3.3783
 4842SOL     OW26158   1.339   1.025   8.836 -0.3839 -0.3720 -0.1235
 4842SOL    HW126159   1.358   1.072   8.754 -2.2614  2.3395  0.9876
 4842SOL    HW226160   1.262   1.071   8.870 -0.3576 -0.7102  0.3945
 4843SOL     OW26161   4.058   1.381   2.248 -0.4448  0.1566  0.0828
 4843SOL    HW126162   4.049   1.330   2.167 -0.0776  2.2657 -1.2629
 4843SOL    HW226163   4.027   1.469   2.231  0.1007 -0.0504 -2.0116
 4844SOL     OW26164   2.868   0.951   9.551 -0.4105  0.2853  0.2007
 4844SOL    HW126165   2.877   0.856   9.550  1.7643  0.5000  0.0161
 4844SOL    HW226166   2.874   0.968   9.645  1.1132 -0.8626  0.3083
 4845SOL     OW26167   3.258   1.679   6.356  0.0898 -0.1421 -0.1823
 4845SOL    HW126168   3.197   1.724   6.298  0.7876 -1.8790 -2.2998
 4845SOL    HW226169   3.331   1.674   6.294 -0.5691 -0.0388 -0.9577
 4846SOL     OW26170   2.220   0.014   0.135 -0.1123  0.8687 -0.4616
 4846SOL    HW126171   2.126   0.015   0.122 -0.2262 -0.7574  0.2467
 4846SOL    HW226172   2.239   4.680   0.072  1.5172 -0.0906  1.0850
 4847SOL     OW26173   2.722   1.137   1.532 -0.1363  0.0097  0.0668
 4847SOL    HW126174   2.703   1.138   1.438  1.3690 -2.1667 -0.2576
 4847SOL    HW226175   2.644   1.178   1.569 -0.2478  1.1148 -1.4027
 4848SOL     OW26176   1.712   4.541   4.037 -0.1931 -0.6349  0.1343
 4848SOL    HW126177   1.629   4.494   4.031 -0.1961 -0.6698  0.4533
 4848SOL    HW226178   1.768   4.487   4.093  0.1807  1.8670  2.1837
 4849SOL     OW26179   4.407   1.532   4.529  0.0669 -0.5759 -0.4441
 4849SOL    HW126180   4.390   1.583   4.608  1.5225  1.1166 -1.2250
 4849SOL    HW226181   4.500   1.528   4.551 -0.0075 -2.9063 -0.5671
 4850SOL     OW26182   1.821   0.193  13.168 -0.2749  0.4378  0.2377
 4850SOL    HW126183   1.809   0.136  13.244  1.5648 -0.0875  0.1129
 4850SOL    HW226184   1.914   0.211  13.178 -0.3042  1.8802 -2.0305
 4851SOL     OW26185   2.714   0.751   0.283  0.2857 -0.2225  0.0433
 4851SOL    HW126186   2.755   0.823   0.235  0.7382 -0.4746  0.0501
 4851SOL    HW226187   2.753   0.757   0.371  0.3232  4.3936 -0.2789
 4852SOL     OW26188   0.261   0.906   7.976  0.0499  0.1391 -0.3881
 4852SOL    HW126189   0.323   0.979   7.978  0.4072 -0.2097  0.9891
 4852SOL    HW226190   0.294   0.869   7.894 -2.8911 -1.9256 -0.6177
 4853SOL     OW26191   0.672   3.666   5.433 -0.0199  0.6940 -0.0075
 4853SOL    HW126192   0.642   3.586   5.476  1.3541  0.0230 -0.2690
 4853SOL    HW226193   0.629   3.649   5.349 -0.9692 -3.0525  1.2220
 4854SOL     OW26194   2.654   3.022   5.897 -0.2602 -0.4610  0.0468
 4854SOL    HW126195   2.658   3.074   5.978  1.2718  0.8987 -0.9144
 4854SOL    HW226196   2.560   3.014   5.881 -0.4423 -0.6754  1.2075
 4855SOL     OW26197   3.583   1.671  10.468 -0.0993  0.2813 -0.7020
 4855SOL    HW126198   3.601   1.598  10.408  2.5194  0.9069 -0.6813
 4855SOL    HW226199   3.585   1.632  10.555 -0.0339  0.3003 -0.6950
 4856SOL     OW26200   3.461   3.807   1.249  0.2994 -0.2120 -0.4812
 4856SOL    HW126201   3.387   3.755   1.280  0.2088  1.5097  2.1982
 4856SOL    HW226202   3.481   3.842   1.336  0.8761 -2.2668  0.2105
 4857SOL     OW26203   2.393   0.563   5.803 -0.2546  0.1722 -0.0444
 4857SOL    HW126204   2.310   0.519   5.821 -0.7291  0.5429 -1.3575
 4857SOL    HW226205   2.447   0.487   5.784  1.6607  1.0291  1.9395
 4858SOL     OW26206   1.144   4.172  11.050  0.3005  0.2245 -0.0117
 4858SOL    HW126207   1.061   4.213  11.027  0.3663  0.1297 -0.4153
 4858SOL    HW226208   1.158   4.102  10.986 -1.2950 -0.3624  0.2609
 4859SOL     OW26209   1.435   1.049   4.357  0.4052 -0.3215 -0.2340
 4859SOL    HW126210   1.475   1.091   4.282  0.6072 -0.2591 -0.0897
 4859SOL    HW226211   1.396   0.970   4.318 -1.2221  0.2604  0.1899
 4860SOL     OW26212   3.987   0.071   1.834  0.2193  0.7386 -0.4104
 4860SOL    HW126213   3.952   0.081   1.745 -1.4647  1.8422  0.3738
 4860SOL    HW226214   3.909   0.073   1.890  0.6752 -0.0247  0.2441
 4861SOL     OW26215   0.180   1.779   7.833  0.0441 -0.4417 -0.1143
 4861SOL    HW126216   0.161   1.791   7.740  0.3224  0.2456 -0.0884
 4861SOL    HW226217   0.242   1.707   7.821  1.4648  1.0080 -1.5031
 4862SOL     OW26218   1.030   1.070   7.865 -0.6784 -0.3925  0.4363
 4862SOL    HW126219   0.978   1.095   7.789 -0.7305  3.4354  1.7484
 4862SOL    HW226220   1.028   1.147   7.922  0.3131  0.8094 -1.1582
 4863SOL     OW26221   2.382   3.471   0.867 -0.7351  0.0893  0.3286
 4863SOL    HW126222   2.425   3.549   0.833  0.4663 -0.8058 -0.2004
 4863SOL    HW226223   2.343   3.443   0.785 -5.5601 -0.6536  2.8643
 4864SOL     OW26224   0.089   0.695   1.916 -0.5142 -0.4738 -0.5338
 4864SOL    HW126225   0.059   0.618   1.869  1.4382 -1.6582  0.1533
 4864SOL    HW226226   0.077   0.658   2.004 -2.4710  2.7696  0.5823
 4865SOL     OW26227   1.440   2.649   1.862  0.5769 -0.1638 -0.6962
 4865SOL    HW126228   1.529   2.618   1.879  0.1226 -0.8246  0.4623
 4865SOL    HW226229   1.442   2.722   1.924  1.8902 -0.9645  0.1978
 4866SOL     OW26230   3.658   2.227   3.483  0.0707 -0.3051  0.0737
 4866SOL    HW126231   3.626   2.303   3.436  1.3934 -0.7707 -1.5748
 4866SOL    HW226232   3.668   2.154   3.422  0.5005  0.2145 -0.4747
 4867SOL     OW26233   3.246   4.184   5.966  0.2540 -0.1800 -0.4293
 4867SOL    HW126234   3.176   4.182   5.900  1.6516  0.6803 -1.9534
 4867SOL    HW226235   3.201   4.232   6.035  0.1280  1.8614 -1.9319
 4868SOL     OW26236   0.809   2.533   0.530 -0.0832  0.2625 -0.1337
 4868SOL    HW126237   0.793   2.441   0.551 -1.7985  0.2330 -1.5528
 4868SOL    HW226238   0.779   2.545   0.440  1.3674  0.4345 -0.5870
 4869SOL     OW26239   1.916   1.929  14.106  0.1551  0.1147  0.4282
 4869SOL    HW126240   1.848   1.896  14.164 -0.0629 -1.9397 -0.9729
 4869SOL    HW226241   1.896   1.888  14.021 -1.1463  6.3207 -2.3120
 4870SOL     OW26242   0.974   4.688   8.114 -0.1209  0.8137 -0.3376
 4870SOL    HW126243   0.985   4.594   8.122 -0.3892  0.6153 -2.4185
 4870SOL    HW226244   0.904   4.694   8.049  0.4485 -1.0242 -1.1160
 4871SOL     OW26245   0.248   1.384  14.197  0.6904 -0.1727 -0.3162
 4871SOL    HW126246   0.303   1.454  14.162 -0.7321  1.2861  0.3811
 4871SOL    HW226247   0.313   1.332  14.244  0.4816 -1.1713 -1.1191
 4872SOL     OW26248   2.576   1.885   5.418  0.2355 -0.3866  0.2408
 4872SOL    HW126249   2.564   1.963   5.471  0.0397 -0.2181 -0.0535
 4872SOL    HW226250   2.486   1.860   5.395 -0.5514  1.1573  1.7199
 4873SOL     OW26251   3.887   3.860  16.802  0.0378  0.0198 -0.0674
 4873SOL    HW126252   3.948   3.790  16.782 -0.2690  0.4419 -2.5260
 4873SOL    HW226253   3.808   3.807  16.803 -1.0924  1.6990  0.2053
 4874SOL     OW26254   4.573   4.460  10.459  0.4193  0.6778  0.2932
 4874SOL    HW126255   4.492   4.493  10.497  0.2460 -0.5243  0.9743
 4874SOL    HW226256   4.562   4.365  10.468 -1.1046  0.4503 -3.9615
 4875SOL     OW26257   2.663   0.162  10.631  0.1170 -0.5114  0.4883
 4875SOL    HW126258   2.752   0.128  10.629  0.2987 -0.1942  2.4600
 4875SOL    HW226259   2.619   0.087  10.591  0.2196 -1.8252  2.8305
 4876SOL     OW26260   3.558   2.277   0.339  0.0558  0.0466 -0.1782
 4876SOL    HW126261   3.629   2.240   0.287  0.2805  0.2554 -0.0164
 4876SOL    HW226262   3.490   2.265   0.272 -0.3179 -1.4468  0.4653
 4877SOL     OW26263   0.269   2.367   2.921 -0.1257  0.1109 -0.0176
 4877SOL    HW126264   0.319   2.357   2.840 -1.5748  0.9940 -1.0122
 4877SOL    HW226265   0.325   2.432   2.965  0.4125  0.0161 -0.5634
 4878SOL     OW26266   3.009   1.258   6.294  0.0864 -0.0687  0.1721
 4878SOL    HW126267   3.050   1.326   6.348  1.7156 -0.6813 -0.2744
 4878SOL    HW226268   2.986   1.190   6.357 -1.3319  0.9716  0.7660
 4879SOL     OW26269   0.345   2.039   2.363  0.1262 -0.1349 -0.4410
 4879SOL    HW126270   0.281   2.103   2.393 -0.5815 -1.9214  1.8640
 4879SOL    HW226271   0.427   2.084   2.385  0.5686 -0.7696 -0.7672
 4880SOL     OW26272   3.991   1.247   7.310 -0.3068  0.5154  0.4771
 4880SOL    HW126273   3.992   1.155   7.335  2.3240  0.2211 -0.7139
 4880SOL    HW226274   3.926   1.277   7.374  0.5094  1.4297  0.8923
 4881SOL     OW26275   2.670   4.094   4.008 -0.9213 -0.0490 -0.1469
 4881SOL    HW126276   2.671   4.155   3.934  0.7063  0.4574  0.2983
 4881SOL    HW226277   2.722   4.020   3.977 -1.2235 -1.1330  1.9600
 4882SOL     OW26278   1.766   3.391   8.929  0.5810 -0.1924 -0.1355
 4882SOL    HW126279   1.764   3.487   8.936 -0.7691 -0.0610 -2.2030
 4882SOL    HW226280   1.731   3.360   9.012 -0.4483 -2.0204 -1.2592
 4883SOL     OW26281   2.534   1.685   2.671 -0.2016 -0.2824  0.4767
 4883SOL    HW126282   2.555   1.592   2.674 -0.0271 -0.2307  0.9342
 4883SOL    HW226283   2.533   1.704   2.765  2.2376 -1.6682  0.7971
 4884SOL     OW26284   3.723   3.612   0.065  0.7568  0.3270  0.0664
 4884SOL    HW126285   3.658   3.544   0.078  0.9858  0.2479  0.8187
 4884SOL    HW226286   3.713   3.646  17.718  0.2024  0.6155  0.2400
 4885SOL     OW26287   2.841   1.268   4.353 -0.5448 -0.4440  0.8513
 4885SOL    HW126288   2.851   1.203   4.283  1.6036 -0.3181  1.0500
 4885SOL    HW226289   2.752   1.248   4.382 -0.6544  0.8874  1.4324
 4886SOL     OW26290   1.830   3.909  15.907  0.2927  0.2787 -0.3487
 4886SOL    HW126291   1.770   3.983  15.902 -1.1025 -0.8991 -1.0198
 4886SOL    HW226292   1.785   3.827  15.884 -1.8853  1.9527 -2.0544
 4887SOL     OW26293   0.929   3.799   0.596  0.0226  0.8758  0.0210
 4887SOL    HW126294   0.982   3.840   0.527  0.5218  0.1274 -0.0399
 4887SOL    HW226295   0.857   3.861   0.590 -2.1784 -1.7798 -1.0391
 4888SOL     OW26296   1.001   1.128   6.726 -0.2048  0.3804  0.0492
 4888SOL    HW126297   0.913   1.091   6.724  0.0598 -0.1724 -1.4942
 4888SOL    HW226298   0.982   1.220   6.743  0.3542  0.0446  2.4131
 4889SOL     OW26299   1.104   2.239   4.729 -0.2437  0.1736  0.0428
 4889SOL    HW126300   1.119   2.155   4.686  0.0227  0.2874 -0.0825
 4889SOL    HW226301   1.192   2.274   4.717 -0.5287  0.8718  0.0126
 4890SOL     OW26302   1.116   4.261   4.971  0.3866 -0.6536  0.4436
 4890SOL    HW126303   1.196   4.272   4.920 -0.5640 -1.8561 -1.3152
 4890SOL    HW226304   1.134   4.193   5.035  1.5000  0.5893  1.4421
 4891SOL     OW26305   4.713   0.364   7.125  0.0043  0.5896 -0.4201
 4891SOL    HW126306   4.685   0.280   7.160  1.1748  1.3754  2.3856
 4891SOL    HW226307   4.707   0.338   7.033  1.0397  1.0744 -0.6194
 4892SOL     OW26308   0.140   0.942   4.367  0.2109  0.1795 -0.0212
 4892SOL    HW126309   0.127   1.002   4.293 -0.6226  2.2345  1.7657
 4892SOL    HW226310   0.211   0.889   4.331  0.1449 -0.5774  0.9784
 4893SOL     OW26311   2.054   0.663   1.590 -0.5436 -0.4526 -0.4537
 4893SOL    HW126312   1.975   0.609   1.588  0.2775 -1.6927  1.0414
 4893SOL    HW226313   2.006   0.745   1.578  1.3142  0.5530 -1.0286
 4894SOL     OW26314   3.227   1.105   3.767  0.0629 -0.5128 -0.3041
 4894SOL    HW126315   3.307   1.053   3.771  0.3806  0.1804  2.2993
 4894SOL    HW226316   3.256   1.187   3.806  0.6459 -0.2373 -1.3314
 4895SOL     OW26317   1.881   3.032  11.466  0.4857 -0.4524  0.5283
 4895SOL    HW126318   1.905   2.941  11.446  0.7458 -0.2302 -0.1611
 4895SOL    HW226319   1.790   3.017  11.492  0.7837 -1.5309  0.9746
 4896SOL     OW26320   1.070   0.008   4.942 -0.6961  0.2859  0.1424
 4896SOL    HW126321   1.093   0.100   4.931 -0.9225  0.6480  2.7020
 4896SOL    HW226322   0.976   0.017   4.931 -0.6242 -0.4064 -1.0583
 4897SOL     OW26323   3.238   2.935   2.515 -0.4740 -0.1817  0.7211
 4897SOL    HW126324   3.163   2.989   2.487 -0.0887 -0.5804 -1.1299
 4897SOL    HW226325   3.282   2.991   2.578  0.7575  0.7899 -0.9878
 4898SOL     OW26326   0.023   1.960   4.304  0.1851 -0.1714 -0.0285
 4898SOL    HW126327   4.724   1.952   4.215  1.3028 -1.9189 -0.3232
 4898SOL    HW226328   0.097   2.020   4.291  0.8150 -0.9535 -0.0892
 4899SOL     OW26329   0.559   3.162   3.528 -0.0858 -0.2149 -0.2302
 4899SOL    HW126330   0.620   3.123   3.466 -0.3380 -1.3423  0.2195
 4899SOL    HW226331   0.490   3.209   3.481  0.4175 -0.8883 -1.6194
 4900SOL     OW26332   2.002   3.419   4.077 -0.1011 -0.2610  0.1529
 4900SOL    HW126333   2.095   3.399   4.091 -0.0570 -0.8096 -0.9225
 4900SOL    HW226334   1.981   3.333   4.041  2.1143 -0.9460  0.4633
 4901SOL     OW26335   4.721   0.285   0.714 -0.1851 -0.1067 -0.4451
 4901SOL    HW126336   0.026   0.214   0.764 -1.5179 -0.3755  0.2533
 4901SOL    HW226337   4.644   0.300   0.769 -0.5350  0.7597 -1.1825
 4902SOL     OW26338   0.497   1.435  16.357  0.0698  0.2483 -0.4132
 4902SOL    HW126339   0.538   1.353  16.327 -2.6694 -1.1940 -0.2349
 4902SOL    HW226340   0.575   1.488  16.372  0.0119  0.7943 -2.0621
 4903SOL     OW26341   4.003   3.219  15.439  0.7589 -0.1992 -0.4305
 4903SOL    HW126342   4.075   3.270  15.476  0.7401 -0.5923  0.1576
 4903SOL    HW226343   3.934   3.284  15.427  1.0025  0.0992 -0.2248
 4904SOL     OW26344   3.897   4.606   1.626  0.5276  1.0480 -0.2491
 4904SOL    HW126345   3.885   4.555   1.546  0.4004 -2.5179  1.9819
 4904SOL    HW226346   3.962   4.551   1.671 -0.2397  1.4498  1.3660
 4905SOL     OW26347   3.093   4.005   5.280 -0.0654  0.4329  0.6844
 4905SOL    HW126348   3.082   3.964   5.194 -0.9964  1.6587  0.2284
 4905SOL    HW226349   3.058   3.931   5.330 -0.5104  0.0451 -0.1981
 4906SOL     OW26350   2.819   2.327   3.580 -0.1984 -0.1749  0.6063
 4906SOL    HW126351   2.821   2.402   3.640 -0.8690  0.3691 -0.0468
 4906SOL    HW226352   2.785   2.255   3.633 -0.3605 -0.8567 -0.4301
 4907SOL     OW26353   2.728   2.660   5.739  0.0605  0.0528  0.2669
 4907SOL    HW126354   2.684   2.646   5.823  0.3137 -0.2046  0.3566
 4907SOL    HW226355   2.674   2.629   5.667  0.3497 -3.0086  1.3751
 4908SOL     OW26356   1.615   0.947  11.560  0.5941  0.1359  0.0026
 4908SOL    HW126357   1.524   0.977  11.571 -0.0460 -1.8929  0.1678
 4908SOL    HW226358   1.655   0.969  11.644  3.3017 -1.3841 -0.9026
 4909SOL     OW26359   3.137   3.635   3.092  0.6549  0.0557 -0.1472
 4909SOL    HW126360   3.046   3.641   3.120 -0.3864 -0.5598 -3.3692
 4909SOL    HW226361   3.120   3.589   3.009 -1.2615 -0.9697  0.8276
 4910SOL     OW26362   3.439   2.481   6.173  0.0373  0.7540  0.0653
 4910SOL    HW126363   3.441   2.493   6.078  2.9188 -0.3255 -0.0124
 4910SOL    HW226364   3.480   2.558   6.211  1.3144 -1.1740  2.6090
 4911SOL     OW26365   4.392   0.245   4.013  0.5274 -0.5719  0.7057
 4911SOL    HW126366   4.426   0.159   3.990  1.3347  0.3444 -1.5557
 4911SOL    HW226367   4.350   0.227   4.097 -1.3814  0.6220  0.0129
 4912SOL     OW26368   0.090   4.576   4.278 -0.1419 -0.5023 -0.0304
 4912SOL    HW126369   0.009   4.604   4.236  0.0081 -0.0604 -0.0273
 4912SOL    HW226370   0.149   4.637   4.234 -0.6634 -0.0471 -0.0961
 4913SOL     OW26371   3.528   2.651   5.716  0.0392  0.5176  0.0430
 4913SOL    HW126372   3.438   2.663   5.747 -0.2271 -1.7499  0.1030
 4913SOL    HW226373   3.519   2.579   5.654 -0.8645  1.1624 -0.5760
 4914SOL     OW26374   1.955   4.354  10.327 -0.2188  0.4610  0.0217
 4914SOL    HW126375   1.911   4.355  10.243 -0.7694 -0.0388  0.3071
 4914SOL    HW226376   1.993   4.441  10.343  0.9194 -0.5108  2.6330
 4915SOL     OW26377   2.656   1.852  17.690 -0.2078 -0.2488  0.2301
 4915SOL    HW126378   2.681   1.810  17.607  1.0045  2.7197 -0.9003
 4915SOL    HW226379   2.623   1.778   0.000  1.6318 -0.6150  0.8731
 4916SOL     OW26380   4.672   1.460   4.800 -0.1834  0.5934 -0.2832
 4916SOL    HW126381   0.026   1.465   4.769 -0.2625 -3.0672 -1.0494
 4916SOL    HW226382   4.649   1.375   4.763  1.4136  0.4087 -0.8393
 4917SOL     OW26383   1.525   2.737   2.555  0.4028  0.2390 -0.3946
 4917SOL    HW126384   1.594   2.778   2.607  0.4406 -0.0871 -0.1890
 4917SOL    HW226385   1.559   2.654   2.522 -0.3496 -1.4121  3.0610
 4918SOL     OW26386   4.143   1.093   3.521 -0.6321  0.0301  0.3065
 4918SOL    HW126387   4.226   1.128   3.555  0.4354 -1.8162 -0.3765
 4918SOL    HW226388   4.132   1.028   3.591  1.9413 -0.9731 -0.1927
 4919SOL     OW26389   1.935   1.441   8.448  0.5860 -0.0015 -0.3537
 4919SOL    HW126390   1.875   1.471   8.380 -0.9486 -1.8876  0.1726
 4919SOL    HW226391   1.875   1.421   8.520  1.6776 -0.6528  0.3673
 4920SOL     OW26392   0.542   0.406   5.812 -0.5681  0.1533  0.3796
 4920SOL    HW126393   0.613   0.350   5.780  1.3797  1.8446  1.7040
 4920SOL    HW226394   0.597   0.485   5.812  1.9819 -1.6055 -0.2789
 4921SOL     OW26395   1.837   3.714   2.824  0.5113  0.4749 -0.1808
 4921SOL    HW126396   1.827   3.713   2.729 -5.1277 -0.3700  0.4370
 4921SOL    HW226397   1.841   3.809   2.830  1.4502  0.5262 -1.6633
 4922SOL     OW26398   0.260   4.538   6.560  0.1034 -0.2493 -0.5141
 4922SOL    HW126399   0.333   4.588   6.525 -0.0712 -1.2749 -2.3703
 4922SOL    HW226400   0.300   4.465   6.607  2.0152 -1.5170 -4.1912
 4923SOL     OW26401   1.486   1.312   9.171 -0.4902  0.2571  0.1291
 4923SOL    HW126402   1.499   1.273   9.257 -0.8684 -0.8780 -0.3221
 4923SOL    HW226403   1.394   1.288   9.157  0.0945 -0.3542 -2.6136
 4924SOL     OW26404   4.332   4.069   9.961  0.3805  0.3788  0.7362
 4924SOL    HW126405   4.304   3.995  10.015  1.2102  0.6072  1.4845
 4924SOL    HW226406   4.359   4.134  10.026  2.3167  0.6822 -0.3751
 4925SOL     OW26407   2.735   3.889  11.272  0.3293 -0.6876  0.1484
 4925SOL    HW126408   2.657   3.840  11.298 -1.5842  2.7788  0.8891
 4925SOL    HW226409   2.812   3.837  11.296  0.3045  0.3105  2.3140
 4926SOL     OW26410   1.149   1.696  16.487 -0.0670 -0.7817 -0.0583
 4926SOL    HW126411   1.059   1.721  16.505 -0.2359 -0.1085 -1.8509
 4926SOL    HW226412   1.190   1.781  16.472  0.3904 -0.8181  0.9733
 4927SOL     OW26413   3.338   3.593   1.544  0.1555 -0.6219 -0.3069
 4927SOL    HW126414   3.346   3.603   1.639  1.2568 -3.4411 -0.1027
 4927SOL    HW226415   3.427   3.566   1.521  0.4619  1.0394 -1.0488
 4928SOL     OW26416   2.400   2.175  11.613  0.3406 -0.0934 -0.7418
 4928SOL    HW126417   2.384   2.201  11.522 -1.8436 -1.9676 -0.8861
 4928SOL    HW226418   2.459   2.102  11.598  0.2580  0.3536 -3.3583
 4929SOL     OW26419   4.264   3.418   8.027 -0.1665 -0.0996 -1.0573
 4929SOL    HW126420   4.353   3.414   7.991 -0.3023 -0.1794 -1.3791
 4929SOL    HW226421   4.265   3.513   8.037 -1.3741 -0.2056  0.0483
 4930SOL     OW26422   0.809   2.512   8.559 -0.0162 -0.5427  0.0340
 4930SOL    HW126423   0.858   2.431   8.570 -0.2628 -0.8916 -1.3942
 4930SOL    HW226424   0.870   2.557   8.500 -0.0538 -0.3508  0.1393
 4931SOL     OW26425   1.802   2.567   6.088 -0.1018  0.1269 -0.4191
 4931SOL    HW126426   1.743   2.626   6.041  1.0784  1.8049  0.2538
 4931SOL    HW226427   1.886   2.605   6.063 -0.0402  0.1314 -0.2015
 4932SOL     OW26428   1.605   1.386   7.022 -0.5663 -0.3574 -0.1471
 4932SOL    HW126429   1.620   1.366   7.114 -0.8320 -0.3573 -0.1047
 4932SOL    HW226430   1.510   1.391   7.027 -0.5529 -0.0117 -0.1835
 4933SOL     OW26431   0.562   3.281   6.722  0.6787 -0.7497 -0.0466
 4933SOL    HW126432   0.601   3.301   6.808 -0.7643 -1.1714  0.6986
 4933SOL    HW226433   0.469   3.287   6.743  0.6141 -2.2665  0.0699
 4934SOL     OW26434   0.877   1.130   0.197 -0.0352  0.1158  0.2567
 4934SOL    HW126435   0.862   1.069   0.269 -1.0797 -0.7828 -0.7442
 4934SOL    HW226436   0.954   1.089   0.157  0.7653  3.0615 -1.3072
 4935SOL     OW26437   3.885   4.344   3.295  0.1207 -0.7429  0.1911
 4935SOL    HW126438   3.791   4.334   3.307  0.4519 -0.8985  2.6199
 4935SOL    HW226439   3.917   4.257   3.318 -0.0730 -1.4071 -2.0311
 4936SOL     OW26440   0.641   0.222   7.456  0.0484 -0.2818 -0.3149
 4936SOL    HW126441   0.729   0.238   7.421 -0.2576 -1.0899 -1.4529
 4936SOL    HW226442   0.613   0.147   7.403 -1.5459  0.9935 -1.3014
 4937SOL     OW26443   1.245   4.142   1.386 -0.3946 -0.1980 -0.3331
 4937SOL    HW126444   1.282   4.211   1.330 -0.5129  0.6384  0.6249
 4937SOL    HW226445   1.241   4.184   1.471  1.4325 -0.4678 -0.1009
 4938SOL     OW26446   0.569   3.676   9.434 -0.0974 -0.5141  0.1347
 4938SOL    HW126447   0.482   3.691   9.470  1.1948  0.2812  2.9034
 4938SOL    HW226448   0.554   3.596   9.384 -1.3889  0.8007 -1.6130
 4939SOL     OW26449   0.777   3.109   2.657 -1.0856  0.3320  0.2605
 4939SOL    HW126450   0.853   3.106   2.599 -2.4090 -0.3169 -1.4589
 4939SOL    HW226451   0.773   3.021   2.694 -3.1568 -0.5935 -2.1011
 4940SOL     OW26452   2.044   2.087   1.663  0.1804 -0.1002  0.0651
 4940SOL    HW126453   2.066   2.103   1.571 -0.1744  2.4373  0.4265
 4940SOL    HW226454   1.998   2.169   1.681  0.1442  0.1402 -1.1137
 4941SOL     OW26455   1.373   2.597   2.743  0.3745  0.3269 -0.2968
 4941SOL    HW126456   1.284   2.591   2.707 -0.0230 -1.7590  1.0247
 4941SOL    HW226457   1.404   2.657   2.675 -0.1052  0.3503 -0.4936
 4942SOL     OW26458   2.753   0.840  14.110 -0.1131  0.4332 -0.3858
 4942SOL    HW126459   2.770   0.807  14.022 -0.6217 -0.6403 -0.0808
 4942SOL    HW226460   2.668   0.882  14.099 -1.4682 -2.4989 -1.0461
 4943SOL     OW26461   0.893   1.826  14.680 -0.9030 -0.6743 -0.1613
 4943SOL    HW126462   0.913   1.894  14.744  1.0797 -1.5754  0.1618
 4943SOL    HW226463   0.904   1.857  14.590 -4.2153  0.4698 -0.2087
 4944SOL     OW26464   1.863   3.015   6.231 -0.3433  0.1315  0.1341
 4944SOL    HW126465   1.774   2.990   6.256 -0.9164  0.7907 -1.2478
 4944SOL    HW226466   1.906   2.935   6.200 -1.9510 -0.5562 -0.3570
 4945SOL     OW26467   0.045   1.080  12.099 -0.0813  0.1714 -0.2154
 4945SOL    HW126468   0.027   1.174  12.101  2.5260  0.6417  1.8295
 4945SOL    HW226469   0.118   1.078  12.038 -0.2957 -1.8032 -0.4233
 4946SOL     OW26470   4.222   1.486   5.303 -0.3080 -0.5618 -0.0177
 4946SOL    HW126471   4.207   1.465   5.395 -1.6684  1.7496  0.2825
 4946SOL    HW226472   4.230   1.581   5.307  1.0065 -0.6575 -0.2385
 4947SOL     OW26473   1.847   1.050  10.796  0.4810  0.3453  0.1884
 4947SOL    HW126474   1.906   1.118  10.829 -2.0506  2.2969  0.5918
 4947SOL    HW226475   1.883   1.033  10.709  0.9932  1.8951  0.0988
 4948SOL     OW26476   4.534   1.839   2.189  0.4045 -0.0140  0.1637
 4948SOL    HW126477   4.596   1.883   2.132 -0.3068  1.5578  0.5912
 4948SOL    HW226478   4.508   1.765   2.134 -0.0999 -1.5717  2.4705
 4949SOL     OW26479   1.696   2.460   4.680 -0.0384 -0.0798  0.1642
 4949SOL    HW126480   1.632   2.409   4.631  0.5949  0.6462 -1.4202
 4949SOL    HW226481   1.694   2.418   4.766  0.8969 -0.7367 -0.1444
 4950SOL     OW26482   1.721   0.671   6.582  0.3375 -0.3353 -0.3183
 4950SOL    HW126483   1.788   0.687   6.649  0.3868 -2.9718  0.2560
 4950SOL    HW226484   1.696   0.583   6.609  0.2305  0.0481  0.8250
 4951SOL     OW26485   4.130   1.970   4.044  0.3705 -0.5694  0.1098
 4951SOL    HW126486   4.061   1.914   4.079 -0.6860 -0.0417 -1.1617
 4951SOL    HW226487   4.068   2.020   3.992 -0.3493 -0.7179  0.8175
 4952SOL     OW26488   3.003   0.479   8.241  0.0450  0.0676 -0.0797
 4952SOL    HW126489   2.967   0.390   8.234 -0.7041  0.4954 -1.5536
 4952SOL    HW226490   3.086   0.477   8.194  0.8759  0.0484  1.3956
 4953SOL     OW26491   1.479   2.772  10.519 -0.3020  0.1423 -0.0341
 4953SOL    HW126492   1.571   2.755  10.540 -0.0517 -0.0767 -1.2960
 4953SOL    HW226493   1.450   2.686  10.489 -1.3034  0.6092 -0.3892
 4954SOL     OW26494   0.673   3.981   9.425 -0.3365 -0.4778 -0.5775
 4954SOL    HW126495   0.633   3.895   9.440 -1.2996 -0.5362 -3.4963
 4954SOL    HW226496   0.763   3.950   9.413  0.0586 -0.3986  2.3119
 4955SOL     OW26497   3.953   4.156   6.648 -0.6258 -0.8422  0.1736
 4955SOL    HW126498   3.898   4.091   6.603 -0.1381  0.7362 -2.7390
 4955SOL    HW226499   4.021   4.098   6.681 -0.7981 -1.2999 -0.2704
 4956SOL     OW26500   1.339   0.920   0.330 -0.1286  0.0531 -0.0208
 4956SOL    HW126501   1.290   0.924   0.248  1.8672 -0.2914 -1.2088
 4956SOL    HW226502   1.420   0.872   0.315  0.7995  0.5736  3.3535
 4957SOL     OW26503   2.141   0.488  13.449  0.3406  0.0424 -0.5548
 4957SOL    HW126504   2.056   0.520  13.419 -0.2800 -0.6048  0.5393
 4957SOL    HW226505   2.154   0.560  13.510 -1.6648 -0.0511 -0.0255
 4958SOL     OW26506   3.794   3.142  12.026  0.5958 -0.2205 -0.0350
 4958SOL    HW126507   3.810   3.049  12.043 -1.2370  0.1937  3.9585
 4958SOL    HW226508   3.720   3.152  12.087 -1.2159 -1.1099 -2.0550
 4959SOL     OW26509   3.818   1.187  15.950  0.3815  0.4834 -0.1459
 4959SOL    HW126510   3.761   1.139  15.891  0.2215  1.0437 -0.4476
 4959SOL    HW226511   3.868   1.117  15.992  2.7467  1.2725 -1.6408
 4960SOL     OW26512   0.389   2.281   2.586 -0.1594  0.2159 -0.3250
 4960SOL    HW126513   0.307   2.298   2.539  1.7513 -0.2038 -3.8141
 4960SOL    HW226514   0.369   2.201   2.635 -0.2801 -0.4489 -1.4664
 4961SOL     OW26515   0.739   3.441   3.346 -0.0938  0.3303 -0.1035
 4961SOL    HW126516   0.662   3.496   3.337  0.1526  0.4402 -1.5695
 4961SOL    HW226517   0.691   3.359   3.332 -0.6395  0.5721  0.3659
 4962SOL     OW26518   0.891   4.298   1.287 -0.0167  0.7506 -0.3999
 4962SOL    HW126519   0.846   4.383   1.284  0.6221  1.1072  0.1753
 4962SOL    HW226520   0.927   4.299   1.375 -1.4019 -0.1578  0.1764
 4963SOL     OW26521   3.290   2.078   3.012 -0.2697 -0.8601 -0.2554
 4963SOL    HW126522   3.220   2.115   2.959 -2.2792 -3.0725  0.8339
 4963SOL    HW226523   3.259   2.110   3.097 -1.0963 -1.5690 -0.2855
 4964SOL     OW26524   3.238   3.933   5.787 -0.1331  0.0528 -0.1618
 4964SOL    HW126525   3.297   3.955   5.715  0.5543  0.3833  0.4929
 4964SOL    HW226526   3.162   3.989   5.771  0.5077  0.7778 -0.6881
 4965SOL     OW26527   0.532   3.196   2.026  0.4028  0.2153 -1.1423
 4965SOL    HW126528   0.507   3.154   1.944 -1.7308  1.3847 -1.1121
 4965SOL    HW226529   0.449   3.236   2.053  1.2806  0.1779  1.6676
 4966SOL     OW26530   3.216   0.391   1.839 -0.4270 -0.1421 -0.0166
 4966SOL    HW126531   3.148   0.458   1.836 -1.3030 -1.0843 -1.1016
 4966SOL    HW226532   3.212   0.351   1.752  0.5179  1.2074 -0.6843
 4967SOL     OW26533   2.850   4.521  16.943  0.2147  0.2272 -0.1581
 4967SOL    HW126534   2.896   4.517  17.027  2.3886 -1.1463 -1.4287
 4967SOL    HW226535   2.919   4.477  16.895  0.6489 -1.1207  1.6685
 4968SOL     OW26536   3.423   0.332   0.438 -0.4570  0.0879 -0.1899
 4968SOL    HW126537   3.499   0.346   0.494 -0.8060 -0.8492  0.5201
 4968SOL    HW226538   3.441   0.242   0.411 -1.7046  0.4831 -2.3233
 4969SOL     OW26539   1.850   1.582   3.554 -0.1234 -0.7737 -0.1527
 4969SOL    HW126540   1.881   1.504   3.509  0.6728  0.2891 -1.4236
 4969SOL    HW226541   1.761   1.584   3.517 -0.3051  1.4678  0.3778
 4970SOL     OW26542   2.475   1.832   9.822 -0.9746 -0.2800  0.2349
 4970SOL    HW126543   2.426   1.752   9.806  1.8569 -2.2425  1.4100
 4970SOL    HW226544   2.505   1.818   9.912  2.0676  0.5040 -0.6712
 4971SOL     OW26545   4.527   3.748   0.269  0.2730  0.0919 -0.2754
 4971SOL    HW126546   4.512   3.732   0.362 -2.4649 -0.4404 -0.7972
 4971SOL    HW226547   4.435   3.751   0.241  0.1539  1.1551  0.2246
 4972SOL     OW26548   3.652   3.609  13.415  0.4236 -0.3647  0.2881
 4972SOL    HW126549   3.593   3.572  13.480  1.1809 -1.0073  0.6150
 4972SOL    HW226550   3.727   3.554  13.437  2.3919  1.0974 -2.6785
 4973SOL     OW26551   4.567   3.750  15.815  0.2621 -0.2914  0.1110
 4973SOL    HW126552   4.653   3.755  15.773  0.3350  0.1693  0.3135
 4973SOL    HW226553   4.588   3.676  15.874  1.1679  0.2617  0.4899
 4974SOL     OW26554   4.251   1.943   5.904 -0.0347 -0.5194 -0.4612
 4974SOL    HW126555   4.231   2.015   5.845 -0.6857  0.9089  1.4962
 4974SOL    HW226556   4.304   1.876   5.861 -1.0515 -1.7051  0.0900
 4975SOL     OW26557   0.849   0.085  15.836 -0.4840  0.3018  0.4126
 4975SOL    HW126558   0.889   0.009  15.879 -1.1827 -0.1087  0.3319
 4975SOL    HW226559   0.777   0.100  15.896  1.1267  1.1574  2.1258
 4976SOL     OW26560   3.287   2.585   5.412 -0.2376  0.4382 -0.4263
 4976SOL    HW126561   3.249   2.537   5.339 -1.6291 -1.3913  1.5157
 4976SOL    HW226562   3.378   2.557   5.402  0.1505  1.8890 -0.9315
 4977SOL     OW26563   4.419   3.793   8.818 -0.7450  0.5090 -0.0181
 4977SOL    HW126564   4.329   3.825   8.819 -0.0649  2.4507 -1.5767
 4977SOL    HW226565   4.414   3.700   8.841  1.4184  0.3253 -0.2479
 4978SOL     OW26566   3.827   4.074   8.501 -0.0044 -0.1585 -0.4022
 4978SOL    HW126567   3.868   4.057   8.416  2.4110  1.6843  0.4012
 4978SOL    HW226568   3.861   4.157   8.535  0.9513 -0.4882 -0.5640
 4979SOL     OW26569   4.091   3.595   2.784 -0.4449 -1.1662 -0.6505
 4979SOL    HW126570   4.039   3.551   2.716 -0.2682  0.0605 -1.5735
 4979SOL    HW226571   4.052   3.682   2.788 -0.1619 -1.0787  0.1377
 4980SOL     OW26572   4.341   3.633   9.376  0.6948  0.3552 -0.1664
 4980SOL    HW126573   4.292   3.633   9.459  0.2061 -0.6126 -0.4487
 4980SOL    HW226574   4.430   3.631   9.409  0.5488 -1.2832  0.1457
 4981SOL     OW26575   0.466   0.860  15.204 -0.7244 -0.1070  0.7349
 4981SOL    HW126576   0.375   0.832  15.205 -1.3964  2.0684  1.9291
 4981SOL    HW226577   0.463   0.954  15.221  0.2739  0.1231 -0.3249
 4982SOL     OW26578   0.896   4.089   5.319 -0.2876 -0.3287 -0.0815
 4982SOL    HW126579   0.873   3.996   5.315 -2.2200  0.2320 -2.1954
 4982SOL    HW226580   0.815   4.128   5.287 -0.8514 -1.4372 -0.0339
 4983SOL     OW26581   3.387   1.621   8.211  0.2215 -0.5202  0.2360
 4983SOL    HW126582   3.426   1.545   8.255 -0.2592 -2.3918 -2.5309
 4983SOL    HW226583   3.295   1.594   8.216  0.5261 -1.8797 -1.2381
 4984SOL     OW26584   0.411   1.595  14.170 -0.0030 -0.5776 -0.2644
 4984SOL    HW126585   0.371   1.675  14.138  0.4059 -0.0415  0.5579
 4984SOL    HW226586   0.450   1.636  14.248 -3.2702  0.5855  0.7481
 4985SOL     OW26587   0.508   2.228   3.856 -0.1588 -0.1415  0.3384
 4985SOL    HW126588   0.415   2.205   3.863 -0.0261 -0.8359 -0.2246
 4985SOL    HW226589   0.512   2.242   3.761  1.3315 -0.9624  0.2861
 4986SOL     OW26590   0.508   1.130  15.297 -0.0173  0.1527 -0.1339
 4986SOL    HW126591   0.597   1.108  15.325  0.2205  0.9281 -0.2917
 4986SOL    HW226592   0.510   1.224  15.314  0.7595  0.2102 -0.5379
 4987SOL     OW26593   3.487   1.914   1.397 -0.1548  0.0302  0.0258
 4987SOL    HW126594   3.576   1.947   1.381 -0.7433  1.4045 -0.3678
 4987SOL    HW226595   3.500   1.821   1.379 -2.7533 -0.2312 -0.5023
 4988SOL     OW26596   0.811   2.842  12.560  0.8935 -0.4103  0.3407
 4988SOL    HW126597   0.718   2.865  12.555  0.7141 -1.5263 -1.4817
 4988SOL    HW226598   0.829   2.852  12.653  2.0612  0.7596 -0.0131
 4989SOL     OW26599   3.615   4.636  12.080 -0.0758 -0.2623  0.1570
 4989SOL    HW126600   3.586   4.711  12.028  1.2765 -0.2028 -0.4912
 4989SOL    HW226601   3.645   4.677  12.162  1.1977  2.7707 -1.8270
 4990SOL     OW26602   0.316   0.076  17.501 -0.2112  0.0473  0.0233
 4990SOL    HW126603   0.370   0.138  17.551 -1.2986  0.1688  1.0667
 4990SOL    HW226604   0.379   0.027  17.449  0.3811  0.3733  0.4375
 4991SOL     OW26605   2.812   1.542  13.613 -0.1594  0.0775 -0.3571
 4991SOL    HW126606   2.827   1.557  13.706 -0.8507 -0.0948 -0.2177
 4991SOL    HW226607   2.876   1.474  13.592  0.2767  0.2077  0.5402
 4992SOL     OW26608   3.957   4.709   9.238  0.8368 -0.0608 -0.2424
 4992SOL    HW126609   4.002   0.023   9.169 -2.1655 -0.0287 -2.1624
 4992SOL    HW226610   3.899   0.044   9.266  0.5757 -0.6744  0.7857
 4993SOL     OW26611   2.302   1.451  11.453  0.1678  0.2552 -0.5056
 4993SOL    HW126612   2.294   1.473  11.361 -0.8212  1.0386 -0.2347
 4993SOL    HW226613   2.390   1.413  11.449  0.6581  1.3393 -0.1403
 4994SOL     OW26614   4.610   2.793   2.346 -0.6077  0.3534 -0.4200
 4994SOL    HW126615   4.524   2.813   2.383 -0.0217 -0.5890  1.4571
 4994SOL    HW226616   4.641   2.737   2.417 -2.0114 -1.4052 -1.1683
 4995SOL     OW26617   0.217   1.935   6.383  0.3153  0.6200 -0.0041
 4995SOL    HW126618   0.278   1.972   6.446 -1.7701 -1.3251  3.1691
 4995SOL    HW226619   0.190   2.011   6.332 -1.2426  0.3270  0.3850
 4996SOL     OW26620   0.732   1.080   7.622 -0.2002 -0.2342 -0.2455
 4996SOL    HW126621   0.670   1.125   7.564 -0.8051  0.5433  1.0058
 4996SOL    HW226622   0.680   1.035   7.689  0.3901 -0.2717  0.1907
 4997SOL     OW26623   4.139   3.099   8.685  0.3279  0.4769  0.2625
 4997SOL    HW126624   4.221   3.143   8.662 -0.1241  0.1621 -1.9639
 4997SOL    HW226625   4.160   3.085   8.778 -0.0818  0.4384  0.3495
 4998SOL     OW26626   3.401   0.527   3.385  0.1252 -0.3204  0.0576
 4998SOL    HW126627   3.305   0.524   3.384  0.1717 -2.0824  0.5435
 4998SOL    HW226628   3.416   0.440   3.346 -1.0439 -1.0221  1.1487
 4999SOL     OW26629   3.065   0.902   3.894  0.7856  0.1228 -0.8987
 4999SOL    HW126630   3.120   0.979   3.900 -0.6801  1.2615 -2.1129
 4999SOL    HW226631   3.048   0.899   3.800  0.3757 -2.1934 -0.7706
 5000SOL     OW26632   0.052   2.251   6.792 -0.8755  0.5901  0.1819
 5000SOL    HW126633   0.088   2.304   6.863 -0.6068  0.6198  0.0235
 5000SOL    HW226634   0.030   2.321   6.730  1.1580  0.1719 -0.9910
 5001SOL     OW26635   3.721   0.081   7.736 -0.2008  0.2647  0.0444
 5001SOL    HW126636   3.666   0.160   7.740 -1.7151 -0.7699 -0.3065
 5001SOL    HW226637   3.811   0.111   7.743  0.0154 -0.3928  0.0478
 5002SOL     OW26638   3.931   0.922   3.895  0.3813  0.2526  0.1520
 5002SOL    HW126639   3.957   0.993   3.837 -1.7968  0.6569 -0.3401
 5002SOL    HW226640   3.994   0.936   3.965 -0.6973  0.3118  1.1226
 5003SOL     OW26641   3.651   2.379  15.250 -0.0120 -0.3823 -0.0054
 5003SOL    HW126642   3.647   2.387  15.345 -0.9376 -1.1371  0.0136
 5003SOL    HW226643   3.638   2.472  15.233 -0.5623 -0.9148 -2.5514
 5004SOL     OW26644   2.923   4.590  17.230 -0.3953  0.5395 -0.1334
 5004SOL    HW126645   2.901   4.681  17.209 -0.5801  0.1783 -1.4966
 5004SOL    HW226646   2.979   4.598  17.307 -0.8528  1.2531  0.1324
 5005SOL     OW26647   3.050   4.121   7.451 -0.6368 -0.0632 -0.0371
 5005SOL    HW126648   3.117   4.131   7.519 -1.4159 -1.1486  0.8854
 5005SOL    HW226649   3.073   4.182   7.381 -2.0702 -2.0292 -2.2400
 5006SOL     OW26650   0.714   3.684   3.140  0.1599  0.4458 -0.0669
 5006SOL    HW126651   0.756   3.700   3.055 -0.1213 -1.3406 -0.5368
 5006SOL    HW226652   0.782   3.633   3.184  0.4698 -1.5744 -2.8746
 5007SOL     OW26653   0.746   3.149  10.999  0.0964  0.4175 -0.7504
 5007SOL    HW126654   0.800   3.218  11.037  0.8125 -0.0200 -0.9647
 5007SOL    HW226655   0.672   3.194  10.959  0.7821  1.1194 -1.2110
 5008SOL     OW26656   0.539   0.134   2.591 -0.2626  0.4881  0.3260
 5008SOL    HW126657   0.543   0.156   2.684  1.3214 -1.1079  0.6197
 5008SOL    HW226658   0.626   0.163   2.564  0.7517 -2.0856  0.8200
 5009SOL     OW26659   0.789   1.047   8.853  0.0903  0.2420  0.0195
 5009SOL    HW126660   0.814   1.003   8.935  1.4083  1.6571  0.3810
 5009SOL    HW226661   0.714   0.998   8.819  1.0675 -1.4469  0.2764
 5010SOL     OW26662   4.455   1.358  12.944  0.1537 -0.2768 -0.0592
 5010SOL    HW126663   4.368   1.397  12.950 -0.6362 -1.9866 -0.7160
 5010SOL    HW226664   4.495   1.379  13.029 -0.5915 -1.1952  0.5132
 5011SOL     OW26665   2.093   0.908  10.361  0.4368 -0.0636  0.0448
 5011SOL    HW126666   2.018   0.945  10.314  2.2403  0.8695 -2.0804
 5011SOL    HW226667   2.109   0.828  10.310  0.7422 -2.1056  3.3375
 5012SOL     OW26668   3.339   2.070   1.566 -0.2757 -0.2210 -0.2800
 5012SOL    HW126669   3.359   2.031   1.652  0.5707  0.6961 -0.0599
 5012SOL    HW226670   3.393   2.014   1.510  0.9804  1.7739 -1.0696
 5013SOL     OW26671   2.888   1.370   0.806 -0.2892  0.0932  0.2987
 5013SOL    HW126672   2.925   1.454   0.778  0.5152 -0.1242  0.7100
 5013SOL    HW226673   2.795   1.391   0.800 -0.3362  0.0346  0.7638
 5014SOL     OW26674   1.035   3.209  11.680  0.0579 -0.0079  0.0025
 5014SOL    HW126675   0.955   3.257  11.696 -0.3522 -1.1435  1.3707
 5014SOL    HW226676   1.028   3.178  11.590 -1.4811 -0.7694  0.3802
 5015SOL     OW26677   3.681   0.029   4.333 -0.0072 -0.3726  0.5068
 5015SOL    HW126678   3.659   4.671   4.337 -0.0182 -0.3872  0.0827
 5015SOL    HW226679   3.620   0.056   4.265  0.2243  0.9472  0.8400
 5016SOL     OW26680   3.933   4.257   0.565 -0.5463  0.0093  0.2865
 5016SOL    HW126681   3.953   4.293   0.651  0.4423 -2.0970  0.9389
 5016SOL    HW226682   3.999   4.188   0.560  0.6654  1.1495  0.5748
 5017SOL     OW26683   2.028   2.491   8.710  0.4290  0.4610  0.9025
 5017SOL    HW126684   2.040   2.419   8.647 -0.6644 -0.1708  1.4195
 5017SOL    HW226685   2.107   2.487   8.764  0.2619 -3.2824  0.9093
 5018SOL     OW26686   3.926   1.873  14.669  0.3118 -0.0357  0.2330
 5018SOL    HW126687   4.009   1.874  14.622  0.5660 -0.0708  0.6847
 5018SOL    HW226688   3.900   1.965  14.679 -0.0595 -0.1970  0.7209
 5019SOL     OW26689   3.765   1.591  15.122  0.2305  0.4270 -0.3620
 5019SOL    HW126690   3.764   1.672  15.070  1.2402  0.6519 -0.0440
 5019SOL    HW226691   3.685   1.554  15.085 -0.2744 -0.6172  1.7450
 5020SOL     OW26692   0.539   4.001   5.287  0.4238 -0.2045 -0.1449
 5020SOL    HW126693   0.449   3.998   5.319  0.5243 -2.2702 -0.0573
 5020SOL    HW226694   0.589   3.959   5.357  0.7637  0.0138 -0.2562
 5021SOL     OW26695   2.167   1.455   7.704 -0.0623 -0.0943  0.3724
 5021SOL    HW126696   2.262   1.463   7.696 -0.1293  0.7685  0.4433
 5021SOL    HW226697   2.154   1.497   7.789  0.4027 -2.3344  1.5332
 5022SOL     OW26698   3.592   4.013  11.217 -0.2115 -0.0196 -0.4569
 5022SOL    HW126699   3.521   3.985  11.158 -1.0331 -2.5656  1.7695
 5022SOL    HW226700   3.553   4.095  11.247 -1.9566 -0.9742 -0.1202
 5023SOL     OW26701   1.862   0.072   1.358 -0.8100 -0.2042  0.6069
 5023SOL    HW126702   1.916   4.732   1.337 -1.5176 -0.2852 -0.9575
 5023SOL    HW226703   1.937   0.119   1.393  0.7809 -4.6172  3.0548
 5024SOL     OW26704   3.091   0.760   1.105  0.3570  0.2922  0.2912
 5024SOL    HW126705   3.151   0.694   1.070 -0.3598  0.1010 -0.5834
 5024SOL    HW226706   3.046   0.799   1.030 -0.6707  1.1895  1.3799
 5025SOL     OW26707   0.469   4.234  15.458  0.0929 -0.1720  1.0938
 5025SOL    HW126708   0.529   4.188  15.399  1.3376  0.8775  1.5506
 5025SOL    HW226709   0.466   4.176  15.534 -0.9730  1.5004  2.3262
 5026SOL     OW26710   4.050   3.427   6.383  0.4128  0.7254  0.5136
 5026SOL    HW126711   4.135   3.416   6.340  0.5817  0.8774  0.8128
 5026SOL    HW226712   4.008   3.343   6.366  0.8565  0.6245 -0.0830
 5027SOL     OW26713   1.423   3.123   2.168  0.0818  0.1522 -0.1771
 5027SOL    HW126714   1.452   3.038   2.135  1.4037  1.0245 -1.3067
 5027SOL    HW226715   1.504   3.145   2.215 -0.9973  1.7458  0.9266
 5028SOL     OW26716   3.901   1.726   2.449 -0.6231 -0.3781  0.5104
 5028SOL    HW126717   3.959   1.693   2.381  1.1106 -0.0741  1.8226
 5028SOL    HW226718   3.892   1.818   2.425  1.7960 -0.3007 -0.1270
 5029SOL     OW26719   4.475   2.250  13.355  0.1610 -0.2040 -0.0647
 5029SOL    HW126720   4.569   2.234  13.346  0.5983  1.3817  1.7191
 5029SOL    HW226721   4.478   2.344  13.372  1.8945 -0.0026 -1.5460
 5030SOL     OW26722   1.210   3.697   1.421  0.0925 -0.1701 -0.0843
 5030SOL    HW126723   1.236   3.656   1.339 -0.6966  0.5122 -0.6772
 5030SOL    HW226724   1.280   3.683   1.484 -2.4410 -0.9509  2.5753
 5031SOL     OW26725   4.450   0.760   5.092  0.0160  0.3253  0.4615
 5031SOL    HW126726   4.527   0.750   5.036 -1.0838 -0.5583 -0.8652
 5031SOL    HW226727   4.486   0.727   5.175 -0.0035 -1.6953 -0.3388
 5032SOL     OW26728   2.596   3.008   4.420  0.5578  0.4212 -0.2117
 5032SOL    HW126729   2.580   2.967   4.335 -1.8251  1.0692 -0.0790
 5032SOL    HW226730   2.528   2.973   4.478  0.1394  0.7768 -0.4876
 5033SOL     OW26731   3.299   1.131  17.519 -0.4905 -0.3010 -0.0076
 5033SOL    HW126732   3.361   1.059  17.529 -0.4653  0.0613  2.4938
 5033SOL    HW226733   3.288   1.155  17.611 -0.0361 -1.2436  0.2908
 5034SOL     OW26734   1.635   2.870   9.117  0.6457  0.2394  0.7031
 5034SOL    HW126735   1.626   2.869   9.212 -1.3980 -2.9044  0.4882
 5034SOL    HW226736   1.632   2.775   9.104 -0.5006  0.2695  0.7182
 5035SOL     OW26737   3.201   3.144  14.509  0.1775  0.1748 -0.0203
 5035SOL    HW126738   3.112   3.179  14.506 -0.4599 -1.5245 -1.4531
 5035SOL    HW226739   3.242   3.219  14.467 -0.6364  0.9240  0.5470
 5036SOL     OW26740   2.207   2.489   0.491 -0.2427  0.4328  0.1321
 5036SOL    HW126741   2.189   2.401   0.524  0.4784  0.8565  1.6622
 5036SOL    HW226742   2.120   2.526   0.480 -1.2083 -1.4138  1.5413
 5037SOL     OW26743   2.818   2.631   4.177  0.1910  0.1867 -0.0636
 5037SOL    HW126744   2.764   2.649   4.254  3.0451  2.7895  1.3159
 5037SOL    HW226745   2.755   2.578   4.128  1.5224 -0.2700 -1.2627
 5038SOL     OW26746   1.298   1.254   2.562 -0.1593 -0.3845 -0.1142
 5038SOL    HW126747   1.231   1.321   2.548  0.5438  0.2693 -0.3690
 5038SOL    HW226748   1.274   1.190   2.495  0.3163 -1.9288  1.1847
 5039SOL     OW26749   2.997   1.658   8.308 -0.1283 -0.7324 -0.2035
 5039SOL    HW126750   2.910   1.679   8.273 -0.5725 -3.6219 -0.8008
 5039SOL    HW226751   2.988   1.697   8.395 -0.4938 -1.7229  0.2078
 5040SOL     OW26752   1.569   1.166   4.162 -0.0574 -0.4014 -0.1782
 5040SOL    HW126753   1.546   1.127   4.078  0.0187  1.3676 -1.0115
 5040SOL    HW226754   1.523   1.250   4.159  2.2285  0.8711  0.7633
 5041SOL     OW26755   1.808   1.327   8.711  0.0913  0.2031  0.0051
 5041SOL    HW126756   1.890   1.361   8.748 -0.5240 -1.2816  2.7152
 5041SOL    HW226757   1.776   1.267   8.778 -1.3411  0.6003 -0.3140
 5042SOL     OW26758   0.642   2.913   7.458 -0.4686 -0.3749 -0.2619
 5042SOL    HW126759   0.594   2.919   7.541 -0.9289 -0.2892 -0.5363
 5042SOL    HW226760   0.652   3.008   7.446 -0.4387 -0.3926 -0.3784
 5043SOL     OW26761   0.504   0.182   5.141 -0.1803 -0.6566 -0.3568
 5043SOL    HW126762   0.549   0.130   5.075  2.7400 -0.0290  1.1434
 5043SOL    HW226763   0.417   0.191   5.101 -0.0016  1.1062 -0.3460
 5044SOL     OW26764   2.723   3.529   4.489 -1.0141 -0.1686 -0.3933
 5044SOL    HW126765   2.691   3.439   4.496 -1.1335 -0.0838  0.1492
 5044SOL    HW226766   2.746   3.541   4.397 -0.5950 -0.7453 -0.3660
 5045SOL     OW26767   2.011   3.099  13.154  0.4145  0.4446  0.2961
 5045SOL    HW126768   2.004   3.149  13.072  2.0911  0.1178 -0.0444
 5045SOL    HW226769   2.034   3.011  13.126  1.6891 -0.0112  2.8078
 5046SOL     OW26770   0.969   2.100   3.619 -0.7363 -0.3891  0.0999
 5046SOL    HW126771   1.026   2.028   3.647 -1.5154 -0.6942  0.8955
 5046SOL    HW226772   1.013   2.175   3.660  2.0437 -1.6763 -0.5811
 5047SOL     OW26773   3.108   1.640   0.405 -0.3115 -0.8960  0.0280
 5047SOL    HW126774   3.108   1.637   0.500 -1.2563  0.7223  0.0644
 5047SOL    HW226775   3.061   1.557   0.393  1.5038 -1.7265 -1.4341
 5048SOL     OW26776   3.940   2.691   1.897  0.8562  0.0685  0.2335
 5048SOL    HW126777   4.026   2.654   1.881  1.4550  1.7215 -0.3642
 5048SOL    HW226778   3.969   2.779   1.922 -0.3394  0.2222  1.0623
 5049SOL     OW26779   2.136   0.110   0.446 -0.0479 -0.4122  0.1856
 5049SOL    HW126780   2.098   0.187   0.488 -1.1455 -0.2169 -1.1673
 5049SOL    HW226781   2.084   0.033   0.470 -0.1840 -0.4324 -0.1824
 5050SOL     OW26782   0.377   2.883   4.475  0.0661  0.0586  0.0052
 5050SOL    HW126783   0.430   2.907   4.400  0.6503  0.4588  0.5510
 5050SOL    HW226784   0.301   2.935   4.448  0.5694  0.9057  0.2502
 5051SOL     OW26785   4.700   4.150   6.995 -0.9864  0.1492  0.8617
 5051SOL    HW126786   4.650   4.107   6.926 -0.3669 -0.1339  0.5862
 5051SOL    HW226787   4.734   4.071   7.037 -0.3437 -0.0715 -0.0833
 5052SOL     OW26788   4.482   0.478   7.253 -0.2104  0.2076  0.2928
 5052SOL    HW126789   4.564   0.437   7.225 -0.2377  0.6812 -0.4871
 5052SOL    HW226790   4.496   0.570   7.233  1.5216  0.2884  1.8681
 5053SOL     OW26791   2.641   3.534   2.271 -0.0518 -0.1863  0.3380
 5053SOL    HW126792   2.668   3.548   2.362 -0.4988  0.1672  0.4211
 5053SOL    HW226793   2.724   3.534   2.225  0.2804  2.4742  0.9137
 5054SOL     OW26794   0.933   1.796   4.770  0.0428 -0.7958 -0.4676
 5054SOL    HW126795   0.852   1.835   4.804 -0.4386 -1.1374 -1.2258
 5054SOL    HW226796   0.895   1.716   4.733  0.4426 -1.3765  0.3744
 5055SOL     OW26797   4.177   2.483   2.963 -0.0361 -0.1344  0.1997
 5055SOL    HW126798   4.147   2.411   3.018 -1.3019 -2.0201 -2.9755
 5055SOL    HW226799   4.138   2.478   2.876 -1.0839 -0.5921  0.6966
 5056SOL     OW26800   3.411   1.328   6.367  0.0653  0.1958 -0.0755
 5056SOL    HW126801   3.398   1.234   6.359  1.4286  0.1338 -1.6685
 5056SOL    HW226802   3.328   1.355   6.325 -0.5793  1.3822  1.9795
 5057SOL     OW26803   3.699   3.368  11.881 -0.1720  0.7495  0.2616
 5057SOL    HW126804   3.736   3.298  11.935  1.7385  0.3197 -1.6034
 5057SOL    HW226805   3.778   3.417  11.859 -0.4754  0.4958 -1.3765
 5058SOL     OW26806   1.802   2.332   5.426 -0.5640 -0.1069 -0.3876
 5058SOL    HW126807   1.811   2.259   5.487  0.8574  0.0924 -0.3715
 5058SOL    HW226808   1.779   2.389   5.499 -0.3307 -0.5032  0.0003
 5059SOL     OW26809   4.148   4.188   2.851 -0.2121 -0.1086 -0.1237
 5059SOL    HW126810   4.074   4.214   2.907  0.2243  0.9268 -0.0397
 5059SOL    HW226811   4.116   4.218   2.765 -0.1636 -1.8378 -0.7537
 5060SOL     OW26812   1.786   4.302   2.789 -0.5146  0.0861  0.2997
 5060SOL    HW126813   1.706   4.354   2.780 -0.4938 -0.2694 -1.9762
 5060SOL    HW226814   1.848   4.356   2.837  0.1654 -1.8593  1.6193
 5061SOL     OW26815   0.200   3.039   4.355 -0.0551 -0.3752 -0.4286
 5061SOL    HW126816   0.161   3.111   4.404 -0.7515 -0.6399 -0.5837
 5061SOL    HW226817   0.125   3.025   4.297  1.2461 -0.6278 -2.0480
 5062SOL     OW26818   3.906   2.580   7.263 -0.4508  0.3195  0.0131
 5062SOL    HW126819   3.950   2.626   7.335  1.9777 -1.3449 -0.4230
 5062SOL    HW226820   3.982   2.538   7.225 -0.5463 -0.4908  0.7065
 5063SOL     OW26821   0.546   0.480   3.637 -0.6787 -0.2474 -0.2256
 5063SOL    HW126822   0.518   0.552   3.581  1.2979  0.7370  0.0703
 5063SOL    HW226823   0.522   0.514   3.723  1.1405  0.3742  0.0326
 5064SOL     OW26824   3.275   3.516   8.799  0.2181  0.2573 -0.4446
 5064SOL    HW126825   3.298   3.551   8.885  0.2966 -0.1067 -0.3161
 5064SOL    HW226826   3.208   3.580   8.775  0.6853  0.9471  0.0989
 5065SOL     OW26827   2.514   1.142   8.060 -0.4155 -0.2279 -0.3221
 5065SOL    HW126828   2.544   1.058   8.025 -0.6074 -0.4934  0.1503
 5065SOL    HW226829   2.542   1.204   7.993 -0.1027 -0.0385 -0.0138
 5066SOL     OW26830   2.131   0.595   4.232 -0.0651 -0.5319  0.1427
 5066SOL    HW126831   2.107   0.636   4.149  1.5231  0.6064  0.2498
 5066SOL    HW226832   2.139   0.673   4.287  0.5813  1.1956 -2.3905
 5067SOL     OW26833   0.668   3.521   2.374 -0.3046 -0.3017  0.5108
 5067SOL    HW126834   0.654   3.500   2.282 -2.6840  0.5252  0.7025
 5067SOL    HW226835   0.630   3.441   2.410 -2.0959  0.0486 -0.6432
 5068SOL     OW26836   2.311   3.024   2.160  0.4622  0.0947 -0.9146
 5068SOL    HW126837   2.396   2.985   2.140  0.0712 -0.2809 -1.8455
 5068SOL    HW226838   2.335   3.022   2.253 -1.8720 -1.3904 -0.3472
 5069SOL     OW26839   0.365   1.610  16.656 -0.0586  0.0734  0.0840
 5069SOL    HW126840   0.456   1.639  16.661 -0.0357  0.2481 -1.4047
 5069SOL    HW226841   0.333   1.683  16.603  0.7543 -1.9862 -3.1991
 5070SOL     OW26842   4.093   0.571   5.963 -0.0365  0.3496 -0.9747
 5070SOL    HW126843   4.021   0.551   5.903  0.3323 -1.7777 -0.7042
 5070SOL    HW226844   4.085   0.665   5.979  1.7118  0.9947 -3.9795
 5071SOL     OW26845   3.623   0.316   5.520  0.0345  0.3436 -0.4206
 5071SOL    HW126846   3.537   0.354   5.537  1.0351  1.3088  2.4341
 5071SOL    HW226847   3.616   0.232   5.565  2.7196 -0.8815 -2.2346
 5072SOL     OW26848   1.893   0.070   7.506 -1.0389  0.6934  0.2260
 5072SOL    HW126849   1.825   0.012   7.473 -0.2898  0.2060 -0.4607
 5072SOL    HW226850   1.841   0.132   7.558  0.6508  0.9399  1.6418
 5073SOL     OW26851   1.022   4.349   1.529  0.2319  0.8545  0.2068
 5073SOL    HW126852   1.116   4.341   1.540  0.2064  0.3689  0.0706
 5073SOL    HW226853   1.000   4.387   1.615  1.7235  1.9742  0.1008
 5074SOL     OW26854   4.325   3.051   1.875  0.1437  0.0629 -0.5665
 5074SOL    HW126855   4.315   2.975   1.818  0.1893  0.6782 -1.3807
 5074SOL    HW226856   4.404   3.034   1.927 -0.6878 -1.5661  0.1526
 5075SOL     OW26857   2.472   0.891   6.275 -0.1865  0.4590  0.2048
 5075SOL    HW126858   2.545   0.942   6.308 -0.7107  2.9516 -2.4625
 5075SOL    HW226859   2.501   0.893   6.183  3.3561  1.6054  1.3693
 5076SOL     OW26860   0.130   1.260   8.253 -0.1431  0.1933 -0.2339
 5076SOL    HW126861   0.218   1.291   8.233 -0.8553  2.8408  0.7009
 5076SOL    HW226862   0.120   1.196   8.183  0.4592  0.7206 -0.8012
 5077SOL     OW26863   4.263   0.121   9.491 -0.4679 -0.2536  0.0354
 5077SOL    HW126864   4.219   0.039   9.515 -1.9972  0.4476 -0.3605
 5077SOL    HW226865   4.197   0.160   9.433  1.5420  1.9468 -0.7769
 5078SOL     OW26866   3.519   3.964  10.767  0.3240  0.3896 -0.0508
 5078SOL    HW126867   3.612   3.960  10.748 -0.5325  0.4326 -4.2303
 5078SOL    HW226868   3.514   4.054  10.800  3.2421  0.1102  1.1085
 5079SOL     OW26869   1.979   2.695   5.888 -0.1992 -0.1643 -0.0933
 5079SOL    HW126870   2.033   2.723   5.815 -0.1307 -2.1132 -0.7860
 5079SOL    HW226871   1.890   2.694   5.852 -0.4197 -1.9906  0.4744
 5080SOL     OW26872   2.843   3.956  17.171 -0.1346  0.0783 -0.2386
 5080SOL    HW126873   2.890   4.038  17.156  0.0845  0.2817  1.6134
 5080SOL    HW226874   2.891   3.917  17.243  1.8725 -0.6855 -1.9937
 5081SOL     OW26875   2.982   3.252   4.631 -0.0567 -0.5363 -0.5106
 5081SOL    HW126876   2.943   3.208   4.555  1.7032 -0.8230 -1.2393
 5081SOL    HW226877   2.908   3.236   4.690  1.9969  2.0617  2.7435
 5082SOL     OW26878   4.257   3.396   4.310  0.1262  0.6098 -0.3219
 5082SOL    HW126879   4.335   3.392   4.366  1.7240 -1.2415 -2.6220
 5082SOL    HW226880   4.195   3.442   4.365  1.3274  0.0102  1.5593
 5083SOL     OW26881   1.543   4.470   2.847 -0.2515 -0.1180 -0.5480
 5083SOL    HW126882   1.550   4.562   2.822  0.6261  0.0007  0.1381
 5083SOL    HW226883   1.466   4.446   2.797 -1.1071  0.4943  0.4746
 5084SOL     OW26884   0.925   2.029  12.666  0.4490  0.1340  0.2908
 5084SOL    HW126885   0.969   2.043  12.749  1.3947  1.6164 -0.4733
 5084SOL    HW226886   0.987   2.039  12.594 -0.1136  0.4339 -0.1494
 5085SOL     OW26887   1.931   2.212  13.413  0.2982 -0.2086 -0.4974
 5085SOL    HW126888   1.955   2.168  13.494  1.8892  0.0926 -0.8167
 5085SOL    HW226889   1.838   2.210  13.435  0.8425 -0.4778  1.7216
 5086SOL     OW26890   3.244   1.388   6.150 -0.6044 -0.2846 -0.8419
 5086SOL    HW126891   3.172   1.417   6.095  1.1536  2.2409 -1.8282
 5086SOL    HW226892   3.273   1.311   6.101 -2.0907 -1.4477  0.1083
 5087SOL     OW26893   3.545   2.359   8.729 -0.1099  0.3043 -0.1106
 5087SOL    HW126894   3.590   2.302   8.666  0.2136  1.5099 -0.9674
 5087SOL    HW226895   3.469   2.306   8.752 -1.0050  1.3990 -0.5567
 5088SOL     OW26896   2.190   4.157  10.143  0.4091  0.1429 -0.2961
 5088SOL    HW126897   2.259   4.153  10.078  1.2640  1.2686  0.5388
 5088SOL    HW226898   2.117   4.197  10.096 -0.3469 -1.0786 -0.1679
 5089SOL     OW26899   3.615   2.981   7.511  0.0568  0.2700 -0.3417
 5089SOL    HW126900   3.663   3.059   7.484  0.2963  0.0392 -0.5817
 5089SOL    HW226901   3.683   2.917   7.532 -1.6927 -1.3361  0.3777
 5090SOL     OW26902   3.190   0.145   6.682  0.4607 -0.0066 -0.0600
 5090SOL    HW126903   3.279   0.157   6.717  1.1140  0.8199 -1.9356
 5090SOL    HW226904   3.141   0.127   6.762 -2.0056  1.1599 -1.3246
 5091SOL     OW26905   2.702   1.775  16.542  0.7017 -0.0874  0.2193
 5091SOL    HW126906   2.621   1.819  16.570  1.9241  1.6416  1.0191
 5091SOL    HW226907   2.662   1.708  16.487  1.6024 -1.1906  0.8982
 5092SOL     OW26908   4.718   3.346   7.880 -0.2456 -0.6564 -0.5477
 5092SOL    HW126909   4.722   3.271   7.938  1.9854  1.1328  1.6181
 5092SOL    HW226910   4.635   3.322   7.837 -0.0506 -0.1106 -1.2367
 5093SOL     OW26911   4.456   4.586   2.146  0.2527  0.2839 -0.4433
 5093SOL    HW126912   4.490   4.548   2.227 -3.4848  0.0362  1.0292
 5093SOL    HW226913   4.409   4.659   2.187 -1.0754 -1.0639  0.4719
 5094SOL     OW26914   1.422   0.560   8.342 -0.2307 -0.3074 -0.1934
 5094SOL    HW126915   1.462   0.526   8.422 -0.2112  0.7969  0.2593
 5094SOL    HW226916   1.362   0.485   8.343 -2.2145  1.2594 -1.2884
 5095SOL     OW26917   0.569   0.305   7.094  0.0651  0.1909 -0.5782
 5095SOL    HW126918   0.573   0.289   6.999  1.6285 -0.3320 -0.4280
 5095SOL    HW226919   0.654   0.346   7.113 -0.2601 -0.3557  2.0067
 5096SOL     OW26920   1.104   1.168  14.291 -0.1482  0.0298  0.4321
 5096SOL    HW126921   1.028   1.111  14.280 -2.5398  3.5435 -1.2330
 5096SOL    HW226922   1.097   1.218  14.210  1.9797 -0.6510 -0.1563
 5097SOL     OW26923   4.379   1.215  12.531 -0.0242 -0.4506  0.3474
 5097SOL    HW126924   4.351   1.123  12.528 -1.8760  0.1327 -0.3432
 5097SOL    HW226925   4.457   1.208  12.585  0.3696 -2.0202 -0.4078
 5098SOL     OW26926   4.345   4.120   5.569 -0.4670 -0.2173 -0.6340
 5098SOL    HW126927   4.397   4.163   5.637 -0.2964  0.5523 -1.2616
 5098SOL    HW226928   4.398   4.140   5.492  0.6102 -0.1381  0.1246
 5099SOL     OW26929   1.554   3.491  14.146  0.1332  0.0878 -0.5708
 5099SOL    HW126930   1.553   3.478  14.051 -0.9912 -0.1668 -0.5212
 5099SOL    HW226931   1.518   3.406  14.172  1.1279 -0.1582  0.0260
 5100SOL     OW26932   3.867   0.210   4.185 -0.4880 -0.0877  0.1896
 5100SOL    HW126933   3.815   0.176   4.113  0.5250  1.8139 -1.4364
 5100SOL    HW226934   3.868   0.145   4.255  0.2644  0.3593  0.5980
 5101SOL     OW26935   2.387   2.198   1.534 -0.3971  0.2558 -0.4179
 5101SOL    HW126936   2.383   2.226   1.625 -1.4056  0.6871 -0.5939
 5101SOL    HW226937   2.470   2.154   1.516 -1.2359 -1.5967  0.1847
 5102SOL     OW26938   2.398   4.700   3.624 -0.2345  0.3215 -0.4148
 5102SOL    HW126939   2.307   4.692   3.653 -0.2021  4.1093  0.7110
 5102SOL    HW226940   2.438   4.733   3.704 -0.4726  2.6768 -1.2479
 5103SOL     OW26941   3.900   4.439   3.679  0.1289  0.4553  0.2260
 5103SOL    HW126942   3.848   4.359   3.689  0.6136  0.2170  0.8375
 5103SOL    HW226943   3.947   4.436   3.763 -0.8750  0.1067  0.7827
 5104SOL     OW26944   1.107   3.412  16.672 -0.5286  0.3994  0.4855
 5104SOL    HW126945   1.074   3.384  16.587  4.1253  0.6751 -1.3783
 5104SOL    HW226946   1.201   3.409  16.656 -0.6378  1.5431 -0.3220
 5105SOL     OW26947   1.436   0.454   2.895 -0.6431  0.6697 -0.5208
 5105SOL    HW126948   1.497   0.503   2.949  0.5251 -1.9683  0.5404
 5105SOL    HW226949   1.409   0.379   2.948  1.6469  2.2398  2.8200
 5106SOL     OW26950   2.911   0.038  10.649  0.0812 -0.4311  0.0310
 5106SOL    HW126951   2.934   0.060  10.739  0.2025  2.2365 -0.6312
 5106SOL    HW226952   2.996   0.028  10.607 -0.0261  1.5868 -0.6802
 5107SOL     OW26953   2.525   0.477   1.239  0.0344  0.1424  0.6891
 5107SOL    HW126954   2.491   0.387   1.243  0.8573 -0.1800  0.3711
 5107SOL    HW226955   2.602   0.470   1.295 -0.3005  1.1158  1.2791
 5108SOL     OW26956   2.125   0.224   1.429  0.4704  0.6463  0.3382
 5108SOL    HW126957   2.127   0.251   1.337  3.7727 -0.9896 -0.0689
 5108SOL    HW226958   2.212   0.252   1.456  0.5659  0.7121 -0.0272
 5109SOL     OW26959   0.418   4.663  13.218 -0.9377  0.6176  0.0874
 5109SOL    HW126960   0.403   0.000  13.279  2.9261  1.3336  0.1559
 5109SOL    HW226961   0.399   4.711  13.138 -2.1640 -1.3753 -0.8123
 5110SOL     OW26962   0.391   0.259   2.059 -0.1024  0.0444 -0.4675
 5110SOL    HW126963   0.303   0.224   2.075 -0.1878  0.3864 -0.1686
 5110SOL    HW226964   0.420   0.281   2.148 -0.5648 -2.7574  0.3835
 5111SOL     OW26965   1.280   0.248   7.823  0.2070  0.4352 -0.3413
 5111SOL    HW126966   1.295   0.188   7.897  1.0617  0.6265 -0.3548
 5111SOL    HW226967   1.310   0.191   7.753 -1.8117  1.2758 -1.9002
 5112SOL     OW26968   2.246   0.923   1.783  0.2552 -0.1228 -0.3220
 5112SOL    HW126969   2.297   0.866   1.725 -0.4648  0.1333 -1.2148
 5112SOL    HW226970   2.177   0.957   1.726  0.5082 -0.6780 -0.9653
 5113SOL     OW26971   3.180   2.322   4.424  0.0053 -0.0551 -0.2133
 5113SOL    HW126972   3.158   2.344   4.514  1.7906 -0.1661  0.2506
 5113SOL    HW226973   3.091   2.302   4.393  0.0501 -1.7602  0.7682
 5114SOL     OW26974   2.812   0.413   7.649 -0.2142  0.4057 -0.0042
 5114SOL    HW126975   2.749   0.442   7.715  1.1227  2.8506  0.1995
 5114SOL    HW226976   2.794   0.319   7.642 -0.4496  0.5691 -1.5272
 5115SOL     OW26977   3.907   0.702  14.591  0.4405 -0.0357 -0.0263
 5115SOL    HW126978   3.849   0.685  14.517  0.4255 -0.4620  0.0824
 5115SOL    HW226979   3.971   0.761  14.553  0.4026  0.1859  0.2507
 5116SOL     OW26980   3.593   3.972   0.861  0.0512 -0.4579 -1.1690
 5116SOL    HW126981   3.681   3.956   0.826 -0.2486 -2.0539 -1.1894
 5116SOL    HW226982   3.549   3.945   0.780 -2.7911 -3.7059  1.4641
 5117SOL     OW26983   2.220   4.368   7.464  0.2932  0.2134 -0.1121
 5117SOL    HW126984   2.173   4.451   7.468  0.3455  0.2466 -0.1851
 5117SOL    HW226985   2.292   4.389   7.405  1.1797  0.3999  1.0263
 5118SOL     OW26986   2.766   4.114   7.750  0.1739 -0.2952  0.0820
 5118SOL    HW126987   2.830   4.044   7.768  0.4060 -0.5464 -1.6871
 5118SOL    HW226988   2.804   4.189   7.796  1.0979 -1.0699  0.6029
 5119SOL     OW26989   2.277   3.070  12.842  0.4814  0.4295 -0.0530
 5119SOL    HW126990   2.318   2.986  12.822  0.9122  0.2357  1.6397
 5119SOL    HW226991   2.338   3.108  12.906 -0.6243  0.8795  0.7306
 5120SOL     OW26992   4.427   3.062   7.923  0.0246  0.5068  0.1665
 5120SOL    HW126993   4.436   2.967   7.918 -1.0003  0.4339 -0.1047
 5120SOL    HW226994   4.352   3.076   7.981  0.2481  2.3542  0.0270
 5121SOL     OW26995   2.491   1.156  11.130  0.0248  1.1099 -0.2234
 5121SOL    HW126996   2.547   1.234  11.125  1.2699  0.2141 -0.2501
 5121SOL    HW226997   2.430   1.186  11.197  0.4113  2.2686 -0.3952
 5122SOL     OW26998   4.088   2.967   3.692 -0.1694 -0.2265 -0.0853
 5122SOL    HW126999   4.109   3.032   3.760  3.6425 -2.2774  0.6600
 5122SOL    HW227000   4.001   3.007   3.688  0.6153  1.6374  1.2133
 5123SOL     OW27001   4.256   2.164  12.054  0.7594 -0.2486 -0.1058
 5123SOL    HW127002   4.242   2.070  12.045 -1.5055 -0.0052  0.8387
 5123SOL    HW227003   4.299   2.179  12.138  0.3017 -1.6329  0.3679
 5124SOL     OW27004   1.871   2.679   9.765 -0.1426 -0.2677  0.1223
 5124SOL    HW127005   1.864   2.641   9.853 -2.9336 -2.9863 -1.2656
 5124SOL    HW227006   1.928   2.755   9.766  0.7771 -0.9503 -0.6305
 5125SOL     OW27007   4.153   4.591   5.524 -0.0824  0.5874 -0.2791
 5125SOL    HW127008   4.247   4.582   5.505  0.2743  0.8239  1.3631
 5125SOL    HW227009   4.160   4.615   5.616  0.6832  0.0392 -0.1883
 5126SOL     OW27010   1.163   4.472   5.766  0.7898 -0.8320  0.1236
 5126SOL    HW127011   1.104   4.533   5.810 -0.1620 -1.1221 -0.7718
 5126SOL    HW227012   1.105   4.419   5.712  0.2346  0.6828 -0.7641
 5127SOL     OW27013   2.788   2.953   5.463 -0.3233  0.3689 -0.2307
 5127SOL    HW127014   2.693   2.961   5.455 -0.4228 -0.9746 -0.4297
 5127SOL    HW227015   2.823   2.951   5.374  0.0741  1.5721 -0.0953
 5128SOL     OW27016   3.299   2.743   5.058 -0.0439 -0.3141  0.2647
 5128SOL    HW127017   3.296   2.785   5.144 -1.1129  0.4795 -0.1612
 5128SOL    HW227018   3.370   2.679   5.062 -0.0063 -0.0444  3.9132
 5129SOL     OW27019   4.634   1.224   8.434  0.0435 -0.2079 -0.4951
 5129SOL    HW127020   4.719   1.253   8.401 -0.0790  0.7509  0.0378
 5129SOL    HW227021   4.613   1.146   8.382 -0.9360 -0.2662 -0.0138
 5130SOL     OW27022   4.464   1.137   9.087 -1.0261 -0.3562 -0.5506
 5130SOL    HW127023   4.459   1.058   9.034  0.0944  0.7483 -2.2939
 5130SOL    HW227024   4.442   1.117   9.178 -2.5904 -0.6693 -1.0044
 5131SOL     OW27025   0.758   3.498  14.435  0.1535 -0.1358  0.0903
 5131SOL    HW127026   0.841   3.542  14.454  0.6712 -0.5795 -1.1476
 5131SOL    HW227027   0.691   3.547  14.483  0.4320 -0.3264  0.6677
 5132SOL     OW27028   1.669   1.700  10.163 -0.2955  0.2827  0.1424
 5132SOL    HW127029   1.702   1.629  10.218 -1.4709  0.3376  0.9205
 5132SOL    HW227030   1.674   1.651  10.082 -0.4793  0.7084 -0.1268
 5133SOL     OW27031   4.591   3.441   6.761 -0.2794 -0.0562 -0.1622
 5133SOL    HW127032   4.676   3.456   6.720 -0.7543  1.7239 -0.5064
 5133SOL    HW227033   4.533   3.505   6.719 -1.0344 -1.9838 -2.0668
 5134SOL     OW27034   2.635   0.529   8.041 -0.0674 -0.9446 -0.6954
 5134SOL    HW127035   2.729   0.530   8.063 -0.1935 -0.7233 -0.1767
 5134SOL    HW227036   2.623   0.596   7.974  0.1226 -1.4682 -1.2650
 5135SOL     OW27037   0.415   1.419   3.977  0.1107 -0.3014 -0.3726
 5135SOL    HW127038   0.389   1.337   3.934  1.0486 -0.6791 -0.2192
 5135SOL    HW227039   0.503   1.396   4.007 -0.3677 -1.5995  0.0109
 5136SOL     OW27040   2.118   3.278   5.054  0.2483  0.0906 -0.2191
 5136SOL    HW127041   2.073   3.357   5.024  1.2704  0.4111 -0.8898
 5136SOL    HW227042   2.084   3.211   4.995  0.4153 -0.7439  0.6293
 5137SOL     OW27043   0.205   3.071  14.298 -0.1641 -0.0240  0.4643
 5137SOL    HW127044   0.138   3.114  14.351  0.4571  0.9496  0.4708
 5137SOL    HW227045   0.273   3.138  14.294  0.4523 -0.4706  3.1928
 5138SOL     OW27046   2.825   3.060   3.120 -0.2969  0.2324 -0.6550
 5138SOL    HW127047   2.838   3.139   3.068  0.1901  1.1119  0.7994
 5138SOL    HW227048   2.805   2.991   3.056 -1.8609 -0.3921  0.5331
 5139SOL     OW27049   1.081   4.331   7.598  0.3420 -0.0346 -0.3202
 5139SOL    HW127050   1.133   4.375   7.530  1.2254  0.9078  0.9521
 5139SOL    HW227051   1.068   4.407   7.655 -2.0365  1.3504 -2.7532
 5140SOL     OW27052   3.056   3.290   6.099 -0.0496 -0.3086 -0.5627
 5140SOL    HW127053   3.083   3.284   6.008  0.3733  1.3869 -0.5527
 5140SOL    HW227054   3.103   3.369   6.127 -0.1009 -0.3695 -0.3008
 5141SOL     OW27055   1.340   3.494  16.554  0.0489  0.5501 -0.0803
 5141SOL    HW127056   1.408   3.557  16.578  1.6974 -0.9610 -0.8653
 5141SOL    HW227057   1.298   3.533  16.477  1.6943 -0.3910 -1.4399
 5142SOL     OW27058   0.937   2.016   7.112  0.0380  0.3972 -0.4423
 5142SOL    HW127059   0.857   2.035   7.162  0.8635  0.7303  0.7534
 5142SOL    HW227060   0.886   2.030   7.032  2.4515 -1.7378 -2.3050
 5143SOL     OW27061   0.834   0.066   8.363  0.0688  0.1988  0.3926
 5143SOL    HW127062   0.871   0.028   8.284 -1.0040  1.9859 -0.9674
 5143SOL    HW227063   0.803   0.154   8.344 -1.1924 -0.6879 -1.6619
 5144SOL     OW27064   2.420   4.492   5.933 -0.0819 -0.5366 -0.3472
 5144SOL    HW127065   2.444   4.568   5.986 -0.8167 -0.8764  0.4795
 5144SOL    HW227066   2.464   4.421   5.978  3.4276  2.1866  0.4497
 5145SOL     OW27067   4.634   2.393   3.712 -0.0238 -0.0718  0.0617
 5145SOL    HW127068   4.723   2.419   3.737 -0.4509 -1.1039  2.6163
 5145SOL    HW227069   4.634   2.458   3.641  1.7211  1.2783  1.3006
 5146SOL     OW27070   4.131   3.819   7.148  0.0664  0.7129 -0.1409
 5146SOL    HW127071   4.177   3.800   7.066 -1.8561 -2.5780 -0.4760
 5146SOL    HW227072   4.102   3.910   7.144  0.0840  0.6747 -1.0188
 5147SOL     OW27073   0.440   3.848   7.196  0.1279 -0.6426  0.3025
 5147SOL    HW127074   0.361   3.827   7.245 -0.4104  0.0720 -0.2689
 5147SOL    HW227075   0.441   3.944   7.199 -1.4365 -0.6205  0.0304
 5148SOL     OW27076   2.385   1.579   4.508  0.7900 -0.1607 -0.8838
 5148SOL    HW127077   2.362   1.666   4.478  1.2922  1.2589  2.8999
 5148SOL    HW227078   2.338   1.572   4.591  3.3239 -1.7968  0.4177
 5149SOL     OW27079   0.027   2.141  14.433 -0.4284  0.6836  0.2893
 5149SOL    HW127080   4.722   2.181  14.356  2.0888  0.0039 -1.3977
 5149SOL    HW227081   0.118   2.170  14.429  0.2875 -1.5527  0.1578
 5150SOL     OW27082   0.145   2.729   3.264  0.0435 -0.0325 -0.5120
 5150SOL    HW127083   0.107   2.811   3.232  1.0878  0.3051 -0.8900
 5150SOL    HW227084   0.080   2.668   3.231  0.0355  0.2876 -1.0921
 5151SOL     OW27085   1.450   3.791   7.112 -0.4907  0.1148 -0.2245
 5151SOL    HW127086   1.454   3.751   7.025 -1.9129 -0.2675 -0.1113
 5151SOL    HW227087   1.477   3.711   7.158 -2.0385  0.4200  1.1875
 5152SOL     OW27088   3.672   2.495   8.192  0.1246 -0.1555  0.1697
 5152SOL    HW127089   3.740   2.537   8.139  0.9855 -1.1334  0.4904
 5152SOL    HW227090   3.708   2.487   8.281 -1.6010  0.2538  0.9099
 5153SOL     OW27091   2.360   0.336   8.444 -0.0743 -0.3666  0.2733
 5153SOL    HW127092   2.399   0.384   8.371 -1.1161  1.5975  1.0245
 5153SOL    HW227093   2.338   0.406   8.505 -1.0924 -1.3611  1.0421
 5154SOL     OW27094   2.573   2.036   4.198  0.2580  0.5336 -0.6521
 5154SOL    HW127095   2.485   2.013   4.168  0.7465 -3.3326  0.9281
 5154SOL    HW227096   2.594   1.966   4.259 -0.2418  1.8096  1.0081
 5155SOL     OW27097   1.693   2.321   4.923  0.4850  0.2209 -0.5291
 5155SOL    HW127098   1.643   2.239   4.923 -0.0117  0.5277  2.9887
 5155SOL    HW227099   1.689   2.341   5.017  0.9365  1.9460 -0.8743
 5156SOL     OW27100   4.373   4.411   1.943  0.0013 -0.1500 -0.3366
 5156SOL    HW127101   4.308   4.476   1.917  3.0711  2.7708 -0.6060
 5156SOL    HW227102   4.421   4.479   1.990 -1.1059  0.1365  0.3831
 5157SOL     OW27103   3.827   3.219  12.983  0.2175  0.4366 -0.3367
 5157SOL    HW127104   3.845   3.222  13.076 -0.6748 -0.7878 -0.1162
 5157SOL    HW227105   3.910   3.245  12.942  0.8467 -0.8007  0.1255
 5158SOL     OW27106   3.010   2.303   9.185  0.5922 -0.3836  0.6272
 5158SOL    HW127107   2.988   2.394   9.164 -2.6615 -1.0927  1.0991
 5158SOL    HW227108   3.105   2.309   9.173  0.3079  0.3306 -1.2639
 5159SOL     OW27109   1.918   3.769   2.264  0.1357 -0.3484 -0.3605
 5159SOL    HW127110   1.870   3.707   2.209  2.2048 -2.1241 -0.1847
 5159SOL    HW227111   1.931   3.828   2.190  0.1060  0.3015  0.1628
 5160SOL     OW27112   3.452   2.522  17.164 -0.6788 -0.2111  0.1236
 5160SOL    HW127113   3.406   2.507  17.081  0.3983 -1.0190 -0.3288
 5160SOL    HW227114   3.532   2.471  17.154 -0.4747  0.1109  0.1306
 5161SOL     OW27115   0.085   0.474  14.582  0.4601 -0.3247  0.3172
 5161SOL    HW127116   0.027   0.414  14.535 -0.3564 -0.2338  1.2227
 5161SOL    HW227117   0.104   0.426  14.662 -1.5927 -0.8766  0.4798
 5162SOL     OW27118   4.678   1.246   8.815  0.4341  0.0203 -0.0450
 5162SOL    HW127119   4.709   1.310   8.879 -2.4073  1.9630 -0.6257
 5162SOL    HW227120   4.716   1.165   8.848  1.2878  0.1338 -0.7378
 5163SOL     OW27121   3.925   0.568   1.432  0.0758  0.3698  0.3355
 5163SOL    HW127122   3.960   0.592   1.518 -1.0425  0.2269  0.8415
 5163SOL    HW227123   3.879   0.649   1.409 -1.9346 -0.2611  2.1408
 5164SOL     OW27124   0.965   2.466   3.148  0.2853 -0.2267 -0.2194
 5164SOL    HW127125   0.948   2.374   3.166  2.0589 -1.0731 -2.8147
 5164SOL    HW227126   0.875   2.499   3.143 -0.5747 -2.5120  0.4000
 5165SOL     OW27127   1.101   4.251   6.509 -0.2320  0.3392  0.0081
 5165SOL    HW127128   1.153   4.171   6.512 -1.3647 -0.3587  1.0987
 5165SOL    HW227129   1.020   4.202   6.516 -1.3388  1.8657 -1.9672
 5166SOL     OW27130   1.534   0.533  10.760  0.1145 -0.2457 -0.4395
 5166SOL    HW127131   1.460   0.477  10.783 -0.9729  0.1142 -3.0170
 5166SOL    HW227132   1.490   0.612  10.729  1.7797  0.4617 -1.0417
 5167SOL     OW27133   0.633   0.920   7.233  0.0416 -0.5090  0.5693
 5167SOL    HW127134   0.607   1.005   7.269 -0.7024 -0.3689 -0.3327
 5167SOL    HW227135   0.729   0.916   7.237  0.0849 -0.4294 -0.4195
 5168SOL     OW27136   1.495   2.358  10.509  0.1337 -0.4890 -0.0854
 5168SOL    HW127137   1.480   2.429  10.446  1.0529  0.6506  0.9740
 5168SOL    HW227138   1.445   2.284  10.477  0.5860 -0.9868  0.3707
 5169SOL     OW27139   3.496   0.853   0.100 -0.0395 -0.0846 -0.1990
 5169SOL    HW127140   3.585   0.831   0.072  0.1238  0.9654 -0.5174
 5169SOL    HW227141   3.522   0.932   0.148 -1.1834 -0.6834  1.3895
 5170SOL     OW27142   2.334   0.373  11.562  0.0064 -0.0201  0.1090
 5170SOL    HW127143   2.262   0.347  11.505 -0.4912  1.2789  0.1408
 5170SOL    HW227144   2.405   0.329  11.514 -1.2594 -0.1275 -1.6936
 5171SOL     OW27145   2.046   0.554   1.091 -0.4964  0.4719  0.1866
 5171SOL    HW127146   2.057   0.473   1.042  2.4695  0.5054  0.8224
 5171SOL    HW227147   1.956   0.543   1.123  0.1692 -0.6219  1.6813
 5172SOL     OW27148   4.617   0.921   7.017 -0.3567  0.1092  0.4255
 5172SOL    HW127149   4.543   0.914   7.078  1.2528 -4.4046  1.9163
 5172SOL    HW227150   4.589   0.983   6.950 -0.5992 -1.0419 -0.5375
 5173SOL     OW27151   0.938   4.474   3.485 -0.3779 -0.6836 -0.1214
 5173SOL    HW127152   0.848   4.444   3.496 -0.7164  1.4398  2.8045
 5173SOL    HW227153   0.955   4.415   3.412 -3.6894 -1.7083 -0.0647
 5174SOL     OW27154   0.661   2.537   4.408  0.3046 -0.1328 -0.6223
 5174SOL    HW127155   0.727   2.562   4.473 -0.4849  2.1386 -0.7168
 5174SOL    HW227156   0.700   2.562   4.325 -3.7081  1.8865 -1.8687
 5175SOL     OW27157   0.336   0.279   6.631 -0.0317  0.0985 -0.3500
 5175SOL    HW127158   0.337   0.184   6.618  2.0010  0.2842 -1.5305
 5175SOL    HW227159   0.389   0.314   6.560 -0.5403  2.0643  0.2504
 5176SOL     OW27160   4.598   4.564   6.770 -0.0701 -0.8327  0.1599
 5176SOL    HW127161   4.553   4.495   6.720 -0.8616  2.2485 -3.3368
 5176SOL    HW227162   4.670   4.521   6.816 -0.3741  0.3125  1.6906
 5177SOL     OW27163   1.358   0.824   4.001 -0.2368  0.0821 -0.1452
 5177SOL    HW127164   1.287   0.760   3.998  1.7321 -2.0702 -1.0986
 5177SOL    HW227165   1.355   0.831   4.096  0.3775  0.8504 -0.1829
 5178SOL     OW27166   3.064   2.311   1.091  0.2542  0.3001 -0.4540
 5178SOL    HW127167   3.010   2.346   1.020  0.7800  2.5986  0.2863
 5178SOL    HW227168   3.116   2.241   1.052 -0.3122 -0.7889  0.7604
 5179SOL     OW27169   2.241   1.529  15.022 -0.5610  0.3354  0.2029
 5179SOL    HW127170   2.213   1.524  14.931  2.1045  0.3289 -0.6183
 5179SOL    HW227171   2.167   1.555  15.078 -0.8445  1.9509 -0.9007
 5180SOL     OW27172   0.247   1.784   9.174  0.1477 -0.1463  0.1210
 5180SOL    HW127173   0.181   1.739   9.227 -1.0171  4.3026  2.4443
 5180SOL    HW227174   0.329   1.760   9.218 -0.1139  2.2779  1.9288
 5181SOL     OW27175   3.324   4.143  12.871 -0.6783  0.0665 -0.2619
 5181SOL    HW127176   3.390   4.149  12.939 -3.3409 -1.4936  2.4963
 5181SOL    HW227177   3.314   4.236  12.852  0.5183  0.0682 -0.8311
 5182SOL     OW27178   2.658   0.718   8.419 -0.1503  0.4069  0.4866
 5182SOL    HW127179   2.741   0.693   8.459  0.5005  0.5385 -0.7830
 5182SOL    HW227180   2.674   0.811   8.406 -1.1412  0.2175 -2.1463
 5183SOL     OW27181   2.540   4.406  10.576 -1.3228 -0.1767  0.2924
 5183SOL    HW127182   2.501   4.351  10.643 -0.3143 -0.2270  0.8305
 5183SOL    HW227183   2.497   4.374  10.497 -1.3366  0.3025  0.1013
 5184SOL     OW27184   2.289   3.690   5.634  0.0355  0.0979  0.1948
 5184SOL    HW127185   2.317   3.720   5.721  0.7211 -0.4203  0.1487
 5184SOL    HW227186   2.212   3.747   5.633 -0.3903 -0.4082  2.7250
 5185SOL     OW27187   0.393   3.786   8.198 -0.1694  0.2975 -0.2865
 5185SOL    HW127188   0.477   3.809   8.157  1.1051 -0.8169  1.7041
 5185SOL    HW227189   0.345   3.818   8.122 -2.1863  0.7234  1.1641
 5186SOL     OW27190   0.214   3.765   5.823 -0.2598 -0.2613 -0.9522
 5186SOL    HW127191   0.176   3.697   5.767 -0.6508 -1.1284  0.3668
 5186SOL    HW227192   0.182   3.839   5.771 -0.3049  1.3409  1.3856
 5187SOL     OW27193   1.708   2.077   4.661 -0.1144 -0.2167 -0.2631
 5187SOL    HW127194   1.617   2.052   4.674  0.0811  0.0208  1.5868
 5187SOL    HW227195   1.758   1.995   4.665 -0.1604 -0.1589  1.7073
 5188SOL     OW27196   2.221   4.027   3.470 -0.6932 -0.0299  0.0825
 5188SOL    HW127197   2.275   4.026   3.550  0.8774 -1.6716 -0.9913
 5188SOL    HW227198   2.192   3.936   3.475  1.5449 -0.7894 -1.2294
 5189SOL     OW27199   1.476   0.725   1.644  0.0085 -0.3330 -0.5426
 5189SOL    HW127200   1.384   0.730   1.617 -0.2870 -1.3034  0.3284
 5189SOL    HW227201   1.493   0.812   1.679  1.5960 -1.4623  1.4513
 5190SOL     OW27202   4.606   4.394   9.288  0.7664  0.3934  0.5171
 5190SOL    HW127203   4.621   4.467   9.348 -2.7441  0.4181  1.3660
 5190SOL    HW227204   4.513   4.403   9.270  0.7398  0.2105  0.5633
 5191SOL     OW27205   4.154   3.929   9.216  0.3137  0.1493 -0.4069
 5191SOL    HW127206   4.169   3.990   9.288  0.5995 -1.3807  0.8056
 5191SOL    HW227207   4.066   3.958   9.189  0.7914  1.0309 -1.0171
 5192SOL     OW27208   2.896   3.758   0.449  0.0427  0.3234 -0.2994
 5192SOL    HW127209   2.904   3.674   0.404  1.4477  0.4357 -0.2648
 5192SOL    HW227210   2.930   3.823   0.386  0.5207  0.9135  0.5652
 5193SOL     OW27211   0.496   3.600   2.723 -0.2537 -0.0435  0.6275
 5193SOL    HW127212   0.581   3.585   2.682 -2.0101 -1.1392 -2.5774
 5193SOL    HW227213   0.510   3.694   2.719 -0.3680 -0.0729 -0.3513
 5194SOL     OW27214   3.094   2.203   8.330  0.7525 -0.0317  0.1893
 5194SOL    HW127215   3.096   2.159   8.245 -0.9430  0.6280 -0.1875
 5194SOL    HW227216   3.105   2.132   8.393  3.4130  0.8727  0.7432
 5195SOL     OW27217   3.569   4.280   7.845 -0.2994 -0.0759  0.2062
 5195SOL    HW127218   3.582   4.246   7.757  0.9328  0.1939  0.2805
 5195SOL    HW227219   3.652   4.258   7.886  0.0119  0.2150 -0.2620
 5196SOL     OW27220   1.309   1.470   0.604 -0.2027 -0.6116 -0.1168
 5196SOL    HW127221   1.326   1.565   0.606  0.3054 -0.6804 -1.3753
 5196SOL    HW227222   1.213   1.468   0.606 -0.1860 -1.1806 -0.1493
 5197SOL     OW27223   1.074   2.699  12.079 -0.2400  0.2979 -0.1049
 5197SOL    HW127224   1.049   2.789  12.097  2.0571  1.2160 -1.5670
 5197SOL    HW227225   1.106   2.707  11.989  1.5349  0.4560  0.5589
 5198SOL     OW27226   4.564   1.351  13.538 -0.1399  0.3834  0.2488
 5198SOL    HW127227   4.623   1.396  13.478 -2.1991  1.1258 -1.2100
 5198SOL    HW227228   4.623   1.285  13.574  0.3543  0.9410  0.4642
 5199SOL     OW27229   1.956   4.507   2.259 -0.0868  0.2437 -0.0384
 5199SOL    HW127230   1.957   4.413   2.245  1.4427 -0.0968  2.3892
 5199SOL    HW227231   1.968   4.532   2.167  1.2533  0.5070  0.2067
 5200SOL     OW27232   3.096   1.968   3.711  0.0971  0.8453  0.8839
 5200SOL    HW127233   3.073   2.029   3.781  1.0698  0.7085  1.3149
 5200SOL    HW227234   3.168   1.924   3.756  1.5112  2.9339  0.6738
 5201SOL     OW27235   2.092   0.132   1.688 -0.2715 -0.3531 -0.0800
 5201SOL    HW127236   2.009   0.085   1.700 -1.0262  0.3898 -2.3091
 5201SOL    HW227237   2.073   0.182   1.608 -1.0972 -0.9197 -0.2431
 5202SOL     OW27238   4.240   1.964   0.793  0.2328 -0.6715  0.0100
 5202SOL    HW127239   4.264   1.915   0.872 -1.7063  1.5911  1.9833
 5202SOL    HW227240   4.145   1.954   0.795  0.1126  0.1435 -1.7722
 5203SOL     OW27241   0.933   2.423  14.794 -0.3674  0.0368  0.7604
 5203SOL    HW127242   0.989   2.380  14.858 -0.1940 -1.3777 -0.3394
 5203SOL    HW227243   0.985   2.497  14.763  0.1627 -1.9887 -3.2812
 5204SOL     OW27244   1.707   3.620  13.121  0.4654  0.3975  0.2170
 5204SOL    HW127245   1.762   3.544  13.104 -0.8199 -0.2475 -1.0855
 5204SOL    HW227246   1.706   3.633  13.216 -0.0263 -0.8521  0.3820
 5205SOL     OW27247   3.353   3.909  15.724  0.2231 -0.2557 -0.0402
 5205SOL    HW127248   3.358   3.933  15.632 -1.3998 -0.4250 -0.1635
 5205SOL    HW227249   3.286   3.841  15.720  1.2762 -1.4270  1.7997
 5206SOL     OW27250   0.933   1.118  17.182  0.4318 -0.0184 -0.0092
 5206SOL    HW127251   0.886   1.102  17.101 -0.1029 -0.1322  0.3214
 5206SOL    HW227252   0.856   1.132  17.237 -1.1835  1.9129 -2.8038
 5207SOL     OW27253   3.055   2.571   7.307  0.4260 -0.3344  0.1926
 5207SOL    HW127254   2.990   2.501   7.311  0.8398 -0.5845  2.8174
 5207SOL    HW227255   3.021   2.626   7.237 -0.7272  0.0202  1.0345
 5208SOL     OW27256   4.420   0.193  11.788  0.2836  0.3486 -0.0034
 5208SOL    HW127257   4.498   0.248  11.790  1.8356 -1.7865 -1.5831
 5208SOL    HW227258   4.372   0.259  11.739  1.3944  0.7642 -0.5180
 5209SOL     OW27259   2.694   2.290   1.345  0.1294 -0.2491 -0.2894
 5209SOL    HW127260   2.658   2.364   1.394 -1.3874 -0.4085 -1.1442
 5209SOL    HW227261   2.717   2.232   1.417 -1.2232 -2.2287 -1.4628
 5210SOL     OW27262   3.879   0.211  14.150 -0.1716  0.2936 -0.2097
 5210SOL    HW127263   3.874   0.265  14.071  1.4708 -0.5986 -0.9100
 5210SOL    HW227264   3.941   0.156  14.103 -3.1000 -1.3757 -2.0772
 5211SOL     OW27265   4.612   2.981   4.516 -0.0856  0.2509  0.1993
 5211SOL    HW127266   4.546   2.915   4.537  0.7175 -0.5845  0.1096
 5211SOL    HW227267   4.667   2.916   4.471 -1.3927 -0.7992  0.1124
 5212SOL     OW27268   3.702   2.564   5.921 -0.1998  1.0422 -0.0833
 5212SOL    HW127269   3.646   2.607   5.985  0.3728 -0.3072  1.3151
 5212SOL    HW227270   3.675   2.606   5.839  0.8103 -1.5870 -1.7440
 5213SOL     OW27271   4.682   4.605   7.852  0.5214 -0.4712  0.2099
 5213SOL    HW127272   0.003   4.601   7.775 -0.0835 -3.2778 -0.1042
 5213SOL    HW227273   0.007   4.643   7.916 -0.3386  0.4300  0.4801
 5214SOL     OW27274   0.004   3.268   5.913  0.4873  0.0072 -0.7851
 5214SOL    HW127275   4.657   3.229   5.940  1.2738 -0.5054  0.8573
 5214SOL    HW227276   0.066   3.196   5.922 -0.4519 -0.5476  1.1576
 5215SOL     OW27277   2.442   4.111   5.481  0.1326  0.5484  0.3903
 5215SOL    HW127278   2.508   4.059   5.526  0.4289 -0.8865 -1.7091
 5215SOL    HW227279   2.368   4.087   5.537  1.5435 -0.4938  1.7832
 5216SOL     OW27280   0.884   1.881   4.338  0.7065  0.6706 -0.1284
 5216SOL    HW127281   0.831   1.929   4.274  2.9680  1.8700 -1.1027
 5216SOL    HW227282   0.913   1.797   4.301  0.0169  0.1889  0.4202
 5217SOL     OW27283   4.311   2.746   9.128  0.6480  0.7890  0.3599
 5217SOL    HW127284   4.262   2.708   9.055  2.8019 -0.1757 -0.5907
 5217SOL    HW227285   4.273   2.710   9.208  2.5161 -0.2874  0.7521
 5218SOL     OW27286   1.969   4.459   7.707  0.6998  0.0380  0.3212
 5218SOL    HW127287   2.050   4.410   7.720  0.7405  0.0660  0.1791
 5218SOL    HW227288   1.989   4.517   7.634 -1.8867 -1.6224 -1.7213
 5219SOL     OW27289   3.547   1.605  17.020  0.2443  0.2355  0.4201
 5219SOL    HW127290   3.584   1.585  17.106 -1.0158  2.0005  1.3678
 5219SOL    HW227291   3.458   1.571  17.020  0.5438 -0.5253  2.0981
 5220SOL     OW27292   2.779   1.230  11.015  0.0107 -0.8936 -0.7256
 5220SOL    HW127293   2.775   1.144  11.057  1.1307  0.3166  1.8810
 5220SOL    HW227294   2.724   1.283  11.072  0.2618 -0.4689 -0.8770
 5221SOL     OW27295   4.182   1.101   5.585  0.7423  0.2201 -0.2145
 5221SOL    HW127296   4.175   1.016   5.542  1.5250 -0.6902  1.4468
 5221SOL    HW227297   4.132   1.150   5.520  1.2788 -3.3389 -3.3055
 5222SOL     OW27298   4.585   2.794   5.983 -0.5064  0.2074  0.0828
 5222SOL    HW127299   4.638   2.764   5.909 -1.3741 -0.0186 -0.4459
 5222SOL    HW227300   4.619   2.763   6.067 -1.9132  0.1567  0.6215
 5223SOL     OW27301   3.441   0.865  15.717  0.1480  0.1139  0.7935
 5223SOL    HW127302   3.401   0.859  15.631 -0.0259  0.1859  0.8685
 5223SOL    HW227303   3.383   0.934  15.751  2.6416  1.2084  2.8096
 5224SOL     OW27304   0.467   0.714  11.393 -0.0274  0.1930  0.3529
 5224SOL    HW127305   0.393   0.769  11.368 -0.2051 -0.2800 -0.1663
 5224SOL    HW227306   0.507   0.696  11.307  0.1622  1.9580  0.0777
 5225SOL     OW27307   4.565   3.446  16.723  1.1194 -0.4580 -0.5718
 5225SOL    HW127308   4.512   3.402  16.657 -1.9346 -0.7384  2.0264
 5225SOL    HW227309   4.520   3.421  16.804  1.6470  2.7231  0.7323
 5226SOL     OW27310   3.473   4.506  10.922  0.3887 -0.0290 -0.1969
 5226SOL    HW127311   3.475   4.602  10.917 -0.3475 -0.0654 -1.3493
 5226SOL    HW227312   3.381   4.479  10.921  0.5074 -0.4465  0.2059
 5227SOL     OW27313   0.264   0.754   9.534  0.8488 -0.5938  1.0544
 5227SOL    HW127314   0.304   0.720   9.614  2.6906 -0.0856  0.3502
 5227SOL    HW227315   0.323   0.829   9.529 -1.0490  0.8495  0.1283
 5228SOL     OW27316   4.284   2.783   6.346 -0.0046 -0.0510  0.0906
 5228SOL    HW127317   4.323   2.810   6.430  0.6894 -1.8060  0.3309
 5228SOL    HW227318   4.249   2.864   6.308  1.4376  0.5324 -0.0048
 5229SOL     OW27319   0.535   0.962  12.919  0.3384 -0.2323  0.4584
 5229SOL    HW127320   0.512   1.037  12.972 -2.6325 -0.6274 -0.3057
 5229SOL    HW227321   0.452   0.955  12.872  0.0954 -1.8210  1.1165
 5230SOL     OW27322   2.787   3.827  12.598 -0.1025 -0.1351 -0.3905
 5230SOL    HW127323   2.712   3.881  12.625  0.6573  1.4336 -1.4742
 5230SOL    HW227324   2.755   3.740  12.623 -1.3250  0.6820  0.9390
 5231SOL     OW27325   1.751   2.325   6.077 -0.0434 -0.3493  0.0778
 5231SOL    HW127326   1.781   2.415   6.087  1.4983 -0.7428 -0.9299
 5231SOL    HW227327   1.810   2.294   6.146 -0.8807  0.8084  1.3047
 5232SOL     OW27328   1.777   4.110   2.368  0.3366  0.2857 -0.5900
 5232SOL    HW127329   1.702   4.159   2.333  1.0333  0.6610 -1.5823
 5232SOL    HW227330   1.759   4.020   2.341 -1.5866  0.4079  0.2775
 5233SOL     OW27331   3.441   2.610   3.531  0.2619 -0.5405 -0.3683
 5233SOL    HW127332   3.476   2.532   3.575 -0.8258 -0.5652  0.4740
 5233SOL    HW227333   3.413   2.657   3.610  0.6783  0.5221 -0.8558
 5234SOL     OW27334   2.033   4.279   4.779  0.1115 -0.2295 -0.1526
 5234SOL    HW127335   2.000   4.252   4.864 -1.0448  0.8560 -0.2703
 5234SOL    HW227336   2.003   4.370   4.778  2.8475  0.6867 -0.8542
 5235SOL     OW27337   1.885   1.858   8.418 -0.3446  0.1695  0.7246
 5235SOL    HW127338   1.925   1.831   8.336 -4.6019 -0.7906 -1.0545
 5235SOL    HW227339   1.828   1.927   8.384 -1.6055 -0.2182  2.0501
 5236SOL     OW27340   3.304   0.048   7.626 -0.4691 -0.3417 -0.6939
 5236SOL    HW127341   3.224   0.043   7.573 -1.0649  0.3586  0.1559
 5236SOL    HW227342   3.265   0.020   7.709  1.0795 -0.0505  0.1134
 5237SOL     OW27343   3.303   0.928   4.074  0.0966  0.1426  0.2348
 5237SOL    HW127344   3.345   0.933   3.988 -0.0693  1.3404  0.2263
 5237SOL    HW227345   3.235   0.995   4.067  1.4258  1.5353  0.8591
 5238SOL     OW27346   0.071   1.591  13.067  0.2436 -0.5117  0.0840
 5238SOL    HW127347   0.130   1.665  13.083  0.2187 -0.6464  0.8201
 5238SOL    HW227348   0.106   1.511  13.106 -0.5914 -1.3664 -0.9448
 5239SOL     OW27349   4.639   1.878  15.802 -0.1757  0.1499 -0.0510
 5239SOL    HW127350   4.715   1.919  15.843 -1.2364 -0.8310  2.9808
 5239SOL    HW227351   4.647   1.789  15.836 -0.3545  0.5071  0.9332
 5240SOL     OW27352   1.741   4.572   6.024  0.3420  0.4851 -0.2228
 5240SOL    HW127353   1.786   4.510   6.080  0.7385  0.2179 -0.8349
 5240SOL    HW227354   1.740   4.654   6.074  1.1185 -0.4849  1.3827
 5241SOL     OW27355   4.318   3.305   4.894  0.2734 -0.1002  0.3609
 5241SOL    HW127356   4.250   3.265   4.840 -0.7240  1.5425  0.3800
 5241SOL    HW227357   4.261   3.354   4.954 -0.8566 -0.2218 -0.6227
 5242SOL     OW27358   3.519   2.489   4.701  0.0143  0.0951 -0.0653
 5242SOL    HW127359   3.480   2.552   4.762  0.5541 -0.5290  0.9221
 5242SOL    HW227360   3.543   2.540   4.623 -0.5867 -0.1172 -0.3867
 5243SOL     OW27361   1.602   0.345   3.759  0.0178  0.3742  0.0534
 5243SOL    HW127362   1.534   0.280   3.777 -0.4259  0.8281  0.0119
 5243SOL    HW227363   1.551   0.426   3.767 -3.1185 -1.6257  0.4009
 5244SOL     OW27364   3.071   4.678   0.589 -0.1965  0.4545  0.0746
 5244SOL    HW127365   3.094   4.657   0.498 -0.8590 -1.0429  0.2579
 5244SOL    HW227366   3.147   4.656   0.643  0.6251  2.1529 -0.3818
 5245SOL     OW27367   0.620   4.628   8.144  0.6403 -0.1161 -0.0949
 5245SOL    HW127368   0.646   4.561   8.081 -1.6395 -1.1419  0.0468
 5245SOL    HW227369   0.653   4.708   8.103  1.1643 -0.1452  0.2719
 5246SOL     OW27370   0.071   3.112   7.079 -0.1595 -0.2347 -0.4360
 5246SOL    HW127371   0.006   3.173   7.043  0.5673  0.6567 -0.2365
 5246SOL    HW227372   0.147   3.170   7.075  0.4373 -0.9245  0.7758
 5247SOL     OW27373   1.034   3.673   2.794  0.9328 -0.2474 -0.3043
 5247SOL    HW127374   1.071   3.601   2.846 -3.6120 -1.7629  0.8725
 5247SOL    HW227375   1.102   3.740   2.794  0.3847  0.3054  0.6342
 5248SOL     OW27376   2.658   3.528   2.904 -0.6890  1.0850 -0.0070
 5248SOL    HW127377   2.603   3.451   2.890 -0.4245  0.9014 -0.0458
 5248SOL    HW227378   2.594   3.597   2.892 -2.0443 -0.3770 -1.1768
 5249SOL     OW27379   3.032   4.421   9.403 -0.3471 -0.0696  0.1159
 5249SOL    HW127380   3.094   4.485   9.368 -0.6085 -1.6363 -3.1147
 5249SOL    HW227381   3.041   4.348   9.342  1.8548  1.0026 -0.8347
 5250SOL     OW27382   4.675   0.171   1.315 -0.0366  0.5131 -0.4207
 5250SOL    HW127383   4.605   0.214   1.266 -2.2050 -0.8245  1.5409
 5250SOL    HW227384   4.646   0.080   1.316 -0.8424  0.7878  0.5026
 5251SOL     OW27385   3.372   0.431   5.847  0.4154 -0.3830 -0.4362
 5251SOL    HW127386   3.325   0.491   5.905  2.2849 -0.6283  1.3339
 5251SOL    HW227387   3.405   0.364   5.906  2.8253  0.5026 -0.7604
 5252SOL     OW27388   1.699   4.313  14.034 -0.0250 -0.0928  1.0683
 5252SOL    HW127389   1.629   4.249  14.019 -0.2690  0.4107  0.0668
 5252SOL    HW227390   1.719   4.288  14.125  1.2090  0.0278  0.8339
 5253SOL     OW27391   0.114   2.050   5.967 -0.3375 -0.5995 -0.3207
 5253SOL    HW127392   0.059   2.128   5.981  0.5702  0.0342 -0.2665
 5253SOL    HW227393   0.172   2.054   6.043 -0.5016  0.0769 -0.2242
 5254SOL     OW27394   1.271   1.467   8.913  0.7634  0.0506  0.5584
 5254SOL    HW127395   1.263   1.555   8.950 -0.4470 -0.0959  0.6280
 5254SOL    HW227396   1.357   1.431   8.933  0.7015  0.5022  1.6185
 5255SOL     OW27397   2.643   1.009   3.818  0.0860 -0.2533 -0.0994
 5255SOL    HW127398   2.731   1.047   3.816  0.4581 -1.0531  1.8533
 5255SOL    HW227399   2.617   1.010   3.910  0.4548  0.1400 -0.0018
 5256SOL     OW27400   2.169   0.572  15.167  0.1146  1.1528  0.2037
 5256SOL    HW127401   2.201   0.645  15.114 -1.5346  2.5927  1.1952
 5256SOL    HW227402   2.238   0.566  15.233  1.4625 -0.2199 -1.3490
 5257SOL     OW27403   0.037   0.928   4.826 -0.5603 -0.2946  0.3525
 5257SOL    HW127404   0.104   0.977   4.874 -1.9807  1.8366  0.1749
 5257SOL    HW227405   0.084   0.910   4.745 -0.3035  1.0295  0.2045
 5258SOL     OW27406   4.158   0.504   6.241 -0.2931  0.1243 -0.3944
 5258SOL    HW127407   4.146   0.490   6.148 -1.1775 -1.4481 -0.0361
 5258SOL    HW227408   4.100   0.579   6.259 -0.2889 -0.4971  2.2557
 5259SOL     OW27409   0.505   3.537   3.510 -0.0080 -0.6410 -0.0922
 5259SOL    HW127410   0.501   3.501   3.599 -1.3411 -2.6934 -0.9655
 5259SOL    HW227411   0.566   3.611   3.511 -0.5707 -0.2188  2.1230
 5260SOL     OW27412   2.958   2.209  16.613 -0.3772  0.0686  0.1399
 5260SOL    HW127413   3.041   2.245  16.644  0.1784 -0.1499 -1.1125
 5260SOL    HW227414   2.907   2.288  16.595 -0.9577 -0.0960  1.0927
 5261SOL     OW27415   1.821   2.265  16.976  0.0088  0.3666 -0.1080
 5261SOL    HW127416   1.909   2.286  16.944 -0.3431  1.8645 -0.0893
 5261SOL    HW227417   1.827   2.181  17.022 -0.8285 -0.6958 -1.9489
 5262SOL     OW27418   3.339   0.174   7.029  0.3038 -0.0229  0.4334
 5262SOL    HW127419   3.251   0.147   7.002 -0.2574  0.5130  1.6990
 5262SOL    HW227420   3.334   0.268   7.011 -2.2027 -0.9153 -3.5047
 5263SOL     OW27421   3.715   4.055   1.572 -0.0116 -0.2131  0.0890
 5263SOL    HW127422   3.723   4.134   1.627  1.3882 -0.0652 -0.3425
 5263SOL    HW227423   3.751   3.991   1.632  1.8993  0.6298 -0.1494
 5264SOL     OW27424   4.300   2.386   8.398 -0.4174  0.1038 -0.2212
 5264SOL    HW127425   4.341   2.353   8.478 -2.2446  2.6423  1.7602
 5264SOL    HW227426   4.211   2.406   8.427 -0.4029 -0.7741  0.4161
 5265SOL     OW27427   0.255   2.832   6.231  0.2079 -0.0325  0.1870
 5265SOL    HW127428   0.325   2.895   6.246 -1.3141  1.6820  0.1316
 5265SOL    HW227429   0.273   2.801   6.143 -0.9961 -0.5020  0.1033
 5266SOL     OW27430   4.695   3.792   8.536  0.0981  0.0782  0.3344
 5266SOL    HW127431   4.706   3.884   8.560  0.4978  0.3549 -0.8839
 5266SOL    HW227432   4.719   3.798   8.443 -0.1698  0.7408  0.3092
 5267SOL     OW27433   3.524   3.501  17.020 -0.2011 -0.2299 -0.1802
 5267SOL    HW127434   3.478   3.565  17.074  0.9183 -0.2704  0.8045
 5267SOL    HW227435   3.612   3.532  17.042 -0.3855 -0.2215  0.5537
 5268SOL     OW27436   0.472   2.379  14.576 -0.5012 -0.0848  0.3499
 5268SOL    HW127437   0.544   2.398  14.636 -1.7913  2.2423  1.1534
 5268SOL    HW227438   0.522   2.368  14.495  1.0861  0.5743  1.2337
 5269SOL     OW27439   4.626   2.642   9.431  0.0208 -0.8357  0.7070
 5269SOL    HW127440   4.697   2.672   9.373  0.4659 -2.5613  0.3339
 5269SOL    HW227441   4.580   2.595   9.361 -0.8104 -1.0245  1.3903
 5270SOL     OW27442   2.931   2.113   3.956  0.8473 -0.2002  0.0801
 5270SOL    HW127443   2.989   2.185   3.978 -1.4418  1.0738  1.9231
 5270SOL    HW227444   2.936   2.073   4.043  0.2909 -4.3869 -1.7751
 5271SOL     OW27445   3.625   4.689   9.103 -0.1754 -0.0435  0.6061
 5271SOL    HW127446   3.529   4.685   9.109 -0.2021  0.2403  0.4011
 5271SOL    HW227447   3.643   0.006   9.025 -1.7187 -0.2908  0.0754
 5272SOL     OW27448   1.958   3.202   6.043 -0.3849 -0.2002  0.1936
 5272SOL    HW127449   1.925   3.138   5.981 -0.4683 -0.0138  0.0453
 5272SOL    HW227450   1.920   3.164   6.123  1.6574 -1.0518  0.7638
 5273SOL     OW27451   2.689   4.272   8.727  0.0344  0.8180  0.0983
 5273SOL    HW127452   2.729   4.191   8.696  0.5025  1.6378 -1.4678
 5273SOL    HW227453   2.758   4.334   8.703 -0.2147  0.9404 -0.3000
 5274SOL     OW27454   2.068   1.499  10.072 -0.1731  0.1695  0.4828
 5274SOL    HW127455   2.090   1.592  10.075 -2.9299  0.8446 -0.0405
 5274SOL    HW227456   2.139   1.460  10.022 -2.3246 -2.5995 -0.4106
 5275SOL     OW27457   0.324   4.559   1.769 -0.3603  0.1396  0.4170
 5275SOL    HW127458   0.391   4.518   1.714 -1.4611 -1.0495 -0.0231
 5275SOL    HW227459   0.346   4.510   1.848  0.6466 -0.7720 -0.4339
 5276SOL     OW27460   1.531   2.717  11.673  0.1092  0.5399  0.3886
 5276SOL    HW127461   1.478   2.742  11.749 -0.6835 -0.1996  0.0672
 5276SOL    HW227462   1.620   2.744  11.697  1.7336 -1.9034 -2.9173
 5277SOL     OW27463   3.409   2.169  14.313 -0.3171  0.0410  0.1615
 5277SOL    HW127464   3.457   2.090  14.338  0.3621  0.8315  1.3155
 5277SOL    HW227465   3.430   2.184  14.220 -0.2301 -0.1285  0.1538
 5278SOL     OW27466   3.055   1.247   8.919  0.2023  0.0533 -0.0466
 5278SOL    HW127467   2.961   1.230   8.912  0.3157 -0.2117 -0.8649
 5278SOL    HW227468   3.066   1.336   8.887 -0.0624 -0.1901 -0.8066
 5279SOL     OW27469   2.448   3.746   1.734  0.0916 -0.3469  0.3953
 5279SOL    HW127470   2.485   3.726   1.820 -0.3708 -0.7649  0.4969
 5279SOL    HW227471   2.476   3.673   1.679 -0.4015 -0.2704  0.0397
 5280SOL     OW27472   0.552   4.394   4.768 -0.0247 -0.0737  0.7318
 5280SOL    HW127473   0.609   4.326   4.804  1.9354 -0.2034 -2.6101
 5280SOL    HW227474   0.598   4.473   4.796  1.0415 -0.7412  0.8828
 5281SOL     OW27475   2.117   4.059   1.768  0.2680 -0.2930  0.0562
 5281SOL    HW127476   2.049   4.106   1.816 -1.1170 -2.8463  0.5712
 5281SOL    HW227477   2.189   4.123   1.772  1.1144 -1.2357 -0.1446
 5282SOL     OW27478   1.000   2.739   6.845 -0.3126  0.3410  0.3030
 5282SOL    HW127479   1.067   2.693   6.895 -0.6166 -1.9567 -1.4232
 5282SOL    HW227480   1.036   2.828   6.841  1.9675 -0.6437 -0.7300
 5283SOL     OW27481   4.639   3.750   2.252 -0.5101 -0.0810 -0.3143
 5283SOL    HW127482   4.599   3.672   2.213  1.4675 -0.5513 -1.3789
 5283SOL    HW227483   4.649   3.802   2.172 -1.7928  1.3575  0.4538
 5284SOL     OW27484   3.473   1.347   3.741 -0.6267  0.3226 -0.5499
 5284SOL    HW127485   3.500   1.262   3.775 -1.5802 -0.3595 -1.5295
 5284SOL    HW227486   3.535   1.357   3.669 -0.7524 -0.0121 -0.7027
 5285SOL     OW27487   3.148   1.543   3.487  0.2245 -0.0104 -0.2387
 5285SOL    HW127488   3.146   1.450   3.510 -0.1375 -0.7672 -3.2680
 5285SOL    HW227489   3.153   1.523   3.393  0.1178 -3.1895  0.4325
 5286SOL     OW27490   4.088   1.737   3.010 -0.3826  0.6343 -0.2716
 5286SOL    HW127491   4.088   1.647   2.976 -0.0805  1.2227 -1.8531
 5286SOL    HW227492   4.158   1.776   2.958  0.5879  0.1045  0.6362
 5287SOL     OW27493   4.700   0.858  10.777  0.3782 -1.0586 -0.0494
 5287SOL    HW127494   4.678   0.950  10.766  0.0130 -0.9082  1.9974
 5287SOL    HW227495   0.060   0.864  10.786  0.3475  0.4751 -0.6642
 5288SOL     OW27496   0.748   3.087   5.430 -0.9172  0.2654  0.3226
 5288SOL    HW127497   0.739   3.083   5.335  0.4364  0.8562  0.1598
 5288SOL    HW227498   0.657   3.070   5.453 -0.7013 -0.0116  0.9694
 5289SOL     OW27499   4.380   3.665   1.869 -0.1463  0.0675  0.0156
 5289SOL    HW127500   4.289   3.635   1.878 -0.2619  0.2023 -0.6830
 5289SOL    HW227501   4.380   3.716   1.788  1.0883  0.1049  0.0504
 5290SOL     OW27502   3.279   1.090  15.726  0.2445  0.3947  0.1844
 5290SOL    HW127503   3.189   1.058  15.730  0.9034 -1.5549 -0.6650
 5290SOL    HW227504   3.267   1.181  15.697  0.7043  0.1926 -0.6578
 5291SOL     OW27505   4.311   0.978   5.020  0.1481  0.1296 -0.2949
 5291SOL    HW127506   4.298   1.007   5.110 -3.5823  0.3719 -0.9112
 5291SOL    HW227507   4.383   0.916   5.031 -1.6312 -1.9475 -0.2940
 5292SOL     OW27508   0.079   2.927   7.831 -0.0025 -0.2052  0.0356
 5292SOL    HW127509   0.147   2.860   7.833 -1.0573 -1.2894  0.0600
 5292SOL    HW227510   0.031   2.879   7.763  0.0525 -1.8548  1.1339
 5293SOL     OW27511   0.402   0.671   2.009 -0.2852 -0.1344  0.5568
 5293SOL    HW127512   0.444   0.630   1.933  0.2271  0.8954  0.2885
 5293SOL    HW227513   0.356   0.748   1.977 -0.9175  0.0912  1.9871
 5294SOL     OW27514   3.669   0.291  11.292  0.6178  0.4739  0.0002
 5294SOL    HW127515   3.716   0.348  11.231 -0.8296  1.1177 -0.5011
 5294SOL    HW227516   3.661   0.343  11.372  0.4401 -1.2258  1.0901
 5295SOL     OW27517   3.395   3.503   7.028  0.8615 -0.4946 -0.9335
 5295SOL    HW127518   3.358   3.515   7.115  1.8833  0.0586 -0.5852
 5295SOL    HW227519   3.337   3.436   6.991  0.2799 -0.4816 -0.0370
 5296SOL     OW27520   2.825   3.843  16.409  0.1517  0.2554 -0.4178
 5296SOL    HW127521   2.900   3.808  16.363  0.9721  1.6377 -0.1398
 5296SOL    HW227522   2.760   3.779  16.380 -0.7390  1.1561 -0.4456
 5297SOL     OW27523   3.545   2.529   9.385  0.1016 -0.2763  0.2796
 5297SOL    HW127524   3.502   2.559   9.465 -1.2024 -0.4627 -0.3467
 5297SOL    HW227525   3.570   2.444   9.420 -0.6557 -0.7252 -0.2569
 5298SOL     OW27526   3.567   0.578  14.984  0.5780  0.5577 -0.3957
 5298SOL    HW127527   3.652   0.600  15.022 -0.3034 -1.1830  2.5692
 5298SOL    HW227528   3.514   0.651  15.016 -0.8826  0.5200 -2.7319
 5299SOL     OW27529   0.449   3.388   4.948  0.4367  0.2874  0.2777
 5299SOL    HW127530   0.396   3.463   4.973 -0.2129 -0.0076 -0.2255
 5299SOL    HW227531   0.387   3.324   4.914  0.2837  0.3777  0.3901
 5300SOL     OW27532   0.647   0.281  12.117 -0.2488  0.1221  0.2603
 5300SOL    HW127533   0.661   0.188  12.139 -0.5298 -0.7751 -3.4375
 5300SOL    HW227534   0.679   0.283  12.027  1.7283  0.8177  0.9810
 5301SOL     OW27535   3.065   3.913   1.789 -0.6029 -0.1498  0.0137
 5301SOL    HW127536   3.082   3.864   1.870 -0.9556 -1.0009 -0.4256
 5301SOL    HW227537   3.062   3.849   1.718  1.0695  0.1725 -0.3410
 5302SOL     OW27538   2.826   3.971   5.764  0.4128 -0.6154  0.1447
 5302SOL    HW127539   2.834   3.999   5.856  0.7772  2.2024 -0.7373
 5302SOL    HW227540   2.904   4.015   5.730 -0.1500 -0.0838 -0.4362
 5303SOL     OW27541   3.727   4.510   8.327  0.1637  0.0874 -0.1590
 5303SOL    HW127542   3.807   4.463   8.351 -1.2257 -2.5292 -0.5796
 5303SOL    HW227543   3.745   4.597   8.362 -3.3787  2.0910 -3.3762
 5304SOL     OW27544   3.944   2.239   5.913  0.1938  0.1061  0.4701
 5304SOL    HW127545   3.957   2.198   5.827  0.2510  1.8589 -0.3716
 5304SOL    HW227546   3.855   2.273   5.906  0.5357  0.8657 -0.2308
 5305SOL     OW27547   1.718   1.817  12.234 -0.7401 -0.1045  0.0077
 5305SOL    HW127548   1.753   1.899  12.202 -0.0005 -0.2361  0.4764
 5305SOL    HW227549   1.750   1.743  12.183 -1.0339 -0.0586 -0.2450
 5306SOL     OW27550   0.118   1.080  14.176  0.4651  0.1211  0.7372
 5306SOL    HW127551   0.162   1.050  14.097  0.1797  0.3028  0.5098
 5306SOL    HW227552   0.167   1.161  14.186  0.3567  0.4220 -1.1266
 5307SOL     OW27553   4.673   3.185   4.699 -0.1137 -0.1623 -0.0988
 5307SOL    HW127554   4.603   3.156   4.758 -0.1764  0.8323  0.3173
 5307SOL    HW227555   4.656   3.117   4.634  0.1397 -0.7156  0.4104
 5308SOL     OW27556   2.071   2.260   0.667  0.2714  0.2372  0.1205
 5308SOL    HW127557   1.985   2.296   0.685 -0.8177  0.3990 -5.4776
 5308SOL    HW227558   2.082   2.204   0.744 -0.5293  1.1457  0.9039
 5309SOL     OW27559   3.174   2.872   6.002  0.6638  0.3573  0.2232
 5309SOL    HW127560   3.258   2.839   5.970  0.9432  0.9595  0.3433
 5309SOL    HW227561   3.203   2.937   6.065  1.8760 -0.5537  0.6233
 5310SOL     OW27562   1.746   3.045   9.872  0.7429 -0.1136  0.0259
 5310SOL    HW127563   1.761   2.982   9.942  2.0288  1.0110  0.7720
 5310SOL    HW227564   1.837   3.062   9.845  0.8732 -0.6277  0.1413
 5311SOL     OW27565   2.663   2.912   2.559  0.2177 -0.2639  0.1329
 5311SOL    HW127566   2.705   2.833   2.591 -0.3791 -0.6532 -0.0511
 5311SOL    HW227567   2.729   2.978   2.582  0.1908 -0.0942 -0.2730
 5312SOL     OW27568   0.951   0.749   8.247  0.4858 -0.5556  0.0678
 5312SOL    HW127569   0.945   0.744   8.151 -0.8315 -0.8995  0.1565
 5312SOL    HW227570   1.031   0.800   8.258 -0.5483  1.2202 -0.6926
 5313SOL     OW27571   4.513   4.097   1.572  0.2023 -0.2165  0.3369
 5313SOL    HW127572   4.451   4.141   1.631  0.5318 -0.7214  1.0661
 5313SOL    HW227573   4.459   4.066   1.500  1.1821 -2.5408  0.5922
 5314SOL     OW27574   4.053   2.386  16.742  0.4458  0.3304 -0.7894
 5314SOL    HW127575   4.112   2.413  16.671  0.2478  0.6676 -0.8269
 5314SOL    HW227576   4.100   2.410  16.822 -0.5763 -2.1132  0.5518
 5315SOL     OW27577   4.247   3.985   1.760  0.9500 -0.3028  0.1046
 5315SOL    HW127578   4.286   3.917   1.706 -1.9608 -1.0285 -1.0424
 5315SOL    HW227579   4.250   3.942   1.846  0.5147 -0.6013 -0.0301
 5316SOL     OW27580   2.717   3.503   6.833 -0.2257  0.1830 -0.2688
 5316SOL    HW127581   2.721   3.581   6.888  0.7391  0.3451 -0.5643
 5316SOL    HW227582   2.678   3.545   6.756  0.5200  1.5350  0.0850
 5317SOL     OW27583   4.468   1.490   7.983 -0.3856 -0.0014 -0.1665
 5317SOL    HW127584   4.458   1.576   7.940  3.9068 -0.2339 -1.6152
 5317SOL    HW227585   4.544   1.501   8.040 -0.9671  0.3883  0.5369
 5318SOL     OW27586   1.952   2.289   4.764  0.3411 -0.0159 -0.3692
 5318SOL    HW127587   1.860   2.269   4.749  0.8549 -2.7820  0.2413
 5318SOL    HW227588   1.984   2.199   4.757 -2.9238 -1.3017  1.2602
 5319SOL     OW27589   3.786   1.999   6.860  0.4786  0.1158  0.5420
 5319SOL    HW127590   3.726   2.021   6.930  0.0849  0.2612  0.1553
 5319SOL    HW227591   3.758   2.060   6.792  1.5856  0.3801  0.3163
 5320SOL     OW27592   2.184   3.895  11.517  0.2081  0.5413  0.1776
 5320SOL    HW127593   2.100   3.894  11.471  0.2538 -1.0164  0.0994
 5320SOL    HW227594   2.180   3.975  11.568  0.6592  1.6871 -1.5732
 5321SOL     OW27595   1.973   0.605   6.734  0.3868 -0.0820 -0.2858
 5321SOL    HW127596   1.984   0.519   6.775 -1.2353  1.0079  2.4207
 5321SOL    HW227597   2.014   0.669   6.792 -4.0000  1.6205  0.8833
 5322SOL     OW27598   0.498   4.257  12.114 -0.4650  0.5270  0.4049
 5322SOL    HW127599   0.484   4.350  12.131 -0.1278  0.7536 -0.5479
 5322SOL    HW227600   0.420   4.220  12.154 -0.3720 -0.5585 -0.4279
 5323SOL     OW27601   4.057   1.899   3.626  0.1128  0.1927  0.3171
 5323SOL    HW127602   4.064   1.837   3.553 -0.3958  2.2544 -1.4852
 5323SOL    HW227603   4.108   1.974   3.594  0.1933 -0.9481 -2.2690
 5324SOL     OW27604   0.736   3.804   7.283 -0.3994  0.7091  0.8006
 5324SOL    HW127605   0.647   3.841   7.278 -0.5479  0.0288 -1.8144
 5324SOL    HW227606   0.761   3.816   7.374  0.9634 -0.1019  0.5189
 5325SOL     OW27607   1.649   0.051  15.220  1.1195  0.7214 -0.2704
 5325SOL    HW127608   1.675   0.106  15.146  0.2779  0.5345 -0.7001
 5325SOL    HW227609   1.713   4.716  15.216  0.6814  0.0877  3.4027
 5326SOL     OW27610   0.970   0.239   4.448  0.5075 -0.1865 -0.3598
 5326SOL    HW127611   0.961   0.146   4.467 -3.0811  0.8269  2.8684
 5326SOL    HW227612   1.056   0.251   4.490  0.1707  0.1522  0.2255
 5327SOL     OW27613   3.338   3.636   2.320 -0.9517 -0.1370  0.5805
 5327SOL    HW127614   3.400   3.666   2.254 -4.0450  0.8023 -1.8483
 5327SOL    HW227615   3.384   3.558   2.352 -0.2643 -0.3615 -0.9700
 5328SOL     OW27616   1.342   2.785   6.684  0.2999  0.4633 -0.0842
 5328SOL    HW127617   1.313   2.826   6.766 -2.0961 -1.3985  0.0240
 5328SOL    HW227618   1.391   2.855   6.641 -0.7826  1.3041  0.0504
 5329SOL     OW27619   4.429   0.315   0.935 -0.1537  0.3632 -0.0429
 5329SOL    HW127620   4.465   0.388   0.885 -0.1706 -0.2280 -0.9191
 5329SOL    HW227621   4.365   0.284   0.872 -0.4579  3.6653 -1.3553
 5330SOL     OW27622   3.614   4.521   4.754 -0.0828  0.2019 -0.1545
 5330SOL    HW127623   3.551   4.471   4.807  0.3129  0.3023  0.4106
 5330SOL    HW227624   3.560   4.537   4.676 -0.2210 -1.7615 -0.4622
 5331SOL     OW27625   4.368   3.050   3.224 -0.0470  0.1694  0.7433
 5331SOL    HW127626   4.339   3.142   3.221  2.6966  0.9918 -0.2606
 5331SOL    HW227627   4.289   3.021   3.270  1.0472 -1.7764  1.3719
 5332SOL     OW27628   2.891   0.487   2.701 -0.2922 -1.0259  1.0639
 5332SOL    HW127629   2.915   0.529   2.619 -3.2457  2.0357  1.7675
 5332SOL    HW227630   2.980   0.479   2.736 -0.2284  1.7487  1.5260
 5333SOL     OW27631   2.335   1.244  13.002  0.3527 -0.5498 -0.5061
 5333SOL    HW127632   2.328   1.176  13.069 -1.4535  0.4762  0.3348
 5333SOL    HW227633   2.273   1.216  12.935  0.6875 -1.8389 -0.2721
 5334SOL     OW27634   3.111   2.283   6.658 -0.7682  0.0326  0.8038
 5334SOL    HW127635   3.191   2.239   6.687 -0.1690  1.1928  0.9427
 5334SOL    HW227636   3.047   2.220   6.688 -0.8723  0.0045  0.5228
 5335SOL     OW27637   3.711   1.539  15.643 -0.4938  0.6128 -0.1718
 5335SOL    HW127638   3.724   1.520  15.736 -1.6977  3.1330  0.5106
 5335SOL    HW227639   3.800   1.570  15.630  0.1065 -0.6457  0.8931
 5336SOL     OW27640   3.523   4.215  13.051  0.1067  0.2381 -0.5715
 5336SOL    HW127641   3.558   4.129  13.074  1.0810  0.8719  0.3212
 5336SOL    HW227642   3.577   4.268  13.110  2.1825 -2.1123 -0.3505
 5337SOL     OW27643   0.371   1.164   3.865 -0.6528  0.5157  0.1861
 5337SOL    HW127644   0.386   1.090   3.807  1.3386 -1.1967  2.9241
 5337SOL    HW227645   0.322   1.121   3.935 -0.9315  0.8695  0.2104
 5338SOL     OW27646   2.556   3.403  15.076 -0.5221 -0.1379 -0.2899
 5338SOL    HW127647   2.587   3.325  15.031  0.2198 -0.9657  1.6257
 5338SOL    HW227648   2.465   3.382  15.094  0.2927 -2.1698  1.5283
 5339SOL     OW27649   1.953   2.143   6.482  0.4882  0.1624  0.2034
 5339SOL    HW127650   2.020   2.212   6.483  2.1977 -1.5128  0.4660
 5339SOL    HW227651   1.877   2.176   6.529 -0.3470 -1.3101 -0.1233
 5340SOL     OW27652   2.859   4.202   2.254 -0.0782  0.4227 -0.4165
 5340SOL    HW127653   2.872   4.210   2.348  0.4622  0.6940 -0.5095
 5340SOL    HW227654   2.766   4.180   2.248  0.0007 -0.0475  0.1416
 5341SOL     OW27655   2.225   3.536   5.960  0.1124 -0.5322 -0.3444
 5341SOL    HW127656   2.278   3.470   5.915  1.0276 -0.4175  0.5789
 5341SOL    HW227657   2.189   3.490   6.035  0.3180  0.0402  0.1058
 5342SOL     OW27658   4.690   4.588   1.850  0.2237 -0.6043  0.3748
 5342SOL    HW127659   4.733   4.503   1.852  2.0471  0.2508 -2.3273
 5342SOL    HW227660   4.635   4.587   1.772  1.6305 -1.9740 -0.6001
 5343SOL     OW27661   1.311   0.037   5.608 -0.0006 -0.8047 -0.0065
 5343SOL    HW127662   1.375   0.107   5.595 -0.9220  0.5971  2.9540
 5343SOL    HW227663   1.255   0.046   5.531  0.3277 -0.0057 -0.1586
 5344SOL     OW27664   2.661   3.112   9.601 -0.2394  0.2241  0.3507
 5344SOL    HW127665   2.603   3.158   9.540  0.4210  0.6097  0.0144
 5344SOL    HW227666   2.732   3.171   9.628  0.2045 -0.0724 -0.1780
 5345SOL     OW27667   1.589   2.942  11.875  0.1697 -0.3505  0.2724
 5345SOL    HW127668   1.524   2.966  11.942 -0.2394  1.4209 -0.7480
 5345SOL    HW227669   1.661   2.998  11.904 -0.4511  1.3233 -1.3676
 5346SOL     OW27670   4.269   2.482  11.738  0.1831  0.3247  0.0886
 5346SOL    HW127671   4.263   2.479  11.642  0.1294  0.7165  0.0791
 5346SOL    HW227672   4.176   2.499  11.756  0.4665  0.6905  1.1992
 5347SOL     OW27673   2.662   2.438  10.077 -0.3002  0.8285 -0.2297
 5347SOL    HW127674   2.664   2.525  10.038  0.8290  0.1106 -1.7831
 5347SOL    HW227675   2.623   2.396  10.000 -0.9740  0.4330  0.3207
 5348SOL     OW27676   3.097   1.922   4.540 -0.5327 -0.3618 -0.3560
 5348SOL    HW127677   3.007   1.940   4.513  0.1516  2.1524 -0.9384
 5348SOL    HW227678   3.133   1.978   4.609  0.9995 -1.5070 -0.2345
 5349SOL     OW27679   1.777   0.363   4.941 -0.3134  0.8321 -0.2857
 5349SOL    HW127680   1.793   0.387   4.849 -1.7409 -0.3825 -0.8585
 5349SOL    HW227681   1.870   0.344   4.954 -0.1139  1.1426 -1.2588
 5350SOL     OW27682   2.690   2.789   6.051  0.3666  0.3014 -0.2749
 5350SOL    HW127683   2.705   2.848   5.977  3.1332 -0.6922 -0.5198
 5350SOL    HW227684   2.777   2.800   6.089  0.4338 -0.1068 -0.3124
 5351SOL     OW27685   1.143   1.031   7.608 -0.4372  0.4032  0.3548
 5351SOL    HW127686   1.221   1.085   7.622  0.7759 -0.9721 -1.1516
 5351SOL    HW227687   1.124   1.008   7.699  2.1771 -1.2391  0.4879
 5352SOL     OW27688   0.968   1.164  12.350  0.0019  0.4417  0.1941
 5352SOL    HW127689   0.975   1.068  12.353  0.4745  0.4836  0.4269
 5352SOL    HW227690   0.875   1.180  12.368 -0.6149 -0.2778 -2.3893
 5353SOL     OW27691   1.728   2.963   7.193 -0.8780  0.2762 -0.2337
 5353SOL    HW127692   1.678   2.882   7.194  0.2735 -0.4268  1.1706
 5353SOL    HW227693   1.661   3.006   7.246  0.5968  1.0349  1.0403
 5354SOL     OW27694   1.815   1.917  11.616 -0.2352 -0.2284 -0.3281
 5354SOL    HW127695   1.781   1.953  11.698  0.6626  0.2253 -0.1526
 5354SOL    HW227696   1.863   1.840  11.646 -1.9503 -0.4054  1.9988
 5355SOL     OW27697   4.521   0.649  13.546 -0.0598  0.2648 -0.7861
 5355SOL    HW127698   4.616   0.658  13.539  0.3569 -0.7364  3.0339
 5355SOL    HW227699   4.502   0.614  13.460  1.9052  1.4987 -1.7152
 5356SOL     OW27700   3.187   2.741   0.463  0.1558  0.0214  0.4552
 5356SOL    HW127701   3.194   2.766   0.371  1.8443  0.9300  0.8342
 5356SOL    HW227702   3.096   2.710   0.468  0.2113  0.1065  1.8714
 5357SOL     OW27703   0.147   4.439   4.035  0.0106  0.0198 -0.6133
 5357SOL    HW127704   0.242   4.448   4.035 -0.0105  0.2548 -1.2734
 5357SOL    HW227705   0.127   4.462   4.126 -0.3587  0.0929 -0.7154
 5358SOL     OW27706   0.194   0.423  16.105 -0.3799 -0.1073 -0.2422
 5358SOL    HW127707   0.124   0.486  16.087 -1.6968 -2.3866 -3.0133
 5358SOL    HW227708   0.203   0.431  16.200  1.2431  0.1652 -0.4216
 5359SOL     OW27709   4.261   4.607   7.256 -0.1431 -0.2311  0.3568
 5359SOL    HW127710   4.351   4.576   7.248  0.1732 -0.0227  2.9005
 5359SOL    HW227711   4.234   4.598   7.165  0.3339  0.6159  0.1233
 5360SOL     OW27712   3.257   1.879  14.595 -0.4533  0.2194  0.0609
 5360SOL    HW127713   3.206   1.955  14.569 -0.1073  0.1953 -0.6974
 5360SOL    HW227714   3.315   1.849  14.525  0.4778  0.3392  0.7700
 5361SOL     OW27715   0.519   4.003   8.742 -0.2573 -0.3457 -0.4643
 5361SOL    HW127716   0.498   4.075   8.683 -1.5675 -0.2774  0.0824
 5361SOL    HW227717   0.608   3.985   8.713 -0.9361 -2.1532 -1.4314
 5362SOL     OW27718   4.425   1.830   8.746 -0.5192 -0.0029 -0.0323
 5362SOL    HW127719   4.372   1.847   8.668 -1.3339  0.7771  0.6993
 5362SOL    HW227720   4.387   1.744   8.766 -4.0016  1.0709 -2.0062
 5363SOL     OW27721   4.207   2.589   8.932  0.1902 -0.4932  0.9589
 5363SOL    HW127722   4.241   2.507   8.895 -3.6801 -1.4450 -0.5528
 5363SOL    HW227723   4.118   2.565   8.906 -0.6358  1.4121  2.0203
 5364SOL     OW27724   1.811   2.582   7.449  0.0729 -0.5438 -1.1307
 5364SOL    HW127725   1.893   2.569   7.497 -0.4300  0.5702  0.0380
 5364SOL    HW227726   1.768   2.501   7.475 -1.2835  1.4000  2.5711
 5365SOL     OW27727   0.160   4.631   7.665  0.0593 -0.0597  0.6507
 5365SOL    HW127728   0.182   4.543   7.635  1.7114  0.5053  0.2316
 5365SOL    HW227729   0.245   4.661   7.696 -1.0950  2.5061  1.4041
 5366SOL     OW27730   2.508   3.753  10.786 -0.0161  0.0709 -0.2649
 5366SOL    HW127731   2.577   3.745  10.852  0.4451  0.5522 -0.6878
 5366SOL    HW227732   2.568   3.760  10.712 -0.4153  1.2829 -0.4833
 5367SOL     OW27733   1.740   1.542   5.983 -0.2353 -0.0988  0.1260
 5367SOL    HW127734   1.701   1.572   6.065 -1.3645 -0.3732 -0.3053
 5367SOL    HW227735   1.673   1.482   5.951  0.5040 -0.5050 -0.6543
 5368SOL     OW27736   1.683   2.951   3.192  0.1255 -0.2658 -0.2706
 5368SOL    HW127737   1.738   2.873   3.193  1.1152  0.4187 -2.5192
 5368SOL    HW227738   1.662   2.957   3.099 -2.8363 -0.2857  0.3782
 5369SOL     OW27739   1.407   1.990  13.177  0.4249  0.1464 -0.1770
 5369SOL    HW127740   1.347   1.991  13.252  0.8813  2.1877  0.1534
 5369SOL    HW227741   1.374   1.911  13.134  0.5441  0.3464 -0.6380
 5370SOL     OW27742   3.307   0.842   2.408 -0.0799  0.3931  0.2044
 5370SOL    HW127743   3.343   0.860   2.321  1.1956 -0.9847  0.4439
 5370SOL    HW227744   3.213   0.850   2.394 -0.3765 -0.8291  1.5450
 5371SOL     OW27745   2.694   1.073  12.704  0.4420  0.2290  0.2501
 5371SOL    HW127746   2.633   1.022  12.757 -0.8975  1.5779  0.0299
 5371SOL    HW227747   2.632   1.141  12.675 -0.0042  0.3493  1.4994
 5372SOL     OW27748   2.517   1.311   1.563  0.6146  0.1320 -0.1351
 5372SOL    HW127749   2.424   1.316   1.585 -0.2470 -3.7285 -2.8861
 5372SOL    HW227750   2.515   1.292   1.469  2.2481 -1.0841  0.0882
 5373SOL     OW27751   0.052   3.051  11.796 -0.1171  0.3504  0.0323
 5373SOL    HW127752   0.004   2.976  11.829 -0.8541 -0.6541 -3.3853
 5373SOL    HW227753   4.729   3.126  11.801 -0.2220  0.3129 -0.7057
 5374SOL     OW27754   3.391   3.722   1.860  0.3236  0.1266 -0.0878
 5374SOL    HW127755   3.412   3.691   1.948  0.4561  1.0700  0.2154
 5374SOL    HW227756   3.466   3.780   1.847 -1.0153  2.0999  0.9502
 5375SOL     OW27757   3.244   3.561   8.198 -0.6583  0.1256  0.4057
 5375SOL    HW127758   3.179   3.631   8.207 -1.5312 -0.6497  0.1578
 5375SOL    HW227759   3.318   3.601   8.243 -1.1975  2.0965 -0.4690
 5376SOL     OW27760   4.359   1.447  14.542  0.1342  0.1638  0.2788
 5376SOL    HW127761   4.340   1.354  14.526 -0.4230 -0.0844  2.3014
 5376SOL    HW227762   4.420   1.461  14.470 -1.1172 -1.4518 -1.0968
 5377SOL     OW27763   3.577   4.602  11.743  0.5734 -0.7323 -0.3179
 5377SOL    HW127764   3.483   4.583  11.745  0.7326 -1.3720  0.8515
 5377SOL    HW227765   3.580   4.673  11.807  2.7148  0.2985 -1.5658
 5378SOL     OW27766   2.235   1.802   3.855 -0.7255 -0.1369  0.1257
 5378SOL    HW127767   2.146   1.838   3.862 -1.2490 -1.6271  1.4639
 5378SOL    HW227768   2.212   1.709   3.863 -1.8330  0.0618 -0.6952
 5379SOL     OW27769   2.571   0.398  12.087 -0.0865 -0.0530  1.0526
 5379SOL    HW127770   2.640   0.336  12.064 -1.3217 -0.3502 -1.8254
 5379SOL    HW227771   2.522   0.393  12.005 -0.9915  0.4016  1.5648
 5380SOL     OW27772   2.539   2.773   2.910  0.4688  0.1258  0.3115
 5380SOL    HW127773   2.475   2.704   2.926  0.7000 -0.1720 -0.0299
 5380SOL    HW227774   2.606   2.753   2.976 -0.4420 -0.8396  0.9345
 5381SOL     OW27775   0.633   0.094   1.926 -0.0731 -0.4846  0.3663
 5381SOL    HW127776   0.666   0.165   1.871  0.1004 -2.2027 -1.7257
 5381SOL    HW227777   0.557   0.135   1.967 -0.2201 -0.6441  0.2524
 5382SOL     OW27778   0.373   2.127   5.591  0.0021 -0.2572 -0.1458
 5382SOL    HW127779   0.327   2.059   5.640  0.5097 -1.8080 -1.7974
 5382SOL    HW227780   0.466   2.107   5.599 -0.3097 -1.2677  0.9947
 5383SOL     OW27781   2.006   1.269   2.615 -0.4532  0.1252  0.1557
 5383SOL    HW127782   2.025   1.360   2.638 -0.6939  0.2502 -0.1344
 5383SOL    HW227783   1.971   1.287   2.527  0.2689  0.2605 -0.0994
 5384SOL     OW27784   2.405   4.086   6.035 -0.3784  0.5813  0.2057
 5384SOL    HW127785   2.358   4.164   6.068 -1.8595 -0.6957  1.1181
 5384SOL    HW227786   2.365   4.082   5.948  3.0459 -2.4501 -1.1851
 5385SOL     OW27787   2.759   2.039  16.494  0.3910  0.9387  0.3596
 5385SOL    HW127788   2.752   1.946  16.517  1.4666  1.4658  2.8312
 5385SOL    HW227789   2.808   2.080  16.565 -0.3542 -0.3658  1.6140
 5386SOL     OW27790   2.597   0.218  10.885 -0.3280  0.0546  0.0650
 5386SOL    HW127791   2.612   0.213  10.791  0.6054  3.1335  0.0481
 5386SOL    HW227792   2.667   0.160  10.914 -0.6576 -0.4037 -0.0539
 5387SOL     OW27793   2.651   4.000   4.739  0.2729 -0.2901  0.1212
 5387SOL    HW127794   2.584   3.999   4.807  1.1793 -0.9131  1.0038
 5387SOL    HW227795   2.607   3.955   4.667  0.9458 -0.6164 -0.0856
 5388SOL     OW27796   4.514   0.281   8.998  0.8152  0.2564  0.1148
 5388SOL    HW127797   4.536   0.191   8.972  0.6817  0.3137 -0.1953
 5388SOL    HW227798   4.528   0.280   9.092 -3.4329  1.8263  0.7680
 5389SOL     OW27799   1.390   3.114   3.798 -0.1289  0.6705 -0.4088
 5389SOL    HW127800   1.306   3.159   3.788 -2.3625 -3.2884  0.5315
 5389SOL    HW227801   1.450   3.189   3.802 -0.5638  0.9931 -0.0360
 5390SOL     OW27802   1.460   3.439   4.468 -0.1985 -0.7091 -0.5827
 5390SOL    HW127803   1.410   3.361   4.444  0.2897 -1.0114 -0.6190
 5390SOL    HW227804   1.392   3.504   4.485  0.2081 -0.1639 -1.0633
 5391SOL     OW27805   1.272   1.607   6.320  0.1876  0.5253  0.1131
 5391SOL    HW127806   1.328   1.612   6.243  1.1611  1.5776  0.9011
 5391SOL    HW227807   1.272   1.692   6.363 -0.5367  1.0195 -0.8665
 5392SOL     OW27808   3.061   0.409  17.604  0.0078 -0.4391 -0.4809
 5392SOL    HW127809   3.101   0.349  17.667  0.5828  1.1763  0.6716
 5392SOL    HW227810   2.973   0.413  17.641  0.3405 -2.1110  0.5020
 5393SOL     OW27811   3.614   3.727   6.038  0.0963  0.9938  0.5805
 5393SOL    HW127812   3.676   3.696   5.972 -1.8934  0.8757 -1.1999
 5393SOL    HW227813   3.606   3.817   6.007  2.8960  1.6268  1.6215
 5394SOL     OW27814   0.607   3.393   3.704 -0.1576 -0.5238 -0.0686
 5394SOL    HW127815   0.613   3.307   3.663 -2.4486 -1.3879  1.4228
 5394SOL    HW227816   0.695   3.407   3.740 -0.3786  1.2887 -0.2319
 5395SOL     OW27817   1.214   1.571  17.283 -0.2992 -0.1962 -0.0097
 5395SOL    HW127818   1.125   1.569  17.320 -0.6561 -0.0940 -0.8715
 5395SOL    HW227819   1.214   1.488  17.236 -0.0967 -0.4431  0.4302
 5396SOL     OW27820   3.466   3.424   9.645  0.3532  0.1381 -0.2645
 5396SOL    HW127821   3.521   3.379   9.709  0.2575  0.1930 -0.1436
 5396SOL    HW227822   3.426   3.349   9.601 -1.1313 -0.3289  1.9201
 5397SOL     OW27823   2.537   1.401   4.670 -0.4070 -0.3683  0.4873
 5397SOL    HW127824   2.499   1.456   4.601  0.7130  0.0736  0.2305
 5397SOL    HW227825   2.553   1.469   4.735 -0.4183  1.9198 -1.9134
 5398SOL     OW27826   2.339   4.705   1.939  0.2422  0.9211 -0.0218
 5398SOL    HW127827   2.426   0.009   1.928 -0.1152  1.5573 -0.5450
 5398SOL    HW227828   2.292   0.016   2.007  1.3755  1.3084  0.5035
 5399SOL     OW27829   2.319   2.322   3.771  0.0516  0.2450  0.8211
 5399SOL    HW127830   2.405   2.339   3.810  0.7950 -1.6857  0.0150
 5399SOL    HW227831   2.357   2.255   3.715  0.2060  0.2788  0.8847
 5400SOL     OW27832   0.812   0.960   5.393  0.0650 -0.2705 -0.8460
 5400SOL    HW127833   0.763   0.986   5.315  1.1444 -1.1381 -1.8135
 5400SOL    HW227834   0.900   0.985   5.364  0.1283 -0.2678 -0.6505
 5401SOL     OW27835   3.655   0.488   5.844 -0.4606 -0.7023 -0.2041
 5401SOL    HW127836   3.584   0.505   5.905 -0.3175  1.0185 -0.5259
 5401SOL    HW227837   3.598   0.487   5.767  0.2658  1.2357 -0.7819
 5402SOL     OW27838   2.403   4.203   0.584  0.1610  0.0574  0.6188
 5402SOL    HW127839   2.487   4.165   0.559 -1.1410 -2.2195 -0.3212
 5402SOL    HW227840   2.397   4.276   0.523 -2.2206  0.1394  0.9417
 5403SOL     OW27841   2.805   0.755   7.679 -0.7519  0.0723 -0.1038
 5403SOL    HW127842   2.800   0.772   7.585 -0.7988 -0.9454 -0.2791
 5403SOL    HW227843   2.722   0.713   7.701 -0.9963  0.8547  0.5025
 5404SOL     OW27844   1.253   1.911  13.382 -0.4387 -0.3997 -0.7936
 5404SOL    HW127845   1.225   1.993  13.422  0.6076  0.0056 -0.8910
 5404SOL    HW227846   1.169   1.866  13.374 -0.3843 -0.5062 -0.7660
 5405SOL     OW27847   1.439   1.196   2.809 -0.1805  0.4938  0.0311
 5405SOL    HW127848   1.525   1.172   2.775 -1.9446 -0.4266 -3.7647
 5405SOL    HW227849   1.379   1.207   2.734 -3.1075  1.7437  2.5388
 5406SOL     OW27850   2.672   3.767  10.999  0.1797  0.0874 -0.4135
 5406SOL    HW127851   2.646   3.728  11.083  2.2177 -0.7107 -0.1469
 5406SOL    HW227852   2.752   3.714  11.002 -2.0885 -3.3761 -0.8128
 5407SOL     OW27853   0.121   2.930  14.079 -0.4080 -0.1896  0.4975
 5407SOL    HW127854   0.200   2.925  14.025 -1.0115  0.2231 -0.4276
 5407SOL    HW227855   0.153   2.986  14.149 -0.0121  1.2698 -0.8410
 5408SOL     OW27856   0.419   1.779  10.156 -0.8106 -0.1520 -0.4028
 5408SOL    HW127857   0.343   1.833  10.133 -0.7683 -0.3411 -0.9950
 5408SOL    HW227858   0.473   1.785  10.077  0.2309 -0.1611  0.3086
 5409SOL     OW27859   3.120   3.821   4.271 -0.1483 -0.1668 -0.0924
 5409SOL    HW127860   3.030   3.836   4.299 -0.4164  1.4829 -1.8679
 5409SOL    HW227861   3.162   3.889   4.324 -1.6803  0.9341 -0.2987
 5410SOL     OW27862   4.448   2.393   2.984 -0.1687 -0.8881 -0.0514
 5410SOL    HW127863   4.483   2.453   3.050 -2.3972 -0.5781  0.8569
 5410SOL    HW227864   4.358   2.419   2.964 -0.7845 -1.3786  2.0657
 5411SOL     OW27865   0.446   1.324   5.476  0.3803 -0.0982 -0.2593
 5411SOL    HW127866   0.464   1.230   5.469  1.9888 -0.0927  3.6167
 5411SOL    HW227867   0.517   1.350   5.535 -0.8276  0.7011  0.8327
 5412SOL     OW27868   3.526   0.766   3.338 -0.2058  0.5912 -0.1275
 5412SOL    HW127869   3.549   0.740   3.248 -0.3349 -0.1515  0.0500
 5412SOL    HW227870   3.511   0.680   3.377  1.2367  0.9871  1.2701
 5413SOL     OW27871   3.477   4.117   2.024 -1.0088 -0.2036 -0.2468
 5413SOL    HW127872   3.456   4.119   2.118  0.2534 -0.9655  0.0530
 5413SOL    HW227873   3.421   4.188   1.992  1.7933  1.6470 -1.0019
 5414SOL     OW27874   1.857   3.058   7.976  0.1608 -0.6571  0.0123
 5414SOL    HW127875   1.896   2.976   8.007  0.4733 -1.4326 -2.4049
 5414SOL    HW227876   1.825   3.027   7.891  0.3099 -1.3577  0.2139
 5415SOL     OW27877   3.983   0.828   9.118  0.1886 -0.0423  0.1221
 5415SOL    HW127878   4.076   0.822   9.143  0.6215 -0.2203 -1.5345
 5415SOL    HW227879   3.966   0.920   9.137  2.9581 -0.1379  3.0876
 5416SOL     OW27880   1.584   4.189   4.191  0.4533  0.1390 -0.1355
 5416SOL    HW127881   1.664   4.214   4.237  0.9734 -0.5465 -0.6685
 5416SOL    HW227882   1.519   4.223   4.252  0.1595  1.1024 -0.9819
 5417SOL     OW27883   2.508   2.993   6.399  0.2015 -0.4388 -0.8314
 5417SOL    HW127884   2.590   3.031   6.366  1.7991 -2.2059  1.1110
 5417SOL    HW227885   2.437   3.004   6.336 -0.2716  2.3927  0.1687
 5418SOL     OW27886   4.553   2.774   2.863 -1.1167 -0.2440  0.3463
 5418SOL    HW127887   4.469   2.752   2.822 -1.5217  0.6462  0.7092
 5418SOL    HW227888   4.605   2.796   2.786  0.4537 -1.1265  1.1474
 5419SOL     OW27889   3.895   3.517  11.835 -0.1512  0.7658 -0.2224
 5419SOL    HW127890   3.980   3.483  11.807 -0.2554 -0.1111  0.5023
 5419SOL    HW227891   3.905   3.607  11.804 -2.2403  1.2723  0.6059
 5420SOL     OW27892   3.854   4.071   0.206 -0.1716 -0.2607  0.2157
 5420SOL    HW127893   3.816   3.983   0.208  1.0709 -0.7463  3.0090
 5420SOL    HW227894   3.941   4.059   0.169 -2.1724 -3.4491 -3.4857
 5421SOL     OW27895   3.985   2.123   5.689  0.4132  0.5131  0.0916
 5421SOL    HW127896   4.018   2.035   5.708  1.1264  1.0458  1.3162
 5421SOL    HW227897   4.015   2.134   5.599 -0.7516  1.5680 -0.1673
 5422SOL     OW27898   4.492   0.185   2.830  0.7182 -0.3556  0.3676
 5422SOL    HW127899   4.505   0.238   2.752 -1.2614 -0.0202  0.2464
 5422SOL    HW227900   4.406   0.147   2.812  1.2954 -1.0380 -0.9254
 5423SOL     OW27901   2.832   0.153  13.908  0.2487 -0.3344  0.0275
 5423SOL    HW127902   2.879   0.234  13.932 -0.3654 -0.6180  2.0909
 5423SOL    HW227903   2.767   0.160  13.977  1.2454 -3.5742  1.2708
 5424SOL     OW27904   1.217   1.077   4.793 -0.1399 -0.7748  0.0777
 5424SOL    HW127905   1.130   1.117   4.797  0.5655  1.0540 -2.7271
 5424SOL    HW227906   1.223   1.055   4.886 -0.8596  0.2056  0.3677
 5425SOL     OW27907   0.876   2.461   9.144  0.0397  0.2707 -0.2852
 5425SOL    HW127908   0.838   2.495   9.063  2.8811 -0.6227 -2.0017
 5425SOL    HW227909   0.922   2.385   9.108 -0.5300  0.0192 -0.4751
 5426SOL     OW27910   0.237   4.643   4.796  0.2969 -0.0099  1.0940
 5426SOL    HW127911   0.267   4.635   4.705 -1.7000  2.5506  0.2265
 5426SOL    HW227912   0.168   4.578   4.812  1.6563 -2.4643 -2.8205
 5427SOL     OW27913   2.622   0.845   1.323  0.1885  0.5459  0.4018
 5427SOL    HW127914   2.708   0.805   1.331  0.3734  1.1075  1.2554
 5427SOL    HW227915   2.623   0.912   1.255  0.5431 -0.1488 -0.2767
 5428SOL     OW27916   0.922   4.117   7.552  0.0431 -0.2491  0.4572
 5428SOL    HW127917   0.991   4.171   7.592  0.0762 -0.5034  0.7490
 5428SOL    HW227918   0.981   4.070   7.493 -0.7596  0.9359 -1.2734
 5429SOL     OW27919   2.388   4.403   0.396  0.3745 -0.0964  0.6069
 5429SOL    HW127920   2.470   4.371   0.358 -1.2622 -2.0171 -1.3193
 5429SOL    HW227921   2.420   4.492   0.412  0.3100  0.4158 -2.0110
 5430SOL     OW27922   3.437   4.120   0.001 -0.0238  0.4490 -0.5387
 5430SOL    HW127923   3.437   4.145  17.650 -1.8886  0.8958 -0.4309
 5430SOL    HW227924   3.523   4.151   0.029 -0.3041  0.1131  0.7084
 5431SOL     OW27925   2.127   4.599   0.614 -0.0458 -0.1286  0.6202
 5431SOL    HW127926   2.126   4.514   0.658 -1.2069  0.1586  1.1638
 5431SOL    HW227927   2.092   4.654   0.684 -0.3142 -0.1221  0.4815
 5432SOL     OW27928   2.736   2.681   9.049 -0.6315  0.0635  0.1033
 5432SOL    HW127929   2.742   2.666   8.955  1.3425 -1.1092  0.4184
 5432SOL    HW227930   2.648   2.644   9.061  0.3194 -1.0742  3.6188
 5433SOL     OW27931   2.925   4.220  17.146  0.1571 -0.0409 -0.0569
 5433SOL    HW127932   2.864   4.231  17.219 -0.6751 -1.5697 -0.5168
 5433SOL    HW227933   3.008   4.262  17.169  2.3400 -4.2269 -0.3196
 5434SOL     OW27934   3.359   1.129   8.785  0.0596 -0.7158 -0.4746
 5434SOL    HW127935   3.320   1.085   8.860 -1.4150  0.4897 -0.5416
 5434SOL    HW227936   3.278   1.165   8.749 -0.3688  1.8202  3.0876
 5435SOL     OW27937   0.141   1.725   2.795  0.0714  0.5657 -0.1727
 5435SOL    HW127938   0.231   1.699   2.814 -0.2194  0.0249  0.4655
 5435SOL    HW227939   0.151   1.775   2.715  0.3165  1.0544  0.1611
 5436SOL     OW27940   0.673   2.616   5.610 -0.6553 -0.2870 -0.2892
 5436SOL    HW127941   0.679   2.710   5.630  0.9879 -0.0765 -1.7297
 5436SOL    HW227942   0.648   2.587   5.697 -0.6491  1.0596  0.1634
 5437SOL     OW27943   3.831   2.497  14.827  0.2343  0.3908  0.7679
 5437SOL    HW127944   3.846   2.441  14.903  0.6557  1.5201  1.5227
 5437SOL    HW227945   3.738   2.482  14.810  1.1649 -3.3092 -1.0746
 5438SOL     OW27946   1.396   4.050   7.543  0.2977  0.0329  0.6264
 5438SOL    HW127947   1.416   4.139   7.513  0.5073 -0.3166 -0.2476
 5438SOL    HW227948   1.420   3.995   7.469 -0.9614 -0.3709  0.5131
 5439SOL     OW27949   1.779   4.648   2.011 -0.1726 -0.3403 -0.3171
 5439SOL    HW127950   1.692   4.656   1.973 -0.7089 -0.0004  1.0020
 5439SOL    HW227951   1.796   0.007   2.011  1.4652 -0.6268 -0.5167
 5440SOL     OW27952   2.150   3.550   6.443  0.0465 -0.0248 -0.2463
 5440SOL    HW127953   2.165   3.471   6.495 -0.6172 -0.0232 -0.0480
 5440SOL    HW227954   2.124   3.614   6.509  0.1463 -0.7036  0.4483
 5441SOL     OW27955   3.761   2.579   8.712  0.5437 -1.0748 -0.0590
 5441SOL    HW127956   3.826   2.564   8.642  0.9500  0.8635 -0.1136
 5441SOL    HW227957   3.717   2.495   8.723  1.5548 -1.3086  2.1056
 5442SOL     OW27958   0.158   2.806   2.555  0.5423 -0.9049  0.0286
 5442SOL    HW127959   0.084   2.853   2.595  1.3585  0.1253  0.3370
 5442SOL    HW227960   0.117   2.736   2.505 -1.1552  0.2160 -0.1705
 5443SOL     OW27961   2.587   1.023   1.823  0.0772  0.1931 -0.1349
 5443SOL    HW127962   2.631   0.958   1.767  2.2798  0.1052  1.6663
 5443SOL    HW227963   2.555   0.968   1.894  1.2575  1.7648  1.6181
 5444SOL     OW27964   0.778   2.103   5.511 -0.5887 -0.0622  0.8155
 5444SOL    HW127965   0.856   2.152   5.536 -0.3014 -1.0420  1.8615
 5444SOL    HW227966   0.748   2.082   5.600  2.9007 -2.0405  1.5076
 5445SOL     OW27967   0.173   1.171  12.784 -0.1434  0.0420 -0.2412
 5445SOL    HW127968   0.219   1.086  12.786 -0.0598  0.0679 -0.9352
 5445SOL    HW227969   0.222   1.209  12.710  2.1147 -1.8144  0.2642
 5446SOL     OW27970   2.996   3.795   8.436  0.0038 -0.4983  0.5139
 5446SOL    HW127971   3.084   3.757   8.429  0.3168  0.2500  0.3465
 5446SOL    HW227972   3.007   3.853   8.360 -0.9629 -0.2846  0.5343
 5447SOL     OW27973   2.629   1.871  12.023 -0.3449 -0.3247 -0.1384
 5447SOL    HW127974   2.718   1.893  12.050 -0.3567 -0.0961 -0.2799
 5447SOL    HW227975   2.610   1.952  11.975 -0.5261  0.0083  0.4869
 5448SOL     OW27976   0.761   1.857   8.656 -0.6459 -0.4660  0.5260
 5448SOL    HW127977   0.758   1.763   8.639  0.7597 -0.8238  2.1958
 5448SOL    HW227978   0.835   1.875   8.598 -1.1147 -1.5431 -0.4050
 5449SOL     OW27979   4.714   1.240   5.337  0.2240  0.0796  0.3178
 5449SOL    HW127980   4.661   1.230   5.259  0.4257  1.0671  0.0508
 5449SOL    HW227981   4.727   1.153   5.375  0.8647  0.1177  0.1972
 5450SOL     OW27982   2.891   0.983   1.668  0.1133  0.3726  0.4550
 5450SOL    HW127983   2.961   0.994   1.604  0.1107 -0.4710  0.3078
 5450SOL    HW227984   2.824   1.039   1.629  2.3342  2.1136 -0.8658
 5451SOL     OW27985   1.906   3.043  10.623  0.2530  0.5601 -0.5099
 5451SOL    HW127986   1.821   3.047  10.578  0.1871  2.2329 -0.2175
 5451SOL    HW227987   1.937   3.132  10.641 -0.6485  0.7000  0.3958
 5452SOL     OW27988   0.674   0.550  11.896 -0.3553  0.5115  0.4249
 5452SOL    HW127989   0.735   0.621  11.916  0.9037 -0.0523 -1.5003
 5452SOL    HW227990   0.732   0.479  11.870 -1.5211 -0.3505  0.2095
 5453SOL     OW27991   2.216   2.933   8.474  0.4820  0.6358  0.1978
 5453SOL    HW127992   2.246   2.981   8.397 -1.8107 -0.7724 -1.5824
 5453SOL    HW227993   2.132   2.920   8.430 -0.5289  1.0263  2.0019
 5454SOL     OW27994   4.061   0.735   4.570  0.0374  0.7214 -0.1823
 5454SOL    HW127995   4.060   0.648   4.610  1.6466  0.9793  0.4018
 5454SOL    HW227996   4.114   0.780   4.636  0.0493  1.0073 -0.3872
 5455SOL     OW27997   3.931   1.657   5.794 -0.8136 -0.0736  0.1400
 5455SOL    HW127998   3.992   1.650   5.867 -1.9045 -1.1192  0.9434
 5455SOL    HW227999   3.880   1.735   5.811 -0.8277 -0.2379  0.8254
 5456SOL     OW28000   4.216   0.330  13.915 -0.3398 -0.0360  0.4656
 5456SOL    HW128001   4.186   0.386  13.987 -3.7335 -1.4147  0.1008
 5456SOL    HW228002   4.135   0.308  13.869  0.0069 -0.0422 -0.1394
 5457SOL     OW28003   3.536   0.233   2.212  0.0186  0.1967 -0.5942
 5457SOL    HW128004   3.516   0.263   2.123  0.6005  1.0432 -0.4406
 5457SOL    HW228005   3.470   0.279   2.263 -0.1523 -1.5284  0.7355
 5458SOL     OW28006   1.328   2.273   9.697  0.2674  0.0516 -0.2630
 5458SOL    HW128007   1.248   2.305   9.655 -0.7040 -0.1658  1.4154
 5458SOL    HW228008   1.329   2.180   9.673  2.5203 -0.5423  2.0364
 5459SOL     OW28009   3.935   2.601   5.325  0.1961 -0.3535  0.0378
 5459SOL    HW128010   3.984   2.674   5.290 -0.6221 -0.3892 -1.1824
 5459SOL    HW228011   3.939   2.538   5.252 -0.1086 -1.3873  0.9075
 5460SOL     OW28012   2.877   4.205   0.302 -0.0334 -0.3996  0.0563
 5460SOL    HW128013   2.866   4.197   0.208 -0.0460  1.4101 -0.0826
 5460SOL    HW228014   2.936   4.279   0.312 -0.4553 -0.2142  1.2401
 5461SOL     OW28015   3.183   0.546  11.609 -0.2662  0.3025 -0.0217
 5461SOL    HW128016   3.128   0.490  11.554  0.1314 -0.0632 -0.0491
 5461SOL    HW228017   3.145   0.542  11.697  0.1242  0.0285  0.1364
 5462SOL     OW28018   1.551   0.737  11.015 -0.6313  0.5028 -0.1048
 5462SOL    HW128019   1.616   0.695  10.958 -1.2639 -1.7766  0.8657
 5462SOL    HW228020   1.537   0.826  10.981 -1.0249  1.4676  2.5486
 5463SOL     OW28021   2.479   2.619  13.771 -0.4273 -0.3064  0.2348
 5463SOL    HW128022   2.531   2.660  13.702  0.0844  1.3526  1.5924
 5463SOL    HW228023   2.517   2.644  13.856 -1.2960  0.2976  0.4406
 5464SOL     OW28024   3.202   3.309   2.449 -0.0894 -0.9071  0.3267
 5464SOL    HW128025   3.297   3.320   2.444  0.1157 -2.3954  1.0391
 5464SOL    HW228026   3.176   3.367   2.521 -1.2329 -1.3476  0.2674
 5465SOL     OW28027   3.693   4.316  15.533 -0.1185 -0.1622  0.2906
 5465SOL    HW128028   3.735   4.350  15.455  2.9673  1.5634  2.6885
 5465SOL    HW228029   3.668   4.231  15.495  0.3638 -0.8090  1.3979
 5466SOL     OW28030   1.110   4.552   3.916 -0.5584  0.1444  0.4483
 5466SOL    HW128031   1.158   4.532   3.997 -0.8821  0.0906  0.6257
 5466SOL    HW228032   1.140   4.484   3.856 -1.0974 -0.9317  1.3943
 5467SOL     OW28033   2.250   3.318   3.942 -0.2437 -0.0091  0.0355
 5467SOL    HW128034   2.311   3.299   3.871 -2.1450 -0.2953 -1.5492
 5467SOL    HW228035   2.173   3.325   3.885 -0.1402  1.8312  0.1201
 5468SOL     OW28036   1.433   4.218   3.947  0.3287 -0.1860  0.1638
 5468SOL    HW128037   1.476   4.176   4.021  0.8225  1.0263  0.5621
 5468SOL    HW228038   1.344   4.228   3.981  0.3839  0.8240  0.0264
 5469SOL     OW28039   4.204   0.806  10.541 -0.1721 -0.4265  0.1495
 5469SOL    HW128040   4.203   0.879  10.603  0.6677  1.2850 -1.8518
 5469SOL    HW228041   4.240   0.734  10.593  1.2932  0.4893  0.4186
 5470SOL     OW28042   1.483   3.786   3.112  0.0931 -0.1079  0.4452
 5470SOL    HW128043   1.449   3.833   3.188 -1.2593 -2.1400  1.0704
 5470SOL    HW228044   1.571   3.824   3.123  0.3573 -0.7078  0.4040
 5471SOL     OW28045   0.241   3.547   7.584  0.2831  0.0172  0.3330
 5471SOL    HW128046   0.169   3.571   7.643  0.2121  0.3081  0.1276
 5471SOL    HW228047   0.285   3.477   7.632 -0.6224 -1.9886 -1.7340
 5472SOL     OW28048   1.037   2.702   9.589 -0.2318 -0.4969 -0.3812
 5472SOL    HW128049   1.121   2.710   9.635  0.3941  0.6105 -1.7141
 5472SOL    HW228050   0.969   2.708   9.656  1.0323  2.5213  0.6793
 5473SOL     OW28051   1.096   1.601   7.555 -0.8116 -0.0546 -0.0349
 5473SOL    HW128052   1.117   1.524   7.503 -3.3991 -0.0062 -1.1189
 5473SOL    HW228053   1.007   1.573   7.577 -0.4538 -1.4887 -0.4041
 5474SOL     OW28054   4.332   0.538   7.629  0.4694 -0.1189  0.0911
 5474SOL    HW128055   4.354   0.451   7.664  0.5354 -0.6460 -1.2394
 5474SOL    HW228056   4.255   0.510   7.579  1.0431 -1.5119 -0.0317
 5475SOL     OW28057   1.103   2.640   5.664  0.2019  0.1105  0.4605
 5475SOL    HW128058   1.090   2.710   5.600 -1.1865 -1.6365 -1.1752
 5475SOL    HW228059   1.136   2.567   5.610 -0.6051  0.2760 -0.2646
 5476SOL     OW28060   4.649   0.325  13.459  0.4052  0.5897  0.3002
 5476SOL    HW128061   4.598   0.296  13.535 -1.0273 -0.7576 -1.1742
 5476SOL    HW228062   4.580   0.378  13.419 -0.6111 -0.1484  1.0834
 5477SOL     OW28063   3.329   4.104  11.625 -0.2219 -0.2902 -0.0131
 5477SOL    HW128064   3.265   4.146  11.568 -1.2415  1.4780  2.4383
 5477SOL    HW228065   3.406   4.110  11.569 -0.1879  0.5473  0.1207
 5478SOL     OW28066   3.352   2.938   3.609  0.6645 -0.1596 -0.1932
 5478SOL    HW128067   3.316   2.867   3.662  0.2800 -0.1797 -0.4735
 5478SOL    HW228068   3.394   2.991   3.676  1.1857 -0.9144  0.0802
 5479SOL     OW28069   1.539   2.102   4.947 -0.4385 -0.0619 -0.0328
 5479SOL    HW128070   1.585   2.019   4.949  3.6515  2.2480  1.7114
 5479SOL    HW228071   1.501   2.097   5.034 -0.1922 -0.6649  0.0376
 5480SOL     OW28072   3.836   0.722   6.448 -0.8055  0.1129  0.8312
 5480SOL    HW128073   3.760   0.731   6.507 -0.9152 -1.1606  0.8830
 5480SOL    HW228074   3.817   0.786   6.380 -0.6215 -2.4059 -1.5704
 5481SOL     OW28075   3.543   2.608   4.465 -0.3947 -0.2265 -0.1842
 5481SOL    HW128076   3.471   2.568   4.415  1.5225 -2.2457 -1.3323
 5481SOL    HW228077   3.482   2.674   4.498 -0.6603  0.0367 -1.1929
 5482SOL     OW28078   2.607   2.527   0.214  0.1074 -0.1134  0.5928
 5482SOL    HW128079   2.558   2.491   0.287 -3.4250  0.5268 -1.4336
 5482SOL    HW228080   2.674   2.462   0.195 -1.3008 -1.4818  0.3125
 5483SOL     OW28081   4.558   2.521   7.105  0.1296 -0.5962  0.5606
 5483SOL    HW128082   4.475   2.482   7.080 -0.2287 -0.1055  0.9777
 5483SOL    HW228083   4.569   2.579   7.030  1.2626  0.9394  1.9268
 5484SOL     OW28084   4.497   2.530  13.436 -0.4478 -0.1548  0.1054
 5484SOL    HW128085   4.561   2.545  13.365 -2.0710  2.0390 -0.9085
 5484SOL    HW228086   4.550   2.569  13.505  1.6010 -1.2739 -0.8320
 5485SOL     OW28087   0.391   0.246   8.466 -0.0286  0.0779  0.0954
 5485SOL    HW128088   0.347   0.317   8.420 -3.5569 -1.2028  1.4312
 5485SOL    HW228089   0.432   0.283   8.544  0.9036 -0.5883 -0.0682
 5486SOL     OW28090   3.895   1.411   6.692 -0.1703 -0.2110  0.4321
 5486SOL    HW128091   3.950   1.356   6.748  0.4110  1.1645  1.2436
 5486SOL    HW228092   3.837   1.343   6.659 -0.2550  1.0013 -1.9181
 5487SOL     OW28093   3.890   1.947  15.904  0.1790  0.5431  0.1413
 5487SOL    HW128094   3.849   1.970  15.821  1.4579 -2.1982 -1.2622
 5487SOL    HW228095   3.971   1.999  15.902 -1.1824  2.6197 -0.9301
 5488SOL     OW28096   4.336   4.218   8.118 -0.3309  0.2583  0.3791
 5488SOL    HW128097   4.310   4.277   8.047  0.1336  0.8779  0.7172
 5488SOL    HW228098   4.410   4.174   8.078 -1.3621 -0.7581 -0.4074
 5489SOL     OW28099   0.012   4.621   1.435  0.4365  0.1972 -0.4686
 5489SOL    HW128100   4.692   4.598   1.509  1.6589 -1.2328  0.0024
 5489SOL    HW228101   4.683   4.645   1.368  0.1392  3.6501  1.0735
 5490SOL     OW28102   0.971   3.637  12.377 -0.0636 -0.0703 -0.0866
 5490SOL    HW128103   0.892   3.662  12.328  0.2722 -1.5013 -1.3711
 5490SOL    HW228104   0.929   3.653  12.461 -0.0120 -0.7879  0.0766
 5491SOL     OW28105   1.213   0.201   4.587  0.3283 -0.2351  0.4738
 5491SOL    HW128106   1.231   0.112   4.617  1.4791 -0.9141 -2.2288
 5491SOL    HW228107   1.296   0.246   4.601  0.6332 -0.5839 -0.2160
 5492SOL     OW28108   3.117   0.186   9.521  0.7867  0.6257  0.4791
 5492SOL    HW128109   3.037   0.148   9.485  0.7782  0.8219  0.2895
 5492SOL    HW228110   3.176   0.182   9.446 -1.0453 -1.2149 -0.8811
 5493SOL     OW28111   0.962   1.632   3.503  0.4597 -0.2540 -0.1746
 5493SOL    HW128112   0.928   1.565   3.444  0.5719 -0.6180  0.1754
 5493SOL    HW228113   0.911   1.707   3.471  1.6301  0.7177  0.2131
 5494SOL     OW28114   2.682   4.370   1.211  0.2760  0.0554 -0.1562
 5494SOL    HW128115   2.760   4.389   1.263 -1.4725  1.4612  1.9413
 5494SOL    HW228116   2.679   4.276   1.228  1.5689  0.2609  1.2921
 5495SOL     OW28117   0.482   1.772   1.902  0.5060 -0.6627 -0.3909
 5495SOL    HW128118   0.435   1.801   1.824  1.1517 -0.4425 -0.7029
 5495SOL    HW228119   0.450   1.816   1.982  0.9269  0.5417 -0.8756
 5496SOL     OW28120   4.287   4.325  17.504  0.5842  0.3367 -0.0459
 5496SOL    HW128121   4.221   4.281  17.558  1.8982  1.0269  2.0992
 5496SOL    HW228122   4.286   4.271  17.425  2.3931  0.5975 -0.2552
 5497SOL     OW28123   4.170   3.703  12.093  0.3713  0.3525 -0.1786
 5497SOL    HW128124   4.207   3.755  12.165  0.1465  0.8880 -0.4499
 5497SOL    HW228125   4.129   3.632  12.144 -1.0372  1.1027 -0.2500
 5498SOL     OW28126   1.642   1.359   1.793  0.1021  0.4559 -0.4272
 5498SOL    HW128127   1.568   1.338   1.850  0.5359 -0.3236 -0.1511
 5498SOL    HW228128   1.712   1.352   1.858 -1.4287  1.3404  1.3111
 5499SOL     OW28129   4.357   1.747   4.683  0.5627  0.4401  0.0863
 5499SOL    HW128130   4.312   1.745   4.767  1.4984  0.3146  0.5813
 5499SOL    HW228131   4.432   1.805   4.695 -0.9360  1.9893  1.9477
 5500SOL     OW28132   0.955   4.434   6.337  0.3372 -0.3369  0.1849
 5500SOL    HW128133   0.992   4.382   6.266 -1.1522 -0.6098 -0.3886
 5500SOL    HW228134   0.978   4.382   6.414  0.8045  1.1254  1.0410
 5501SOL     OW28135   2.682   3.665  16.229  0.0778  0.1512 -0.1195
 5501SOL    HW128136   2.704   3.708  16.147 -1.4203 -1.1646 -1.2097
 5501SOL    HW228137   2.623   3.595  16.201  1.7752 -2.7936  3.6189
 5502SOL     OW28138   1.773   2.729   5.276 -0.2225 -0.1093 -0.1847
 5502SOL    HW128139   1.778   2.782   5.356 -0.3570 -0.7156  0.2197
 5502SOL    HW228140   1.712   2.779   5.222  2.8392  3.2501 -0.5485
 5503SOL     OW28141   4.042   4.171   3.980  0.3548  1.0059  0.1906
 5503SOL    HW128142   4.091   4.111   3.924 -0.1744  1.2680 -0.5529
 5503SOL    HW228143   3.952   4.142   3.963  0.6949  0.7023 -1.0672
 5504SOL     OW28144   0.033   2.675   2.149 -0.3325 -0.3072  0.1232
 5504SOL    HW128145   0.060   2.762   2.118 -0.8209 -0.5009 -0.8681
 5504SOL    HW228146   4.716   2.710   2.221  1.3346  1.2629  0.5766
 5505SOL     OW28147   2.024   4.519   5.660 -0.2562 -0.0479  0.3037
 5505SOL    HW128148   1.968   4.509   5.583 -2.0793 -0.2845  1.6608
 5505SOL    HW228149   2.013   4.433   5.702 -0.2833  1.1638  2.8217
 5506SOL     OW28150   2.838   0.034   5.507 -0.0372  0.0260 -0.0339
 5506SOL    HW128151   2.919   4.718   5.507  0.6792  1.1641 -0.7396
 5506SOL    HW228152   2.786   0.006   5.583 -1.6609  1.3874 -0.6633
 5507SOL     OW28153   1.944   2.814   4.928  0.2097  0.0565  0.0999
 5507SOL    HW128154   1.993   2.812   5.011 -1.5058 -0.6405  1.1115
 5507SOL    HW228155   1.921   2.721   4.919 -0.0456  0.2237 -0.9037
 5508SOL     OW28156   1.519   3.169   9.285  0.2808  0.0050 -0.7685
 5508SOL    HW128157   1.554   3.084   9.310 -1.0377 -0.1157  0.7270
 5508SOL    HW228158   1.431   3.139   9.260  0.2115 -1.6616  1.4303
 5509SOL     OW28159   0.232   0.212   5.043 -0.0838 -0.0799 -0.0974
 5509SOL    HW128160   0.165   0.190   4.978 -0.1915 -0.1268  0.0307
 5509SOL    HW228161   0.195   0.161   5.116  0.6345 -0.6117 -0.1058
 5510SOL     OW28162   0.353   3.260  11.758 -0.2364 -0.5580  0.2743
 5510SOL    HW128163   0.328   3.329  11.820  3.1270  0.6547  0.2661
 5510SOL    HW228164   0.349   3.182  11.814  0.9085  1.1277  2.7246
 5511SOL     OW28165   4.256   1.209   7.117 -0.0703  0.4196  0.2463
 5511SOL    HW128166   4.209   1.130   7.090  0.0842 -0.1430  1.6779
 5511SOL    HW228167   4.266   1.188   7.209  0.5372 -1.4107 -0.2437
 5512SOL     OW28168   2.498   0.931   9.118  0.2513  0.0588 -0.0314
 5512SOL    HW128169   2.463   0.898   9.035  1.2531 -1.1129  0.0200
 5512SOL    HW228170   2.457   0.870   9.178 -0.0619  1.2154  0.9186
 5513SOL     OW28171   3.200   0.546  17.392  0.1299  0.3189 -0.1512
 5513SOL    HW128172   3.263   0.582  17.454  0.4883 -1.5700  0.6056
 5513SOL    HW228173   3.144   0.489  17.445  0.2326  0.1891 -0.1826
 5514SOL     OW28174   4.414   4.720  16.714 -0.4009 -0.0670 -0.4076
 5514SOL    HW128175   4.342   4.724  16.651  0.1662 -0.9091 -1.1103
 5514SOL    HW228176   4.427   0.075  16.741 -0.2723  0.3895 -1.9830
 5515SOL     OW28177   3.270   1.259   5.727 -0.3164 -0.2270  0.8202
 5515SOL    HW128178   3.188   1.297   5.696 -0.3103 -0.2380  0.7902
 5515SOL    HW228179   3.325   1.245   5.650  1.3424  0.0600  1.9436
 5516SOL     OW28180   0.464   3.121  16.390 -0.1016 -0.2891  0.4568
 5516SOL    HW128181   0.547   3.079  16.411 -0.4644 -0.5762  1.3416
 5516SOL    HW228182   0.406   3.075  16.451 -1.7293  0.9082 -0.1978
 5517SOL     OW28183   1.421   2.782  15.323 -0.2738  0.1374 -0.1082
 5517SOL    HW128184   1.351   2.837  15.287  0.3249 -1.2212 -3.3173
 5517SOL    HW228185   1.431   2.708  15.264  0.0585  0.6063 -0.6406
 5518SOL     OW28186   1.967   1.781   7.153  0.3465  0.0144  0.0647
 5518SOL    HW128187   1.927   1.848   7.098 -1.3834 -1.0615  0.0078
 5518SOL    HW228188   2.061   1.782   7.136  0.4287 -0.6146  0.4727
 5519SOL     OW28189   3.138   2.945  10.676  0.4378  0.0245 -0.4920
 5519SOL    HW128190   3.159   2.854  10.699  2.8077  0.2723 -1.7014
 5519SOL    HW228191   3.226   2.974  10.652  0.8495 -1.1149 -0.3978
 5520SOL     OW28192   0.596   3.173   9.301  0.0363  0.1722  0.4359
 5520SOL    HW128193   0.620   3.110   9.369 -0.3481  0.5696  0.9412
 5520SOL    HW228194   0.606   3.122   9.220  1.5121  0.8666  0.1910
 5521SOL     OW28195   2.305   2.321  10.639 -0.1764  0.3765 -0.5774
 5521SOL    HW128196   2.213   2.297  10.624  1.0842 -2.8457 -3.0656
 5521SOL    HW228197   2.283   2.414  10.645 -1.3737 -0.0306  1.7364
 5522SOL     OW28198   4.072   4.568  17.695 -0.1892 -0.0374  0.2949
 5522SOL    HW128199   4.056   4.658  17.722 -0.4024  0.3642 -1.1500
 5522SOL    HW228200   4.009   4.558  17.624 -1.2842 -0.3081  1.3115
 5523SOL     OW28201   2.951   2.870   3.876 -0.2386  0.7857  0.3256
 5523SOL    HW128202   2.934   2.776   3.874  0.2219  0.7084  0.1755
 5523SOL    HW228203   2.990   2.867   3.964  0.2955  2.9213  0.1645
 5524SOL     OW28204   0.039   1.871   4.736  0.2413  0.3697 -0.1619
 5524SOL    HW128205   0.045   1.780   4.767  2.0515  1.5991  3.0838
 5524SOL    HW228206   4.717   1.853   4.662 -1.3239  0.8998  0.9450
 5525SOL     OW28207   1.667   4.435  13.011 -0.0997  0.1266 -0.3911
 5525SOL    HW128208   1.753   4.405  13.038 -0.5905  0.1295  1.1970
 5525SOL    HW228209   1.696   4.462  12.925 -0.9844  1.3108 -0.3271
 5526SOL     OW28210   1.149   4.063   3.223 -0.2628  0.8027  0.7812
 5526SOL    HW128211   1.093   4.019   3.286  0.8429 -2.3760 -0.4285
 5526SOL    HW228212   1.087   4.061   3.151  1.4518  0.3245 -0.6895
 5527SOL     OW28213   2.481   2.424   0.624 -0.5612  0.5573 -0.3095
 5527SOL    HW128214   2.435   2.373   0.690  1.8220 -0.2670  0.6990
 5527SOL    HW228215   2.567   2.434   0.664 -1.1469  1.4748  0.7150
 5528SOL     OW28216   2.033   4.462  16.654  0.3020  0.1546 -0.3035
 5528SOL    HW128217   2.025   4.558  16.650  0.0926  0.1744  0.5718
 5528SOL    HW228218   2.125   4.444  16.637 -0.2879 -0.9051 -2.2797
 5529SOL     OW28219   4.421   4.188  12.471  0.2296  0.4229 -0.2170
 5529SOL    HW128220   4.360   4.256  12.442  0.6119  2.0349  2.7545
 5529SOL    HW228221   4.454   4.219  12.555  1.8337 -0.0509 -0.6810
 5530SOL     OW28222   2.842   2.264   1.564 -0.2602  0.1267 -0.4400
 5530SOL    HW128223   2.865   2.281   1.655 -0.5967  0.6674 -0.4517
 5530SOL    HW228224   2.920   2.279   1.511  0.4799 -0.1955  0.5592
 5531SOL     OW28225   2.053   0.940   7.604 -0.6119 -0.1055  0.2830
 5531SOL    HW128226   2.085   1.028   7.585  1.1894 -1.0889 -1.3743
 5531SOL    HW228227   2.037   0.907   7.515  1.6951 -0.7183  0.0755
 5532SOL     OW28228   0.105   0.877   3.571 -0.3561 -0.2000  0.2826
 5532SOL    HW128229   0.110   0.844   3.482  1.3511  0.3657  0.1688
 5532SOL    HW228230   0.016   0.911   3.564  0.0636  0.9272  0.4634
 5533SOL     OW28231   2.062   2.145   4.335 -0.2267  0.2131 -0.3372
 5533SOL    HW128232   2.029   2.233   4.317  0.2430  0.1796 -1.3648
 5533SOL    HW228233   2.038   2.103   4.252  0.2592  0.2303 -0.4876
 5534SOL     OW28234   2.057   0.488  12.584 -0.1700  0.1437  0.0851
 5534SOL    HW128235   2.140   0.536  12.585  1.2238 -2.1471 -1.9063
 5534SOL    HW228236   2.079   0.419  12.521 -1.9663  1.6682 -2.2247
 5535SOL     OW28237   2.913   3.570   1.590 -0.0328 -0.7985 -0.1969
 5535SOL    HW128238   2.952   3.483   1.591  2.2821  0.2555 -0.6154
 5535SOL    HW228239   2.826   3.537   1.565 -0.7416 -0.6770  2.0259
 5536SOL     OW28240   1.853   3.879   8.212 -0.2577 -0.3003 -0.0863
 5536SOL    HW128241   1.814   3.960   8.243 -0.4350 -0.1239 -0.7596
 5536SOL    HW228242   1.780   3.817   8.223 -2.5947  2.7377  1.4468
 5537SOL     OW28243   2.378   1.248   2.601 -0.9378  0.3517 -0.1502
 5537SOL    HW128244   2.335   1.166   2.622 -1.1220  0.3041 -0.7288
 5537SOL    HW228245   2.423   1.273   2.682 -0.5995 -1.2959  0.1752
 5538SOL     OW28246   2.362   2.048   7.807 -0.2759  0.2769 -0.5004
 5538SOL    HW128247   2.414   2.090   7.876 -0.4664 -0.7689  0.2880
 5538SOL    HW228248   2.362   2.110   7.734 -2.2270 -2.0270 -2.4313
 5539SOL     OW28249   2.113   1.242   1.201 -0.2773 -0.3244 -0.3085
 5539SOL    HW128250   2.133   1.313   1.140 -3.6268 -1.0557 -2.2153
 5539SOL    HW228251   2.023   1.266   1.221  0.3006 -0.6144  2.5576
 5540SOL     OW28252   1.459   1.006   2.347  0.5688  0.3827  0.7849
 5540SOL    HW128253   1.428   0.924   2.307  2.4627 -0.6073  1.3311
 5540SOL    HW228254   1.508   0.965   2.418  2.1086  0.3798 -0.2846
 5541SOL     OW28255   4.472   4.011   6.867  0.2772  0.0952  0.1554
 5541SOL    HW128256   4.425   4.053   6.939 -0.9607 -0.5808 -0.2607
 5541SOL    HW228257   4.453   4.069   6.794 -0.6527  1.1938  1.2891
 5542SOL     OW28258   3.342   4.076   1.726  0.4577 -0.6105  0.6808
 5542SOL    HW128259   3.296   3.998   1.757  2.7546 -1.5434  1.7694
 5542SOL    HW228260   3.269   4.137   1.735  1.1982  0.7955 -3.0814
 5543SOL     OW28261   1.832   2.516  12.461 -0.2140  0.0452  0.2844
 5543SOL    HW128262   1.850   2.554  12.547 -1.1856  1.1112  0.0107
 5543SOL    HW228263   1.737   2.517  12.458 -0.1770  0.1917 -0.9457
 5544SOL     OW28264   3.795   2.995  10.496  0.4183 -0.2826 -0.4463
 5544SOL    HW128265   3.711   2.987  10.450  0.1527  1.9004 -0.3355
 5544SOL    HW228266   3.821   2.904  10.482  0.3322 -0.5710  1.2034
 5545SOL     OW28267   3.176   3.345   3.149  0.3220 -0.7723  0.0894
 5545SOL    HW128268   3.173   3.396   3.068 -0.2236  0.6390  1.0130
 5545SOL    HW228269   3.087   3.361   3.179  0.7611 -0.2197  1.0709
 5546SOL     OW28270   3.886   2.787  15.134 -0.4656  0.6635  0.7588
 5546SOL    HW128271   3.921   2.792  15.045 -0.7855  1.0589  0.6558
 5546SOL    HW228272   3.956   2.842  15.169 -0.0800 -0.2021  1.3466
 5547SOL     OW28273   3.839   4.482   5.484  0.7405  0.0312 -0.4216
 5547SOL    HW128274   3.850   4.451   5.574 -0.0855  0.7861 -0.0670
 5547SOL    HW228275   3.845   4.577   5.492  1.9424 -0.1079  0.4508
 5548SOL     OW28276   0.296   0.768   5.127  0.4277  0.8776  0.0286
 5548SOL    HW128277   0.257   0.707   5.063  2.4055 -0.0654 -0.2730
 5548SOL    HW228278   0.350   0.709   5.180 -0.6786  0.8388  1.1176
 5549SOL     OW28279   0.245   3.221   2.944  0.0972  1.0204  0.0539
 5549SOL    HW128280   0.153   3.233   2.966  0.4648 -0.4180  2.3942
 5549SOL    HW228281   0.255   3.130   2.973  0.9684  0.8863 -0.6578
 5550SOL     OW28282   4.377   0.699  14.495  0.4791 -0.1846 -0.0370
 5550SOL    HW128283   4.332   0.628  14.540  0.6465 -0.0886  0.2825
 5550SOL    HW228284   4.324   0.776  14.513  0.2450  0.0261 -1.6693
 5551SOL     OW28285   3.869   4.490  15.930 -0.2176 -0.2660  0.4985
 5551SOL    HW128286   3.794   4.539  15.897 -0.9182 -1.0792  0.8736
 5551SOL    HW228287   3.920   4.563  15.964 -0.5444  0.3817 -0.3901
 5552SOL     OW28288   1.483   0.333   7.615 -0.0325  0.0638 -0.1361
 5552SOL    HW128289   1.433   0.312   7.693 -0.0785 -1.4133 -0.5616
 5552SOL    HW228290   1.426   0.402   7.580  1.3152 -0.2958 -3.0993
 5553SOL     OW28291   2.977   4.477   0.254  0.0407  0.1018 -0.1835
 5553SOL    HW128292   3.025   4.560   0.262  1.5556 -0.6448 -1.5252
 5553SOL    HW228293   2.892   4.508   0.285  0.2287  0.4236  0.0209
 5554SOL     OW28294   2.760   4.333  16.175  0.1967 -0.0332  0.1002
 5554SOL    HW128295   2.803   4.417  16.186 -0.0764  0.0606  0.4295
 5554SOL    HW228296   2.798   4.283  16.247  1.1144 -1.9360 -1.6933
 5555SOL     OW28297   1.512   3.415   1.422 -0.3522 -0.5902 -0.6971
 5555SOL    HW128298   1.570   3.439   1.495 -1.6750 -1.0090  0.4916
 5555SOL    HW228299   1.512   3.479   1.351  0.7873  0.2512  0.0558
 5556SOL     OW28300   3.779   0.590   7.426  0.0867  0.0760  0.0634
 5556SOL    HW128301   3.759   0.499   7.446  1.6189 -0.5104 -1.1338
 5556SOL    HW228302   3.831   0.578   7.346 -2.0271 -0.5383 -1.2338
 5557SOL     OW28303   1.879   3.319   6.518 -0.1975 -0.3354  0.5039
 5557SOL    HW128304   1.952   3.327   6.580 -0.0794  0.2210  0.2979
 5557SOL    HW228305   1.821   3.260   6.565 -1.6278 -0.5890 -1.6017
 5558SOL     OW28306   2.517   0.751  10.980 -0.2392  0.6440 -0.3476
 5558SOL    HW128307   2.444   0.695  10.954  0.3103  0.6878 -1.9734
 5558SOL    HW228308   2.591   0.691  10.991 -1.4625 -0.5366  1.4817
 5559SOL     OW28309   2.388   1.809   8.143  0.3947 -0.6774 -0.5892
 5559SOL    HW128310   2.408   1.742   8.209  1.7015  2.1864  1.9149
 5559SOL    HW228311   2.392   1.888   8.197  1.3216 -0.8585 -0.3790
 5560SOL     OW28312   2.993   4.251   4.374  0.2914 -0.2331  0.4718
 5560SOL    HW128313   2.955   4.306   4.443 -0.4637 -0.8500  0.5518
 5560SOL    HW228314   2.914   4.206   4.344  0.2749  0.7061 -0.8602
 5561SOL     OW28315   0.226   3.506   3.698  0.2629 -0.0971 -0.1217
 5561SOL    HW128316   0.232   3.518   3.793 -1.5965  0.8437 -0.1087
 5561SOL    HW228317   0.235   3.411   3.689  1.0852 -0.0350  0.0838
 5562SOL     OW28318   2.992   3.802   2.209 -0.4413  0.5645  0.0782
 5562SOL    HW128319   3.024   3.737   2.147 -1.4720 -0.9908  1.1943
 5562SOL    HW228320   2.952   3.744   2.274 -0.3245 -0.0202 -0.3800
 5563SOL     OW28321   3.070   2.580   6.468 -0.2463  0.4539 -0.1533
 5563SOL    HW128322   3.112   2.663   6.493 -1.9191  1.1506  0.3196
 5563SOL    HW228323   3.012   2.557   6.540 -0.8292  0.5297 -0.5955
 5564SOL     OW28324   2.200   2.247   2.698  0.4135  0.4486  0.0936
 5564SOL    HW128325   2.195   2.277   2.789  0.1558 -0.9986  0.5579
 5564SOL    HW228326   2.178   2.157   2.721  0.3217  0.6263  0.7100
 5565SOL     OW28327   3.056   3.779  12.717 -0.2926  0.1970 -0.3074
 5565SOL    HW128328   3.092   3.728  12.644  0.8279 -2.2872  1.9461
 5565SOL    HW228329   2.963   3.793  12.700 -0.3305 -0.7533 -0.8616
 5566SOL     OW28330   1.715   1.645   7.014  0.1793  0.0398 -0.6117
 5566SOL    HW128331   1.793   1.641   6.959  1.4542  3.3295  0.9431
 5566SOL    HW228332   1.659   1.570   6.995  1.0982 -0.6040 -0.7640
 5567SOL     OW28333   3.569   1.669   1.408  0.0902 -0.0137 -0.2385
 5567SOL    HW128334   3.512   1.659   1.484  0.4965  0.7084  0.1597
 5567SOL    HW228335   3.648   1.621   1.434 -1.1752 -1.8114  0.2894
 5568SOL     OW28336   3.455   2.459  16.595 -0.0435 -0.3202 -0.1406
 5568SOL    HW128337   3.483   2.368  16.593  0.0212 -0.2834 -0.7239
 5568SOL    HW228338   3.535   2.507  16.612  0.3202 -0.8696 -0.3103
 5569SOL     OW28339   2.301   0.014   6.756  0.3164 -0.4576  0.3789
 5569SOL    HW128340   2.223   0.015   6.700  2.0177  0.9093 -1.9941
 5569SOL    HW228341   2.269   0.042   6.841 -1.9843 -0.0318 -0.6172
 5570SOL     OW28342   3.379   4.275   7.282  0.8123  0.2073  0.3010
 5570SOL    HW128343   3.442   4.326   7.332  0.8762  0.5229 -0.1011
 5570SOL    HW228344   3.434   4.250   7.208  1.5805  0.4922  0.7774
 5571SOL     OW28345   2.982   2.149   6.132  0.2022  0.1092  0.5427
 5571SOL    HW128346   3.011   2.167   6.221  1.1370  2.2686 -0.1956
 5571SOL    HW228347   3.066   2.109   6.108 -0.1777 -1.1317  1.2947
 5572SOL     OW28348   2.955   1.374   4.861 -0.2435  0.1985  0.0325
 5572SOL    HW128349   2.939   1.322   4.939  0.6754 -1.3176 -0.7931
 5572SOL    HW228350   2.926   1.308   4.799  1.2079  2.2692 -2.8633
 5573SOL     OW28351   3.507   2.828   2.819  0.0149  0.0247  0.2749
 5573SOL    HW128352   3.524   2.735   2.805  1.3641  0.4985 -1.2325
 5573SOL    HW228353   3.443   2.826   2.890 -1.7301 -2.3414 -1.3683
 5574SOL     OW28354   0.385   0.593   8.645 -0.4481 -0.1183  0.0924
 5574SOL    HW128355   0.359   0.551   8.562 -1.6825  0.0377  0.4032
 5574SOL    HW228356   0.384   0.679   8.604 -1.9101 -0.4405 -0.5631
 5575SOL     OW28357   2.686   0.930   7.965 -0.3896  0.0933  0.2530
 5575SOL    HW128358   2.761   0.991   7.963 -1.3384  1.2089 -1.3701
 5575SOL    HW228359   2.714   0.866   8.030 -2.2438 -0.0124  0.9468
 5576SOL     OW28360   3.640   3.530   1.942  0.0593 -0.1589  0.1542
 5576SOL    HW128361   3.712   3.586   1.914  1.1895 -1.7290 -0.0707
 5576SOL    HW228362   3.619   3.502   1.853  3.8921 -1.5281 -0.3115
 5577SOL     OW28363   4.111   3.514   8.846  0.0183  0.0491 -0.1094
 5577SOL    HW128364   4.044   3.582   8.842  3.2546  3.0733 -2.5741
 5577SOL    HW228365   4.133   3.540   8.935  1.8922 -1.3400 -0.1574
 5578SOL     OW28366   0.535   2.881   6.938  0.1073  0.0248 -0.4793
 5578SOL    HW128367   0.606   2.825   6.903 -0.1826  0.0919 -1.1702
 5578SOL    HW228368   0.577   2.966   6.934  2.0931 -0.9053  0.2877
 5579SOL     OW28369   2.516   3.244  12.622 -0.2542 -0.6268 -0.1880
 5579SOL    HW128370   2.471   3.301  12.685  1.3913 -1.1710  1.4568
 5579SOL    HW228371   2.602   3.232  12.662 -1.6984 -0.6530  2.8395
 5580SOL     OW28372   4.397   3.380   5.896 -0.0460 -0.0192 -0.3893
 5580SOL    HW128373   4.326   3.315   5.890 -1.8304  1.9049 -0.0787
 5580SOL    HW228374   4.376   3.426   5.815 -2.9081  0.4554  0.6231
 5581SOL     OW28375   3.107   2.087   4.856 -0.2248  0.0188 -0.1047
 5581SOL    HW128376   3.195   2.098   4.892 -0.6418 -1.7324  1.4530
 5581SOL    HW228377   3.059   2.068   4.937  0.9858  0.1368  0.6424
 5582SOL     OW28378   3.918   1.793   7.800  0.4137 -1.1659 -0.2066
 5582SOL    HW128379   3.991   1.827   7.748 -0.1060  0.5119  0.1473
 5582SOL    HW228380   3.890   1.714   7.754 -1.1612 -0.6930 -0.0618
 5583SOL     OW28381   3.868   0.362  13.891  0.9053 -0.1515 -0.3218
 5583SOL    HW128382   3.940   0.400  13.839  0.5098  2.2624  0.9184
 5583SOL    HW228383   3.841   0.438  13.942 -0.8139 -0.2331 -1.1192
 5584SOL     OW28384   3.008   2.916   2.249 -0.1994 -0.6646  0.3144
 5584SOL    HW128385   3.079   2.973   2.278 -0.4852  0.3993 -1.0605
 5584SOL    HW228386   2.943   2.920   2.319 -3.2537  2.1273 -2.7166
 5585SOL     OW28387   2.712   1.687  15.629 -0.7284  0.0455  0.0386
 5585SOL    HW128388   2.722   1.755  15.563  0.3966 -0.5363 -0.3942
 5585SOL    HW228389   2.789   1.633  15.609 -0.4510  0.7100 -0.6576
 5586SOL     OW28390   2.038   0.532   9.857 -1.2339  0.2635 -0.0356
 5586SOL    HW128391   2.130   0.527   9.831 -0.6664  2.7213  1.5059
 5586SOL    HW228392   2.004   0.530   9.767 -0.3023  0.3115 -0.3821
 5587SOL     OW28393   4.680   1.995   9.469 -0.3812 -0.0885  0.4013
 5587SOL    HW128394   4.655   2.012   9.378  2.1260 -0.9896 -0.4676
 5587SOL    HW228395   4.659   2.077   9.513  2.3903  0.4615  0.7433
 5588SOL     OW28396   2.095   3.846   8.116 -0.2826  0.5427  0.3313
 5588SOL    HW128397   2.009   3.853   8.158  0.0289 -0.4063  1.1493
 5588SOL    HW228398   2.135   3.795   8.187 -1.3508  0.0403  0.5777
 5589SOL     OW28399   1.214   2.920   5.597 -0.1767 -0.0123 -0.0086
 5589SOL    HW128400   1.209   2.899   5.690  0.1403  1.3330  0.3139
 5589SOL    HW228401   1.239   3.012   5.601 -1.0328  0.2322 -0.4667
 5590SOL     OW28402   2.095   2.173   0.424 -0.1260 -0.2987  0.4443
 5590SOL    HW128403   2.065   2.200   0.511  0.2058  0.9804  0.1631
 5590SOL    HW228404   2.018   2.216   0.386  0.6768 -1.4127 -2.4197
 5591SOL     OW28405   4.390   2.495   8.167 -0.6179 -0.6292  0.4734
 5591SOL    HW128406   4.470   2.457   8.206  0.2245 -0.3536 -0.9979
 5591SOL    HW228407   4.326   2.466   8.232 -1.3041 -3.4076 -1.4416
 5592SOL     OW28408   0.259   2.230  11.188  0.1411  0.3708 -0.0943
 5592SOL    HW128409   0.191   2.294  11.171 -0.5292  0.5539  3.1496
 5592SOL    HW228410   0.273   2.194  11.101 -1.2699 -1.5335  0.4662
 5593SOL     OW28411   2.664   2.200   8.115 -0.1354  0.2604 -0.6115
 5593SOL    HW128412   2.585   2.245   8.084  0.4778  0.7389 -1.4838
 5593SOL    HW228413   2.723   2.266   8.152 -0.2969 -0.6583  1.2960
 5594SOL     OW28414   4.123   2.231   3.063  0.1998  0.1752  0.3365
 5594SOL    HW128415   4.062   2.202   3.131  0.4486 -0.5414  0.2537
 5594SOL    HW228416   4.091   2.177   2.990  0.6510 -0.8033  0.8606
 5595SOL     OW28417   0.503   4.167   8.980  0.2026 -0.2520 -0.5149
 5595SOL    HW128418   0.551   4.129   9.053 -2.9390 -0.6721  1.3352
 5595SOL    HW228419   0.523   4.106   8.909  2.1670  1.1048 -1.1689
 5596SOL     OW28420   0.055   1.914  16.634 -0.0034 -0.1034 -0.2129
 5596SOL    HW128421   0.056   1.943  16.726  0.4240 -3.2965  0.7918
 5596SOL    HW228422   4.697   1.908  16.619 -0.3778 -0.3007  2.1330
 5597SOL     OW28423   4.621   3.974   6.537  0.5626  0.2831 -0.3943
 5597SOL    HW128424   4.612   4.051   6.481 -0.2559  0.5741  0.1302
 5597SOL    HW228425   4.537   3.931   6.521 -0.5368  1.7283  1.4875
 5598SOL     OW28426   0.551   2.559   3.740 -0.2572  0.2949 -0.1134
 5598SOL    HW128427   0.573   2.588   3.652 -1.4138  2.0917  0.1769
 5598SOL    HW228428   0.507   2.475   3.726 -3.0989  1.8926 -0.7883
 5599SOL     OW28429   1.641   3.512  17.579  0.2293 -0.2030  0.4750
 5599SOL    HW128430   1.686   3.554  17.506  1.3264  1.0345  1.8706
 5599SOL    HW228431   1.590   3.446  17.531 -2.2724  0.0602  2.7959
 5600SOL     OW28432   2.641   3.220   8.885 -0.0513 -0.1963 -0.2897
 5600SOL    HW128433   2.676   3.146   8.835 -2.6063  0.1436 -2.5682
 5600SOL    HW228434   2.630   3.278   8.810 -1.0996  0.7769  0.6145
 5601SOL     OW28435   3.206   2.319   6.203  0.2834  0.1567  0.0729
 5601SOL    HW128436   3.261   2.269   6.143  1.1119 -1.3742  2.1112
 5601SOL    HW228437   3.266   2.392   6.218  0.7704 -0.3458  0.5364
 5602SOL     OW28438   3.939   2.404   5.071  0.1122  0.4800 -0.0711
 5602SOL    HW128439   3.971   2.322   5.108 -0.0292  1.2697  1.8045
 5602SOL    HW228440   4.012   2.435   5.017 -0.3382 -0.5368 -1.2454
 5603SOL     OW28441   1.035   1.759   1.493  0.4423  0.2871 -0.0141
 5603SOL    HW128442   1.121   1.739   1.456 -0.1092  1.1360 -1.7668
 5603SOL    HW228443   1.016   1.845   1.455 -1.4770  0.6392  1.7270
 5604SOL     OW28444   2.143   2.917   7.711 -0.5336 -0.1542  0.4391
 5604SOL    HW128445   2.225   2.920   7.662 -0.4825 -1.0937  0.4517
 5604SOL    HW228446   2.185   2.889   7.792 -0.1565 -0.4847  0.1273
 5605SOL     OW28447   2.634   3.944   6.715  0.3407 -0.0124 -0.0761
 5605SOL    HW128448   2.606   3.913   6.629 -1.8436 -1.4754  1.1684
 5605SOL    HW228449   2.644   4.039   6.704  3.2324 -0.6709 -3.1117
 5606SOL     OW28450   1.734   4.411   4.551  0.2833 -0.3265  0.1669
 5606SOL    HW128451   1.801   4.475   4.530  1.6180 -2.1473 -1.0394
 5606SOL    HW228452   1.786   4.332   4.569 -0.6683 -1.2721 -1.1829
 5607SOL     OW28453   4.042   1.200  10.223 -0.0982 -0.2711 -0.2866
 5607SOL    HW128454   4.124   1.235  10.186 -0.9251  0.6517 -1.2282
 5607SOL    HW228455   4.075   1.148  10.296  1.4958 -2.4652 -2.5745
 5608SOL     OW28456   0.168   4.231   4.289  0.7161  0.5157  0.6117
 5608SOL    HW128457   0.209   4.150   4.319 -1.2746 -0.3481  0.9830
 5608SOL    HW228458   0.156   4.281   4.369  3.1401  1.7354  0.2404
 5609SOL     OW28459   2.892   4.283  11.324 -0.5862 -0.0279  0.0436
 5609SOL    HW128460   2.896   4.214  11.391  2.4013  0.5002  0.4502
 5609SOL    HW228461   2.809   4.275  11.278 -1.1649 -0.3426  1.1326
 5610SOL     OW28462   3.400   0.812   7.079  0.0205  0.1655  0.0824
 5610SOL    HW128463   3.378   0.904   7.091  0.1130 -0.0182  1.7073
 5610SOL    HW228464   3.415   0.800   6.985  0.2561 -1.8497  0.3840
 5611SOL     OW28465   1.190   2.243   3.050 -0.3774  0.0477  0.1513
 5611SOL    HW128466   1.272   2.269   3.008  1.1343 -2.4863  1.5112
 5611SOL    HW228467   1.213   2.232   3.142  1.6110 -3.4783 -0.7581
 5612SOL     OW28468   2.863   4.142  12.127  0.2088 -0.1861  0.2766
 5612SOL    HW128469   2.885   4.191  12.048  0.1772  2.7367  2.0983
 5612SOL    HW228470   2.866   4.051  12.096  4.4604 -0.2126  0.6916
 5613SOL     OW28471   3.406   0.728   9.427  0.0180  0.0768  0.1907
 5613SOL    HW128472   3.445   0.758   9.345  0.0041  0.7877  0.4428
 5613SOL    HW228473   3.342   0.798   9.441  0.4004  0.3044  0.8074
 5614SOL     OW28474   2.698   0.193   2.464  0.3433  0.2237  0.7340
 5614SOL    HW128475   2.768   0.246   2.426 -0.8052  1.0459 -0.2011
 5614SOL    HW228476   2.623   0.252   2.472  0.7536  0.9965 -1.1424
 5615SOL     OW28477   3.169   1.319  15.596 -0.1810 -0.3409 -0.3900
 5615SOL    HW128478   3.126   1.402  15.617 -0.7500 -0.4739 -1.0378
 5615SOL    HW228479   3.192   1.341  15.505 -1.2126 -0.2180 -0.6197
 5616SOL     OW28480   0.141   0.568  12.083  0.2560  0.0160 -0.2826
 5616SOL    HW128481   0.237   0.570  12.088  0.4217 -2.4566 -2.0461
 5616SOL    HW228482   0.124   0.659  12.059  0.2337 -0.2347 -1.2540
 5617SOL     OW28483   3.848   3.397   4.080  0.1261 -0.4345 -0.3845
 5617SOL    HW128484   3.875   3.374   3.991  3.3138 -1.6916  0.9169
 5617SOL    HW228485   3.929   3.441   4.104  0.4653 -0.2244 -1.8844
 5618SOL     OW28486   4.696   2.679   4.058 -0.0802 -0.5584  0.2628
 5618SOL    HW128487   0.025   2.694   3.989  0.2593 -0.9409  0.4994
 5618SOL    HW228488   4.700   2.583   4.060 -0.6209 -0.5986 -0.3964
 5619SOL     OW28489   2.253   4.601   1.657  0.1419 -0.7007 -0.2539
 5619SOL    HW128490   2.276   4.611   1.750  1.3586  0.4047 -0.6744
 5619SOL    HW228491   2.221   4.690   1.645  2.1601  0.0679  0.1268
 5620SOL     OW28492   0.752   4.028   6.776  0.1411 -0.0387  0.3405
 5620SOL    HW128493   0.714   4.062   6.857  1.7352  0.4662  0.8547
 5620SOL    HW228494   0.675   3.974   6.757 -0.1986  0.7129 -0.4288
 5621SOL     OW28495   3.159   1.885   4.078  0.0308  0.7761  0.0356
 5621SOL    HW128496   3.090   1.928   4.129 -0.2157 -1.8749  1.9253
 5621SOL    HW228497   3.197   1.819   4.136 -0.5064  1.7827  1.5427
 5622SOL     OW28498   1.255   4.714  11.569  0.0036  0.2335 -0.3976
 5622SOL    HW128499   1.318   4.645  11.588 -0.6313  0.0498  1.0800
 5622SOL    HW228500   1.313   0.047  11.536 -0.8344  0.3316 -1.6786
 5623SOL     OW28501   2.682   3.854  17.669 -0.0457  0.3691 -0.0930
 5623SOL    HW128502   2.703   3.915  17.598  0.8473 -2.1005 -1.9459
 5623SOL    HW228503   2.639   3.788  17.614 -0.1429 -0.1526  0.6079
 5624SOL     OW28504   2.679   4.116   9.042  0.3890 -0.0123  0.0310
 5624SOL    HW128505   2.734   4.135   9.118  0.6990  2.3219 -0.7697
 5624SOL    HW228506   2.731   4.161   8.975  3.5107  0.3548  2.7487
 5625SOL     OW28507   1.967   0.813   7.394 -0.2123  0.0407  0.7498
 5625SOL    HW128508   1.989   0.731   7.351 -0.1374  0.1775  0.5230
 5625SOL    HW228509   1.872   0.806   7.400 -0.2010  1.0655  1.9672
 5626SOL     OW28510   1.889   1.360   9.166 -0.2180 -0.0478  0.2125
 5626SOL    HW128511   1.873   1.403   9.250 -1.7412 -0.9943  0.4233
 5626SOL    HW228512   1.849   1.427   9.110 -0.5226 -0.3037  0.1218
 5627SOL     OW28513   0.349   1.297   4.766 -0.1037  0.0310  0.1243
 5627SOL    HW128514   0.397   1.351   4.828 -1.4289  1.6917 -0.3089
 5627SOL    HW228515   0.271   1.351   4.754  1.1492  1.5111 -1.2695
 5628SOL     OW28516   2.280   3.890   6.375 -0.1263 -0.2535  0.0173
 5628SOL    HW128517   2.214   3.833   6.415 -0.0696  0.4053  1.0402
 5628SOL    HW228518   2.229   3.948   6.319  0.2448 -0.5211 -0.6023
 5629SOL     OW28519   3.198   1.761  14.832 -0.2696  0.8930  0.3592
 5629SOL    HW128520   3.111   1.798  14.819 -0.6859  0.3997  1.7362
 5629SOL    HW228521   3.235   1.782  14.746 -1.0940 -0.8788 -0.4292
 5630SOL     OW28522   1.746   1.557  15.771  0.4373  0.1602 -0.0242
 5630SOL    HW128523   1.712   1.615  15.703  1.6710  0.7422 -0.1566
 5630SOL    HW228524   1.664   1.510  15.786  0.6387 -0.6655 -1.5619
 5631SOL     OW28525   4.378   4.515   8.955 -0.2014 -0.1576 -0.0858
 5631SOL    HW128526   4.295   4.549   8.924  1.1957  1.1519 -2.4207
 5631SOL    HW228527   4.433   4.594   8.956  1.8845 -1.5817 -1.1848
 5632SOL     OW28528   4.558   1.956  15.535 -0.1156  0.6040 -0.3202
 5632SOL    HW128529   4.613   1.913  15.601 -1.5000  1.3188  1.2988
 5632SOL    HW228530   4.508   2.011  15.596 -1.1778  0.1772 -0.8037
 5633SOL     OW28531   1.759   2.938   5.441  0.3429 -0.0562  0.0930
 5633SOL    HW128532   1.763   3.007   5.374  1.4331 -1.0131 -0.8155
 5633SOL    HW228533   1.671   2.954   5.474  0.0014 -1.1033 -0.3210
 5634SOL     OW28534   1.980   3.280  11.863  0.3256  0.4602 -0.3427
 5634SOL    HW128535   1.920   3.288  11.789 -0.4820 -1.8488  0.0470
 5634SOL    HW228536   2.066   3.296  11.823 -0.2881  3.9034 -0.2328
 5635SOL     OW28537   3.413   4.570   6.688 -0.2619 -0.9327  0.4087
 5635SOL    HW128538   3.417   4.655   6.732 -0.7098 -0.2407 -0.8689
 5635SOL    HW228539   3.380   4.586   6.599  1.7895  1.6451  0.1202
 5636SOL     OW28540   3.879   2.305   1.747  0.0113  0.6759 -0.1020
 5636SOL    HW128541   3.854   2.394   1.772  1.2480  0.8066  0.6451
 5636SOL    HW228542   3.916   2.279   1.831 -0.5888 -1.0121 -0.3392
 5637SOL     OW28543   4.604   3.634   9.363 -0.8259 -0.0059  0.2586
 5637SOL    HW128544   4.688   3.592   9.342 -0.9228  0.5865 -1.3259
 5637SOL    HW228545   4.626   3.691   9.437  3.2416  0.8514 -1.5731
 5638SOL     OW28546   4.277   0.452   1.978 -0.0570  0.1532 -0.1843
 5638SOL    HW128547   4.344   0.491   1.921 -1.7706  3.9478  0.4326
 5638SOL    HW228548   4.193   0.486   1.947  0.6092 -1.1414 -3.4905
 5639SOL     OW28549   0.255   4.533   9.123  0.1925  0.2665 -0.0427
 5639SOL    HW128550   0.297   4.526   9.037  0.1250  0.7455 -0.1144
 5639SOL    HW228551   0.249   4.438   9.130  0.0114  0.5291  3.1568
 5640SOL     OW28552   0.306   4.113   8.442 -0.3011  0.0583 -0.5174
 5640SOL    HW128553   0.356   4.144   8.367  1.3959  0.9249  0.9726
 5640SOL    HW228554   0.345   4.026   8.447  0.0634  0.2829  0.5043
 5641SOL     OW28555   0.284   3.264   3.491 -0.3614 -0.3583  1.0992
 5641SOL    HW128556   0.233   3.206   3.434  0.1352 -0.7098  1.0116
 5641SOL    HW228557   0.279   3.217   3.574 -1.2260 -2.1058  0.0765
 5642SOL     OW28558   2.096   2.788  10.429 -0.0404 -0.2505  0.5289
 5642SOL    HW128559   2.185   2.764  10.403 -0.1002 -1.1389  1.1301
 5642SOL    HW228560   2.094   2.755  10.519  2.3713  3.4201  1.9266
 5643SOL     OW28561   0.061   3.713   2.984 -0.3394 -0.4177  0.1905
 5643SOL    HW128562   0.103   3.797   3.003  1.0956 -1.2360  0.6576
 5643SOL    HW228563   4.706   3.729   3.010  0.0022  2.2462 -0.2461
 5644SOL     OW28564   4.293   3.686   0.147 -0.3134 -0.1741 -0.1079
 5644SOL    HW128565   4.206   3.657   0.173  0.0416 -0.8027  0.3714
 5644SOL    HW228566   4.269   3.714   0.059  2.7601  3.3553  0.1402
 5645SOL     OW28567   4.061   0.389   2.519  0.1922 -0.3749 -0.2168
 5645SOL    HW128568   3.989   0.421   2.466  1.6170 -0.7221 -2.3880
 5645SOL    HW228569   4.055   0.296   2.497  0.0902 -0.3590 -0.2526
 5646SOL     OW28570   2.880   2.001   3.527  0.2715 -0.6533 -0.3693
 5646SOL    HW128571   2.939   1.927   3.512  0.7200 -0.3589 -0.0566
 5646SOL    HW228572   2.838   1.976   3.609  0.6124 -1.4965 -0.4475
 5647SOL     OW28573   2.812   3.139   2.652 -0.0414  0.2001 -0.7180
 5647SOL    HW128574   2.892   3.093   2.676  0.1923  1.6361  1.3094
 5647SOL    HW228575   2.842   3.213   2.705  2.0681 -0.2988 -1.2184
 5648SOL     OW28576   2.030   3.868   4.234 -0.3598  0.0561  0.9103
 5648SOL    HW128577   2.110   3.857   4.183 -1.5276  0.0843 -0.9674
 5648SOL    HW228578   1.977   3.790   4.214  1.0196 -0.4944 -0.5791
 5649SOL     OW28579   0.642   0.245  13.782  0.0448  0.6434  0.1823
 5649SOL    HW128580   0.728   0.210  13.759 -0.2684 -0.1081  0.1552
 5649SOL    HW228581   0.635   0.217  13.874  1.0245 -0.9127 -0.2130
 5650SOL     OW28582   1.480   0.291   6.116 -0.1418 -0.0528 -0.5450
 5650SOL    HW128583   1.545   0.348   6.077 -0.5914  0.8711  0.0440
 5650SOL    HW228584   1.493   0.208   6.071  0.6670 -1.6517  2.6504
 5651SOL     OW28585   3.474   2.958   5.931 -0.2112 -0.4148 -0.2070
 5651SOL    HW128586   3.463   3.025   5.999 -0.4707 -2.3178  1.6458
 5651SOL    HW228587   3.493   3.007   5.851  0.7829 -0.2965  0.1016
 5652SOL     OW28588   0.856   3.808   5.281  0.4320  0.2224 -0.1960
 5652SOL    HW128589   0.804   3.754   5.341  2.2168 -2.1938 -0.8370
 5652SOL    HW228590   0.935   3.755   5.272 -2.1811 -3.5853 -0.8315
 5653SOL     OW28591   2.276   3.485   3.402  0.6023 -0.2451 -0.0603
 5653SOL    HW128592   2.225   3.455   3.327  1.7716  0.6505 -1.2060
 5653SOL    HW228593   2.364   3.486   3.364 -0.5390  2.0385 -2.6562
 5654SOL     OW28594   1.777   4.063  14.318  0.2043  0.1724  0.0128
 5654SOL    HW128595   1.728   4.007  14.378 -0.9741 -0.4047 -1.4895
 5654SOL    HW228596   1.739   4.149  14.335  0.4927  0.2191  0.4248
 5655SOL     OW28597   3.738   4.659   3.759  0.1324 -0.4817  0.2531
 5655SOL    HW128598   3.794   4.597   3.712 -2.8149 -1.0796 -2.4451
 5655SOL    HW228599   3.746   4.616   3.844 -0.5892  1.0078  1.0726
 5656SOL     OW28600   1.364   0.736  10.675  0.0103 -0.4736 -0.3495
 5656SOL    HW128601   1.302   0.776  10.736 -0.6367  1.9060 -2.5697
 5656SOL    HW228602   1.430   0.805  10.668 -1.4993  1.2947  2.8103
 5657SOL     OW28603   4.219   3.255   5.558 -0.5971 -0.3160  0.1378
 5657SOL    HW128604   4.280   3.320   5.523  0.2635 -0.6041  1.0877
 5657SOL    HW228605   4.265   3.181   5.519  1.0019  1.2841 -1.0194
 5658SOL     OW28606   4.409   2.064   2.324  0.3715 -0.3860 -0.2481
 5658SOL    HW128607   4.353   2.075   2.247 -1.7174 -1.7542  1.0692
 5658SOL    HW228608   4.461   1.988   2.301 -0.6451 -0.7443 -1.3373
 5659SOL     OW28609   2.189   2.436   8.938 -0.1421  0.4348 -0.0437
 5659SOL    HW128610   2.180   2.398   9.025  0.2948  3.1660  1.1886
 5659SOL    HW228611   2.173   2.528   8.958  2.2987  1.2105 -1.5889
 5660SOL     OW28612   1.419   1.436   4.060  0.5015  0.5181  0.1910
 5660SOL    HW128613   1.370   1.512   4.089 -0.1792  0.0169  0.3640
 5660SOL    HW228614   1.508   1.470   4.055 -0.2056  2.3242 -0.1715
 5661SOL     OW28615   0.783   3.581   4.365 -0.1121 -0.1483 -0.5060
 5661SOL    HW128616   0.828   3.617   4.441 -1.7958 -0.2895  0.5557
 5661SOL    HW228617   0.764   3.491   4.390  3.0305 -0.4158  0.8808
 5662SOL     OW28618   3.799   3.034   2.400  0.0293  0.1177 -0.4422
 5662SOL    HW128619   3.773   2.980   2.326  0.9982 -1.1893  0.1707
 5662SOL    HW228620   3.766   2.982   2.472 -0.0706  1.2576  0.3383
 5663SOL     OW28621   0.260   3.753   7.379 -0.5906 -0.1038  0.4823
 5663SOL    HW128622   0.277   3.685   7.444 -0.4348 -0.2979  0.2381
 5663SOL    HW228623   0.193   3.807   7.420  0.1862  0.9197  0.4105
 5664SOL     OW28624   3.054   4.440  11.097  0.0969  0.6806 -0.3337
 5664SOL    HW128625   2.987   4.417  11.033 -0.1992  2.4176 -0.6462
 5664SOL    HW228626   3.011   4.399  11.171  1.1744  1.6156  0.8242
 5665SOL     OW28627   0.701   3.289   8.841  0.1318  0.2446 -0.0015
 5665SOL    HW128628   0.731   3.211   8.792 -3.3026 -1.3141  0.3654
 5665SOL    HW228629   0.743   3.354   8.785  0.8067 -0.0631  0.1421
 5666SOL     OW28630   4.091   1.017   8.118  0.1171 -0.6135  0.7436
 5666SOL    HW128631   4.116   1.095   8.169  1.8824 -0.5432 -0.2483
 5666SOL    HW228632   4.029   0.978   8.179 -2.3896  0.7269 -0.9567
 5667SOL     OW28633   3.170   1.520   4.936  0.0814 -0.9622  0.3052
 5667SOL    HW128634   3.191   1.479   5.020  1.8940 -2.1682 -0.7494
 5667SOL    HW228635   3.077   1.505   4.918 -0.2829  1.2589  0.3539
 5668SOL     OW28636   2.677   4.102   2.711 -0.0928  0.2050  0.3491
 5668SOL    HW128637   2.743   4.149   2.761  0.4359 -1.9778  1.6844
 5668SOL    HW228638   2.688   4.146   2.626 -0.3838  0.8692  0.6577
 5669SOL     OW28639   1.240   2.068   7.838  0.4115 -0.1222 -0.7226
 5669SOL    HW128640   1.227   2.133   7.769 -1.3352 -0.2018 -0.4791
 5669SOL    HW228641   1.227   1.986   7.792 -0.6146  0.4642 -1.4812
 5670SOL     OW28642   4.063   4.163   7.917 -0.0739 -0.5252 -0.9741
 5670SOL    HW128643   4.007   4.206   7.852 -1.6201 -0.4913  0.3525
 5670SOL    HW228644   4.135   4.225   7.912 -0.1646 -0.2660  1.1598
 5671SOL     OW28645   0.980   1.933   2.622 -0.4537 -0.7721 -0.6917
 5671SOL    HW128646   1.044   2.000   2.598 -0.0985 -0.1153  2.2059
 5671SOL    HW228647   0.996   1.858   2.565  3.5387  0.1878 -0.8285
 5672SOL     OW28648   1.726   4.589   3.202 -0.1956 -0.7997  0.0304
 5672SOL    HW128649   1.672   4.525   3.155 -0.6493  0.3204 -0.9764
 5672SOL    HW228650   1.712   4.661   3.140  0.3252 -0.7694 -0.0565
 5673SOL     OW28651   3.532   2.039   8.342  0.0452 -0.1515  0.2929
 5673SOL    HW128652   3.482   1.993   8.275 -0.0397  0.3894 -0.0156
 5673SOL    HW228653   3.617   2.004   8.314  0.4326  0.6907  0.4114
 5674SOL     OW28654   0.776   1.116   2.000 -0.3166 -0.0874  0.3057
 5674SOL    HW128655   0.689   1.139   2.032 -0.5020  1.8862 -1.6619
 5674SOL    HW228656   0.774   1.193   1.945  0.0795 -0.5146 -0.3090
 5675SOL     OW28657   2.295   1.290   4.824  0.4189 -0.2331  0.3396
 5675SOL    HW128658   2.253   1.204   4.833  0.0407 -0.0709  0.1470
 5675SOL    HW228659   2.348   1.298   4.903  0.3382 -1.0008  0.4683
 5676SOL     OW28660   3.708   2.067   2.856  0.4884 -0.5170 -0.5487
 5676SOL    HW128661   3.804   2.062   2.859  0.3815 -0.7875  1.8383
 5676SOL    HW228662   3.684   1.975   2.845  1.7438 -0.9756  0.5344
 5677SOL     OW28663   1.906   4.269   3.740 -0.0442 -0.3925  0.8019
 5677SOL    HW128664   1.926   4.240   3.651 -0.1011  0.8176  0.3978
 5677SOL    HW228665   1.967   4.213   3.788  1.2908 -1.5885 -2.2680
 5678SOL     OW28666   0.864   0.914   0.764  0.0749 -0.2063 -0.0848
 5678SOL    HW128667   0.820   0.943   0.844 -0.7053  1.8792 -1.2762
 5678SOL    HW228668   0.915   0.995   0.757 -0.9472  0.3901 -0.7113
 5679SOL     OW28669   0.710   3.478   0.755  0.5340  0.4620  0.4132
 5679SOL    HW128670   0.657   3.550   0.790 -0.6341  0.2092 -0.8487
 5679SOL    HW228671   0.795   3.522   0.747  1.0064 -0.5932 -0.2499
 5680SOL     OW28672   3.928   0.833  11.628  0.5412 -0.4699  0.3236
 5680SOL    HW128673   3.906   0.852  11.720  1.2030 -1.0840  0.6058
 5680SOL    HW228674   4.023   0.847  11.631  0.6692 -0.9776 -1.9398
 5681SOL     OW28675   1.825   3.410   3.054 -0.2942  0.3791  0.3458
 5681SOL    HW128676   1.863   3.403   2.966  0.7458 -3.5193  1.1032
 5681SOL    HW228677   1.781   3.495   3.054  1.8432  1.4961  0.1679
 5682SOL     OW28678   3.631   2.769   3.437 -0.4750  0.8830 -0.5955
 5682SOL    HW128679   3.562   2.713   3.474 -0.1724  0.2033 -1.0612
 5682SOL    HW228680   3.653   2.723   3.356 -0.2035  1.4692 -0.8476
 5683SOL     OW28681   4.699   4.288  12.001 -0.1714 -0.0516  0.0131
 5683SOL    HW128682   0.015   4.299  11.921  1.4583 -2.2532  0.7821
 5683SOL    HW228683   0.005   4.206  12.027  1.4437  1.5798  2.5545
 5684SOL     OW28684   0.026   3.027   5.288  0.0327 -0.4274 -0.1459
 5684SOL    HW128685   0.088   3.085   5.243 -1.4336  0.7872 -0.5895
 5684SOL    HW228686   0.079   2.975   5.348 -0.4260 -1.3108 -0.5100
 5685SOL     OW28687   0.289   4.549   4.534  0.5777  0.4894  0.4948
 5685SOL    HW128688   0.267   4.535   4.442  1.1844  0.5919  0.3345
 5685SOL    HW228689   0.298   4.460   4.569  0.2214  0.6047  0.8729
 5686SOL     OW28690   1.059   1.765   0.224 -0.7068 -0.7874  0.6273
 5686SOL    HW128691   1.105   1.776   0.141  1.4310 -1.2916  1.7596
 5686SOL    HW228692   0.983   1.823   0.216 -0.3023 -0.1950  1.0842
 5687SOL     OW28693   1.578   0.373   6.418  0.0853  0.3164 -0.3911
 5687SOL    HW128694   1.670   0.387   6.395 -0.0354 -0.6355 -1.4490
 5687SOL    HW228695   1.569   0.407   6.507 -0.9681 -1.1655  0.0601
 5688SOL     OW28696   4.427   0.027   3.110  0.3850 -0.1824  0.1478
 5688SOL    HW128697   4.407   4.717   3.192  1.7331 -0.0481  0.5513
 5688SOL    HW228698   4.460   0.106   3.152  0.6514  0.9767 -2.2491
 5689SOL     OW28699   0.344   0.178   9.284  0.4291 -0.2160  0.4612
 5689SOL    HW128700   0.314   0.101   9.333 -1.3942 -0.8560 -1.6643
 5689SOL    HW228701   0.288   0.181   9.206  1.8928 -2.8812 -0.6896
 5690SOL     OW28702   2.420   0.335   1.896  0.4089  0.4279  0.2108
 5690SOL    HW128703   2.327   0.312   1.906  0.8897 -0.9325  1.5474
 5690SOL    HW228704   2.415   0.429   1.912 -0.5098  0.3337  0.4697
 5691SOL     OW28705   1.170   2.639   3.088  0.0007  0.0153  0.3305
 5691SOL    HW128706   1.242   2.627   3.150  1.0085 -1.3513 -1.1004
 5691SOL    HW228707   1.099   2.587   3.127 -0.1070 -1.3725 -1.7398
 5692SOL     OW28708   3.353   3.591   2.781  0.3857  0.2133  0.3536
 5692SOL    HW128709   3.325   3.666   2.728  0.5579  1.6099  2.2335
 5692SOL    HW228710   3.438   3.566   2.745  1.3976  2.3510  1.2473
 5693SOL     OW28711   4.075   0.650   6.559 -0.8851  0.7056  0.1792
 5693SOL    HW128712   3.989   0.689   6.541  0.3007  2.6084 -1.2374
 5693SOL    HW228713   4.135   0.712   6.519 -1.4878  2.2536  1.6897
 5694SOL     OW28714   3.255   0.694  12.725  0.3979  0.2358  0.4563
 5694SOL    HW128715   3.201   0.621  12.755  0.7827 -0.2932 -0.1427
 5694SOL    HW228716   3.279   0.663  12.638 -2.2090 -1.1639  0.2461
 5695SOL     OW28717   1.930   4.468   2.950  0.2152 -0.1982 -0.2472
 5695SOL    HW128718   1.959   4.519   3.025 -1.5265 -0.3193  0.5027
 5695SOL    HW228719   2.005   4.466   2.890 -1.3589  2.3340 -2.3386
 5696SOL     OW28720   0.670   0.685   8.236  0.1961 -0.0375  0.4067
 5696SOL    HW128721   0.762   0.680   8.211 -0.2480 -2.0793 -0.7601
 5696SOL    HW228722   0.676   0.712   8.328 -2.2476  1.8732  0.0128
 5697SOL     OW28723   0.479   2.965   2.352 -0.2964  0.3690  0.2711
 5697SOL    HW128724   0.388   2.950   2.326 -0.0215 -2.0507  0.7160
 5697SOL    HW228725   0.472   2.983   2.445  1.9091 -1.4907  0.8022
 5698SOL     OW28726   2.945   4.094   9.440 -0.1291  0.1209 -0.3808
 5698SOL    HW128727   2.916   4.003   9.443  0.7044 -0.1007  0.8748
 5698SOL    HW228728   3.024   4.078   9.491 -0.1622 -1.8943 -0.9555
 5699SOL     OW28729   3.157   1.981   7.435  0.1349 -0.3787  0.1255
 5699SOL    HW128730   3.163   2.057   7.493  0.8570  0.2730 -0.8210
 5699SOL    HW228731   3.154   2.013   7.345 -0.3077 -0.3695  0.1461
 5700SOL     OW28732   3.215   2.943   6.693 -0.6114  0.4168  0.5792
 5700SOL    HW128733   3.255   2.869   6.738 -0.1143 -0.3128 -1.0872
 5700SOL    HW228734   3.148   2.958   6.760 -0.4811  0.8267  0.6164
 5701SOL     OW28735   2.641   0.591   4.866 -0.0167 -0.4571  0.3041
 5701SOL    HW128736   2.709   0.653   4.894 -1.4762  2.8470 -3.4027
 5701SOL    HW228737   2.659   0.510   4.913  1.9356  0.4191  1.0651
 5702SOL     OW28738   2.596   2.094  11.920  0.5791 -0.1077  0.3986
 5702SOL    HW128739   2.653   2.133  11.854 -2.6755  0.2447 -2.2063
 5702SOL    HW228740   2.589   2.163  11.986  0.0498  1.1652 -1.0049
 5703SOL     OW28741   1.274   3.114   9.128  0.3162  0.1078  0.5290
 5703SOL    HW128742   1.242   3.183   9.186 -0.8422  0.0752 -0.0732
 5703SOL    HW228743   1.300   3.159   9.048 -1.0338 -2.6992 -1.4827
 5704SOL     OW28744   3.273   0.202   8.471 -0.0460  0.5372 -0.3448
 5704SOL    HW128745   3.249   0.294   8.476 -1.3984  0.0477  2.1959
 5704SOL    HW228746   3.369   0.198   8.479  0.0601  1.4306 -1.2349
 5705SOL     OW28747   2.365   0.647   7.482  0.0387 -0.7369 -0.3354
 5705SOL    HW128748   2.358   0.640   7.577  1.6723  1.1321 -0.0633
 5705SOL    HW228749   2.372   0.742   7.473  0.1866 -0.7080  0.0870
 5706SOL     OW28750   2.403   4.506   3.234 -0.1210 -0.1140 -0.0801
 5706SOL    HW128751   2.467   4.451   3.190 -1.0825 -0.9869 -0.3689
 5706SOL    HW228752   2.353   4.522   3.154  0.4717  0.2715 -0.3780
 5707SOL     OW28753   4.325   4.268   5.833  0.9036 -0.4583  0.0060
 5707SOL    HW128754   4.240   4.274   5.790  0.1317 -0.2476  1.5599
 5707SOL    HW228755   4.344   4.361   5.844 -3.4624  0.4424 -0.1661
 5708SOL     OW28756   3.716   3.950   3.410 -0.2845 -0.0443 -0.2553
 5708SOL    HW128757   3.677   4.036   3.396  1.4234  0.8958  0.7289
 5708SOL    HW228758   3.705   3.939   3.505  1.1880 -0.0238 -0.0815
 5709SOL     OW28759   0.853   0.881   6.207  0.4441  0.1799  0.4599
 5709SOL    HW128760   0.831   0.950   6.270 -1.7705 -1.0885  1.0876
 5709SOL    HW228761   0.842   0.927   6.125  1.7789 -0.5790 -0.1481
 5710SOL     OW28762   2.192   1.016  15.307 -0.5477 -0.6526  0.0898
 5710SOL    HW128763   2.281   1.023  15.340 -1.0047  0.3458  1.1089
 5710SOL    HW228764   2.149   1.030  15.391 -0.8749 -0.9138 -0.0308
 5711SOL     OW28765   2.693   3.565  12.642  0.2520  0.6120 -0.2246
 5711SOL    HW128766   2.697   3.554  12.737 -2.1472  0.4541 -0.1485
 5711SOL    HW228767   2.750   3.490  12.624 -0.2155  0.0156  0.8315
 5712SOL     OW28768   3.974   2.210   1.977 -0.9487  0.4073  0.3006
 5712SOL    HW128769   4.066   2.232   1.968 -0.8037 -0.8605 -1.3126
 5712SOL    HW228770   3.980   2.116   1.960 -2.1593  0.4565 -0.4540
 5713SOL     OW28771   3.212   0.023   7.288  0.3265  0.4128  0.2202
 5713SOL    HW128772   3.239   4.711   7.210 -1.4143 -0.6921  0.3110
 5713SOL    HW228773   3.138   4.702   7.309  0.3149  0.0300 -0.8907
 5714SOL     OW28774   1.266   2.504   4.455  0.1944  0.2028  0.2191
 5714SOL    HW128775   1.270   2.532   4.364 -0.5072  1.1806  0.4919
 5714SOL    HW228776   1.214   2.424   4.448  1.0332 -0.4511  1.3485
 5715SOL     OW28777   2.963   2.797   5.629 -0.5180  0.4692 -0.8245
 5715SOL    HW128778   2.892   2.844   5.585  0.4555 -0.0008 -2.8990
 5715SOL    HW228779   2.910   2.744   5.690 -0.2675  1.9674  0.7007
 5716SOL     OW28780   1.309   3.850   6.022 -0.4128  0.3157  0.6212
 5716SOL    HW128781   1.289   3.927   5.970 -0.8541  0.4706  1.0182
 5716SOL    HW228782   1.224   3.812   6.045 -0.9386 -0.0430 -1.8602
 5717SOL     OW28783   1.020   4.552   7.825  0.5371 -0.2601 -0.6229
 5717SOL    HW128784   0.997   4.622   7.764 -2.9299  0.5919  1.6768
 5717SOL    HW228785   1.111   4.568   7.853  1.4203 -1.1078 -3.0371
 5718SOL     OW28786   1.225   4.042   1.818  0.1647 -0.0296 -0.0737
 5718SOL    HW128787   1.209   4.073   1.907  2.3424 -3.1120  1.4134
 5718SOL    HW228788   1.143   4.064   1.772 -1.7194 -2.3808  2.1336
 5719SOL     OW28789   2.345   1.502   4.069  0.1837  0.6102 -0.2820
 5719SOL    HW128790   2.389   1.585   4.086 -0.2807  0.5875  1.0455
 5719SOL    HW228791   2.292   1.478   4.145  0.0512  0.5392 -0.3956
 5720SOL     OW28792   4.382   0.959  12.188 -0.2714  0.3320 -0.2526
 5720SOL    HW128793   4.460   0.938  12.239  0.1560 -1.2275 -1.5748
 5720SOL    HW228794   4.314   0.939  12.252 -1.0706 -0.0888 -1.2469
 5721SOL     OW28795   0.025   2.154   8.035 -0.6426 -0.3052  0.3788
 5721SOL    HW128796   4.695   2.119   8.096 -0.2436  0.3930  1.2069
 5721SOL    HW228797   0.106   2.106   8.051 -1.0499 -0.6450  1.4285
 5722SOL     OW28798   3.432   3.034   6.303 -0.0214 -0.5220  0.4643
 5722SOL    HW128799   3.429   3.081   6.219  0.9835  2.5357  2.1538
 5722SOL    HW228800   3.486   2.957   6.283  0.8527  0.1625  0.1790
 5723SOL     OW28801   0.211   3.968  11.454 -0.1413  0.0987  0.5203
 5723SOL    HW128802   0.306   3.981  11.457 -0.2182  0.1224  2.7846
 5723SOL    HW228803   0.204   3.961  11.359  0.8541 -0.0613  0.4538
 5724SOL     OW28804   1.968   3.853   5.267  0.4797  0.5121 -0.0179
 5724SOL    HW128805   1.896   3.915   5.262  1.0117  0.9806 -1.9254
 5724SOL    HW228806   1.923   3.797   5.330  0.8726  0.4933  0.2446
 5725SOL     OW28807   2.529   4.384   4.283 -0.0552  0.5417 -0.2889
 5725SOL    HW128808   2.450   4.376   4.230  0.2921  1.2435 -0.9051
 5725SOL    HW228809   2.505   4.329   4.358  0.1914  0.3281 -0.3683
 5726SOL     OW28810   1.922   4.516   1.786 -0.2779  0.8708  0.1636
 5726SOL    HW128811   1.991   4.522   1.852  0.3025 -0.9802 -0.2956
 5726SOL    HW228812   1.857   4.569   1.833 -0.9707  0.0442  0.1308
 5727SOL     OW28813   2.182   1.787   1.132 -0.2403  0.0411  0.0136
 5727SOL    HW128814   2.192   1.785   1.227  0.7821 -4.4002 -0.1987
 5727SOL    HW228815   2.110   1.727   1.112 -2.2700  3.0052 -1.5024
 5728SOL     OW28816   0.177   1.379   9.954  0.3591 -0.1855 -0.0791
 5728SOL    HW128817   0.198   1.394   9.862 -0.3100 -0.6335 -0.3008
 5728SOL    HW228818   0.220   1.294   9.962  1.7910  0.3940 -1.5401
 5729SOL     OW28819   0.245   3.844  16.025 -0.0810 -0.2737  0.5506
 5729SOL    HW128820   0.200   3.920  16.062  1.7668  1.8715 -1.6022
 5729SOL    HW228821   0.235   3.780  16.094 -0.7865 -1.1654 -0.3775
 5730SOL     OW28822   3.776   0.957   4.601  0.0467 -0.6686 -0.0705
 5730SOL    HW128823   3.842   1.016   4.565  0.4812  1.0919  3.5888
 5730SOL    HW228824   3.821   0.916   4.675 -0.4870 -1.2271 -0.0506
 5731SOL     OW28825   3.766   1.807  14.965  0.4227  0.2379  0.2983
 5731SOL    HW128826   3.698   1.781  14.904  0.0715 -0.6909  1.0968
 5731SOL    HW228827   3.751   1.902  14.970  1.1240  0.3786 -0.1938
 5732SOL     OW28828   3.053   3.470  11.885 -0.0151 -0.8098  0.4738
 5732SOL    HW128829   3.049   3.558  11.923 -2.8455  0.5819 -3.1685
 5732SOL    HW228830   3.142   3.453  11.855  0.2245 -1.6104  1.6178
 5733SOL     OW28831   2.763   2.997   4.027  0.6886 -0.0624  0.0908
 5733SOL    HW128832   2.806   2.981   4.111 -0.5070  0.5295  0.8238
 5733SOL    HW228833   2.839   2.994   3.970  1.6187  0.3327  1.3190
 5734SOL     OW28834   2.077   2.106  14.542 -0.0773  0.2053 -0.1349
 5734SOL    HW128835   2.153   2.051  14.523 -0.0285  0.0237  0.5955
 5734SOL    HW228836   2.043   2.123  14.454  0.1233 -1.6375 -0.5556
 5735SOL     OW28837   4.495   0.109   7.108  0.6226  0.1606  0.2325
 5735SOL    HW128838   4.483   0.119   7.013 -0.4743  1.3420  0.4948
 5735SOL    HW228839   4.504   0.014   7.111  2.3943  0.3161  0.0928
 5736SOL     OW28840   1.388   1.628   5.779 -0.8320  0.4648 -0.0064
 5736SOL    HW128841   1.414   1.570   5.850 -0.7439  0.5646  0.0410
 5736SOL    HW228842   1.402   1.710   5.825 -0.9321  0.8650 -0.6798
 5737SOL     OW28843   0.754   2.191  14.664  0.1983 -0.4608  0.1856
 5737SOL    HW128844   0.765   2.283  14.688 -0.6160 -0.5267  0.8214
 5737SOL    HW228845   0.699   2.156  14.734 -0.0078  0.6937  0.6028
 5738SOL     OW28846   4.085   2.835   2.555  0.0363  0.0193  0.1276
 5738SOL    HW128847   4.024   2.848   2.627 -0.7939 -0.3121 -0.5266
 5738SOL    HW228848   4.139   2.914   2.564 -1.9060  1.5197 -1.3094
 5739SOL     OW28849   3.758   3.027  15.026 -0.1422  0.1222 -0.0171
 5739SOL    HW128850   3.832   2.970  15.001  0.7474  0.9240  0.7780
 5739SOL    HW228851   3.796   3.099  15.076  0.8567  0.0237 -0.6360
 5740SOL     OW28852   4.208   4.677   3.291  0.2035  0.3659 -0.2597
 5740SOL    HW128853   4.187   0.012   3.352  1.7335 -0.9840  1.8281
 5740SOL    HW228854   4.121   4.649   3.262  1.5390 -2.0952 -1.9471
 5741SOL     OW28855   0.006   3.824   4.912  0.2419  0.0298 -0.0691
 5741SOL    HW128856   4.727   3.737   4.950  1.0515 -0.2292 -0.3482
 5741SOL    HW228857   4.693   3.879   4.973  0.2868 -1.6134  1.4486
 5742SOL     OW28858   2.399   2.853   4.578  0.1009 -0.1373  0.5586
 5742SOL    HW128859   2.307   2.856   4.553  0.4486 -2.9252 -1.0250
 5742SOL    HW228860   2.394   2.824   4.669  0.5370 -0.2048  0.5614
 5743SOL     OW28861   2.380   3.753  16.512 -0.0877  0.2437 -0.0567
 5743SOL    HW128862   2.325   3.795  16.446 -0.5462 -0.0560  0.1345
 5743SOL    HW228863   2.317   3.685  16.538  1.0914 -1.2828 -1.1710
 5744SOL     OW28864   2.188   3.525  10.691 -0.3064  0.4550 -0.0171
 5744SOL    HW128865   2.270   3.476  10.689  0.2869  1.4278  0.4626
 5744SOL    HW228866   2.233   3.590  10.637  0.5272  1.8567  2.3885
 5745SOL     OW28867   3.687   0.841   7.372  0.4973 -0.2607 -0.0150
 5745SOL    HW128868   3.593   0.841   7.356  0.4409  0.2541  0.3187
 5745SOL    HW228869   3.694   0.746   7.387 -0.7307 -0.7414 -2.5963
 5746SOL     OW28870   1.036   3.413   8.380 -0.1030 -0.3314 -0.2172
 5746SOL    HW128871   1.086   3.348   8.429  0.3258 -1.5844 -2.3382
 5746SOL    HW228872   1.043   3.484   8.445  1.1145  0.8009 -1.5979
 5747SOL     OW28873   3.183   1.205  15.200 -0.2109 -0.0843  0.0893
 5747SOL    HW128874   3.159   1.147  15.128  0.1603 -2.9286  2.2436
 5747SOL    HW228875   3.209   1.288  15.159 -0.1608 -0.8620 -1.4474
 5748SOL     OW28876   4.197   3.934   6.613  0.2033 -0.6417 -1.2063
 5748SOL    HW128877   4.167   3.909   6.525 -2.4687  1.0432 -0.8021
 5748SOL    HW228878   4.284   3.968   6.593 -0.4266  1.8301  0.3347
 5749SOL     OW28879   2.756   4.707   4.120  0.3290 -0.0319 -0.2656
 5749SOL    HW128880   2.779   0.015   4.203 -1.4076  1.5854 -0.6236
 5749SOL    HW228881   2.835   4.734   4.073  1.6411 -3.0709  0.2152
 5750SOL     OW28882   3.603   2.954   5.206 -0.0047 -0.1661  0.6599
 5750SOL    HW128883   3.625   2.889   5.273 -1.5679 -0.2776  1.0651
 5750SOL    HW228884   3.514   2.981   5.229  0.1248 -1.8612  3.1298
 5751SOL     OW28885   4.710   0.786   4.204  0.1302 -0.0015 -0.6209
 5751SOL    HW128886   4.729   0.710   4.260  3.0632  1.4437  0.3405
 5751SOL    HW228887   4.707   0.852   4.272  0.1251 -1.3619  0.7030
 5752SOL     OW28888   1.402   2.828   2.923 -0.2602  0.5714  0.2908
 5752SOL    HW128889   1.483   2.783   2.945 -0.1878  0.7196  0.3277
 5752SOL    HW228890   1.365   2.762   2.865  1.5888  0.3638 -0.6506
 5753SOL     OW28891   2.758   3.896  10.717  0.7631  0.1117 -0.9266
 5753SOL    HW128892   2.745   3.900  10.812  0.4324 -0.9216 -0.9328
 5753SOL    HW228893   2.852   3.883  10.705  1.3025  1.2226  2.0144
 5754SOL     OW28894   2.895   3.211  17.395 -0.6106  0.5353  0.3237
 5754SOL    HW128895   2.885   3.268  17.471 -1.7265 -1.2028  1.4717
 5754SOL    HW228896   2.864   3.129  17.432  3.1169 -0.9939  0.0266
 5755SOL     OW28897   0.408   1.515  10.467 -0.0591 -0.3554 -0.1209
 5755SOL    HW128898   0.499   1.541  10.455 -0.0374  0.1874  1.2083
 5755SOL    HW228899   0.371   1.542  10.383  2.1572 -0.7962 -1.2357
 5756SOL     OW28900   4.520   2.271  10.571 -0.5250 -0.2980  0.2111
 5756SOL    HW128901   4.447   2.328  10.596 -0.4177 -0.6091  1.2213
 5756SOL    HW228902   4.591   2.300  10.628  0.9318 -0.3899 -1.5862
 5757SOL     OW28903   3.482   0.948   7.887 -0.1559  0.6877  0.1025
 5757SOL    HW128904   3.538   1.019   7.856 -1.3340  1.1847 -0.8838
 5757SOL    HW228905   3.495   0.885   7.815  1.9265  0.0855  1.0120
 5758SOL     OW28906   3.746   3.100   8.827 -0.0154  0.2730  0.0652
 5758SOL    HW128907   3.786   3.187   8.836 -0.9938  0.5657  1.4380
 5758SOL    HW228908   3.664   3.108   8.874 -0.5557 -0.1774 -0.7999
 5759SOL     OW28909   3.217   0.174   1.293 -0.0529 -0.5392 -0.3627
 5759SOL    HW128910   3.247   0.225   1.217 -2.0339  2.7810  1.1103
 5759SOL    HW228911   3.212   0.088   1.250  2.5254 -1.3746  1.0503
 5760SOL     OW28912   3.309   4.100   3.669  0.0620 -0.1264  0.4046
 5760SOL    HW128913   3.297   4.142   3.754  0.5927 -0.1981  0.5155
 5760SOL    HW228914   3.244   4.030   3.672  0.6246 -0.7254 -1.6073
 5761SOL     OW28915   4.120   4.440   0.739  0.0260  0.6775 -0.7030
 5761SOL    HW128916   4.093   4.404   0.823 -0.9308  0.0522 -1.2756
 5761SOL    HW228917   4.050   4.503   0.719  0.4644  1.1053 -0.9006
 5762SOL     OW28918   4.099   0.975   2.825 -0.2386 -0.3311 -0.9954
 5762SOL    HW128919   4.180   1.015   2.857  1.7116 -5.0563 -0.0233
 5762SOL    HW228920   4.112   0.896   2.878  1.6929 -0.1971 -1.2763
 5763SOL     OW28921   1.464   2.655   8.279 -0.3246 -0.5757 -0.3723
 5763SOL    HW128922   1.547   2.703   8.275 -1.2434  0.9402 -1.1071
 5763SOL    HW228923   1.468   2.622   8.369  1.6796  0.5487 -0.0492
 5764SOL     OW28924   2.059   0.277   7.399  0.2902 -0.1085  0.5582
 5764SOL    HW128925   2.101   0.261   7.483  0.1302 -0.8386  0.5011
 5764SOL    HW228926   1.984   0.221   7.418 -0.3947  0.9671  1.0046
 5765SOL     OW28927   3.627   2.061   5.798  0.3214  0.1684  0.4163
 5765SOL    HW128928   3.641   2.156   5.792  1.9802 -0.1482 -0.7102
 5765SOL    HW228929   3.626   2.029   5.708  0.5787  2.7572 -0.5229
 5766SOL     OW28930   2.269   2.990   3.839  0.0606 -0.5178  0.2616
 5766SOL    HW128931   2.206   2.987   3.768  0.9851 -1.0512 -0.5424
 5766SOL    HW228932   2.220   2.928   3.893 -1.7297  1.2512  0.6613
 5767SOL     OW28933   1.173   2.360  13.566  0.0367  0.5440 -0.3568
 5767SOL    HW128934   1.078   2.368  13.581  0.1706 -1.9393  1.7220
 5767SOL    HW228935   1.176   2.284  13.509  0.8158 -0.3720  0.9199
 5768SOL     OW28936   3.604   1.231   8.617 -0.1710  0.2687 -0.5469
 5768SOL    HW128937   3.529   1.177   8.641  0.9041 -0.3889  1.3992
 5768SOL    HW228938   3.607   1.290   8.692  1.9066 -3.4515  2.3473
 5769SOL     OW28939   4.222   3.237   9.608 -0.0740  0.5462  0.4734
 5769SOL    HW128940   4.262   3.176   9.547  0.1332 -1.2462  2.3975
 5769SOL    HW228941   4.140   3.256   9.563 -0.2586 -0.1744  0.5059
 5770SOL     OW28942   3.154   0.751   8.307  0.0280  0.2593  0.3133
 5770SOL    HW128943   3.125   0.748   8.216  2.5414  0.0416 -0.4767
 5770SOL    HW228944   3.249   0.760   8.309  0.0629 -0.0735  0.1268
 5771SOL     OW28945   1.425   1.752   6.112 -0.5081 -0.5786  0.0938
 5771SOL    HW128946   1.423   1.842   6.146  0.1653 -0.5560  0.0600
 5771SOL    HW228947   1.513   1.729   6.141  0.3198  0.9165 -1.2257
 5772SOL     OW28948   2.473   1.303   5.892  0.1297  0.2534  0.3642
 5772SOL    HW128949   2.393   1.337   5.933  0.4490  0.6374  0.6707
 5772SOL    HW228950   2.437   1.226   5.849 -2.5268  1.0376  1.1667
 5773SOL     OW28951   0.978   4.655   5.855  0.2341 -0.3677 -0.5744
 5773SOL    HW128952   0.974   4.672   5.761 -1.4499 -0.1194 -0.4755
 5773SOL    HW228953   0.932   4.734   5.885 -0.0986 -0.9833  0.5554
 5774SOL     OW28954   1.736   3.166   4.953 -0.7256  0.2615 -0.0757
 5774SOL    HW128955   1.679   3.090   4.956 -0.4187  0.0260 -0.2291
 5774SOL    HW228956   1.670   3.235   4.960 -1.1397 -0.3330  1.7074
 5775SOL     OW28957   4.514   4.479   2.383  0.1120 -0.1996  0.0633
 5775SOL    HW128958   4.447   4.414   2.358 -0.8152  0.5112  0.6822
 5775SOL    HW228959   4.495   4.494   2.476 -1.5042  1.3378 -0.5162
 5776SOL     OW28960   3.795   2.251  14.068 -0.4008  0.1424  0.4939
 5776SOL    HW128961   3.826   2.162  14.084 -2.8300 -0.7615  0.0809
 5776SOL    HW228962   3.705   2.249  14.101 -1.2703  0.4826 -1.8883
 5777SOL     OW28963   2.514   4.591   2.565  0.1259  0.4430 -0.6977
 5777SOL    HW128964   2.505   4.505   2.524  0.7046  0.4066 -0.7577
 5777SOL    HW228965   2.478   4.654   2.504  2.0059  2.3981  0.1843
 5778SOL     OW28966   3.963   4.021   8.732  0.2481  0.0276  0.5298
 5778SOL    HW128967   4.005   4.098   8.694 -1.0761  0.8777  0.7879
 5778SOL    HW228968   3.895   4.004   8.667 -2.4366  3.3393  2.4492
 5779SOL     OW28969   0.314   1.921   4.728  0.3445 -0.1315 -0.2370
 5779SOL    HW128970   0.332   1.943   4.636  0.8956 -1.0397 -0.3357
 5779SOL    HW228971   0.219   1.913   4.735  0.2731  0.3799 -0.5854
 5780SOL     OW28972   1.888   3.429   2.465 -0.4907  0.3817 -0.0278
 5780SOL    HW128973   1.977   3.465   2.466 -0.5932  0.6589 -0.6183
 5780SOL    HW228974   1.905   3.358   2.526  0.3502  0.6011 -0.0051
 5781SOL     OW28975   1.484   3.537   7.335 -0.4164  0.6192 -0.6858
 5781SOL    HW128976   1.392   3.560   7.351 -0.2659  0.8007 -0.0680
 5781SOL    HW228977   1.488   3.442   7.345 -2.1568  0.7429  1.2044
 5782SOL     OW28978   1.342   4.413   9.937 -0.9056 -0.1419 -0.1455
 5782SOL    HW128979   1.254   4.376   9.951  0.4432 -3.3572 -0.2217
 5782SOL    HW228980   1.357   4.363   9.857  0.6825 -0.4801  0.3643
 5783SOL     OW28981   3.030   2.659   3.576  0.0692 -0.2754 -0.6607
 5783SOL    HW128982   2.946   2.626   3.608 -0.5306  2.6076  0.6806
 5783SOL    HW228983   3.080   2.661   3.657  1.7184 -0.9952 -1.6638
 5784SOL     OW28984   0.589   4.238   6.242  0.9092  0.6779  0.3746
 5784SOL    HW128985   0.588   4.171   6.311 -1.9631  0.2491 -0.0892
 5784SOL    HW228986   0.584   4.173   6.172  0.8138  1.4206 -0.3057
 5785SOL     OW28987   3.132   4.494  16.176 -0.0253  0.5132 -0.1083
 5785SOL    HW128988   3.156   4.403  16.162  1.1640  0.9421 -0.8737
 5785SOL    HW228989   3.134   4.537  16.091  1.0107  1.7515  0.5407
 5786SOL     OW28990   3.606   2.669   2.439 -0.5408  0.0643  0.5323
 5786SOL    HW128991   3.526   2.685   2.391 -0.3914  1.0868  0.6364
 5786SOL    HW228992   3.589   2.579   2.469  1.4130 -0.4804  0.0631
 5787SOL     OW28993   0.670   0.071   3.638  0.5688 -0.1715  0.2508
 5787SOL    HW128994   0.613   0.003   3.676 -0.5353  0.2604 -0.6383
 5787SOL    HW228995   0.753   0.023   3.636  0.7121  0.0300  1.2710
 5788SOL     OW28996   3.096   4.237   9.971 -0.2896 -0.3075  0.4561
 5788SOL    HW128997   3.190   4.234   9.985 -0.2195 -1.2871 -0.2598
 5788SOL    HW228998   3.093   4.296   9.896 -0.7880 -2.2554 -1.0342
 5789SOL     OW28999   1.472   3.608   1.887  0.1335  0.3343 -0.3982
 5789SOL    HW129000   1.489   3.538   1.949  1.8872  1.5242  0.4549
 5789SOL    HW229001   1.539   3.674   1.906  0.4068  0.1561 -0.7627
 5790SOL     OW29002   0.572   3.928   4.213 -0.3394 -0.4287 -0.6292
 5790SOL    HW129003   0.545   3.838   4.229  1.0615 -1.0276 -1.5782
 5790SOL    HW229004   0.625   3.955   4.287 -0.9504  0.5919 -0.5705
 5791SOL     OW29005   0.529   0.929   2.223 -0.2116  0.4523 -0.0013
 5791SOL    HW129006   0.562   0.907   2.136  1.3928 -1.9420  1.2227
 5791SOL    HW229007   0.434   0.931   2.209 -0.4791  0.3365  1.7465
 5792SOL     OW29008   3.118   3.129  13.404 -0.3773  0.4918 -0.2829
 5792SOL    HW129009   3.082   3.049  13.367  3.8536 -2.0001  1.0889
 5792SOL    HW229010   3.057   3.142  13.477 -0.4811 -0.5537 -0.1872
 5793SOL     OW29011   1.465   0.763   8.123 -0.1921 -0.3318  0.3689
 5793SOL    HW129012   1.549   0.765   8.169 -0.6159  2.2524  1.0363
 5793SOL    HW229013   1.423   0.678   8.136 -1.8974  0.8505  2.7229
 5794SOL     OW29014   2.096   2.047   5.716 -0.2320  0.4873 -0.5252
 5794SOL    HW129015   2.185   2.069   5.743 -0.5491  1.7054 -0.4922
 5794SOL    HW229016   2.120   2.015   5.629 -1.8658 -2.8420  0.2302
 5795SOL     OW29017   3.396   1.361   2.384 -0.3683 -0.4035 -0.4998
 5795SOL    HW129018   3.449   1.421   2.436 -1.3547  0.4743 -0.5022
 5795SOL    HW229019   3.324   1.410   2.344  1.6075  0.0300 -3.4657
 5796SOL     OW29020   1.533   4.469   7.188 -0.3836 -0.3543  0.0067
 5796SOL    HW129021   1.600   4.418   7.143  0.0650  0.2846 -0.0502
 5796SOL    HW229022   1.469   4.479   7.118  0.4534  2.9675 -0.2870
 5797SOL     OW29023   1.369   4.330  11.909 -0.2000  0.0126  0.3197
 5797SOL    HW129024   1.350   4.237  11.899 -0.2131  0.0593 -0.0984
 5797SOL    HW229025   1.365   4.338  12.004  0.3651 -1.3669  0.4508
 5798SOL     OW29026   1.418   4.245   3.097  0.3451  0.9385 -0.0057
 5798SOL    HW129027   1.333   4.275   3.065  0.1068  1.4742  1.1312
 5798SOL    HW229028   1.458   4.200   3.023  0.9746  0.1311  0.8327
 5799SOL     OW29029   1.942   3.980   6.361  0.6675  0.0163  0.3464
 5799SOL    HW129030   1.972   3.960   6.450 -1.4778  0.9226  1.2754
 5799SOL    HW229031   1.859   3.935   6.348 -0.9132  2.8913  0.5409
 5800SOL     OW29032   3.683   0.634   1.660 -0.2091  0.0817 -0.0286
 5800SOL    HW129033   3.643   0.548   1.674  4.0147 -1.9985 -0.6855
 5800SOL    HW229034   3.774   0.605   1.668 -0.2034  0.2599  0.5215
 5801SOL     OW29035   1.181   0.137   6.487  0.3821  0.4886 -0.0270
 5801SOL    HW129036   1.159   0.051   6.450  1.7364 -0.7853  2.1352
 5801SOL    HW229037   1.095   0.178   6.474  0.4180  0.1258 -1.4684
 5802SOL     OW29038   2.639   2.901   8.703 -0.0694 -0.3612 -0.0257
 5802SOL    HW129039   2.705   2.962   8.672 -1.7808  0.2532 -2.4681
 5802SOL    HW229040   2.687   2.850   8.768  1.2421  3.8455  2.2908
 5803SOL     OW29041   1.256   0.108   7.588 -0.1105  0.5179  0.2774
 5803SOL    HW129042   1.274   0.078   7.500  0.1176 -1.4126  0.9888
 5803SOL    HW229043   1.217   0.196   7.582 -1.7073 -0.1464  0.8768
 5804SOL     OW29044   0.414   0.641   6.647  0.2516  0.0689  0.2292
 5804SOL    HW129045   0.439   0.704   6.580 -1.9436 -0.5722 -1.1950
 5804SOL    HW229046   0.479   0.572   6.646 -0.6050 -0.7356 -0.1139
 5805SOL     OW29047   2.444   2.954   9.684 -0.3446 -0.6571  0.4165
 5805SOL    HW129048   2.449   2.868   9.727  1.2074 -0.7875 -0.0232
 5805SOL    HW229049   2.524   2.949   9.631  1.1548 -1.4419  2.6975
 5806SOL     OW29050   4.305   4.037  16.919  0.3644  0.1649  0.3808
 5806SOL    HW129051   4.318   4.130  16.938  1.5773 -0.0458  0.6152
 5806SOL    HW229052   4.211   4.030  16.903  0.2068 -0.3614  1.5219
 5807SOL     OW29053   1.741   3.628  17.348  0.4112  0.6145 -0.1249
 5807SOL    HW129054   1.698   3.702  17.306  0.0744  0.9122  0.7517
 5807SOL    HW229055   1.701   3.556  17.299  0.0619 -0.8319  2.2820
 5808SOL     OW29056   3.741   4.707  11.554  0.0587 -0.2259  0.3983
 5808SOL    HW129057   3.804   4.684  11.622  0.8537 -0.4818 -0.4234
 5808SOL    HW229058   3.676   4.663  11.608 -1.0215 -0.8516 -1.4157
 5809SOL     OW29059   1.790   2.526   2.709  0.0401  0.7694  0.3342
 5809SOL    HW129060   1.726   2.491   2.648  2.4858 -0.9263 -1.2381
 5809SOL    HW229061   1.848   2.451   2.725 -0.2669  0.0806 -1.7415
 5810SOL     OW29062   3.005   4.595   6.907  0.0319  0.7815 -0.5715
 5810SOL    HW129063   2.965   4.566   6.989  2.1447 -0.6216 -0.0260
 5810SOL    HW229064   2.932   4.574   6.849  0.5537  1.7746 -1.5933
 5811SOL     OW29065   2.178   4.669  14.030 -0.2858 -0.2151  0.0970
 5811SOL    HW129066   2.202   4.703  13.944  1.3800  0.3161  0.7672
 5811SOL    HW229067   2.109   4.734  14.045 -1.1366 -0.9411 -0.6424
 5812SOL     OW29068   2.068   3.264   2.291  0.2623 -0.4296 -0.4311
 5812SOL    HW129069   1.976   3.291   2.291  0.2688 -0.4090  2.0544
 5812SOL    HW229070   2.069   3.168   2.291 -0.0118 -0.4297  2.9467
 5813SOL     OW29071   0.102   2.891   6.908 -0.3474  0.2013 -0.2256
 5813SOL    HW129072   0.074   2.966   6.960  3.1874  0.0191  1.9211
 5813SOL    HW229073   0.172   2.861   6.966 -2.9207 -1.6320  1.9466
 5814SOL     OW29074   1.730   2.456   0.954  0.1008 -0.3934 -0.0960
 5814SOL    HW129075   1.769   2.390   1.011  1.0391 -1.3730 -1.9098
 5814SOL    HW229076   1.708   2.529   1.013  1.1839 -0.2934  0.1809
 5815SOL     OW29077   2.525   0.281   9.920 -0.0602  0.4218  0.3933
 5815SOL    HW129078   2.594   0.266   9.856 -1.8674 -1.4958 -1.0811
 5815SOL    HW229079   2.472   0.208   9.889 -0.7958  0.5004  1.4659
 5816SOL     OW29080   0.250   0.046  11.067 -0.2208 -0.5186  0.4454
 5816SOL    HW129081   0.217   0.016  10.982  0.6283  0.0431 -0.0790
 5816SOL    HW229082   0.305   0.116  11.032  0.6304 -0.2600  2.3284
 5817SOL     OW29083   1.244   4.540   7.468  0.1111  0.2228  0.1335
 5817SOL    HW129084   1.165   4.576   7.428 -1.4611 -0.0702  2.9883
 5817SOL    HW229085   1.308   4.610   7.455 -0.2670  0.0213 -2.7753
 5818SOL     OW29086   2.643   4.022   3.287 -0.8400 -0.0021  0.3539
 5818SOL    HW129087   2.571   4.085   3.278 -0.7881 -0.0709 -0.5251
 5818SOL    HW229088   2.606   3.940   3.256  2.5221 -2.0386  1.7082
 5819SOL     OW29089   3.635   0.531   4.439  0.1760  0.1257 -0.4098
 5819SOL    HW129090   3.627   0.624   4.419 -2.1980 -0.6171 -2.9217
 5819SOL    HW229091   3.556   0.494   4.399 -1.1235  1.6409  0.8013
 5820SOL     OW29092   2.096   4.481   0.344  0.5927  0.4635  0.0453
 5820SOL    HW129093   2.074   4.530   0.424  0.1898  1.8469 -0.9086
 5820SOL    HW229094   2.192   4.482   0.348  0.5838 -2.5419  0.4710
 5821SOL     OW29095   4.042   1.908  12.244  0.0005  0.6110 -0.1977
 5821SOL    HW129096   4.108   1.913  12.313 -0.5751  0.7829  0.3340
 5821SOL    HW229097   4.101   1.882  12.173  0.4860 -0.8984  0.7473
 5822SOL     OW29098   2.841   1.648   5.606  0.4391 -0.2070 -0.0690
 5822SOL    HW129099   2.868   1.738   5.589 -0.1189 -0.2330 -1.0869
 5822SOL    HW229100   2.748   1.663   5.622  0.5871  0.0231  0.5733
 5823SOL     OW29101   0.118   3.768   3.823  0.2133 -0.1767 -0.1770
 5823SOL    HW129102   0.201   3.806   3.854  0.6984 -0.5901 -0.9754
 5823SOL    HW229103   0.152   3.693   3.775  0.9745 -0.7437  1.2491
 5824SOL     OW29104   0.616   2.271   9.117 -0.3926  0.1074 -0.8315
 5824SOL    HW129105   0.524   2.289   9.100 -0.6208 -0.7756 -0.5458
 5824SOL    HW229106   0.648   2.297   9.031 -0.1487 -1.1204 -1.1101
 5825SOL     OW29107   3.030   2.665   1.476  0.1372  0.9617  0.0315
 5825SOL    HW129108   2.979   2.678   1.396  0.4611  1.8497 -0.0241
 5825SOL    HW229109   2.960   2.635   1.535  2.1548 -1.1795  1.3117
 5826SOL     OW29110   2.701   0.844   8.887  0.6294  0.3056  0.1137
 5826SOL    HW129111   2.743   0.759   8.872 -0.7804 -0.6546  1.5747
 5826SOL    HW229112   2.613   0.810   8.900  0.6369 -0.2098 -1.0782
 5827SOL     OW29113   3.971   3.023  13.162 -0.1725  0.1143  0.1846
 5827SOL    HW129114   3.982   2.986  13.250 -4.4339 -0.8335  0.3368
 5827SOL    HW229115   4.062   3.033  13.135 -0.1949 -1.1498 -0.3357
 5828SOL     OW29116   1.145   2.143   2.542  0.6722  0.0293  0.5041
 5828SOL    HW129117   1.211   2.204   2.509  0.6661  0.4467  1.2484
 5828SOL    HW229118   1.108   2.188   2.618  0.7125  0.5723  0.2029
 5829SOL     OW29119   3.978   4.716   6.123  0.0341 -0.2260  0.5644
 5829SOL    HW129120   3.895   0.024   6.142 -0.4690 -0.1724 -1.7734
 5829SOL    HW229121   4.024   4.698   6.205  2.0770  1.9078 -0.0825
 5830SOL     OW29122   0.009   0.988   8.871  0.0402  0.5028  0.3934
 5830SOL    HW129123   4.695   0.909   8.848  0.2437  0.5260 -0.1219
 5830SOL    HW229124   0.066   0.945   8.935  0.2188 -0.0125 -0.1168
 5831SOL     OW29125   1.777   2.775   2.612 -0.3298 -0.1625 -0.0554
 5831SOL    HW129126   1.864   2.814   2.617 -0.8902  0.8958  1.4210
 5831SOL    HW229127   1.799   2.686   2.642  0.5173  0.2772  0.6227
 5832SOL     OW29128   1.198   0.804   8.850  0.1569  0.6842  0.7812
 5832SOL    HW129129   1.267   0.864   8.822 -0.1486  1.5449  1.8878
 5832SOL    HW229130   1.219   0.729   8.794 -1.2795  0.8984 -0.0508
 5833SOL     OW29131   0.099   1.133   6.786 -1.2491 -0.2650 -0.0152
 5833SOL    HW129132   0.151   1.130   6.706 -0.4462  0.1183  0.4894
 5833SOL    HW229133   0.161   1.147   6.858 -0.0888 -2.8064 -0.5385
 5834SOL     OW29134   3.040   1.175   5.299  0.1514  0.6904 -0.2868
 5834SOL    HW129135   3.094   1.246   5.335  3.7178 -2.5681  0.8779
 5834SOL    HW229136   2.983   1.148   5.371  0.8784  1.5720  0.6335
 5835SOL     OW29137   4.296   2.770   5.564  0.5101  0.0558  0.3419
 5835SOL    HW129138   4.314   2.837   5.498  0.3848  1.6641  1.9532
 5835SOL    HW229139   4.204   2.792   5.578  0.8477  2.2615 -0.9161
 5836SOL     OW29140   3.155   0.958  11.129  0.3224 -0.1970 -0.3115
 5836SOL    HW129141   3.122   0.932  11.043 -2.5901 -0.0542  0.7701
 5836SOL    HW229142   3.083   1.002  11.174 -0.1681  0.3304 -1.6145
 5837SOL     OW29143   2.815   2.332   0.163  0.3157  0.1683  0.2055
 5837SOL    HW129144   2.873   2.291   0.228 -0.2326 -1.1494 -0.1466
 5837SOL    HW229145   2.793   2.268   0.096 -2.7421  0.1079  1.2563
 5838SOL     OW29146   2.909   0.825   5.612  0.6211 -0.1970 -0.1361
 5838SOL    HW129147   2.951   0.756   5.561 -0.2395 -0.3067 -0.6976
 5838SOL    HW229148   2.851   0.774   5.668 -1.3287 -1.0385 -2.8864
 5839SOL     OW29149   0.355   2.122  14.587  0.0386  0.4482 -0.0748
 5839SOL    HW129150   0.296   2.120  14.663 -1.4021  1.7514 -1.1531
 5839SOL    HW229151   0.415   2.193  14.609 -0.4890  0.5418  1.0634
 5840SOL     OW29152   2.591   1.924   5.126 -0.1641  0.5242 -0.0067
 5840SOL    HW129153   2.519   1.870   5.093 -0.6411  0.6084  0.9160
 5840SOL    HW229154   2.535   1.994   5.160 -2.0468 -0.8600 -0.2625
 5841SOL     OW29155   2.049   0.786   2.221 -0.1029  0.7649 -0.3115
 5841SOL    HW129156   1.977   0.796   2.284  0.6290  0.4339  0.5828
 5841SOL    HW229157   2.094   0.869   2.234 -1.4309  1.6633 -1.5085
 5842SOL     OW29158   0.376   2.732   6.533 -0.1179  0.2385  0.0083
 5842SOL    HW129159   0.300   2.754   6.479 -0.5632 -0.1032  0.5013
 5842SOL    HW229160   0.333   2.669   6.592  1.1460 -2.5662 -2.0405
 5843SOL     OW29161   3.677   2.928   3.938  0.4613  0.9902  0.7754
 5843SOL    HW129162   3.773   2.922   3.940  0.3798 -0.7307 -0.4667
 5843SOL    HW229163   3.662   3.022   3.926 -1.4449  0.5149 -0.6357
 5844SOL     OW29164   4.716   2.510   6.679 -0.3585  0.5242 -0.2795
 5844SOL    HW129165   4.644   2.528   6.619  0.2875  0.0764 -1.1726
 5844SOL    HW229166   4.676   2.554   6.755 -0.8955  1.3286 -1.0287
 5845SOL     OW29167   0.444   1.491   8.465  0.5714 -0.0358 -0.5339
 5845SOL    HW129168   0.476   1.519   8.550  3.2852  1.4238 -2.0467
 5845SOL    HW229169   0.358   1.532   8.459  1.5888  1.6917 -3.5413
 5846SOL     OW29170   2.350   0.854   3.171  0.6381  0.8770 -0.2448
 5846SOL    HW129171   2.387   0.766   3.158 -1.2711  0.1056 -0.4953
 5846SOL    HW229172   2.357   0.889   3.082  0.8646  0.6884 -0.3017
 5847SOL     OW29173   0.726   3.915   7.885  0.2183  0.3464  0.0336
 5847SOL    HW129174   0.766   4.000   7.907  1.0712  0.4261 -1.8069
 5847SOL    HW229175   0.636   3.937   7.862  0.3982  1.0272 -0.0451
 5848SOL     OW29176   4.350   0.267   9.712  0.0378 -0.6313 -0.2823
 5848SOL    HW129177   4.303   0.210   9.651  1.8909 -1.1385 -1.2292
 5848SOL    HW229178   4.355   0.342   9.652 -0.8529  0.8183  1.4189
 5849SOL     OW29179   3.791   2.876   4.456 -0.6236 -0.1243  0.0972
 5849SOL    HW129180   3.857   2.946   4.453 -0.7683 -0.0663 -1.8661
 5849SOL    HW229181   3.737   2.912   4.527  0.7844  0.3157  0.9354
 5850SOL     OW29182   4.102   4.283  12.847 -0.3243 -0.7215 -0.3187
 5850SOL    HW129183   4.170   4.215  12.843 -0.0728 -0.4086 -1.2824
 5850SOL    HW229184   4.051   4.260  12.770  0.2173  1.1635 -1.2223
 5851SOL     OW29185   2.133   0.077   6.238 -0.2366  0.2242  0.2569
 5851SOL    HW129186   2.054   0.117   6.273 -1.0504 -0.8638 -0.3275
 5851SOL    HW229187   2.201   0.124   6.286  0.4245  0.0327 -0.4770
 5852SOL     OW29188   4.089   3.532   3.082  0.3138  0.5907  0.1700
 5852SOL    HW129189   4.034   3.608   3.101  2.2270  2.0333 -0.0708
 5852SOL    HW229190   4.167   3.580   3.054 -0.5140  1.4007 -0.7693
 5853SOL     OW29191   0.031   2.401   8.527  0.5011 -0.2033  0.8798
 5853SOL    HW129192   4.688   2.430   8.574 -0.6419 -0.1683 -1.0729
 5853SOL    HW229193   0.086   2.420   8.603  1.0977  0.6051  0.2383
 5854SOL     OW29194   1.675   1.110   7.499  0.1302 -0.6693 -0.0956
 5854SOL    HW129195   1.743   1.139   7.560  1.3364 -0.4466 -1.5697
 5854SOL    HW229196   1.659   1.026   7.542 -1.1758  0.0619  0.8692
 5855SOL     OW29197   3.084   1.613   3.117 -0.3992  0.0194  0.1765
 5855SOL    HW129198   3.175   1.638   3.135  0.2274 -2.4843  0.4594
 5855SOL    HW229199   3.034   1.628   3.196  1.6181  0.4205  1.3850
 5856SOL     OW29200   0.435   0.288  13.154 -0.0885 -0.1394  0.0566
 5856SOL    HW129201   0.483   0.249  13.227 -1.7107  1.8151  2.1578
 5856SOL    HW229202   0.502   0.340  13.111 -2.8589  2.0052 -1.6427
 5857SOL     OW29203   2.111   0.003  16.777  0.0053  0.1183 -0.5471
 5857SOL    HW129204   2.159   4.693  16.846 -0.1583  1.2149  0.2898
 5857SOL    HW229205   2.099   0.089  16.815 -0.5478 -0.7343  1.2120
 5858SOL     OW29206   0.780   1.728  14.242  0.0896  0.2291  0.0591
 5858SOL    HW129207   0.698   1.745  14.289  0.7772  0.5190  1.1477
 5858SOL    HW229208   0.823   1.683  14.314 -0.6279  1.0923  1.0233
 5859SOL     OW29209   2.394   0.497  12.299 -0.2524  0.0176 -0.3527
 5859SOL    HW129210   2.420   0.424  12.356 -0.0813  0.9192  0.7206
 5859SOL    HW229211   2.426   0.461  12.216 -2.2691  0.0313 -1.1423
 5860SOL     OW29212   3.291   3.259   1.693 -0.1463  0.0163 -0.2510
 5860SOL    HW129213   3.333   3.204   1.627 -2.2963 -1.1782 -0.6124
 5860SOL    HW229214   3.295   3.197   1.766  1.0515  0.6904  0.2548
 5861SOL     OW29215   3.911   1.054  15.618  0.6788 -0.3978 -0.6002
 5861SOL    HW129216   3.835   1.056  15.676  1.0849 -1.8392 -0.0145
 5861SOL    HW229217   3.899   1.126  15.556  1.0697 -1.7786 -2.2865
 5862SOL     OW29218   4.026   0.543   1.900  0.0714 -0.5274 -0.1556
 5862SOL    HW129219   3.945   0.542   1.952  0.9470  0.3352  1.2253
 5862SOL    HW229220   4.001   0.479   1.833 -0.8402 -2.5869  2.1410
 5863SOL     OW29221   2.088   2.954  15.781  0.3144 -0.3203  0.2507
 5863SOL    HW129222   2.175   2.992  15.788  0.2904  0.0796 -1.6781
 5863SOL    HW229223   2.082   2.894  15.856  1.2419 -0.1107  0.4934
 5864SOL     OW29224   3.334   4.381  12.072 -0.6103  0.2137 -0.1225
 5864SOL    HW129225   3.327   4.286  12.081  2.2450  0.3055  2.7879
 5864SOL    HW229226   3.362   4.409  12.159 -1.2285 -1.8185  0.7223
 5865SOL     OW29227   2.002   4.456   4.399 -0.3696 -0.6036 -0.2784
 5865SOL    HW129228   2.021   4.538   4.445 -1.8584 -0.2952 -0.2388
 5865SOL    HW229229   2.074   4.460   4.336 -0.7602 -1.6006 -0.8068
 5866SOL     OW29230   1.255   4.624   4.475  0.2565  0.6234  0.2347
 5866SOL    HW129231   1.238   4.622   4.569 -0.4033 -1.4358  0.0686
 5866SOL    HW229232   1.293   4.537   4.463  0.7560  0.9333 -0.4464
 5867SOL     OW29233   0.417   2.346   4.675 -0.5762 -0.1687 -0.3623
 5867SOL    HW129234   0.448   2.327   4.586 -0.0532 -2.1211  0.2521
 5867SOL    HW229235   0.458   2.432   4.677 -0.8161 -0.0898  1.3389
 5868SOL     OW29236   2.068   0.648   3.967 -0.5226 -0.7479  0.4422
 5868SOL    HW129237   1.998   0.614   3.910 -1.6806  1.3722  0.6024
 5868SOL    HW229238   2.129   0.692   3.908 -0.0076 -0.3763  1.2653
 5869SOL     OW29239   3.736   3.803   6.998  0.3613 -0.7280  0.0395
 5869SOL    HW129240   3.788   3.724   6.983 -0.1908 -0.7348 -1.7528
 5869SOL    HW229241   3.800   3.874   7.006 -0.1049 -0.4102  0.9599
 5870SOL     OW29242   3.270   3.561   1.268  0.4059  0.6445  0.1585
 5870SOL    HW129243   3.356   3.533   1.236 -0.1445 -1.5096  0.6109
 5870SOL    HW229244   3.281   3.550   1.363  0.2454  2.2514  0.3766
 5871SOL     OW29245   3.995   2.146   5.135  0.6594  0.0365 -0.0888
 5871SOL    HW129246   3.928   2.078   5.143  0.8393 -0.0384  0.7818
 5871SOL    HW229247   4.046   2.091   5.076  1.1262 -1.3011  1.5470
 5872SOL     OW29248   3.162   1.894   5.765  0.4773  0.0682 -0.1049
 5872SOL    HW129249   3.223   1.955   5.724  0.7992 -1.3581 -1.7685
 5872SOL    HW229250   3.214   1.830   5.815 -0.2292 -2.0758 -2.1240
 5873SOL     OW29251   2.318   4.575   2.265  0.3929 -0.4861  0.0919
 5873SOL    HW129252   2.263   4.501   2.291  1.6178 -2.2107 -2.2285
 5873SOL    HW229253   2.294   4.641   2.331 -0.2136  0.1234 -0.7446
 5874SOL     OW29254   3.728   3.813  15.480  0.5551  0.1877 -0.0616
 5874SOL    HW129255   3.742   3.742  15.542  0.3162  0.1128 -0.0940
 5874SOL    HW229256   3.634   3.798  15.471  0.7944 -1.5330  0.3671
 5875SOL     OW29257   3.209   3.627   0.703 -0.2755 -0.2919  0.5900
 5875SOL    HW129258   3.298   3.651   0.676  0.0410 -1.1238  0.9123
 5875SOL    HW229259   3.193   3.560   0.637 -0.2195  0.4377 -0.1728
 5876SOL     OW29260   2.391   3.991   7.256 -0.2053  1.2326  0.1647
 5876SOL    HW129261   2.377   3.959   7.346 -0.7976  3.0844  0.7298
 5876SOL    HW229262   2.305   4.027   7.235 -0.3223  1.6467  1.3143
 5877SOL     OW29263   1.935   2.391   3.891  0.5058 -0.0703  0.3160
 5877SOL    HW129264   1.877   2.467   3.880  0.0813 -0.3452  0.6661
 5877SOL    HW229265   1.911   2.332   3.819 -0.5293 -1.0952  1.5181
 5878SOL     OW29266   1.323   4.434   2.709 -0.1035 -0.3707  0.4395
 5878SOL    HW129267   1.339   4.375   2.635  0.1189  0.7812 -0.4349
 5878SOL    HW229268   1.290   4.514   2.667  0.1187 -1.9226 -2.7041
 5879SOL     OW29269   0.440   4.431   3.494  0.0622 -0.4669 -0.0922
 5879SOL    HW129270   0.388   4.439   3.574 -1.2141  1.5500 -1.1204
 5879SOL    HW229271   0.392   4.495   3.440  2.4680  1.4077 -0.0257
 5880SOL     OW29272   1.195   4.022   6.622 -0.2488 -0.1395  0.7709
 5880SOL    HW129273   1.176   3.945   6.569 -0.4185  1.0374 -0.8434
 5880SOL    HW229274   1.150   4.003   6.705 -2.3251 -0.4770 -0.4195
 5881SOL     OW29275   4.205   3.162   9.174  0.6404 -0.0676 -0.0752
 5881SOL    HW129276   4.153   3.098   9.124  0.5133 -0.5134  0.6285
 5881SOL    HW229277   4.195   3.244   9.126 -0.4366 -0.7317 -0.9785
 5882SOL     OW29278   1.493   2.981   8.884 -0.3535  0.2770 -0.8437
 5882SOL    HW129279   1.546   2.966   8.962  2.3812 -1.2973 -3.0403
 5882SOL    HW229280   1.406   2.955   8.915 -0.8041  1.9419 -0.6969
 5883SOL     OW29281   0.296   2.753  12.776  0.9363  0.1957 -0.3825
 5883SOL    HW129282   0.304   2.762  12.681 -0.8783 -0.6812 -0.6171
 5883SOL    HW229283   0.277   2.660  12.785  0.9306  0.0182 -2.2430
 5884SOL     OW29284   1.555   3.844   5.427  0.2686  0.2235 -0.0151
 5884SOL    HW129285   1.576   3.756   5.396  0.8128 -0.2033  1.5787
 5884SOL    HW229286   1.635   3.895   5.417  0.4434 -0.0838 -0.1913
 5885SOL     OW29287   3.952   4.703  15.440  0.3109  0.4464  0.2931
 5885SOL    HW129288   3.940   4.609  15.453  1.0939  0.1201 -1.3647
 5885SOL    HW229289   3.997   4.717  15.523 -1.3033  0.0351  1.2582
 5886SOL     OW29290   0.966   1.346  13.661  0.0936 -0.4564  0.5447
 5886SOL    HW129291   0.882   1.333  13.704 -0.4824  1.1438 -0.1302
 5886SOL    HW229292   1.009   1.260  13.665 -0.0715 -0.6061 -0.8838
 5887SOL     OW29293   2.657   2.135   6.777  0.4009 -0.5043 -0.0452
 5887SOL    HW129294   2.688   2.164   6.863  1.6354  1.7626 -1.2491
 5887SOL    HW229295   2.567   2.166   6.788  0.8053  0.6860 -0.1085
 5888SOL     OW29296   0.910   0.954  14.291 -0.2951 -0.0282  0.7250
 5888SOL    HW129297   0.904   0.936  14.385 -2.8156  0.7230  0.6964
 5888SOL    HW229298   0.875   0.873  14.255 -0.7290  0.4467  0.0547
 5889SOL     OW29299   4.018   2.831   5.550  0.4653  0.0977  0.1131
 5889SOL    HW129300   3.971   2.914   5.554  1.1578  0.3450  3.0956
 5889SOL    HW229301   3.948   2.770   5.526 -2.4994  2.5465  2.5664
 5890SOL     OW29302   1.314   4.650   9.578 -0.0783 -0.3123  0.1204
 5890SOL    HW129303   1.312   4.566   9.623 -1.0749 -0.5289 -0.3386
 5890SOL    HW229304   1.363   4.644   9.496 -0.7389 -1.4399 -0.1881
 5891SOL     OW29305   3.678   1.687   8.916  0.0745 -0.0694 -0.0841
 5891SOL    HW129306   3.750   1.724   8.865 -0.6578  0.3599 -0.7930
 5891SOL    HW229307   3.676   1.597   8.886 -1.0530  0.2108 -0.8344
 5892SOL     OW29308   1.391   0.570   6.283 -0.0542  0.0698 -0.5302
 5892SOL    HW129309   1.451   0.566   6.357 -0.6513 -3.6373 -0.2356
 5892SOL    HW229310   1.343   0.487   6.292 -0.3670  0.2475 -0.5401
 5893SOL     OW29311   2.929   1.299  15.053 -0.4911 -0.4129  0.9295
 5893SOL    HW129312   2.976   1.232  15.003 -0.3857  0.8556 -0.6888
 5893SOL    HW229313   2.962   1.372  15.000 -0.6582 -0.8649  0.1973
 5894SOL     OW29314   2.227   0.899   7.915 -0.0847  0.0091 -0.1307
 5894SOL    HW129315   2.201   0.991   7.920 -1.5057 -0.3140 -1.8157
 5894SOL    HW229316   2.144   0.854   7.904  0.3557 -1.6054  3.0170
 5895SOL     OW29317   0.935   3.283   5.968 -0.4535  0.3297 -0.2131
 5895SOL    HW129318   0.995   3.357   5.965 -1.0723  0.7710 -1.4430
 5895SOL    HW229319   0.977   3.217   5.914  2.1186  1.4439  0.4563
 5896SOL     OW29320   3.915   0.805  13.040 -0.6483 -0.0915  0.0121
 5896SOL    HW129321   3.933   0.899  13.039  0.4889 -0.3166 -0.6490
 5896SOL    HW229322   3.915   0.797  13.135 -0.4687 -2.7083 -0.2104
 5897SOL     OW29323   0.420   1.862   8.187  0.5098 -0.3839 -0.4479
 5897SOL    HW129324   0.429   1.769   8.164 -0.3603 -1.0614  1.8904
 5897SOL    HW229325   0.384   1.851   8.275  0.4813  1.2726 -0.2474
 5898SOL     OW29326   1.873   1.355   7.476 -0.1405  0.9173 -0.1019
 5898SOL    HW129327   1.825   1.404   7.543 -1.0981 -1.3222  0.8498
 5898SOL    HW229328   1.807   1.299   7.435 -1.5769 -1.2347  5.0728
 5899SOL     OW29329   3.932   1.153   2.704  0.1453  0.3781  0.3048
 5899SOL    HW129330   3.972   1.080   2.753  0.4688  1.3627  1.5046
 5899SOL    HW229331   3.980   1.157   2.621  1.0419  0.1455  0.8126
 5900SOL     OW29332   0.529   0.019  11.783  0.2239  0.9070  0.5692
 5900SOL    HW129333   0.464   4.698  11.740  1.2547 -1.1752  1.7515
 5900SOL    HW229334   0.528   0.090  11.719  1.6278  0.6281  0.2346
 5901SOL     OW29335   4.110   2.630   4.415 -0.2503 -0.1730  0.0135
 5901SOL    HW129336   4.103   2.567   4.343 -0.8710  1.8190 -1.6751
 5901SOL    HW229337   4.142   2.577   4.488  1.4512  1.5502  0.5298
 5902SOL     OW29338   0.073   3.447   2.175  0.4495 -0.4219 -0.2442
 5902SOL    HW129339   4.735   3.416   2.123 -0.9244  1.9017  0.3365
 5902SOL    HW229340   0.103   3.523   2.124 -1.3777  2.1121  2.4683
 5903SOL     OW29341   1.000   2.664  16.442  0.5454 -0.1207  0.7295
 5903SOL    HW129342   1.045   2.743  16.470 -1.3365  0.7089  1.4473
 5903SOL    HW229343   0.945   2.649  16.519 -1.4384 -1.2767 -0.8935
 5904SOL     OW29344   4.036   2.592   3.245  0.4210 -0.4788  0.5726
 5904SOL    HW129345   4.002   2.663   3.190 -1.1489 -0.6391  1.3495
 5904SOL    HW229346   4.124   2.628   3.257  0.5008 -0.7198  0.7115
 5905SOL     OW29347   3.867   0.946   8.237 -0.1373  0.0961  0.0319
 5905SOL    HW129348   3.803   0.948   8.308  1.9954 -1.3760  2.0092
 5905SOL    HW229349   3.875   0.851   8.228  2.2640  0.3696 -0.9143
 5906SOL     OW29350   4.233   4.209   0.638  0.0041 -0.4202  0.6028
 5906SOL    HW129351   4.201   4.294   0.667  2.7625  0.6030  0.6474
 5906SOL    HW229352   4.269   4.178   0.721 -0.4172  0.6700  1.1936
 5907SOL     OW29353   0.394   1.911   1.100  0.0299  0.2744 -0.0278
 5907SOL    HW129354   0.374   1.822   1.072 -2.2300  0.7800 -0.0604
 5907SOL    HW229355   0.312   1.939   1.142 -0.4237  0.6816 -1.1692
 5908SOL     OW29356   1.670   2.650   2.928  0.1642 -0.1918 -0.0139
 5908SOL    HW129357   1.701   2.591   2.997  0.6783 -1.5529 -1.4158
 5908SOL    HW229358   1.714   2.613   2.852  0.2064 -1.6725  0.7343
 5909SOL     OW29359   3.880   2.583   7.958 -0.2958 -0.1626  0.0282
 5909SOL    HW129360   3.859   2.494   7.930  0.4037 -0.8280  1.5896
 5909SOL    HW229361   3.810   2.625   7.909  0.4334  0.2540 -0.6533
 5910SOL     OW29362   1.806   2.519   8.861 -0.2924  0.6753  0.2215
 5910SOL    HW129363   1.879   2.522   8.799  0.6390 -0.6047  1.2818
 5910SOL    HW229364   1.748   2.589   8.829  1.6271  2.1511 -0.0042
 5911SOL     OW29365   4.628   2.334  16.747  0.0529 -0.3204 -0.3438
 5911SOL    HW129366   4.676   2.366  16.671  0.1861  0.0609 -0.0998
 5911SOL    HW229367   4.541   2.365  16.722 -0.4651  0.1805  2.0673
 5912SOL     OW29368   3.612   1.021   5.752 -0.2059  0.1593 -0.5618
 5912SOL    HW129369   3.535   1.070   5.781  0.2307  0.7260 -0.3630
 5912SOL    HW229370   3.644   1.084   5.688 -1.1448  0.3731 -0.8157
 5913SOL     OW29371   0.446   1.185  13.646 -0.0266 -0.0718 -0.3464
 5913SOL    HW129372   0.506   1.243  13.598  0.9046  0.4416  1.4609
 5913SOL    HW229373   0.433   1.238  13.724 -2.1925 -1.0564 -0.0261
 5914SOL     OW29374   1.384   4.525  16.784 -0.1908  0.0825 -0.0699
 5914SOL    HW129375   1.445   4.556  16.851 -1.7553 -2.4091  2.4975
 5914SOL    HW229376   1.442   4.472  16.730 -0.5554 -0.1113 -0.2741
 5915SOL     OW29377   0.295   3.578   8.505 -0.0507  1.0339  0.1837
 5915SOL    HW129378   0.364   3.587   8.572 -0.8747  0.7783  1.0669
 5915SOL    HW229379   0.291   3.484   8.489  1.5347  1.2508 -1.3837
 5916SOL     OW29380   0.732   3.131   7.606 -0.1828  0.1164 -0.0863
 5916SOL    HW129381   0.812   3.184   7.606 -0.6461  0.8236 -0.6956
 5916SOL    HW229382   0.725   3.088   7.691 -0.0792  2.1899  0.9689
 5917SOL     OW29383   0.596   1.668   1.163 -0.4794 -0.3950 -0.3074
 5917SOL    HW129384   0.605   1.581   1.124 -0.9341 -0.6602  0.1784
 5917SOL    HW229385   0.618   1.717   1.084 -0.4288 -3.2725 -2.0853
 5918SOL     OW29386   4.688   3.173   2.540  0.5443  0.2816  0.3707
 5918SOL    HW129387   0.005   3.252   2.555  1.7575 -0.5135  0.2298
 5918SOL    HW229388   4.623   3.216   2.484 -0.1429  1.0073  1.7118
 5919SOL     OW29389   3.502   2.675   1.754  0.3993  0.3788  0.0693
 5919SOL    HW129390   3.517   2.674   1.660  1.7750  0.3349  0.2999
 5919SOL    HW229391   3.408   2.656   1.756  0.6330 -0.9059 -1.0898
 5920SOL     OW29392   3.854   4.045   2.619  0.0844 -0.0120 -0.0362
 5920SOL    HW129393   3.926   4.054   2.557 -1.8758  1.6194 -2.0569
 5920SOL    HW229394   3.905   4.008   2.692  1.1307 -1.3807 -1.4610
 5921SOL     OW29395   2.003   2.919  10.136  0.1938 -0.0270  0.3812
 5921SOL    HW129396   1.910   2.917  10.159 -0.9327  0.1996 -4.2663
 5921SOL    HW229397   2.042   2.894  10.220  1.0019 -2.0889 -0.5935
 5922SOL     OW29398   0.460   1.644   7.566 -0.4259  0.4404 -0.4482
 5922SOL    HW129399   0.396   1.712   7.588  0.6645  2.0634 -2.3749
 5922SOL    HW229400   0.508   1.673   7.489  0.9480  0.8930  0.5810
 5923SOL     OW29401   0.135   2.248   2.151  0.1520  0.2139 -0.5628
 5923SOL    HW129402   0.084   2.174   2.183  0.0291  1.0154  1.0632
 5923SOL    HW229403   0.161   2.204   2.070  2.0327 -1.2215  0.8319
 5924SOL     OW29404   0.899   1.273  16.361  0.5261 -0.6290  0.0739
 5924SOL    HW129405   0.807   1.268  16.336  0.0487  3.7134  1.0361
 5924SOL    HW229406   0.912   1.181  16.385  0.0960 -0.7875 -0.2975
 5925SOL     OW29407   3.245   4.382   2.991 -0.2844 -0.0928 -0.2936
 5925SOL    HW129408   3.229   4.307   2.934 -0.5932  0.0292 -0.3647
 5925SOL    HW229409   3.160   4.419   3.013 -1.0644 -1.7492 -0.5303
 5926SOL     OW29410   4.375   2.098  12.937 -0.1281  0.0613  0.1507
 5926SOL    HW129411   4.313   2.140  12.996 -0.2647  1.5969 -1.0857
 5926SOL    HW229412   4.313   2.066  12.871  1.2903 -0.9878 -0.6880
 5927SOL     OW29413   4.280   1.469   7.375 -1.0007  0.1137  0.5578
 5927SOL    HW129414   4.271   1.383   7.414  2.9946  0.7125  2.8215
 5927SOL    HW229415   4.197   1.513   7.391 -1.7347 -1.3371  0.6448
 5928SOL     OW29416   3.854   1.121   6.732  0.0737  0.2522  0.6169
 5928SOL    HW129417   3.780   1.145   6.676 -0.7643  1.2603  2.1482
 5928SOL    HW229418   3.812   1.071   6.802 -1.2229  0.2528 -0.1544
 5929SOL     OW29419   1.782   2.265   3.186  0.4671 -0.3754 -0.2741
 5929SOL    HW129420   1.750   2.216   3.110 -0.9926 -2.4363  1.6524
 5929SOL    HW229421   1.710   2.241   3.243  0.1311 -0.9702 -0.9499
 5930SOL     OW29422   4.707   0.460  12.258  0.0933 -0.2105  0.0131
 5930SOL    HW129423   4.672   0.383  12.214 -0.2777  0.5967 -1.0961
 5930SOL    HW229424   0.026   0.494  12.188 -0.7319  0.7912 -0.1492
 5931SOL     OW29425   3.368   1.607   3.676 -0.3258 -0.1664 -0.2424
 5931SOL    HW129426   3.305   1.584   3.608  0.9439 -2.6566 -0.5608
 5931SOL    HW229427   3.380   1.521   3.715 -2.1530  0.2088  1.1666
 5932SOL     OW29428   4.208   0.485   4.240  0.6011 -0.4859  0.3909
 5932SOL    HW129429   4.261   0.563   4.255 -0.1724 -0.3546  2.3899
 5932SOL    HW229430   4.122   0.511   4.272 -0.2471 -2.9423  0.0866
 5933SOL     OW29431   1.814   4.525   6.427 -0.2084  0.2695  0.0480
 5933SOL    HW129432   1.827   4.463   6.355  1.3256 -0.0681  0.6251
 5933SOL    HW229433   1.736   4.572   6.396 -0.1822 -0.9726 -1.9134
 5934SOL     OW29434   0.607   2.628   7.423 -0.2656 -0.1050 -0.5316
 5934SOL    HW129435   0.605   2.722   7.407 -1.4805 -0.4118 -2.1038
 5934SOL    HW229436   0.610   2.628   7.519 -2.0889 -1.7843 -0.4805
 5935SOL     OW29437   0.371   2.044  16.678 -0.6322 -0.1674  0.2498
 5935SOL    HW129438   0.281   2.020  16.700 -0.0631 -2.9097 -0.4857
 5935SOL    HW229439   0.397   1.973  16.619 -0.4037  1.5042 -1.6642
 5936SOL     OW29440   1.648   3.330   6.716  0.4284 -0.6247  0.1895
 5936SOL    HW129441   1.702   3.408   6.709 -0.1754 -0.3936 -2.0836
 5936SOL    HW229442   1.705   3.256   6.735  1.5073 -0.4651 -2.3755
 5937SOL     OW29443   2.952   0.214   5.960 -0.0324 -0.3929 -0.1551
 5937SOL    HW129444   3.044   0.212   5.935  0.3006 -1.8645  1.1315
 5937SOL    HW229445   2.951   0.135   6.015  1.1580  0.0471  0.4925
 5938SOL     OW29446   0.577   3.196   7.870 -0.3509 -0.1998 -0.5732
 5938SOL    HW129447   0.579   3.150   7.954 -0.6148  1.8747  0.5809
 5938SOL    HW229448   0.621   3.280   7.888  0.7395 -1.1035  1.0198
 5939SOL     OW29449   2.892   1.882  11.026 -0.4336  0.1734 -0.3956
 5939SOL    HW129450   2.909   1.788  11.036 -0.5787  0.2796  0.9296
 5939SOL    HW229451   2.816   1.898  11.082 -0.1246 -0.8287  0.3129
 5940SOL     OW29452   2.210   1.444   3.830  0.3076  0.3782  0.1604
 5940SOL    HW129453   2.266   1.448   3.908  0.2838  1.6598  0.1118
 5940SOL    HW229454   2.130   1.476   3.870  0.5316  0.5488  0.4712
 5941SOL     OW29455   3.746   3.131   6.687  0.8651 -0.1556 -0.7139
 5941SOL    HW129456   3.665   3.179   6.698  0.8505  0.0770 -1.7702
 5941SOL    HW229457   3.716   3.043   6.709 -0.8711  0.7798  0.6090
 5942SOL     OW29458   1.371   0.490   6.694 -0.2914 -0.1934 -0.2838
 5942SOL    HW129459   1.327   0.566   6.655  1.1659  0.1307 -1.3176
 5942SOL    HW229460   1.297   0.448   6.738 -0.2419  0.4664  0.4162
 5943SOL     OW29461   2.585   1.840  14.360 -0.1215 -0.1965  0.3061
 5943SOL    HW129462   2.506   1.879  14.324  0.8923 -0.5207 -2.2569
 5943SOL    HW229463   2.634   1.839  14.278  1.0869  1.0505  1.0191
 5944SOL     OW29464   2.548   1.771  15.823  0.2837 -0.0008  0.1316
 5944SOL    HW129465   2.585   1.741  15.906 -0.9813  1.1739  1.1260
 5944SOL    HW229466   2.618   1.753  15.761  0.3621 -0.8642  0.4655
 5945SOL     OW29467   0.347   2.152   8.372 -0.1459 -0.4012  0.4295
 5945SOL    HW129468   0.408   2.078   8.378  0.4449 -0.0940 -1.7379
 5945SOL    HW229469   0.269   2.111   8.409 -1.2249  3.6475  2.5756
 5946SOL     OW29470   2.792   3.481   0.922 -0.1386  0.5619 -0.2511
 5946SOL    HW129471   2.758   3.393   0.937 -0.0917  0.4550 -0.7838
 5946SOL    HW229472   2.886   3.467   0.908 -0.1223  1.7755 -1.3913
 5947SOL     OW29473   0.571   4.294   5.905 -0.1462  1.1315 -0.4414
 5947SOL    HW129474   0.649   4.346   5.924  2.1171 -2.8169  0.8519
 5947SOL    HW229475   0.599   4.203   5.903  0.8778  1.4710 -1.6921
 5948SOL     OW29476   0.299   4.570  13.550  0.7153  0.2986  0.6245
 5948SOL    HW129477   0.346   4.616  13.620  2.4666 -0.5825  0.0228
 5948SOL    HW229478   0.269   4.640  13.492  1.8502  0.8077  0.6515
 5949SOL     OW29479   1.047   1.594   8.538  0.0207 -0.2082 -0.5060
 5949SOL    HW129480   1.114   1.659   8.519  0.1688  0.0420  0.8294
 5949SOL    HW229481   1.095   1.533   8.595 -1.8997 -0.9995  0.2603
 5950SOL     OW29482   4.372   0.820   6.069  0.3627 -0.1899 -0.5551
 5950SOL    HW129483   4.348   0.898   6.120 -2.5463 -0.8704 -0.9448
 5950SOL    HW229484   4.419   0.776   6.140 -1.4279  1.0761  1.4065
 5951SOL     OW29485   2.512   0.257   7.969  0.1401 -0.1388  0.0620
 5951SOL    HW129486   2.564   0.332   7.996 -0.9294  0.4800  0.4012
 5951SOL    HW229487   2.466   0.291   7.892  0.1390 -1.3207 -0.4733
 5952SOL     OW29488   3.033   4.459   1.875 -0.0500  0.1672 -0.0113
 5952SOL    HW129489   2.939   4.475   1.870 -0.7020 -3.1029  1.8446
 5952SOL    HW229490   3.045   4.387   1.814  1.6237 -0.1933  0.7321
 5953SOL     OW29491   3.592   3.205   7.904  0.0805  0.2650  1.1063
 5953SOL    HW129492   3.542   3.227   7.826  0.8308 -3.0253 -0.3135
 5953SOL    HW229493   3.521   3.212   7.967 -0.9088  1.1035 -0.1044
 5954SOL     OW29494   0.527   1.420   3.120 -0.2891 -0.1169  0.0280
 5954SOL    HW129495   0.530   1.364   3.042  0.3247 -1.5622  1.0760
 5954SOL    HW229496   0.613   1.463   3.119 -0.2209 -0.2280  0.7843
 5955SOL     OW29497   1.138   0.987  14.685 -0.1057 -0.4673 -0.3276
 5955SOL    HW129498   1.138   1.064  14.743 -0.1955  0.1294 -1.1142
 5955SOL    HW229499   1.170   1.027  14.603 -0.0317 -2.1447 -1.1266
 5956SOL     OW29500   1.275   2.210   6.803  0.1220  0.0627 -0.5555
 5956SOL    HW129501   1.363   2.248   6.798 -0.4971  1.1774 -2.8543
 5956SOL    HW229502   1.241   2.293   6.835  1.0560 -0.1759  1.0896
 5957SOL     OW29503   3.757   3.505  16.038 -0.1360  0.4038  0.4907
 5957SOL    HW129504   3.721   3.536  15.955 -0.9531 -1.3375  0.1989
 5957SOL    HW229505   3.721   3.417  16.045 -0.2034  0.6344  2.8680
 5958SOL     OW29506   2.786   3.449   6.012 -0.0741  0.4509 -0.0270
 5958SOL    HW129507   2.824   3.536   6.000 -0.2255  0.4116 -0.7618
 5958SOL    HW229508   2.849   3.389   5.972 -1.1597  0.4002 -1.6921
 5959SOL     OW29509   2.844   1.059   4.171 -0.0254 -0.3047 -0.4470
 5959SOL    HW129510   2.757   1.052   4.131 -1.3729  1.6488  2.0836
 5959SOL    HW229511   2.852   0.973   4.212 -1.4560 -0.4494 -0.4440
 5960SOL     OW29512   4.695   3.631   4.254  0.2516 -0.0643  0.1491
 5960SOL    HW129513   4.678   3.555   4.197  1.0880  0.1044 -0.3289
 5960SOL    HW229514   4.622   3.691   4.243 -0.1153 -1.2111 -3.7764
 5961SOL     OW29515   3.427   2.969  10.697 -0.3850  0.4327 -0.2231
 5961SOL    HW129516   3.455   3.037  10.758  2.5069  0.7265 -1.8762
 5961SOL    HW229517   3.405   2.898  10.757  1.4283 -0.0585 -0.1471
 5962SOL     OW29518   4.538   0.401  14.484  0.7541  0.0773  0.0201
 5962SOL    HW129519   4.614   0.394  14.426  1.0383  0.1304  0.3933
 5962SOL    HW229520   4.466   0.376  14.425  1.8273  1.5424 -1.9455
 5963SOL     OW29521   4.174   0.609   8.938 -0.1622  0.0437 -0.0333
 5963SOL    HW129522   4.157   0.676   9.004 -1.3302  0.2028 -0.5012
 5963SOL    HW229523   4.194   0.663   8.862 -2.3312  1.2843  0.2770
 5964SOL     OW29524   3.789   0.491  15.747  0.4614  0.1344  0.1488
 5964SOL    HW129525   3.745   0.556  15.693  0.7987 -1.1192 -1.6361
 5964SOL    HW229526   3.727   0.423  15.773  1.4098 -0.8541 -0.1704
 5965SOL     OW29527   2.127   3.329   7.609  0.1796  0.0027 -0.5218
 5965SOL    HW129528   2.178   3.388   7.665 -0.7053 -1.2377  1.6010
 5965SOL    HW229529   2.180   3.328   7.530 -1.5508  0.1093 -1.6644
 5966SOL     OW29530   1.405   1.885  17.579  0.5143  0.0282  0.4924
 5966SOL    HW129531   1.470   1.930  17.632  0.4869  0.5486  0.0836
 5966SOL    HW229532   1.414   1.917  17.489  1.3163  0.5868  0.7761
 5967SOL     OW29533   1.721   2.564  14.259 -0.0601 -0.1357 -0.5584
 5967SOL    HW129534   1.717   2.642  14.203 -0.5198  0.3208  0.1108
 5967SOL    HW229535   1.630   2.535  14.248 -0.7792  2.4782 -1.6833
 5968SOL     OW29536   2.826   3.407   9.358  0.6266 -0.7824  0.2125
 5968SOL    HW129537   2.762   3.351   9.313 -0.9041  0.5787  0.6935
 5968SOL    HW229538   2.864   3.445   9.279  0.5004 -2.1676 -0.5132
 5969SOL     OW29539   4.535   3.695   7.822 -0.0940  0.1446  0.3329
 5969SOL    HW129540   4.447   3.657   7.813  0.8222 -1.6862 -0.8737
 5969SOL    HW229541   4.591   3.622   7.795 -0.6083  0.1661 -0.8086
 5970SOL     OW29542   1.943   2.871   5.626  0.5996 -0.4292 -0.8212
 5970SOL    HW129543   2.022   2.876   5.573  1.2284 -0.9399  0.0716
 5970SOL    HW229544   1.886   2.936   5.587 -0.0827 -0.0736  0.7640
 5971SOL     OW29545   2.427   0.735  13.386 -1.0767 -0.5228 -0.4004
 5971SOL    HW129546   2.374   0.771  13.315 -0.7474  1.9565  0.6146
 5971SOL    HW229547   2.494   0.803  13.389  1.4965 -3.0080 -1.9681
 5972SOL     OW29548   3.562   3.486   3.192 -0.2380  0.2307  0.0269
 5972SOL    HW129549   3.597   3.413   3.140 -2.9134 -0.6273 -0.5470
 5972SOL    HW229550   3.548   3.537   3.112  1.3204  0.1944 -0.2767
 5973SOL     OW29551   4.666   3.301   9.776 -0.8454 -0.0508 -0.2073
 5973SOL    HW129552   4.599   3.300   9.844 -1.6455 -0.3507 -1.0012
 5973SOL    HW229553   4.610   3.346   9.713  0.7169 -1.2877 -2.4870
 5974SOL     OW29554   1.738   0.568   9.070 -0.0556 -0.0056  0.1599
 5974SOL    HW129555   1.673   0.633   9.098  1.3610  1.0245  1.0943
 5974SOL    HW229556   1.765   0.591   8.981 -1.8111  0.9942 -0.1222
 5975SOL     OW29557   0.326   1.101   9.168  0.0699  0.0838  0.3465
 5975SOL    HW129558   0.366   1.162   9.230  1.9747 -0.1003 -0.6762
 5975SOL    HW229559   0.261   1.061   9.226 -1.3014  1.3433 -0.3429
 5976SOL     OW29560   1.767   0.107   7.042  0.1660 -0.6167  0.2322
 5976SOL    HW129561   1.728   0.020   7.032  1.7231 -1.4971  1.6329
 5976SOL    HW229562   1.701   0.162   7.083  1.6041  2.9384 -2.2814
 5977SOL     OW29563   4.082   1.478   3.739 -0.3336  0.4966 -0.0807
 5977SOL    HW129564   4.025   1.554   3.750 -1.0879 -0.1745  0.6517
 5977SOL    HW229565   4.092   1.465   3.833 -0.5379 -1.0603 -0.2681
 5978SOL     OW29566   1.316   0.960   3.281  0.1573  0.0874 -0.2151
 5978SOL    HW129567   1.330   1.011   3.201  2.2099 -1.1987 -0.6682
 5978SOL    HW229568   1.275   1.033   3.328 -2.1969 -1.8064  0.6383
 5979SOL     OW29569   1.638   0.503   7.910  0.7484 -0.5869  0.1500
 5979SOL    HW129570   1.691   0.439   7.959  0.1652 -1.8418 -0.8470
 5979SOL    HW229571   1.567   0.513   7.973  0.7285 -1.9708  0.3555
 5980SOL     OW29572   1.235   2.309   4.059 -0.2904  0.4028  0.0394
 5980SOL    HW129573   1.158   2.312   4.116 -0.7689 -1.6992 -0.4906
 5980SOL    HW229574   1.287   2.265   4.126 -2.4837 -3.0179 -0.4684
 5981SOL     OW29575   3.083   2.893  15.707  0.3417 -0.7666 -0.1952
 5981SOL    HW129576   3.060   2.979  15.672  3.4337  0.8268  1.7683
 5981SOL    HW229577   2.996   2.867  15.738 -0.4549 -1.0414 -2.6596
 5982SOL     OW29578   3.698   1.944   3.675  0.2785 -0.1201  0.0631
 5982SOL    HW129579   3.739   2.021   3.713 -1.8992  0.5977  0.9191
 5982SOL    HW229580   3.617   1.985   3.644  0.6147 -1.1078 -2.1484
 5983SOL     OW29581   3.799   3.911   1.794  0.1601  0.0387  0.0706
 5983SOL    HW129582   3.704   3.898   1.797  0.3810 -1.8009 -0.8638
 5983SOL    HW229583   3.823   3.824   1.824 -2.8588 -1.0332 -0.6868
 5984SOL     OW29584   4.523   3.022  15.812  0.0488  0.7261  0.3673
 5984SOL    HW129585   4.491   2.944  15.766 -0.8252 -0.1118  2.3478
 5984SOL    HW229586   4.476   3.082  15.754  3.4747  1.1852 -1.8800
 5985SOL     OW29587   0.056   0.832   6.810  0.0097  0.7166 -0.0021
 5985SOL    HW129588   0.078   0.908   6.757 -2.0010  0.6516 -0.9310
 5985SOL    HW229589   4.724   0.860   6.872  0.6176  3.6411 -0.7008
 5986SOL     OW29590   0.402   0.896   4.602  0.7688 -0.2057 -0.1012
 5986SOL    HW129591   0.316   0.854   4.602  0.1764  1.0081  0.5450
 5986SOL    HW229592   0.411   0.916   4.695 -0.9157 -1.1204  0.2465
 5987SOL     OW29593   0.048   4.399   6.890 -0.4890  0.0345  0.6325
 5987SOL    HW129594   0.031   4.450   6.969 -4.6497  1.1775 -1.0223
 5987SOL    HW229595   0.014   4.315   6.919  1.6831 -1.4118 -0.9833
 5988SOL     OW29596   0.043   0.074   8.751 -0.7154 -0.0941  0.0359
 5988SOL    HW129597   0.022   4.716   8.747  2.2670 -0.7418 -0.4645
 5988SOL    HW229598   0.108   0.078   8.822 -0.9950  1.1322  0.2249
 5989SOL     OW29599   3.393   4.513   1.663 -1.0204  0.0081  0.0818
 5989SOL    HW129600   3.345   4.483   1.586 -3.0324  0.2505  1.2614
 5989SOL    HW229601   3.346   4.596   1.675  0.1406  0.2522  2.9375
 5990SOL     OW29602   3.752   0.859  15.971  0.1357 -0.0947 -0.1442
 5990SOL    HW129603   3.709   0.907  16.042 -0.1920  0.9916 -1.0741
 5990SOL    HW229604   3.672   0.842  15.921  0.1767  1.3061 -0.7062
 5991SOL     OW29605   2.385   0.264   0.492 -0.1043 -0.7219 -0.1391
 5991SOL    HW129606   2.333   0.202   0.441  0.1669 -0.6948 -0.4419
 5991SOL    HW229607   2.435   0.311   0.425 -0.9205  1.4859  0.7911
 5992SOL     OW29608   1.534   3.933  16.711  0.7161  0.1296 -0.0145
 5992SOL    HW129609   1.543   3.862  16.647  0.3780 -2.4087  2.7894
 5992SOL    HW229610   1.622   3.968  16.702  0.2679  1.2884  0.1508
 5993SOL     OW29611   4.544   2.057  16.558 -0.1791 -0.4453  0.3576
 5993SOL    HW129612   4.496   2.132  16.591  2.1596  1.4855 -0.6280
 5993SOL    HW229613   4.487   2.021  16.490  1.1796  0.0566 -1.0681
 5994SOL     OW29614   2.567   4.523   6.218 -0.1815  0.3453  0.2288
 5994SOL    HW129615   2.523   4.599   6.180  0.7331  0.1219 -1.2906
 5994SOL    HW229616   2.531   4.522   6.306  0.1270 -2.9808  0.3143
 5995SOL     OW29617   0.696   1.833  16.306 -0.2630  0.3910  0.1062
 5995SOL    HW129618   0.768   1.891  16.333  0.8124 -0.9611  0.1014
 5995SOL    HW229619   0.696   1.856  16.213 -1.6457  0.1649  0.0594
 5996SOL     OW29620   3.582   4.030   5.025  0.1327 -0.1149 -0.1187
 5996SOL    HW129621   3.661   4.072   4.992  0.0894 -0.4685 -0.6679
 5996SOL    HW229622   3.531   4.100   5.067  0.6454 -0.0629  0.4092
 5997SOL     OW29623   4.036   0.978   1.818 -0.2081 -0.2649 -0.2437
 5997SOL    HW129624   4.077   0.909   1.870  0.5023 -2.4023 -3.6173
 5997SOL    HW229625   3.947   0.965   1.849 -0.6858  1.2370 -1.0111
 5998SOL     OW29626   1.547   0.146   4.280  0.2596 -0.2022 -0.6748
 5998SOL    HW129627   1.569   0.238   4.293  1.7234 -0.3296 -2.1953
 5998SOL    HW229628   1.623   0.100   4.317 -0.9633 -0.9252  0.9347
 5999SOL     OW29629   0.711   2.350   6.275  0.8748 -0.2695 -0.0473
 5999SOL    HW129630   0.628   2.334   6.320  0.1141  3.5789 -0.1034
 5999SOL    HW229631   0.767   2.363   6.351  3.4986 -1.2129 -1.8315
 6000SOL     OW29632   0.828   3.786   9.111  0.2734 -0.0306  0.0973
 6000SOL    HW129633   0.910   3.835   9.108  0.9886 -1.1902  0.5214
 6000SOL    HW229634   0.804   3.803   9.203  0.9675  0.7178  0.1429
 6001SOL     OW29635   0.003   3.875   7.860 -0.5250  0.4875 -0.4773
 6001SOL    HW129636   4.664   3.816   7.854 -0.8007  1.0579 -2.7482
 6001SOL    HW229637   4.699   3.954   7.821  1.7965  1.3971 -0.9857
 6002SOL     OW29638   1.171   3.791   6.505 -0.3270  0.2046  0.0679
 6002SOL    HW129639   1.255   3.778   6.460  0.4576  0.1780  1.5487
 6002SOL    HW229640   1.103   3.758   6.446  0.0916 -1.7576  0.6811
 6003SOL     OW29641   3.211   1.184   5.980  0.6813  0.4281  0.1676
 6003SOL    HW129642   3.205   1.216   5.891  2.4081  1.6116  0.4841
 6003SOL    HW229643   3.281   1.119   5.974  0.8413  0.4176  1.9629
 6004SOL     OW29644   2.966   0.670   5.394  0.6895 -0.0928 -0.2523
 6004SOL    HW129645   2.917   0.693   5.315  2.1922  3.1262 -0.2363
 6004SOL    HW229646   2.923   0.586   5.406  1.9556 -0.5590  0.9778
 6005SOL     OW29647   1.205   0.528   3.360  0.3774 -0.2795 -0.0628
 6005SOL    HW129648   1.247   0.459   3.412  1.6869  0.0506 -0.7070
 6005SOL    HW229649   1.124   0.535   3.412  0.7245 -1.3989  0.6259
 6006SOL     OW29650   2.047   3.679   6.882 -0.4677 -0.2171 -0.2104
 6006SOL    HW129651   2.141   3.695   6.877 -0.5362  0.8157  1.8523
 6006SOL    HW229652   2.033   3.717   6.969 -0.8335 -0.9698  0.0606
 6007SOL     OW29653   0.075   0.221   4.476  0.4792  0.1354  0.1294
 6007SOL    HW129654   0.040   0.137   4.508  1.9966 -0.7257 -0.4777
 6007SOL    HW229655   0.158   0.188   4.442  0.4190  1.3743 -1.2038
 6008SOL     OW29656   2.572   1.205   2.192  0.3204  0.0285 -0.2053
 6008SOL    HW129657   2.639   1.267   2.221 -0.5175  1.6738 -1.7812
 6008SOL    HW229658   2.609   1.118   2.207 -1.0918 -0.9960 -2.5530
 6009SOL     OW29659   4.649   3.930   8.273 -0.3103 -0.5559 -0.3890
 6009SOL    HW129660   4.578   3.958   8.330  1.4249 -0.1662  1.5782
 6009SOL    HW229661   4.606   3.888   8.198 -0.5638  1.7442 -1.5327
 6010SOL     OW29662   1.644   3.170   3.990  0.3097  0.4401  0.3872
 6010SOL    HW129663   1.561   3.212   4.013 -0.5102 -1.1345  0.2597
 6010SOL    HW229664   1.614   3.080   3.984 -1.5425  1.0669  0.1419
 6011SOL     OW29665   2.516   2.158   5.280  0.1815 -0.3605  0.1037
 6011SOL    HW129666   2.506   2.133   5.372 -0.4568  0.8995  0.3724
 6011SOL    HW229667   2.554   2.245   5.287 -1.5541  0.4102 -0.0849
 6012SOL     OW29668   2.310   2.747  12.880 -0.0778  0.0947 -1.1572
 6012SOL    HW129669   2.357   2.665  12.865 -0.7145 -0.4931  0.1077
 6012SOL    HW229670   2.221   2.713  12.874 -0.7749  1.8553 -0.8372
 6013SOL     OW29671   2.287   3.517   4.691 -0.2314  0.0470 -0.3905
 6013SOL    HW129672   2.216   3.510   4.755 -2.0200 -2.0464 -2.6157
 6013SOL    HW229673   2.329   3.432   4.707  0.7492  0.6365  0.1415
 6014SOL     OW29674   0.820   1.266   5.159 -0.5501 -0.0829 -0.5325
 6014SOL    HW129675   0.735   1.243   5.197 -0.6447  1.5580  0.2497
 6014SOL    HW229676   0.872   1.186   5.169  0.8013  0.6960 -1.2322
 6015SOL     OW29677   0.366   0.495  11.537 -0.5290  0.2992 -0.3942
 6015SOL    HW129678   0.352   0.524  11.627  0.5472  1.2657 -0.5452
 6015SOL    HW229679   0.418   0.567  11.502 -1.1227  0.4462 -0.9619
 6016SOL     OW29680   1.791   2.596   1.258  0.2171  0.0375  0.2528
 6016SOL    HW129681   1.760   2.506   1.271  0.4313  0.1575  1.5593
 6016SOL    HW229682   1.880   2.571   1.237 -0.4682 -2.8029  0.8137
 6017SOL     OW29683   2.218   4.612   5.132 -0.3050 -0.2907  0.0093
 6017SOL    HW129684   2.269   4.617   5.213 -0.7119 -0.5855  0.2841
 6017SOL    HW229685   2.266   4.536   5.100 -0.5222  0.1981 -1.5019
 6018SOL     OW29686   2.962   4.623   6.449 -0.1062  0.3731  0.1511
 6018SOL    HW129687   3.027   4.688   6.475  0.4324 -0.2858  0.4692
 6018SOL    HW229688   2.945   4.585   6.535 -1.8092 -1.4542 -0.9962
 6019SOL     OW29689   4.244   2.698   8.063  0.2223  0.4325 -0.3240
 6019SOL    HW129690   4.304   2.627   8.082 -1.3414 -0.4704  1.1834
 6019SOL    HW229691   4.168   2.668   8.112  0.4960  0.6808  0.2534
 6020SOL     OW29692   4.265   3.942  15.163 -0.1141 -0.1071 -0.3290
 6020SOL    HW129693   4.203   3.996  15.212  0.5990  2.8145 -2.6694
 6020SOL    HW229694   4.347   3.991  15.164  0.1850 -0.6424  2.3256
 6021SOL     OW29695   1.569   1.397   8.128  0.0785  0.7436 -0.2511
 6021SOL    HW129696   1.645   1.431   8.174  0.4080  2.8101 -2.3774
 6021SOL    HW229697   1.566   1.306   8.159 -2.2784  1.6094  2.0683
 6022SOL     OW29698   2.200   2.623  12.148  0.2269 -0.1765  0.0801
 6022SOL    HW129699   2.167   2.618  12.058  0.4849 -0.5269  0.0064
 6022SOL    HW229700   2.114   2.606  12.188  0.9980 -0.5160  1.5593
 6023SOL     OW29701   1.652   3.996  11.127  0.1196  0.4703  0.0620
 6023SOL    HW129702   1.599   3.968  11.202 -0.3039 -2.0645 -1.1979
 6023SOL    HW229703   1.702   3.917  11.109 -1.1734 -0.1689 -0.7200
 6024SOL     OW29704   1.719   3.640  14.358  0.3053 -0.1291 -0.3925
 6024SOL    HW129705   1.802   3.593  14.358  0.9840  1.0808 -0.0590
 6024SOL    HW229706   1.666   3.596  14.292 -0.3572  0.1695 -0.0676
 6025SOL     OW29707   1.539   2.815  17.463  0.1761 -0.5997  0.3186
 6025SOL    HW129708   1.559   2.907  17.444  0.9301 -0.9031 -0.3625
 6025SOL    HW229709   1.524   2.819  17.558 -0.0364  2.0264  0.1695
 6026SOL     OW29710   2.518   4.055   5.211  0.3348  0.3688  0.3257
 6026SOL    HW129711   2.513   4.083   5.302 -1.7657  0.1312  0.2884
 6026SOL    HW229712   2.591   4.112   5.186  0.8462 -0.2632  0.3614
 6027SOL     OW29713   3.541   1.533  11.366  0.8755  0.1056  0.4964
 6027SOL    HW129714   3.553   1.523  11.460  1.2551  2.9290  0.7517
 6027SOL    HW229715   3.505   1.447  11.347  0.6019  0.3224  0.0475
 6028SOL     OW29716   4.040   1.787  17.511 -0.1191  0.2692 -0.0254
 6028SOL    HW129717   4.032   1.727  17.437 -0.4014 -0.7775  0.8506
 6028SOL    HW229718   4.120   1.755  17.553  1.8071  0.7416 -3.3559
 6029SOL     OW29719   2.124   2.180   8.270 -0.0341 -0.3586 -0.4776
 6029SOL    HW129720   2.152   2.262   8.310  1.2820 -0.4740 -1.1745
 6029SOL    HW229721   2.173   2.123   8.328  1.6815  2.5288  0.9019
 6030SOL     OW29722   3.525   1.489  15.028  0.2141 -0.6955 -0.2819
 6030SOL    HW129723   3.432   1.489  15.052  0.4739  0.3955  0.7199
 6030SOL    HW229724   3.529   1.417  14.965 -1.4273 -1.2217  0.2324
 6031SOL     OW29725   3.503   1.838  16.864 -0.3513 -0.4269  0.2793
 6031SOL    HW129726   3.528   1.772  16.929  1.8693  0.5226  0.3637
 6031SOL    HW229727   3.490   1.782  16.787  0.9225  0.7906 -0.8047
 6032SOL     OW29728   1.774   0.103  17.589 -0.7001  0.0876 -0.4376
 6032SOL    HW129729   1.822   0.060  17.660 -1.3297  0.1653  0.0370
 6032SOL    HW229730   1.763   0.192  17.623 -0.0871  0.9072 -2.3647
 6033SOL     OW29731   3.179   0.537   6.699  0.0076 -0.7832  0.0165
 6033SOL    HW129732   3.212   0.578   6.619  2.2103 -2.1699  0.2136
 6033SOL    HW229733   3.111   0.479   6.666 -0.7828 -0.4577  1.0605
 6034SOL     OW29734   1.094   1.417   9.205  0.0310  0.5122  0.5335
 6034SOL    HW129735   1.078   1.464   9.123  2.8419  1.9772  0.8016
 6034SOL    HW229736   1.019   1.434   9.262  1.7126 -0.1873  2.9362
 6035SOL     OW29737   4.288   3.460  11.558 -0.2222  0.3438 -0.6442
 6035SOL    HW129738   4.202   3.418  11.565  0.3650 -0.8918 -0.7074
 6035SOL    HW229739   4.267   3.517  11.484  0.7620  0.6507 -0.6797
 6036SOL     OW29740   3.735   2.498   1.867 -0.4332  0.2530 -0.1083
 6036SOL    HW129741   3.782   2.580   1.885  0.9607 -1.3157  3.4531
 6036SOL    HW229742   3.648   2.538   1.859 -0.9234 -1.0349 -1.2608
 6037SOL     OW29743   4.516   1.424  13.203  0.9706  0.1232  0.3062
 6037SOL    HW129744   4.462   1.370  13.261  0.2009  0.9340  0.3397
 6037SOL    HW229745   4.602   1.410  13.243  0.7991  0.7560  0.9011
 6038SOL     OW29746   0.701   1.321   8.762 -0.1867  0.5709 -0.4087
 6038SOL    HW129747   0.723   1.231   8.787 -1.6594  0.0532 -0.9197
 6038SOL    HW229748   0.622   1.336   8.815 -1.3934  0.0635 -2.0576
 6039SOL     OW29749   1.638   0.438   6.691 -0.5874  0.5402 -0.6603
 6039SOL    HW129750   1.547   0.459   6.714  0.3892  0.0903  3.5367
 6039SOL    HW229751   1.656   0.347   6.712 -0.1593  0.8466  0.2854
 6040SOL     OW29752   1.810   4.247   3.073 -0.2372 -0.0600  0.3698
 6040SOL    HW129753   1.876   4.296   3.025 -0.6341 -0.7739 -0.8903
 6040SOL    HW229754   1.735   4.263   3.015  2.3709  1.4742 -2.5717
 6041SOL     OW29755   3.047   1.712   8.572  0.1352  0.0900 -0.2255
 6041SOL    HW129756   3.012   1.680   8.655 -0.9512  0.0245 -0.7086
 6041SOL    HW229757   3.096   1.636   8.539 -2.2073 -0.9855 -1.2156
 6042SOL     OW29758   4.367   3.606   6.369  0.1020 -0.2083 -0.5716
 6042SOL    HW129759   4.335   3.553   6.295 -1.1118  0.5686 -0.6022
 6042SOL    HW229760   4.400   3.539   6.429 -1.7251  0.0140  0.6637
 6043SOL     OW29761   0.395   3.248  14.312 -0.4110  0.2900 -0.2725
 6043SOL    HW129762   0.380   3.279  14.401  0.9165 -0.6940  0.3094
 6043SOL    HW229763   0.412   3.331  14.268  3.2375 -0.1610  0.2276
 6044SOL     OW29764   2.433   3.345  14.273  0.2147  0.3781  0.1208
 6044SOL    HW129765   2.507   3.392  14.312 -0.0850  2.1760 -1.4894
 6044SOL    HW229766   2.412   3.287  14.347  2.9179 -1.0681 -0.2256
 6045SOL     OW29767   0.300   4.490  12.746  0.5412  0.2571  0.0031
 6045SOL    HW129768   0.384   4.528  12.718  1.0769 -2.1704 -1.6928
 6045SOL    HW229769   0.314   4.468  12.838  1.6964 -0.2745 -0.2904
 6046SOL     OW29770   4.565   1.897   8.461  0.0994 -0.0318  0.4905
 6046SOL    HW129771   4.598   1.809   8.443 -0.0409 -0.0702  0.4224
 6046SOL    HW229772   4.472   1.880   8.476  0.1748 -1.3006 -0.5097
 6047SOL     OW29773   1.191   2.481  15.342 -0.6920  0.9462 -0.7567
 6047SOL    HW129774   1.139   2.540  15.396  0.3017  1.7467 -0.6783
 6047SOL    HW229775   1.271   2.495  15.393 -0.9781 -1.3608  0.3447
 6048SOL     OW29776   3.918   0.190  11.502  0.2405 -0.1852  0.1173
 6048SOL    HW129777   3.882   0.208  11.415  0.0258 -2.6941 -0.3131
 6048SOL    HW229778   3.864   0.115  11.525  0.1721 -0.5430 -1.2052
 6049SOL     OW29779   4.222   1.749   5.349  0.1822 -0.4950  0.6253
 6049SOL    HW129780   4.305   1.785   5.380  1.6985 -3.2639 -0.2774
 6049SOL    HW229781   4.222   1.791   5.263  0.3408 -1.3384  0.2200
 6050SOL     OW29782   3.696   2.850  16.856  0.0898  0.2214  0.5112
 6050SOL    HW129783   3.716   2.940  16.881  0.9325  0.1898 -0.0397
 6050SOL    HW229784   3.601   2.859  16.851 -0.0397 -1.8695 -0.9440
 6051SOL     OW29785   4.517   1.714   1.756 -0.0183 -0.3557  0.2117
 6051SOL    HW129786   4.457   1.644   1.732 -2.2795  2.5949 -2.9067
 6051SOL    HW229787   4.596   1.661   1.754  1.8162  2.3693 -0.1739
 6052SOL     OW29788   0.279   4.432  16.158 -0.2381 -0.1145 -0.4451
 6052SOL    HW129789   0.262   4.367  16.227  2.0890 -1.1996 -0.8940
 6052SOL    HW229790   0.208   4.414  16.097 -3.9955  0.0176  3.8356
 6053SOL     OW29791   2.676   1.009   8.388 -0.2467  0.4948  0.4910
 6053SOL    HW129792   2.694   1.103   8.393 -1.1838  0.6397  1.1085
 6053SOL    HW229793   2.646   0.995   8.298 -0.0438  1.0009  0.3460
 6054SOL     OW29794   3.136   1.264   3.556 -0.5232 -0.0352 -0.4751
 6054SOL    HW129795   3.209   1.214   3.594 -0.2525  0.8420  0.1525
 6054SOL    HW229796   3.067   1.254   3.622 -2.5076  4.3849 -1.9172
 6055SOL     OW29797   4.412   0.607  15.435  0.1450 -0.1062  0.2536
 6055SOL    HW129798   4.352   0.649  15.373  0.2874 -1.0385 -0.5017
 6055SOL    HW229799   4.402   0.642  15.524 -2.6564  1.8137 -0.8166
 6056SOL     OW29800   4.702   0.196   8.096 -0.2800 -0.0959 -0.2939
 6056SOL    HW129801   4.665   0.239   8.019  1.3745  0.8552 -0.5444
 6056SOL    HW229802   4.618   0.166   8.131  0.5142  0.4369  2.0361
 6057SOL     OW29803   1.145   0.769   7.241  0.3514 -0.6028  0.7888
 6057SOL    HW129804   1.210   0.819   7.191 -0.7419  0.0425 -0.0082
 6057SOL    HW229805   1.181   0.751   7.328  2.9814  0.1960 -0.1479
 6058SOL     OW29806   4.457   3.862   5.041  0.0152 -0.3036  0.2696
 6058SOL    HW129807   4.363   3.854   5.051  0.3447 -2.6138  1.5034
 6058SOL    HW229808   4.493   3.795   5.100 -0.2464 -2.1659 -1.6833
 6059SOL     OW29809   2.218   3.717  12.663  0.9025 -0.7342 -0.8947
 6059SOL    HW129810   2.268   3.657  12.608  1.7689 -0.7638 -0.0689
 6059SOL    HW229811   2.206   3.797  12.612  0.8648 -0.7067 -0.8424
 6060SOL     OW29812   2.460   4.401   4.818 -0.3505  0.0353 -0.3061
 6060SOL    HW129813   2.419   4.397   4.904  1.5610 -1.4906  0.5300
 6060SOL    HW229814   2.550   4.423   4.843  0.0916  0.6552 -2.3799
 6061SOL     OW29815   4.614   3.481   0.376  0.1985 -0.1702  0.1543
 6061SOL    HW129816   4.579   3.541   0.310 -2.6845 -1.6188  0.3388
 6061SOL    HW229817   4.579   3.514   0.458 -4.9328 -2.2245 -1.2092
 6062SOL     OW29818   3.113   4.102   0.943 -0.4139 -0.6767  0.0080
 6062SOL    HW129819   3.134   4.194   0.927 -3.1955 -0.2522 -1.3766
 6062SOL    HW229820   3.199   4.064   0.927  0.6192  1.7586 -0.1048
 6063SOL     OW29821   4.650   2.420   2.166  0.2775  0.1803 -0.2114
 6063SOL    HW129822   4.731   2.368   2.167 -1.4128 -2.4839 -1.1707
 6063SOL    HW229823   4.680   2.507   2.140  0.6103  0.3215  0.6524
 6064SOL     OW29824   4.124   4.564   4.535 -0.2758  0.5495  0.5922
 6064SOL    HW129825   4.100   4.490   4.478 -0.4274  0.0541  1.2956
 6064SOL    HW229826   4.102   4.636   4.476  0.5547 -0.9721 -1.5789
 6065SOL     OW29827   4.121   1.758   6.028 -0.1029 -0.9582  0.0233
 6065SOL    HW129828   4.170   1.831   5.989 -0.1847 -1.2649 -0.6532
 6065SOL    HW229829   4.186   1.734   6.094  0.1932  0.7520  0.3453
 6066SOL     OW29830   4.625   3.424   7.571  0.2289  0.2530 -0.0531
 6066SOL    HW129831   4.546   3.471   7.544 -0.1200 -2.2042 -3.2510
 6066SOL    HW229832   4.596   3.347   7.620  0.5535  0.5811  0.6608
 6067SOL     OW29833   2.389   0.693   2.178 -0.0036 -0.1523 -0.3561
 6067SOL    HW129834   2.391   0.646   2.095 -0.9448  0.0126 -0.4730
 6067SOL    HW229835   2.419   0.629   2.243 -0.3386  0.8884  0.8293
 6068SOL     OW29836   3.658   3.828   5.609  0.2653 -0.0431 -0.0396
 6068SOL    HW129837   3.691   3.897   5.667 -1.5417  1.7749 -1.1888
 6068SOL    HW229838   3.742   3.782   5.610  0.6548  0.6699 -0.4159
 6069SOL     OW29839   0.951   4.445   4.349  0.0412 -0.8734  0.0215
 6069SOL    HW129840   1.001   4.367   4.374 -4.5916 -1.7047  6.7880
 6069SOL    HW229841   0.888   4.399   4.294 -0.9755  1.3313 -0.6524
 6070SOL     OW29842   3.225   3.221   4.757  0.3432 -0.2100  0.0167
 6070SOL    HW129843   3.191   3.185   4.839  2.6471  0.6203  1.3634
 6070SOL    HW229844   3.144   3.245   4.711  0.4076  0.1785  0.1006
 6071SOL     OW29845   0.955   2.482   3.470  0.2073 -0.0329  0.6416
 6071SOL    HW129846   1.045   2.508   3.487 -0.3988  1.3981  1.6344
 6071SOL    HW229847   0.940   2.532   3.389  0.8833 -0.0614  0.5041
 6072SOL     OW29848   2.022   0.021   2.521  0.2633 -0.5910  0.1365
 6072SOL    HW129849   1.971   0.059   2.593  1.3530 -1.1750  1.2117
 6072SOL    HW229850   2.031   4.667   2.552  0.3690 -0.9153 -0.8367
 6073SOL     OW29851   2.069   2.550   7.507  0.0935  0.3497  0.1995
 6073SOL    HW129852   2.064   2.545   7.602  2.0818  0.7265  0.3208
 6073SOL    HW229853   2.152   2.505   7.490 -0.6484 -1.6994  2.0030
 6074SOL     OW29854   0.352   3.291   6.379 -0.0127 -0.0720 -0.3394
 6074SOL    HW129855   0.353   3.215   6.436 -1.3267  0.9153  0.9837
 6074SOL    HW229856   0.332   3.367   6.433  1.1871 -0.3530  0.5036
 6075SOL     OW29857   0.513   0.832   1.388 -0.4679 -0.1094 -0.3885
 6075SOL    HW129858   0.528   0.738   1.379 -0.9099 -0.1060 -1.2235
 6075SOL    HW229859   0.518   0.844   1.483 -2.1955 -1.6053 -0.1016
 6076SOL     OW29860   1.728   1.265   6.830 -0.4637 -0.1796 -0.0758
 6076SOL    HW129861   1.673   1.313   6.892  1.4505  3.2459 -1.0348
 6076SOL    HW229862   1.745   1.328   6.760  0.6858 -0.6486 -0.2229
 6077SOL     OW29863   1.898   2.341  14.574 -0.1051  0.4369 -0.3728
 6077SOL    HW129864   1.945   2.263  14.604 -2.1420 -0.8229 -0.4310
 6077SOL    HW229865   1.908   2.397  14.650 -0.4852 -0.3691  0.2802
 6078SOL     OW29866   4.013   1.569  16.808  0.5621  0.1212  0.2008
 6078SOL    HW129867   4.024   1.511  16.733  1.4890 -0.7602  1.0323
 6078SOL    HW229868   4.089   1.627  16.807  0.9884 -0.4166  2.0399
 6079SOL     OW29869   3.015   2.937   7.270 -0.1571  0.6502 -0.2164
 6079SOL    HW129870   3.081   2.873   7.298  0.6948  1.6240 -0.0174
 6079SOL    HW229871   3.076   3.011   7.269  1.0258 -0.3034  0.2408
 6080SOL     OW29872   3.640   3.854   8.402 -0.2133  0.0841 -0.5161
 6080SOL    HW129873   3.572   3.889   8.459  0.5214  0.5238  0.0723
 6080SOL    HW229874   3.710   3.905   8.442  0.6885 -0.1238 -1.8112
 6081SOL     OW29875   4.556   0.515  13.786 -0.2726 -0.4224 -0.1353
 6081SOL    HW129876   4.536   0.577  13.716 -0.9043 -2.4108 -1.6992
 6081SOL    HW229877   4.622   0.570  13.828  1.7544 -2.6816 -0.3540
 6082SOL     OW29878   0.836   3.811   2.036 -0.5030  0.4168  0.2853
 6082SOL    HW129879   0.899   3.766   2.091 -0.9902 -1.2717 -0.5541
 6082SOL    HW229880   0.896   3.865   1.984  1.6821 -1.8231  0.5381
 6083SOL     OW29881   1.533   4.576  13.630  0.0778  0.3351  0.9232
 6083SOL    HW129882   1.548   4.529  13.548  3.7171 -1.1012  2.4462
 6083SOL    HW229883   1.475   4.649  13.607 -0.8980 -0.0704  2.1166
 6084SOL     OW29884   1.280   1.306  17.185 -0.5445 -0.1067 -0.3996
 6084SOL    HW129885   1.208   1.263  17.232 -0.2765 -0.0606  0.0519
 6084SOL    HW229886   1.342   1.233  17.192  0.9300  1.5414  3.6661
 6085SOL     OW29887   3.662   4.107  15.083  0.1267 -0.4212  1.0768
 6085SOL    HW129888   3.720   4.165  15.132 -1.4073  0.9062  1.3142
 6085SOL    HW229889   3.697   4.102  14.994  2.6023  0.5951  2.0102
 6086SOL     OW29890   4.731   4.263   5.603 -0.1149  0.5896 -0.3645
 6086SOL    HW129891   0.034   4.349   5.621  1.3032 -0.7884  3.0161
 6086SOL    HW229892   4.700   4.276   5.513  0.2449 -0.7206 -0.6756
 6087SOL     OW29893   3.785   4.206   8.003  0.3818 -0.0027  0.5443
 6087SOL    HW129894   3.792   4.147   8.079  0.2644 -0.1550  0.4356
 6087SOL    HW229895   3.880   4.217   7.993  0.2918 -0.5900 -0.9133
 6088SOL     OW29896   4.084   0.480  14.396  0.8264  0.2773  0.3162
 6088SOL    HW129897   4.155   0.416  14.400 -2.3799 -3.2514  0.2025
 6088SOL    HW229898   4.088   0.526  14.480  0.1693 -0.1110  0.5596
 6089SOL     OW29899   1.139   0.046   3.434  0.1731 -0.1585 -0.0321
 6089SOL    HW129900   1.196   0.062   3.359  1.0992  0.2301  0.7617
 6089SOL    HW229901   1.209   0.029   3.497  0.8530  1.1756 -0.4387
 6090SOL     OW29902   3.459   0.765   8.268  0.2108  0.1468 -0.0935
 6090SOL    HW129903   3.447   0.850   8.309  0.0120  0.7732 -1.4550
 6090SOL    HW229904   3.470   0.710   8.346 -1.0193  1.9639  1.3615
 6091SOL     OW29905   2.933   3.649   1.860  0.3341 -0.0426 -0.0069
 6091SOL    HW129906   2.886   3.632   1.778 -0.4425 -0.4738  0.5299
 6091SOL    HW229907   3.014   3.608   1.830 -0.4803  0.1347 -2.4887
 6092SOL     OW29908   2.659   3.257  12.054  0.0534  0.9543 -0.2542
 6092SOL    HW129909   2.636   3.165  12.054  0.4943  0.8317  0.9314
 6092SOL    HW229910   2.716   3.263  11.978  0.4487 -3.1953 -0.2582
 6093SOL     OW29911   0.607   1.160  10.593 -0.0168 -0.1347 -0.6685
 6093SOL    HW129912   0.660   1.128  10.666  1.3692  0.5828 -1.3546
 6093SOL    HW229913   0.561   1.232  10.637  0.2726 -0.2128 -0.2397
 6094SOL     OW29914   3.412   1.600   6.131  0.4128 -0.0280  0.3445
 6094SOL    HW129915   3.505   1.600   6.155 -0.4972 -0.1902  3.7424
 6094SOL    HW229916   3.376   1.512   6.138 -0.1293  0.1520 -0.1951
 6095SOL     OW29917   2.357   3.482   6.808 -0.3092 -0.2114 -0.3806
 6095SOL    HW129918   2.416   3.548   6.772 -1.2700  1.1153  0.4467
 6095SOL    HW229919   2.313   3.527   6.881  3.6082  0.0139  1.8220
 6096SOL     OW29920   3.510   0.080   7.270 -0.0493  0.4726 -0.3264
 6096SOL    HW129921   3.483   0.122   7.189 -3.2140 -0.2258  0.3800
 6096SOL    HW229922   3.431   0.082   7.323 -0.2776  0.0622 -0.6552
 6097SOL     OW29923   0.670   1.366   5.688  0.6308 -0.0544  0.1945
 6097SOL    HW129924   0.753   1.358   5.642 -0.6706 -0.1471 -2.1771
 6097SOL    HW229925   0.663   1.462   5.687 -0.7883 -0.1784 -2.1223
 6098SOL     OW29926   3.779   3.121   4.218  0.0322  1.4662 -0.0577
 6098SOL    HW129927   3.802   3.100   4.128  0.1321  0.9409  0.0940
 6098SOL    HW229928   3.780   3.217   4.212 -1.3408  1.3759 -1.6545
 6099SOL     OW29929   0.516   3.817  15.700 -0.2075  0.5774 -0.0758
 6099SOL    HW129930   0.459   3.752  15.742 -0.4312  0.4603 -0.5536
 6099SOL    HW229931   0.466   3.898  15.696  1.9909  1.9226 -0.0686
 6100SOL     OW29932   0.263   2.435   7.717 -0.0252  0.6683 -0.5295
 6100SOL    HW129933   0.185   2.389   7.747  0.2726 -0.0617 -0.8799
 6100SOL    HW229934   0.241   2.430   7.624 -0.5762  1.3068 -0.4327
 6101SOL     OW29935   1.172   1.836  16.161  0.0701  0.0371 -0.0869
 6101SOL    HW129936   1.213   1.753  16.182  1.4109  0.7290  0.0316
 6101SOL    HW229937   1.255   1.878  16.140  0.0232  0.5694  0.7927
 6102SOL     OW29938   2.615   2.694  10.020  0.3616 -0.0499 -0.3995
 6102SOL    HW129939   2.654   2.778  10.045 -1.8751  0.7843  0.2729
 6102SOL    HW229940   2.524   2.710  10.043  0.4369  0.7862 -0.6465
 6103SOL     OW29941   4.560   4.055  12.293 -0.7342 -0.7668  0.1401
 6103SOL    HW129942   4.512   4.104  12.360  3.0988  1.5705  1.1922
 6103SOL    HW229943   4.641   4.031  12.339 -0.2223 -0.2851 -0.5093
 6104SOL     OW29944   0.170   2.727   3.883  0.1501 -0.0809  0.5969
 6104SOL    HW129945   0.136   2.763   3.801  1.1637 -0.2110  0.1236
 6104SOL    HW229946   0.261   2.757   3.881 -0.3475  1.3266 -0.8214
 6105SOL     OW29947   1.790   2.026  17.139 -0.3266  0.0949 -0.0306
 6105SOL    HW129948   1.715   2.047  17.195 -1.2319  0.4725 -1.3931
 6105SOL    HW229949   1.864   2.037  17.199  0.4276 -0.3013 -0.8989
 6106SOL     OW29950   2.280   0.937   6.577 -0.5969  0.4470  0.8452
 6106SOL    HW129951   2.242   1.003   6.634  0.0479 -0.5971  2.4636
 6106SOL    HW229952   2.277   0.992   6.498 -3.3517 -1.4573 -0.3818
 6107SOL     OW29953   2.458   0.390   3.385  0.4268 -0.3222 -0.0643
 6107SOL    HW129954   2.398   0.319   3.409  1.0616 -1.6703 -2.4117
 6107SOL    HW229955   2.409   0.471   3.400 -0.9772 -1.3078  0.7443
 6108SOL     OW29956   3.415   2.662   3.152 -0.1649  0.1864 -0.3034
 6108SOL    HW129957   3.367   2.580   3.155  1.7058 -0.8590  1.6552
 6108SOL    HW229958   3.347   2.724   3.126  1.8306  1.3835 -2.6502
 6109SOL     OW29959   4.000   1.649   2.207 -0.1165 -0.0544  0.4761
 6109SOL    HW129960   4.081   1.674   2.162 -0.9406 -1.0175 -1.5332
 6109SOL    HW229961   3.939   1.691   2.147 -1.2051  2.7622  3.5553
 6110SOL     OW29962   1.112   2.356  16.689 -0.1242 -0.7977 -0.1833
 6110SOL    HW129963   1.098   2.380  16.780 -2.5724 -0.7551 -0.5663
 6110SOL    HW229964   1.024   2.365  16.653  0.3855  1.4215 -0.8860
 6111SOL     OW29965   3.610   1.098   0.213  0.1184  0.2799 -0.0680
 6111SOL    HW129966   3.582   1.185   0.187  0.0163 -0.1889 -1.5047
 6111SOL    HW229967   3.681   1.130   0.269  0.9939 -1.3484 -0.2300
 6112SOL     OW29968   4.551   4.573   1.600  0.2706  0.1919  0.0228
 6112SOL    HW129969   4.481   4.620   1.646  0.4823  0.0199  0.5207
 6112SOL    HW229970   4.491   4.519   1.548 -0.6459  1.7034 -0.4795
 6113SOL     OW29971   1.908   4.285   7.463  0.4293 -0.2851 -0.4298
 6113SOL    HW129972   1.850   4.303   7.537  2.3938 -0.8739  1.2465
 6113SOL    HW229973   1.954   4.204   7.487  0.4772 -0.2420 -0.3785
 6114SOL     OW29974   0.021   4.712   9.116 -0.2648 -0.1476  0.0580
 6114SOL    HW129975   0.072   4.632   9.104  2.3100  1.3388  1.0501
 6114SOL    HW229976   0.092   0.038   9.097  0.8273 -0.4897  2.9964
 6115SOL     OW29977   0.871   1.312   7.780 -0.1294 -0.2360  0.7597
 6115SOL    HW129978   0.833   1.400   7.767  1.1145 -0.0957 -1.9943
 6115SOL    HW229979   0.855   1.273   7.694  1.1788 -2.6443  1.6168
 6116SOL     OW29980   1.696   2.014   8.734 -0.0858  0.1054  0.2795
 6116SOL    HW129981   1.683   2.001   8.828  2.7469  2.9644  1.0498
 6116SOL    HW229982   1.728   2.104   8.735  0.6341 -0.1296 -0.7320
 6117SOL     OW29983   1.627   1.807   2.250 -0.3340  0.1800  0.0330
 6117SOL    HW129984   1.716   1.780   2.271 -0.3957 -0.8434 -1.0730
 6117SOL    HW229985   1.636   1.902   2.247  2.4250 -0.1016 -0.4059
 6118SOL     OW29986   2.762   3.681   9.431  0.3220  0.0757 -0.4407
 6118SOL    HW129987   2.779   3.594   9.396  2.7913  0.5999 -0.5364
 6118SOL    HW229988   2.828   3.707   9.495 -0.2295  1.7755 -0.5556
 6119SOL     OW29989   1.407   2.330  15.176  0.1897  0.4682  0.0049
 6119SOL    HW129990   1.329   2.334  15.231 -1.2443 -0.7667 -1.9188
 6119SOL    HW229991   1.409   2.415  15.132 -0.1298  0.6203  0.2845
 6120SOL     OW29992   2.604   1.984   9.636  0.4171  0.3657  0.4206
 6120SOL    HW129993   2.658   2.036   9.696  1.0902  0.8383 -0.5904
 6120SOL    HW229994   2.566   1.919   9.695 -0.8187  1.6911  1.0896
 6121SOL     OW29995   2.029   1.371   8.847 -0.2599 -0.4222 -0.5269
 6121SOL    HW129996   2.034   1.368   8.943 -3.9143 -0.1184 -0.3279
 6121SOL    HW229997   2.100   1.427   8.814 -0.7330 -0.3452 -1.4116
 6122SOL     OW29998   2.448   0.609   3.175 -0.5587 -0.3126 -0.0973
 6122SOL    HW129999   2.456   0.542   3.107  0.6084  0.0790 -0.3373
 6122SOL    HW230000   2.536   0.596   3.209 -0.9304 -0.2008  0.9246
 6123SOL     OW30001   1.045   0.349   6.033  0.0217 -0.3113 -0.1110
 6123SOL    HW130002   1.021   0.439   6.055  1.0523 -0.0561 -0.0516
 6123SOL    HW230003   1.079   0.329   6.120 -2.2440 -1.1017  0.6163
 6124SOL     OW30004   2.419   2.305   8.041  0.3555  0.5172 -0.1301
 6124SOL    HW130005   2.400   2.382   7.987 -1.0000  0.5383  0.3907
 6124SOL    HW230006   2.345   2.301   8.102  0.9172 -0.0352  0.5150
 6125SOL     OW30007   2.071   0.268  13.298 -0.5224  0.5437  0.0388
 6125SOL    HW130008   2.105   0.185  13.331 -1.5456 -0.5224 -1.5903
 6125SOL    HW230009   2.129   0.337  13.332  0.5899 -0.6198  0.4964
 6126SOL     OW30010   1.716   1.652   9.428 -0.3368  0.1234  0.3160
 6126SOL    HW130011   1.784   1.591   9.401  0.0021  1.5452 -2.0976
 6126SOL    HW230012   1.745   1.680   9.515  1.4269 -1.2108  0.1372
 6127SOL     OW30013   1.679   1.531   4.049  0.2446 -0.2320 -0.2808
 6127SOL    HW130014   1.676   1.575   3.964 -0.2664 -1.6421 -0.9882
 6127SOL    HW230015   1.705   1.603   4.107  0.2953 -1.4797  1.2415
 6128SOL     OW30016   1.273   1.678   7.062  0.3886  0.1077 -0.2012
 6128SOL    HW130017   1.340   1.611   7.049  0.3235 -0.0929  0.5030
 6128SOL    HW230018   1.329   1.752   7.041  0.8557  0.2384  1.5300
 6129SOL     OW30019   4.081   0.073  13.997 -0.2238 -0.1107 -0.3981
 6129SOL    HW130020   4.041   0.026  13.924 -1.9192  1.2074 -0.2984
 6129SOL    HW230021   4.152   0.107  13.942 -1.3859  0.0256 -1.8093
 6130SOL     OW30022   2.809   0.771  11.373 -0.0328 -0.2997 -0.4114
 6130SOL    HW130023   2.866   0.754  11.297 -0.5846  0.3427 -0.9641
 6130SOL    HW230024   2.738   0.818  11.330 -1.2299 -1.0878  0.6876
 6131SOL     OW30025   1.013   4.345   5.497 -0.1698  0.2018 -0.2652
 6131SOL    HW130026   0.991   4.293   5.574 -1.5896  1.2496  0.0394
 6131SOL    HW230027   0.998   4.287   5.423  1.0220  0.2125 -0.5039
 6132SOL     OW30028   1.055   0.561   4.783  0.0645  0.0565 -0.2015
 6132SOL    HW130029   1.026   0.616   4.710  2.0567 -1.8589 -2.4515
 6132SOL    HW230030   1.150   0.564   4.774  0.0524 -1.0213 -0.6266
 6133SOL     OW30031   3.642   2.728   7.843 -0.2695  0.3667  0.3516
 6133SOL    HW130032   3.664   2.764   7.928  1.3098  0.4722 -0.0985
 6133SOL    HW230033   3.549   2.751   7.835 -0.4510  0.1588  1.8936
 6134SOL     OW30034   4.040   2.573   8.182  0.3556  0.4468 -0.1617
 6134SOL    HW130035   3.986   2.574   8.102  0.2145  3.6106 -0.0164
 6134SOL    HW230036   4.050   2.479   8.201 -0.2877  0.3244 -0.4156
 6135SOL     OW30037   3.376   1.145  15.998 -0.0390  0.6809  0.0216
 6135SOL    HW130038   3.352   1.134  15.906  0.7400  1.8032 -0.3181
 6135SOL    HW230039   3.327   1.223  16.025  0.4887  1.8024 -2.2574
 6136SOL     OW30040   2.969   0.458   3.787  0.0391  0.0730 -0.6001
 6136SOL    HW130041   2.925   0.407   3.856  2.5342 -1.3590 -0.0874
 6136SOL    HW230042   2.904   0.522   3.759  2.0379  1.9396 -0.9060
 6137SOL     OW30043   1.097   2.887   3.321  0.1522  0.3960  0.1050
 6137SOL    HW130044   1.050   2.880   3.404  1.3390 -0.6402  0.6877
 6137SOL    HW230045   1.148   2.966   3.338 -1.5841  1.4382  0.5024
 6138SOL     OW30046   2.846   4.176   0.847 -0.4248 -0.3831 -0.1811
 6138SOL    HW130047   2.938   4.175   0.872 -0.3561 -1.2185 -0.4770
 6138SOL    HW230048   2.851   4.169   0.752 -0.1264 -0.4945 -0.1575
 6139SOL     OW30049   1.309   3.008   7.525 -0.5259 -0.2504  0.3993
 6139SOL    HW130050   1.361   3.051   7.593 -1.0129  0.5017  0.2900
 6139SOL    HW230051   1.219   3.027   7.551 -0.3418 -0.2388  1.0278
 6140SOL     OW30052   2.862   3.844  14.387 -0.1467  0.5370 -0.4511
 6140SOL    HW130053   2.815   3.910  14.336  1.1028  0.6801 -1.4114
 6140SOL    HW230054   2.849   3.889  14.471  1.7772  1.6331 -0.7507
 6141SOL     OW30055   0.457   3.191   9.618 -0.2700  0.1670  0.2058
 6141SOL    HW130056   0.385   3.139   9.582  0.9791 -0.3579 -1.5066
 6141SOL    HW230057   0.520   3.120   9.620 -1.5544 -0.9708  0.1634
 6142SOL     OW30058   3.578   3.309   2.946  0.5397  0.3387 -0.6074
 6142SOL    HW130059   3.489   3.275   2.960  0.4703  1.2007  1.1347
 6142SOL    HW230060   3.625   3.228   2.930 -1.5587 -1.2624  1.2610
 6143SOL     OW30061   1.630   0.340   8.157  0.0793  0.4921 -0.1177
 6143SOL    HW130062   1.655   0.373   8.243 -1.4966  0.8332  0.2072
 6143SOL    HW230063   1.585   0.260   8.184  1.6486 -0.4983 -0.4147
 6144SOL     OW30064   2.739   2.905  11.538  0.0308  0.1426  0.0981
 6144SOL    HW130065   2.747   2.979  11.477 -0.3188  0.4883  0.4702
 6144SOL    HW230066   2.735   2.957  11.618  0.6457 -0.0536  0.2509
 6145SOL     OW30067   4.038   2.231  12.304  0.2935 -0.1809 -0.3575
 6145SOL    HW130068   4.066   2.144  12.276 -0.0807 -0.4681  0.1775
 6145SOL    HW230069   3.999   2.270  12.226 -1.9599  1.3426  1.5424
 6146SOL     OW30070   2.967   1.926   6.447  0.3800 -0.0723 -0.4333
 6146SOL    HW130071   2.951   1.901   6.356 -1.7846  0.0602 -0.0703
 6146SOL    HW230072   2.978   2.021   6.443 -0.4328  0.0690  0.7736
 6147SOL     OW30073   0.102   1.473   6.293  0.4868  0.0775  0.0309
 6147SOL    HW130074   0.147   1.460   6.210 -0.4751 -0.1592 -0.4619
 6147SOL    HW230075   0.088   1.568   6.291  0.9200  0.1470  0.4085
 6148SOL     OW30076   2.968   4.304   2.514 -0.3421 -0.3222  0.0469
 6148SOL    HW130077   3.054   4.265   2.500 -0.0817  0.2492  0.0644
 6148SOL    HW230078   2.992   4.397   2.517  0.9530 -0.5875 -2.2638
 6149SOL     OW30079   1.174   4.005   4.584 -0.1663 -0.1070  0.1252
 6149SOL    HW130080   1.209   4.062   4.653  1.2007 -1.8486  0.8593
 6149SOL    HW230081   1.218   3.929   4.621  0.0419 -0.9103 -1.7962
 6150SOL     OW30082   2.617   2.791  13.957  0.3214  0.0217 -0.0987
 6150SOL    HW130083   2.696   2.811  14.008 -0.3090 -1.1205  1.3407
 6150SOL    HW230084   2.567   2.748  14.027 -2.7008  2.2418 -0.9485
 6151SOL     OW30085   4.352   4.448   3.211 -0.1851  0.1459  0.3672
 6151SOL    HW130086   4.275   4.424   3.159  1.5153  2.3319 -3.1337
 6151SOL    HW230087   4.306   4.511   3.267 -1.1295  0.4522 -0.7669
 6152SOL     OW30088   4.388   3.258   6.432 -0.3701  0.6615 -0.7037
 6152SOL    HW130089   4.309   3.206   6.417 -1.6972  1.2910  4.1410
 6152SOL    HW230090   4.384   3.275   6.526 -0.4925  4.0881 -1.3239
 6153SOL     OW30091   1.163   0.827   6.755  0.5186  0.1234 -0.2363
 6153SOL    HW130092   1.201   0.914   6.742 -1.7324  0.7482 -2.5222
 6153SOL    HW230093   1.192   0.769   6.685  0.5893 -0.6913  0.4734
 6154SOL     OW30094   0.988   2.022   1.174  0.0468  0.4409  0.0082
 6154SOL    HW130095   1.066   1.970   1.153 -1.3716 -3.2726  3.8469
 6154SOL    HW230096   1.008   2.042   1.266 -1.2486  0.3974  0.2979
 6155SOL     OW30097   3.820   4.211   4.394 -0.3927 -0.0068 -0.3135
 6155SOL    HW130098   3.838   4.148   4.325 -1.1066 -2.1060  1.3936
 6155SOL    HW230099   3.766   4.163   4.457  0.3175 -0.8312 -0.3382
 6156SOL     OW30100   2.289   3.522   9.547 -0.1607 -0.4502 -0.3580
 6156SOL    HW130101   2.289   3.463   9.472  1.3298 -0.9890  0.0553
 6156SOL    HW230102   2.368   3.575   9.532  0.6996 -1.3578  0.8664
 6157SOL     OW30103   2.783   0.397   5.049 -0.0961 -0.3203 -0.4325
 6157SOL    HW130104   2.761   0.455   5.122  2.2924 -0.4530  0.4243
 6157SOL    HW230105   2.869   0.430   5.022 -0.1342 -0.1451 -0.3396
 6158SOL     OW30106   0.037   3.881   7.197  0.3819  0.0396  0.1494
 6158SOL    HW130107   4.679   3.862   7.184  0.3358  1.3141 -1.3805
 6158SOL    HW230108   0.049   3.877   7.291 -0.5218  1.6689  0.3337
 6159SOL     OW30109   0.509   3.724   0.554  0.2089 -0.4158 -0.5524
 6159SOL    HW130110   0.572   3.660   0.520  1.1626 -1.3291  3.0107
 6159SOL    HW230111   0.535   3.713   0.645 -2.3476 -0.7185  0.1254
 6160SOL     OW30112   2.370   2.616   2.593 -0.0982 -0.2694  0.0811
 6160SOL    HW130113   2.290   2.577   2.627  0.3120 -0.8050  0.4283
 6160SOL    HW230114   2.344   2.696   2.548 -0.3236 -0.8801 -0.8725
 6161SOL     OW30115   0.915   2.563   3.833  0.3244  0.1686  0.0051
 6161SOL    HW130116   0.932   2.655   3.816  2.6568  0.0037  1.6075
 6161SOL    HW230117   0.984   2.518   3.784  0.8843  0.4926  0.5004
 6162SOL     OW30118   4.337   1.107   7.367 -0.0485  0.3814  0.0074
 6162SOL    HW130119   4.362   1.045   7.435  1.3294 -0.4043 -1.2315
 6162SOL    HW230120   4.253   1.134   7.405  0.2435 -0.2483  1.0996
 6163SOL     OW30121   2.522   4.299   7.042 -0.4230 -0.1016  0.5492
 6163SOL    HW130122   2.485   4.365   6.982  2.4579 -0.5048 -1.6735
 6163SOL    HW230123   2.599   4.278   6.989 -2.4029 -1.2347 -1.8944
 6164SOL     OW30124   3.409   3.730   4.223 -0.1352  0.0108  0.5189
 6164SOL    HW130125   3.455   3.646   4.227  1.8097  1.0701  0.5886
 6164SOL    HW230126   3.337   3.700   4.278  0.3445  1.0894  1.7295
 6165SOL     OW30127   3.578   1.193   8.101  0.2454  0.2049 -0.2108
 6165SOL    HW130128   3.620   1.109   8.081 -0.5535 -0.3791  0.6033
 6165SOL    HW230129   3.576   1.227   8.011  2.3743 -0.1141 -0.3703
 6166SOL     OW30130   2.199   0.342  10.038 -0.1670 -0.2461 -0.6607
 6166SOL    HW130131   2.262   0.307  10.101  0.0479  0.8400 -0.2797
 6166SOL    HW230132   2.261   0.374   9.974  0.3736 -0.8725 -0.4458
 6167SOL     OW30133   0.321   3.570   7.187 -0.8416  0.3379  0.9293
 6167SOL    HW130134   0.258   3.590   7.256  0.1881  1.9502  1.4030
 6167SOL    HW230135   0.401   3.612   7.218 -0.9396  1.2770 -0.0655
 6168SOL     OW30136   2.830   1.961   4.508 -0.0830  0.4977  0.0247
 6168SOL    HW130137   2.774   1.924   4.439 -0.9231 -0.8188  1.4220
 6168SOL    HW230138   2.779   2.040   4.528 -2.5353 -1.0913  0.0684
 6169SOL     OW30139   2.361   0.842   8.882 -0.1031 -0.6711 -0.1408
 6169SOL    HW130140   2.297   0.910   8.901  0.1436 -0.3672 -0.4048
 6169SOL    HW230141   2.411   0.883   8.811 -0.6018  0.6295  0.2591
 6170SOL     OW30142   0.859   3.989   3.936 -0.5854 -0.6230  0.2609
 6170SOL    HW130143   0.849   4.065   3.879 -1.4423 -0.6025  0.4343
 6170SOL    HW230144   0.780   3.942   3.909 -1.4355  1.0916 -0.2296
 6171SOL     OW30145   4.669   1.594   4.370 -0.4093 -0.3786  0.2876
 6171SOL    HW130146   4.667   1.623   4.279  1.4470  0.6875  0.5723
 6171SOL    HW230147   4.687   1.501   4.359 -1.1148 -0.3922 -0.7157
 6172SOL     OW30148   0.165   1.108   5.042  0.1974  0.9676  0.0428
 6172SOL    HW130149   0.078   1.069   5.043 -0.0283  1.4873  0.9950
 6172SOL    HW230150   0.200   1.085   5.128  3.2681  0.4430 -1.3490
 6173SOL     OW30151   3.996   1.664   3.372  0.0976 -0.1796 -0.1966
 6173SOL    HW130152   3.945   1.707   3.303  0.3772 -0.5977 -0.6643
 6173SOL    HW230153   4.083   1.675   3.334  0.6763  0.0741  1.1823
 6174SOL     OW30154   3.892   0.419  14.763 -0.4518 -0.4003  0.2601
 6174SOL    HW130155   3.908   0.474  14.686 -0.7536 -2.0867 -1.0248
 6174SOL    HW230156   3.950   0.458  14.828  0.5213  0.1309 -0.9145
 6175SOL     OW30157   3.709   1.112   2.547 -0.1924  0.4069 -0.3317
 6175SOL    HW130158   3.778   1.138   2.608 -1.3727  0.5983  0.9109
 6175SOL    HW230159   3.732   1.019   2.541 -1.2226  0.1550 -0.3585
 6176SOL     OW30160   0.688   3.521   7.556  0.1164 -0.2329  0.1212
 6176SOL    HW130161   0.741   3.531   7.635 -1.4541  1.7174  0.9426
 6176SOL    HW230162   0.661   3.612   7.543  1.7683 -0.5227 -5.2200
 6177SOL     OW30163   1.213   0.939   2.869 -0.0193  0.2631  0.4435
 6177SOL    HW130164   1.256   1.001   2.928  2.4346 -0.6140 -0.4210
 6177SOL    HW230165   1.247   0.961   2.782 -0.3050  1.2038  0.5652
 6178SOL     OW30166   0.375   2.187   9.304  0.1297  0.2010  0.0080
 6178SOL    HW130167   0.463   2.155   9.322  0.3294  1.4470  1.2516
 6178SOL    HW230168   0.326   2.164   9.383 -0.9851 -0.5361 -0.8867
 6179SOL     OW30169   1.590   2.886  14.769  0.4604  0.0601  0.3770
 6179SOL    HW130170   1.614   2.873  14.677 -0.3971 -1.2426  0.3359
 6179SOL    HW230171   1.630   2.808  14.808 -0.1676  0.0440  0.9921
 6180SOL     OW30172   2.020   3.292   0.072 -0.4876 -0.4250 -0.0939
 6180SOL    HW130173   2.076   3.349   0.126 -0.2557  0.3170 -1.1162
 6180SOL    HW230174   2.000   3.353   0.001  2.0368  2.0277  1.2618
 6181SOL     OW30175   1.073   0.643   3.023  0.4485 -0.1841 -0.5408
 6181SOL    HW130176   1.161   0.654   3.061  0.6672 -2.1889 -0.4720
 6181SOL    HW230177   1.059   0.554   3.054  0.5118  0.1115  0.3566
 6182SOL     OW30178   3.901   0.705   7.681  0.1988 -0.5775  0.7829
 6182SOL    HW130179   3.815   0.700   7.725  0.3216 -0.1610  1.0748
 6182SOL    HW230180   3.876   0.666   7.598  1.7378 -0.4963  0.2808
 6183SOL     OW30181   3.164   3.248   2.724  0.6710 -0.1708 -0.0956
 6183SOL    HW130182   3.255   3.221   2.717  1.4068  1.3967  3.2350
 6183SOL    HW230183   3.111   3.172   2.698  1.7426 -1.6682  2.0298
 6184SOL     OW30184   1.499   0.347   2.644 -0.1829  0.4433  0.8612
 6184SOL    HW130185   1.556   0.413   2.604  0.5543 -0.5609  0.2421
 6184SOL    HW230186   1.490   0.387   2.730  1.4691  0.0184  1.2389
 6185SOL     OW30187   3.260   0.324  10.217  0.3423 -0.3267  0.1930
 6185SOL    HW130188   3.238   0.240  10.176  0.8517 -0.0460 -0.6484
 6185SOL    HW230189   3.182   0.346  10.268 -0.3532 -1.3134 -0.4415
 6186SOL     OW30190   1.494   2.819   8.609  0.2290 -0.1598  0.5357
 6186SOL    HW130191   1.403   2.797   8.628  0.1301  0.0323  0.2775
 6186SOL    HW230192   1.493   2.915   8.607  0.6552 -0.1763 -0.3530
 6187SOL     OW30193   2.717   0.175   7.548  0.0628  0.2414  0.1404
 6187SOL    HW130194   2.644   0.134   7.594 -0.9380  0.3580 -1.3271
 6187SOL    HW230195   2.754   0.096   7.509 -2.3225 -0.4269 -0.8115
 6188SOL     OW30196   2.457   1.268   1.899  0.2886 -0.6460 -0.4105
 6188SOL    HW130197   2.487   1.248   1.987  0.9033  1.3656 -0.1632
 6188SOL    HW230198   2.501   1.198   1.850  1.7706 -0.2804  0.4038
 6189SOL     OW30199   4.055   2.148   5.398  0.1530  0.5133 -0.3593
 6189SOL    HW130200   4.073   2.148   5.304  1.5982 -0.6332 -0.0831
 6189SOL    HW230201   4.133   2.105   5.433  0.6546  2.4635  0.9423
 6190SOL     OW30202   2.471   1.960   8.847 -0.3778  0.3503  0.1547
 6190SOL    HW130203   2.484   2.004   8.931  3.9187 -0.1578 -0.2555
 6190SOL    HW230204   2.540   1.894   8.847 -3.0731 -2.4767  1.3024
 6191SOL     OW30205   2.481   3.366  11.834  0.0434 -0.4805  0.3452
 6191SOL    HW130206   2.560   3.325  11.869  1.1930 -0.6027 -2.4193
 6191SOL    HW230207   2.523   3.420  11.767  3.1852 -0.8219  2.0403
 6192SOL     OW30208   1.918   1.294  11.829 -0.1419 -0.3165  0.1367
 6192SOL    HW130209   1.985   1.320  11.767 -0.6592 -3.1314 -1.5809
 6192SOL    HW230210   1.944   1.354  11.899  3.1482 -2.0648  0.3857
 6193SOL     OW30211   1.655   3.606   5.345  0.0924 -0.7079 -0.4609
 6193SOL    HW130212   1.666   3.593   5.439  1.3584  1.8240 -0.2598
 6193SOL    HW230213   1.695   3.524   5.316  0.3994 -0.5610 -0.4481
 6194SOL     OW30214   0.610   0.510   8.052 -0.0498  0.5041  0.3977
 6194SOL    HW130215   0.603   0.566   8.129 -0.7535 -0.2322  0.8656
 6194SOL    HW230216   0.695   0.539   8.019 -0.0064 -0.5078 -0.3867
 6195SOL     OW30217   0.157   4.653  12.586 -0.8395  0.2924 -0.2876
 6195SOL    HW130218   0.109   4.579  12.550 -0.0986 -1.1657  1.6997
 6195SOL    HW230219   0.184   4.602  12.663  1.4824 -0.8723 -1.8819
 6196SOL     OW30220   4.182   0.377   5.072 -0.0511 -0.3516 -0.1467
 6196SOL    HW130221   4.163   0.303   5.013  2.9690 -1.1562 -0.1009
 6196SOL    HW230222   4.212   0.439   5.005  1.1962  0.9770  1.6379
 6197SOL     OW30223   4.211   0.761   5.181  0.1497  0.0761 -0.4591
 6197SOL    HW130224   4.306   0.754   5.170  0.1521 -1.0542  0.2757
 6197SOL    HW230225   4.200   0.809   5.263 -2.3009  0.1400 -0.8075
 6198SOL     OW30226   3.811   3.571   9.065 -0.1732  0.0604  0.3344
 6198SOL    HW130227   3.780   3.642   9.009 -1.0800 -0.5207  0.0955
 6198SOL    HW230228   3.867   3.621   9.123 -0.4846 -2.0927  2.4918
 6199SOL     OW30229   2.517   3.293   4.250  0.3141 -0.3687 -0.3739
 6199SOL    HW130230   2.467   3.372   4.271  2.4153  1.0081 -0.5709
 6199SOL    HW230231   2.555   3.281   4.337 -0.3745  1.0401  0.1226
 6200SOL     OW30232   2.547   1.002  10.907  0.5879 -0.4778 -0.2603
 6200SOL    HW130233   2.549   1.040  10.995 -2.6073 -4.1292  1.3643
 6200SOL    HW230234   2.557   0.910  10.931  2.3274  0.0025  0.8759
 6201SOL     OW30235   3.138   1.760   2.471  1.0926  0.6790 -0.2843
 6201SOL    HW130236   3.200   1.803   2.530  0.1923  0.0669  1.0942
 6201SOL    HW230237   3.052   1.771   2.511  0.3926 -1.8427 -1.0778
 6202SOL     OW30238   4.428   4.724   3.983  0.1477 -0.2066  0.0268
 6202SOL    HW130239   4.438   4.630   3.996 -0.0924 -0.1195  0.8584
 6202SOL    HW230240   4.333   4.733   3.970  0.2206  0.2019 -0.2069
 6203SOL     OW30241   0.006   2.143   5.535 -0.1005 -0.2636 -0.0848
 6203SOL    HW130242   0.030   2.051   5.518 -1.0648 -0.4739 -0.2834
 6203SOL    HW230243   4.712   2.164   5.447 -0.0764  1.7741  0.4072
 6204SOL     OW30244   3.453   0.540  11.129 -0.2324 -0.2761  0.0887
 6204SOL    HW130245   3.485   0.628  11.113 -0.9559  0.2608  1.5726
 6204SOL    HW230246   3.525   0.488  11.165 -0.4536  0.6335  1.8406
 6205SOL     OW30247   1.174   2.245   2.206  0.7526 -0.2742  0.1145
 6205SOL    HW130248   1.232   2.319   2.222  1.5751 -1.2378  1.6126
 6205SOL    HW230249   1.097   2.291   2.238 -1.2030 -0.6955 -4.0248
 6206SOL     OW30250   4.528   2.415   7.747 -0.3507 -0.0622  0.0993
 6206SOL    HW130251   4.619   2.390   7.763 -0.2936 -0.1606 -0.3714
 6206SOL    HW230252   4.534   2.510   7.750  0.5711 -0.1790  2.2691
 6207SOL     OW30253   1.423   2.947   6.917  0.2660  0.3798 -0.0467
 6207SOL    HW130254   1.506   2.910   6.887 -0.0747 -0.9234  0.6397
 6207SOL    HW230255   1.437   2.985   7.004 -1.4822  0.7645  0.0688
 6208SOL     OW30256   4.371   0.964   3.440  0.3874 -0.3218 -0.9243
 6208SOL    HW130257   4.280   0.985   3.420  0.7702  2.2845  0.0387
 6208SOL    HW230258   4.384   0.900   3.370 -1.9275  0.7577 -2.3442
 6209SOL     OW30259   0.301   3.740   4.748  0.2406  0.0140 -0.0052
 6209SOL    HW130260   0.215   3.780   4.733  0.5870  0.8739  0.2925
 6209SOL    HW230261   0.349   3.803   4.694 -0.9011  0.0237 -1.0019
 6210SOL     OW30262   3.541   1.717   2.598  0.9065  0.4487 -0.6521
 6210SOL    HW130263   3.521   1.716   2.504 -0.6983  0.1013 -0.3147
 6210SOL    HW230264   3.535   1.628   2.631  1.3589  0.7334  0.2044
 6211SOL     OW30265   2.892   3.349   5.472 -0.0347 -0.5708  0.1751
 6211SOL    HW130266   2.856   3.414   5.531 -0.6233 -0.3696 -0.3968
 6211SOL    HW230267   2.840   3.352   5.391  0.2503 -2.6911 -0.1018
 6212SOL     OW30268   1.347   0.187   3.742 -0.7491 -0.3279  0.3088
 6212SOL    HW130269   1.278   0.134   3.784  0.2490 -2.5583 -0.8785
 6212SOL    HW230270   1.388   0.124   3.684  2.5258 -0.6657  3.0481
 6213SOL     OW30271   2.275   0.546   1.488  0.0980 -0.4350 -0.6656
 6213SOL    HW130272   2.288   0.598   1.409  0.1151 -0.9893 -1.0313
 6213SOL    HW230273   2.193   0.581   1.523  1.3253  1.1353  0.6129
 6214SOL     OW30274   3.060   2.616   2.989  0.3706 -0.5047 -0.2151
 6214SOL    HW130275   3.099   2.669   3.059  1.7737 -3.2377  1.0728
 6214SOL    HW230276   3.130   2.601   2.925 -0.4150 -2.0241 -0.7136
 6215SOL     OW30277   1.586   2.482   8.536 -0.0598  0.1824 -0.2323
 6215SOL    HW130278   1.562   2.570   8.567  1.1588  0.5928 -0.4631
 6215SOL    HW230279   1.518   2.426   8.574  0.7017 -0.6910 -0.1632
 6216SOL     OW30280   4.546   4.106  17.002 -0.2799  0.8568 -0.2765
 6216SOL    HW130281   4.476   4.048  16.975 -0.0876  0.1217  0.7853
 6216SOL    HW230282   4.493   4.174  17.043  1.0674  2.3043 -0.8986
 6217SOL     OW30283   1.123   0.775   5.633  0.4668  0.2354 -0.2265
 6217SOL    HW130284   1.066   0.698   5.635  0.5692  0.1989  0.9824
 6217SOL    HW230285   1.136   0.801   5.724  1.9520 -0.1084 -0.3431
 6218SOL     OW30286   1.573   0.391   1.337 -0.4455 -0.2770 -0.1932
 6218SOL    HW130287   1.654   0.420   1.296 -0.5641  0.6053  0.1859
 6218SOL    HW230288   1.571   0.430   1.425  0.0636 -0.2737 -0.1870
 6219SOL     OW30289   0.920   3.460  12.626  0.1536  0.7734  0.1615
 6219SOL    HW130290   0.881   3.381  12.663  0.2161  0.6286 -0.0813
 6219SOL    HW230291   1.006   3.447  12.666 -1.6920 -0.1897  3.8163
 6220SOL     OW30292   1.166   1.177   0.275  0.0842 -0.1412  0.2604
 6220SOL    HW130293   1.079   1.187   0.314 -0.9029  0.8483 -2.1850
 6220SOL    HW230294   1.189   1.088   0.302 -1.1870 -0.7485 -0.6565
 6221SOL     OW30295   2.477   4.672   1.089  0.2072  0.1984  0.1950
 6221SOL    HW130296   2.427   0.009   1.127 -1.0459 -0.1044 -0.8554
 6221SOL    HW230297   2.563   4.710   1.106 -0.1137  1.1711 -0.3304
 6222SOL     OW30298   0.939   1.325   2.782 -0.1491 -0.1180  0.0762
 6222SOL    HW130299   0.920   1.234   2.801 -0.8245  0.0512  0.2327
 6222SOL    HW230300   0.968   1.320   2.691  1.3278 -1.7345  0.6466
 6223SOL     OW30301   4.630   1.110  14.363 -0.5805 -0.1899  0.3085
 6223SOL    HW130302   4.693   1.105  14.292  0.3545  0.1709  1.1097
 6223SOL    HW230303   4.553   1.092  14.309 -0.0017  1.0034 -0.8979
 6224SOL     OW30304   2.415   2.686   5.908  0.0458 -0.2512 -0.2580
 6224SOL    HW130305   2.461   2.761   5.946 -1.1083 -0.0271  0.6810
 6224SOL    HW230306   2.379   2.633   5.978 -1.3543  1.3006  0.1888
 6225SOL     OW30307   3.762   4.730   1.956 -0.3775 -0.0844  0.0129
 6225SOL    HW130308   3.755   4.641   1.924 -2.4440  0.6277 -1.5335
 6225SOL    HW230309   3.696   4.717   2.024 -1.9846 -0.5069 -1.6208
 6226SOL     OW30310   3.850   1.550  16.155  0.0394 -0.1453 -0.0938
 6226SOL    HW130311   3.780   1.588  16.103  1.2760  0.8702 -1.0032
 6226SOL    HW230312   3.818   1.461  16.166  2.5836 -0.9189  1.1845
 6227SOL     OW30313   2.758   4.055   5.438 -0.2815 -0.4792 -0.4109
 6227SOL    HW130314   2.731   3.983   5.494 -0.6423  0.0648  0.1064
 6227SOL    HW230315   2.814   4.016   5.371  1.5510  0.4914  0.5637
 6228SOL     OW30316   4.477   0.129   7.386  0.0350  0.3159 -0.1656
 6228SOL    HW130317   4.431   0.136   7.302 -2.2802  0.7352  1.1384
 6228SOL    HW230318   4.485   0.221   7.411  2.4278  0.0616 -0.0076
 6229SOL     OW30319   1.318   2.589  17.717  0.1950 -0.0680  0.5333
 6229SOL    HW130320   1.249   2.629   0.029 -0.7851 -0.0707 -0.7175
 6229SOL    HW230321   1.381   2.662  17.718  1.3460 -1.0837  3.0341
 6230SOL     OW30322   3.701   3.598   3.619 -0.0319  0.4668  0.5092
 6230SOL    HW130323   3.611   3.615   3.593  0.1867 -0.9786 -1.1742
 6230SOL    HW230324   3.732   3.563   3.536  2.8568 -0.7676  2.1204
 6231SOL     OW30325   3.403   2.644   8.085 -0.3314  0.2690 -0.0239
 6231SOL    HW130326   3.439   2.680   8.166  0.5574 -1.2252  0.2448
 6231SOL    HW230327   3.457   2.565   8.074 -0.2532  0.3186 -0.0005
 6232SOL     OW30328   0.897   2.737   9.183 -0.0636 -0.5971  0.0262
 6232SOL    HW130329   0.977   2.701   9.221 -0.2312 -1.4417 -0.4074
 6232SOL    HW230330   0.841   2.660   9.193  0.2988 -0.7959  0.5639
 6233SOL     OW30331   4.168   3.933   4.359 -0.6037  0.6632 -0.2982
 6233SOL    HW130332   4.143   3.841   4.357 -0.4320  0.5989  0.9479
 6233SOL    HW230333   4.086   3.963   4.320 -1.3822  0.1321  0.9371
 6234SOL     OW30334   1.359   3.839  11.141  0.7682  0.1035  0.4213
 6234SOL    HW130335   1.408   3.836  11.224  0.3704 -1.8115  0.5881
 6234SOL    HW230336   1.291   3.774  11.158  0.0098  0.5894 -0.7819
 6235SOL     OW30337   2.048   0.252   7.120 -0.5487  0.0696 -0.7401
 6235SOL    HW130338   1.954   0.236   7.113 -0.4415 -1.9386  2.3990
 6235SOL    HW230339   2.060   0.268   7.214 -2.3006  3.0549 -1.0197
 6236SOL     OW30340   3.609   3.911  15.836  0.6226  0.0506  0.0905
 6236SOL    HW130341   3.608   3.815  15.837  0.5954  0.0600  0.8598
 6236SOL    HW230342   3.524   3.920  15.791  1.3748  0.1883 -1.2993
 6237SOL     OW30343   2.082   1.758   5.258  0.4174 -0.0380  0.5119
 6237SOL    HW130344   2.054   1.748   5.168 -1.2518  1.4361  0.8669
 6237SOL    HW230345   2.154   1.695   5.265  1.0284  0.6103  0.1318
 6238SOL     OW30346   2.227   1.040   4.250  0.1156  0.0608 -0.0345
 6238SOL    HW130347   2.135   1.014   4.253 -0.3956  1.9005  0.1717
 6238SOL    HW230348   2.204   1.105   4.183 -0.4330 -0.1227 -0.0230
 6239SOL     OW30349   0.095   3.291   1.903  0.0057 -0.5031 -0.2506
 6239SOL    HW130350   0.064   3.231   1.971  1.0418 -0.2280  0.4532
 6239SOL    HW230351   0.015   3.343   1.893  0.6457  0.5998  0.3285
 6240SOL     OW30352   0.049   4.140   8.165  0.5164 -0.2219 -0.6223
 6240SOL    HW130353   0.038   4.226   8.207  0.8984 -1.0007  1.0777
 6240SOL    HW230354   0.007   4.073   8.220  1.5374  1.8363  2.7189
 6241SOL     OW30355   1.967   1.310  10.564 -0.2515  0.0710  0.3835
 6241SOL    HW130356   2.054   1.282  10.535 -0.5037  0.5364 -0.8321
 6241SOL    HW230357   1.983   1.324  10.657  1.0973 -1.4279  0.3903
 6242SOL     OW30358   1.945   3.600   4.529 -0.1537 -0.1471 -0.1451
 6242SOL    HW130359   1.857   3.567   4.511 -0.4861  1.2759 -1.2347
 6242SOL    HW230360   1.928   3.695   4.524  1.2059  0.1447  0.7613
 6243SOL     OW30361   0.481   0.596   4.900  0.2648  0.1676  0.0040
 6243SOL    HW130362   0.394   0.581   4.937  0.6633  1.4267  1.4340
 6243SOL    HW230363   0.517   0.653   4.968 -0.7026  0.9738 -0.1567
 6244SOL     OW30364   3.467   2.657   0.302 -0.2540  0.4326 -0.8200
 6244SOL    HW130365   3.528   2.694   0.238  1.2326  0.0193  0.3567
 6244SOL    HW230366   3.507   2.571   0.317  0.9538  1.4653  1.9670
 6245SOL     OW30367   4.521   2.142   2.927 -0.7794 -0.4499 -0.1804
 6245SOL    HW130368   4.486   2.226   2.956  1.1866  0.1860  0.3853
 6245SOL    HW230369   4.605   2.165   2.887 -0.8258  0.0587  0.0175
 6246SOL     OW30370   2.951   3.672   3.758  0.3569 -0.3687 -0.6838
 6246SOL    HW130371   2.985   3.592   3.797  3.2767  0.9388 -0.5951
 6246SOL    HW230372   2.870   3.636   3.723 -0.2594  0.7395 -0.4269
 6247SOL     OW30373   2.174   0.166   5.131 -0.3719  0.1806 -0.1137
 6247SOL    HW130374   2.172   0.070   5.134  3.4265  0.1580  1.7391
 6247SOL    HW230375   2.225   0.178   5.051 -1.0174  0.6076 -0.4515
 6248SOL     OW30376   3.631   4.360   4.093 -0.0155  0.3076  0.2618
 6248SOL    HW130377   3.627   4.267   4.073 -1.0895 -0.2115  2.8852
 6248SOL    HW230378   3.566   4.379   4.025 -0.0761 -2.6840 -0.5253
 6249SOL     OW30379   3.991   3.283   9.463  0.3249  0.0690 -0.3453
 6249SOL    HW130380   3.950   3.218   9.406  0.7349 -2.0261  1.7426
 6249SOL    HW230381   4.009   3.358   9.407  1.3627 -0.5169 -0.7907
 6250SOL     OW30382   2.082   1.285   4.490  0.2759 -0.2843  0.7143
 6250SOL    HW130383   2.046   1.356   4.544  0.0799 -0.0651  0.2924
 6250SOL    HW230384   2.041   1.213   4.537 -0.7419 -1.4265 -1.9611
 6251SOL     OW30385   2.460   2.268   9.662 -0.1457 -0.0826 -0.3809
 6251SOL    HW130386   2.369   2.245   9.678 -0.3204  0.7062 -0.2133
 6251SOL    HW230387   2.490   2.182   9.633  0.1338  0.2009 -0.9290
 6252SOL     OW30388   4.601   1.068   4.272 -0.2015  0.0620  0.0072
 6252SOL    HW130389   4.580   0.995   4.330 -1.5395  0.7031  0.3254
 6252SOL    HW230390   4.534   1.051   4.206 -0.9004 -2.6608  1.4210
 6253SOL     OW30391   2.533   0.035   7.255 -0.2508 -1.1481 -0.4718
 6253SOL    HW130392   2.623   0.005   7.269 -0.1366  0.1446  1.5367
 6253SOL    HW230393   2.526   0.083   7.173  0.5415  0.6490  0.5198
 6254SOL     OW30394   3.026   1.710   6.861 -0.3506  0.3240  0.0855
 6254SOL    HW130395   3.105   1.672   6.899 -0.4533 -2.0152 -2.0109
 6254SOL    HW230396   3.031   1.715   6.766  1.3782 -2.5864  0.0156
 6255SOL     OW30397   4.173   1.511   6.604 -0.0489 -0.3524  0.0117
 6255SOL    HW130398   4.159   1.425   6.644  6.4375 -1.5743 -0.3728
 6255SOL    HW230399   4.211   1.541   6.687 -0.6820 -2.0420  0.9219
 6256SOL     OW30400   3.301   4.702   5.578  0.2449  0.4803 -0.3611
 6256SOL    HW130401   3.368   0.029   5.607  0.1338 -0.0001  0.9188
 6256SOL    HW230402   3.361   4.659   5.517  0.8485  0.0236  0.5570
 6257SOL     OW30403   3.664   1.660   3.303  0.2883  0.5393  0.2400
 6257SOL    HW130404   3.660   1.595   3.233  0.8493  0.2440  0.4802
 6257SOL    HW230405   3.707   1.732   3.256  3.4221 -0.4777  1.5699
 6258SOL     OW30406   0.582   2.228  10.988 -0.3580 -0.3022 -0.1819
 6258SOL    HW130407   0.569   2.322  10.971  1.1995  0.0271  0.4917
 6258SOL    HW230408   0.622   2.239  11.074  1.2372 -1.1230 -0.8361
 6259SOL     OW30409   4.554   4.173   1.999  0.0364 -0.0984 -0.3848
 6259SOL    HW130410   4.483   4.230   1.969 -0.2994  0.2517  1.0714
 6259SOL    HW230411   4.606   4.158   1.920 -1.7705 -0.8728 -1.4445
 6260SOL     OW30412   2.870   4.336   4.599 -0.1480  0.0490  0.2163
 6260SOL    HW130413   2.879   4.373   4.686 -0.1818  1.1263 -0.2418
 6260SOL    HW230414   2.809   4.394   4.553  0.2084 -0.4053 -0.8240
 6261SOL     OW30415   0.102   2.447   4.301  0.0422  0.2255  0.2644
 6261SOL    HW130416   0.063   2.419   4.217  1.9362  1.4860 -1.0311
 6261SOL    HW230417   0.022   2.491   4.332 -0.2842 -1.0817  1.2765
 6262SOL     OW30418   0.555   4.696   1.383  0.5853  0.1735  0.3023
 6262SOL    HW130419   0.533   0.053   1.380  1.2947  0.2455 -2.7729
 6262SOL    HW230420   0.541   4.670   1.292  0.3359  1.5971 -0.0540
 6263SOL     OW30421   4.649   1.152   4.636  0.7289  0.1997 -0.0639
 6263SOL    HW130422   4.570   1.104   4.610 -0.4727  2.4425 -0.5285
 6263SOL    HW230423   4.694   1.085   4.688  0.7667  0.6433  0.4720
 6264SOL     OW30424   1.303   3.151   1.568 -0.3458 -0.0936  0.3291
 6264SOL    HW130425   1.209   3.145   1.587 -0.8284  2.7370 -1.1384
 6264SOL    HW230426   1.321   3.235   1.611 -1.1471  0.0437  0.3957
 6265SOL     OW30427   0.736   0.927   4.123 -0.2851 -0.1467  0.1330
 6265SOL    HW130428   0.655   0.977   4.132 -0.7497 -1.3831  2.6263
 6265SOL    HW230429   0.767   0.958   4.037  2.6860 -0.5372  1.0772
 6266SOL     OW30430   0.330   1.635   4.114  0.2907  0.2077 -0.0414
 6266SOL    HW130431   0.259   1.650   4.051  0.6430 -1.2561 -0.7858
 6266SOL    HW230432   0.380   1.564   4.076  1.0321  0.3828  0.6132
 6267SOL     OW30433   3.343   0.951   3.377 -0.0654 -0.0033 -0.7693
 6267SOL    HW130434   3.406   0.880   3.361 -0.0910 -0.2118  0.0546
 6267SOL    HW230435   3.268   0.891   3.379 -0.6666  0.8095  0.8742
 6268SOL     OW30436   4.507   2.141   9.196  0.6926  0.6418  0.9025
 6268SOL    HW130437   4.412   2.152   9.189  0.4157 -2.1233  0.0426
 6268SOL    HW230438   4.523   2.069   9.135  0.9443 -0.1248  1.8756
 6269SOL     OW30439   2.351   0.710   6.417 -0.1176 -0.1799 -0.4230
 6269SOL    HW130440   2.392   0.775   6.360  1.3314 -0.9533 -0.2666
 6269SOL    HW230441   2.297   0.765   6.473 -0.8114 -1.3609  0.0685
 6270SOL     OW30442   2.393   3.207   7.723 -0.0135 -0.1755  1.0146
 6270SOL    HW130443   2.377   3.297   7.695  1.1256 -0.5665 -0.9090
 6270SOL    HW230444   2.307   3.168   7.704  1.5255 -2.0061 -2.1300
 6271SOL     OW30445   1.267   2.664   6.437 -0.2116  0.1234  0.6348
 6271SOL    HW130446   1.186   2.713   6.446 -1.3906 -2.2174  2.7838
 6271SOL    HW230447   1.306   2.691   6.521 -0.1846 -1.5519  1.1629
 6272SOL     OW30448   0.283   0.111  10.190  0.0408 -0.2392  0.3899
 6272SOL    HW130449   0.231   0.042  10.230  0.2948 -1.6690 -1.7617
 6272SOL    HW230450   0.252   0.110  10.100  0.2005  1.4890  0.3033
 6273SOL     OW30451   0.233   0.510  13.052 -0.0253 -0.0390  0.3803
 6273SOL    HW130452   0.273   0.439  13.102 -0.3320  0.2662  1.0578
 6273SOL    HW230453   0.272   0.585  13.097  2.2475 -1.0173  0.0070
 6274SOL     OW30454   3.955   3.592   7.751 -0.2414 -0.1623 -0.4875
 6274SOL    HW130455   3.868   3.625   7.771 -0.1151  0.2404 -0.5875
 6274SOL    HW230456   3.970   3.533   7.825 -0.1347  0.6673  0.1536
 6275SOL     OW30457   1.678   1.141   2.713 -0.3351 -0.2438  0.4223
 6275SOL    HW130458   1.755   1.139   2.770 -1.7010  0.2315  2.2942
 6275SOL    HW230459   1.683   1.234   2.693  1.1368 -0.2628  0.7548
 6276SOL     OW30460   1.555   1.923   1.971 -0.7562  0.4748 -0.2981
 6276SOL    HW130461   1.646   1.950   1.961 -0.1272 -1.6414 -0.4062
 6276SOL    HW230462   1.524   2.002   2.015  0.6464  0.4978  0.6348
 6277SOL     OW30463   3.929   3.600   7.044 -0.3146 -0.3012  0.4607
 6277SOL    HW130464   3.984   3.629   7.117  1.7891  1.0218 -1.6689
 6277SOL    HW230465   3.967   3.513   7.032  1.4708  0.5832 -0.3046
 6278SOL     OW30466   4.369   4.266   2.586  0.5357  0.7737  0.2553
 6278SOL    HW130467   4.377   4.348   2.636  0.8766  0.9884 -0.1523
 6278SOL    HW230468   4.463   4.249   2.578  0.2816 -0.9673  1.0470
 6279SOL     OW30469   3.069   0.342   6.253 -0.5743  0.2496 -0.6580
 6279SOL    HW130470   3.005   0.275   6.230  1.7361 -1.5903 -1.7176
 6279SOL    HW230471   3.099   0.313   6.339 -1.4046  1.4937  0.0659
 6280SOL     OW30472   1.155   4.035   2.086 -0.2258  0.5850  0.0401
 6280SOL    HW130473   1.203   3.978   2.146 -2.1171 -0.6387  0.3805
 6280SOL    HW230474   1.075   4.053   2.135  0.2909 -0.0891  1.1265
 6281SOL     OW30475   0.100   4.202   4.837  0.2113  0.6850 -0.2722
 6281SOL    HW130476   0.195   4.193   4.837  0.1832  0.4123  1.3405
 6281SOL    HW230477   0.065   4.115   4.853  1.5709  0.3623  1.0118
 6282SOL     OW30478   1.196   1.142  11.394 -0.1869 -0.3365  0.3092
 6282SOL    HW130479   1.213   1.156  11.300  0.9387  1.2572  0.7523
 6282SOL    HW230480   1.101   1.147  11.407 -0.3057  0.4100 -0.8630
 6283SOL     OW30481   1.306   0.054   4.212 -0.4051 -0.2594 -0.3799
 6283SOL    HW130482   1.292   0.045   4.307  1.7685  0.2897  0.0060
 6283SOL    HW230483   1.393   0.094   4.211 -1.0570  1.1524 -0.3649
 6284SOL     OW30484   2.530   2.864  13.346 -0.5336 -0.5264  0.1104
 6284SOL    HW130485   2.460   2.929  13.342 -1.0243 -1.1282 -1.1843
 6284SOL    HW230486   2.511   2.818  13.264 -4.4643 -0.2473  0.8546
 6285SOL     OW30487   0.186   2.053   8.761 -0.1070 -0.2818 -0.3743
 6285SOL    HW130488   0.151   1.982   8.814 -0.0274 -0.0092  0.0475
 6285SOL    HW230489   0.185   2.123   8.827  3.0570  1.5127 -2.1902
 6286SOL     OW30490   3.606   3.359   9.173  0.2105  0.2471 -0.0974
 6286SOL    HW130491   3.693   3.349   9.135  0.9765  0.7356  1.5228
 6286SOL    HW230492   3.546   3.323   9.108  0.9342 -0.0274 -0.6191
 6287SOL     OW30493   3.624   0.521   6.889 -0.2331 -0.6394  0.1522
 6287SOL    HW130494   3.529   0.510   6.892 -0.1807 -1.7645 -2.0990
 6287SOL    HW230495   3.642   0.436   6.849  2.0594 -1.4271  2.8580
 6288SOL     OW30496   2.564   2.383  10.332 -0.0094 -0.0026  0.2735
 6288SOL    HW130497   2.578   2.397  10.239  1.0804 -1.3965  0.2203
 6288SOL    HW230498   2.617   2.452  10.370  0.7042 -0.0400 -0.6500
 6289SOL     OW30499   1.850   4.345   4.192 -0.6718 -0.3349 -0.1160
 6289SOL    HW130500   1.895   4.387   4.265 -1.1724  1.6599 -0.9369
 6289SOL    HW230501   1.905   4.270   4.172 -2.3971 -2.0307  1.5821
 6290SOL     OW30502   0.816   3.841  10.879  0.2887 -0.2525  0.2872
 6290SOL    HW130503   0.814   3.917  10.820  0.1687 -0.2441  0.3019
 6290SOL    HW230504   0.728   3.853  10.914  0.6473 -0.0091  1.0953
 6291SOL     OW30505   2.844   3.545   8.239 -0.4387  0.3448  0.1337
 6291SOL    HW130506   2.870   3.474   8.180 -0.9734 -0.6930  1.1546
 6291SOL    HW230507   2.752   3.554   8.214 -0.2894 -0.4978 -0.7117
 6292SOL     OW30508   0.734   1.851   6.020  0.4889 -0.4536  0.3267
 6292SOL    HW130509   0.795   1.778   6.031  0.2371 -0.5500  1.0366
 6292SOL    HW230510   0.756   1.905   6.096 -1.4064  0.4334  0.2346
 6293SOL     OW30511   0.137   0.013   2.964  0.4523  0.2748  0.0421
 6293SOL    HW130512   0.133   0.024   3.059  3.5261  0.5897  0.1217
 6293SOL    HW230513   0.053   4.710   2.937 -0.4640  1.6500  0.9246
 6294SOL     OW30514   0.611   4.013   6.019  0.0388 -0.0775 -0.3637
 6294SOL    HW130515   0.556   4.010   5.941 -0.6452  3.5915 -0.0386
 6294SOL    HW230516   0.564   3.961   6.084 -0.6752 -0.7360 -1.4211
 6295SOL     OW30517   3.275   1.496   5.178  0.7796  0.5462  0.1827
 6295SOL    HW130518   3.227   1.474   5.258  0.3252 -0.6153 -0.4173
 6295SOL    HW230519   3.288   1.590   5.190  0.2296  0.4853  1.2401
 6296SOL     OW30520   0.313   0.251   7.140 -0.1434  0.1187 -0.3205
 6296SOL    HW130521   0.283   0.273   7.051  1.0664 -1.0057 -1.0000
 6296SOL    HW230522   0.407   0.237   7.127  0.2368  0.9060  1.5799
 6297SOL     OW30523   3.627   0.244   3.223  0.1605  0.1575  0.0524
 6297SOL    HW130524   3.546   0.292   3.205 -0.1500 -0.2201  0.4263
 6297SOL    HW230525   3.658   0.286   3.303 -0.1556 -1.7850  1.1966
 6298SOL     OW30526   0.711   4.333   3.490  0.0566  0.1212 -0.0871
 6298SOL    HW130527   0.645   4.403   3.499 -0.9375 -0.6430 -1.5333
 6298SOL    HW230528   0.641   4.269   3.480  0.9214 -0.4895 -2.2004
 6299SOL     OW30529   3.399   1.885   8.143 -0.7363 -0.4444  0.3382
 6299SOL    HW130530   3.403   1.858   8.051 -2.0290  0.5985 -0.0391
 6299SOL    HW230531   3.391   1.802   8.188 -2.3946 -1.2648 -1.4370
 6300SOL     OW30532   2.306   3.111   8.911  0.3300  0.1499 -0.1588
 6300SOL    HW130533   2.341   3.098   8.823  0.5566  0.7886 -0.1626
 6300SOL    HW230534   2.289   3.022   8.939  0.5566  0.4198  0.8503
 6301SOL     OW30535   1.060   1.923   9.116 -0.5954 -0.6587  0.7082
 6301SOL    HW130536   1.091   1.832   9.117  2.8062  0.5066 -1.9802
 6301SOL    HW230537   1.095   1.950   9.032 -1.2800  2.2650  1.3490
 6302SOL     OW30538   1.088   2.991   2.712  0.1055  0.1831  0.3875
 6302SOL    HW130539   1.128   2.906   2.727 -0.1401 -0.5795 -3.1466
 6302SOL    HW230540   0.995   2.971   2.724  0.2613 -1.2618 -0.8497
 6303SOL     OW30541   0.144   3.622   5.339  0.0507  0.0228  0.2695
 6303SOL    HW130542   0.097   3.540   5.354 -1.2936  0.3556 -2.0431
 6303SOL    HW230543   0.227   3.585   5.309 -0.1184  1.2342 -1.7626
 6304SOL     OW30544   1.014   3.044   2.082  0.6784 -0.2939  0.1364
 6304SOL    HW130545   0.947   3.100   2.042  0.6699  0.1841  0.8346
 6304SOL    HW230546   1.052   2.997   2.007  1.0190 -2.2813  1.5559
 6305SOL     OW30547   3.047   0.570   7.561 -0.0232 -0.7824 -0.0054
 6305SOL    HW130548   2.981   0.504   7.578  0.3696 -1.4861 -1.2345
 6305SOL    HW230549   2.992   0.640   7.526 -0.5886 -1.7216 -0.9745
 6306SOL     OW30550   3.062   3.410   0.570 -0.7558  0.6051  0.4075
 6306SOL    HW130551   3.142   3.365   0.542 -1.8521  0.9573 -3.2128
 6306SOL    HW230552   3.009   3.412   0.491  0.8380  0.3666 -0.6680
 6307SOL     OW30553   3.305   4.449   4.874 -0.3426  0.4511 -0.1648
 6307SOL    HW130554   3.316   4.388   4.801 -0.9844  2.5165 -1.9863
 6307SOL    HW230555   3.239   4.513   4.846  1.1543  2.0198 -0.1205
 6308SOL     OW30556   3.389   4.241   3.244 -0.1815 -0.5907  0.1854
 6308SOL    HW130557   3.318   4.179   3.261 -1.2383  0.2624 -1.1264
 6308SOL    HW230558   3.350   4.293   3.173  2.4177  1.0988  0.0116
 6309SOL     OW30559   0.923   4.350  10.981 -0.0753 -0.0058  0.4941
 6309SOL    HW130560   0.945   4.439  11.009 -0.9122  0.2203  0.4386
 6309SOL    HW230561   0.883   4.378  10.898 -2.0922 -0.9696  1.1478
 6310SOL     OW30562   3.933   4.271  13.917  0.5262  0.0478 -0.0291
 6310SOL    HW130563   3.867   4.204  13.934  1.4319 -0.6823  0.6110
 6310SOL    HW230564   3.894   4.340  13.970  0.2384  0.7789 -1.1977
 6311SOL     OW30565   4.407   2.859   4.270 -0.3347  0.3346 -0.2217
 6311SOL    HW130566   4.418   2.954   4.274  0.0491  0.1736  2.3557
 6311SOL    HW230567   4.407   2.836   4.363 -1.2461  3.9178  0.6605
 6312SOL     OW30568   2.364   3.865   4.372 -0.5914 -0.1023  0.0926
 6312SOL    HW130569   2.323   3.949   4.393  1.7814  0.5604  2.1018
 6312SOL    HW230570   2.363   3.864   4.276  0.8257  2.4629  0.0500
 6313SOL     OW30571   1.296   3.626   4.538 -0.4267 -0.0340  0.9346
 6313SOL    HW130572   1.236   3.644   4.611 -0.6306 -0.6091  0.9063
 6313SOL    HW230573   1.235   3.602   4.469  0.6131  0.7593 -0.2621
 6314SOL     OW30574   4.370   3.076  12.798  0.4544 -0.2357 -0.1446
 6314SOL    HW130575   4.455   3.036  12.783  0.3252 -1.0880  1.4163
 6314SOL    HW230576   4.400   3.164  12.821 -0.0946  0.0710 -0.5967
 6315SOL     OW30577   2.673   4.428   0.858 -0.3987 -0.0622  0.2440
 6315SOL    HW130578   2.584   4.399   0.838 -0.2156 -0.8238  0.5308
 6315SOL    HW230579   2.727   4.349   0.866 -1.4519 -0.5776  2.1257
 6316SOL     OW30580   1.011   1.048   5.242  0.2160  0.0904  0.1202
 6316SOL    HW130581   1.076   1.017   5.305  0.2182 -1.2707 -0.5524
 6316SOL    HW230582   1.027   0.992   5.166  0.8076 -1.5985  1.5135
 6317SOL     OW30583   1.861   0.654   4.733  0.4701  0.5666  0.5012
 6317SOL    HW130584   1.922   0.611   4.793  1.5721 -1.1209 -1.7787
 6317SOL    HW230585   1.817   0.718   4.788 -1.0686 -0.1418  0.1220
 6318SOL     OW30586   2.647   3.480  14.748 -0.1574 -0.0308  0.1103
 6318SOL    HW130587   2.703   3.468  14.824  0.1695  2.9144  0.3364
 6318SOL    HW230588   2.716   3.498  14.683 -0.8785 -0.4515 -0.7583
 6319SOL     OW30589   4.537   1.857   6.594  0.1087 -0.1138 -0.1442
 6319SOL    HW130590   4.492   1.895   6.519 -0.2551 -0.0589  0.1016
 6319SOL    HW230591   4.517   1.763   6.597 -1.7486  0.3236  1.6539
 6320SOL     OW30592   4.048   4.326   6.945 -0.1732 -0.4914 -0.0436
 6320SOL    HW130593   4.029   4.379   6.868 -1.1850 -0.2380  0.3808
 6320SOL    HW230594   3.973   4.266   6.941  0.3084 -1.0232 -1.2473
 6321SOL     OW30595   1.908   2.797   4.308  0.0577  0.4427 -0.3309
 6321SOL    HW130596   1.981   2.735   4.316 -0.0469  0.5908  1.8001
 6321SOL    HW230597   1.951   2.879   4.285  1.6094  0.2388  1.7427
 6322SOL     OW30598   4.246   2.825   7.740  0.1094 -0.2007 -0.1862
 6322SOL    HW130599   4.189   2.749   7.741 -2.5521  1.8338  0.9179
 6322SOL    HW230600   4.251   2.856   7.830 -3.2245 -0.4358  0.0553
 6323SOL     OW30601   2.703   4.578   0.562  0.3274  0.4166 -0.3469
 6323SOL    HW130602   2.609   4.587   0.573 -0.0553 -2.7977 -0.9962
 6323SOL    HW230603   2.715   4.486   0.537 -0.2381 -0.5558  2.9283
 6324SOL     OW30604   4.000   3.332  13.199  0.5153 -0.0280 -0.0520
 6324SOL    HW130605   4.024   3.296  13.284  0.4812  0.7381  0.2892
 6324SOL    HW230606   3.978   3.418  13.235  0.4205 -1.0070  2.2495
 6325SOL     OW30607   3.418   2.544  11.437 -0.5243 -0.5203 -0.6173
 6325SOL    HW130608   3.480   2.479  11.471  1.2700  0.1751 -2.5565
 6325SOL    HW230609   3.457   2.624  11.472  1.1907 -2.2690  1.5206
 6326SOL     OW30610   3.752   3.322   9.634  0.1314  0.2747 -0.0463
 6326SOL    HW130611   3.820   3.307   9.568 -1.1840 -1.1779 -1.0930
 6326SOL    HW230612   3.717   3.233   9.626 -0.2588  0.4279 -0.0244
 6327SOL     OW30613   1.154   2.496   7.318 -0.3701  0.4826  0.4247
 6327SOL    HW130614   1.115   2.555   7.254  0.0652  2.1351  1.6706
 6327SOL    HW230615   1.173   2.561   7.385  0.0767  0.4723  0.3099
 6328SOL     OW30616   4.169   3.250   1.807  0.1694  0.1745 -0.3157
 6328SOL    HW130617   4.227   3.177   1.827 -1.7671 -1.0700  0.7285
 6328SOL    HW230618   4.105   3.249   1.878 -0.7372  2.4010 -1.0737
 6329SOL     OW30619   0.199   2.469  13.683 -0.2265 -0.1134 -0.5174
 6329SOL    HW130620   0.215   2.379  13.710  1.7223  0.7057  1.1315
 6329SOL    HW230621   0.173   2.508  13.766  1.2401  0.1959 -0.2003
 6330SOL     OW30622   1.952   0.362   5.427 -0.2560  0.0758 -0.0509
 6330SOL    HW130623   1.865   0.360   5.466  0.1434 -0.1076  0.8415
 6330SOL    HW230624   1.966   0.455   5.412 -1.4930  0.6434  2.4233
 6331SOL     OW30625   4.146   2.701   1.189  0.0011 -0.0545  0.3980
 6331SOL    HW130626   4.161   2.733   1.100 -0.9628 -0.8748 -0.0643
 6331SOL    HW230627   4.051   2.701   1.195 -0.1522 -0.8957 -2.1075
 6332SOL     OW30628   2.349   0.730   9.990 -0.2470 -0.0279 -0.4201
 6332SOL    HW130629   2.320   0.686   9.910 -1.7467 -1.5849  0.9891
 6332SOL    HW230630   2.385   0.652  10.032 -2.6177 -0.7939  0.2179
 6333SOL     OW30631   2.022   0.457   4.878  0.1158 -0.2071 -0.1300
 6333SOL    HW130632   2.084   0.484   4.945 -1.7111  0.5299  1.2811
 6333SOL    HW230633   2.078   0.442   4.803  0.7992  1.4729  0.0347
 6334SOL     OW30634   0.728   3.313   0.536 -0.1908 -0.2256 -0.1516
 6334SOL    HW130635   0.658   3.260   0.573  0.6315 -2.3444 -1.6326
 6334SOL    HW230636   0.739   3.375   0.607 -0.8525 -2.1379  1.6047
 6335SOL     OW30637   2.204   2.450  11.419 -0.3654 -0.3084  0.4498
 6335SOL    HW130638   2.245   2.373  11.381  1.1058 -0.7783  2.9987
 6335SOL    HW230639   2.270   2.512  11.451 -0.0800 -2.4790  4.1470
 6336SOL     OW30640   4.509   1.965   7.573  0.3721 -0.1277  0.3811
 6336SOL    HW130641   4.451   1.948   7.647 -0.0204 -2.0287 -0.3692
 6336SOL    HW230642   4.477   2.052   7.549  0.5168 -0.5539 -1.3253
 6337SOL     OW30643   0.623   0.812   6.398 -1.0319 -0.4970  0.2316
 6337SOL    HW130644   0.683   0.878   6.432  0.3599 -1.3299 -0.6119
 6337SOL    HW230645   0.663   0.732   6.433 -0.2653 -0.2085  0.0183
 6338SOL     OW30646   2.153   2.309   2.977 -0.1720 -0.1588 -0.3606
 6338SOL    HW130647   2.133   2.225   3.019 -1.3755  0.4218  0.2394
 6338SOL    HW230648   2.181   2.352   3.058  0.7465 -0.1663 -0.6707
 6339SOL     OW30649   1.268   2.177   3.351 -0.2863  0.2369 -0.0289
 6339SOL    HW130650   1.179   2.146   3.336 -0.1648  0.0108 -0.2874
 6339SOL    HW230651   1.271   2.208   3.441  0.3495 -2.1429  0.7618
 6340SOL     OW30652   1.604   1.611   2.918 -0.5537 -0.0457  0.0107
 6340SOL    HW130653   1.646   1.539   2.967 -3.1143 -1.6792 -0.1955
 6340SOL    HW230654   1.510   1.600   2.934 -0.3335 -1.7977  0.1006
 6341SOL     OW30655   3.422   1.701  11.170 -0.3697 -0.2452 -0.5794
 6341SOL    HW130656   3.468   1.640  11.227 -0.1256  1.0007  0.5633
 6341SOL    HW230657   3.492   1.762  11.148  0.9855 -1.3258  0.7739
 6342SOL     OW30658   1.280   1.907   3.991  0.3852  0.1435 -0.1324
 6342SOL    HW130659   1.370   1.901   4.023  0.1736 -0.0638  0.4362
 6342SOL    HW230660   1.268   1.812   3.987 -0.1210  0.2048 -0.0541
 6343SOL     OW30661   2.115   1.112   3.427  0.0760  0.1388  0.4029
 6343SOL    HW130662   2.069   1.050   3.483 -0.2543  0.0269  0.0086
 6343SOL    HW230663   2.190   1.125   3.484  0.1752  1.5086 -0.0399
 6344SOL     OW30664   0.665   1.463   2.754 -0.1702  0.1115  1.0555
 6344SOL    HW130665   0.601   1.395   2.775 -0.6255  0.0768 -0.4581
 6344SOL    HW230666   0.738   1.446   2.814  0.5258  0.0049  0.1752
 6345SOL     OW30667   4.472   0.910  12.596  0.1388  0.3617 -0.1161
 6345SOL    HW130668   4.516   0.993  12.618  3.7785 -2.3980  2.9349
 6345SOL    HW230669   4.441   0.875  12.679 -1.2822 -0.1777 -0.8840
 6346SOL     OW30670   1.233   3.333   4.801 -0.0546  0.6491 -0.2217
 6346SOL    HW130671   1.297   3.279   4.754 -0.1467  0.2892  0.0638
 6346SOL    HW230672   1.255   3.422   4.772  0.2330  1.0646  1.2497
 6347SOL     OW30673   0.635   0.710   3.948 -0.3790  0.2730 -0.0401
 6347SOL    HW130674   0.697   0.730   3.878  0.2486 -0.2552  0.3653
 6347SOL    HW230675   0.649   0.775   4.016 -0.0597 -0.4256  0.5596
 6348SOL     OW30676   1.920   1.543   2.653  0.3197 -1.0045 -0.4326
 6348SOL    HW130677   1.972   1.606   2.703 -1.7212  1.1588 -0.9854
 6348SOL    HW230678   1.913   1.592   2.571 -1.7941 -1.3231 -0.4522
 6349SOL     OW30679   3.826   1.525  12.738 -0.8274 -0.3139  0.3556
 6349SOL    HW130680   3.740   1.563  12.758 -1.5182 -0.5599 -2.1680
 6349SOL    HW230681   3.857   1.544  12.826 -2.4738  0.1249  0.8485
 6350SOL     OW30682   0.130   2.372   5.479  0.1795 -0.1898 -0.6767
 6350SOL    HW130683   0.179   2.391   5.559 -2.3895  3.1270  0.0766
 6350SOL    HW230684   0.094   2.287   5.504  0.7219  0.6764  3.1017
 6351SOL     OW30685   1.587   4.597  16.976  0.0076 -0.4430 -0.0072
 6351SOL    HW130686   1.662   4.620  16.921 -0.5078 -0.7655 -0.8461
 6351SOL    HW230687   1.631   4.614  17.059  1.9945 -0.4642 -1.0625
 6352SOL     OW30688   0.164   2.484  11.088  0.1023  0.6562  0.0385
 6352SOL    HW130689   0.144   2.557  11.030 -0.1869  0.2077 -0.4239
 6352SOL    HW230690   0.101   2.512  11.153  1.1613 -0.2615  1.4715
 6353SOL     OW30691   0.914   0.879   1.708 -0.4334  0.1863  0.8016
 6353SOL    HW130692   0.927   0.790   1.741 -0.6569 -0.2456 -0.2849
 6353SOL    HW230693   0.985   0.881   1.645 -1.2219  0.4105 -0.0769
 6354SOL     OW30694   2.803   1.025   7.695  0.0705 -0.4383  0.1347
 6354SOL    HW130695   2.854   1.059   7.769  2.1933  0.5231 -1.7562
 6354SOL    HW230696   2.799   0.930   7.706  0.7841 -0.0907  3.3840
 6355SOL     OW30697   3.281   3.211  16.747 -0.1138  0.2577 -0.4162
 6355SOL    HW130698   3.227   3.246  16.818  1.6201  1.6572  0.2254
 6355SOL    HW230699   3.361   3.261  16.764 -0.2973 -0.1761  1.7736
 6356SOL     OW30700   1.001   0.776  16.668  0.2037 -0.1953  0.4660
 6356SOL    HW130701   1.052   0.769  16.588 -1.3412 -1.9037 -0.3749
 6356SOL    HW230702   0.919   0.811  16.632 -1.9988 -2.8961  2.8785
 6357SOL     OW30703   1.612   3.587   4.051 -0.3996 -0.5668  0.0957
 6357SOL    HW130704   1.682   3.623   4.105  1.8376 -3.2851 -0.9817
 6357SOL    HW230705   1.633   3.622   3.963 -1.6132 -2.1667 -0.8152
 6358SOL     OW30706   2.132   3.639  12.358 -1.0964  0.4025  0.1477
 6358SOL    HW130707   2.124   3.566  12.296  0.3187 -1.3397  2.0370
 6358SOL    HW230708   2.125   3.578  12.432  0.4899  0.1483  0.0808
 6359SOL     OW30709   1.970   0.179   3.305  0.5073  0.0911  0.0855
 6359SOL    HW130710   1.963   0.224   3.389  1.4699  2.0905 -0.9051
 6359SOL    HW230711   1.973   0.257   3.250  3.1185 -1.1196 -1.5263
 6360SOL     OW30712   3.297   2.651  14.851 -0.4195  0.7429  0.1243
 6360SOL    HW130713   3.365   2.691  14.904  1.7256 -1.1343 -1.2296
 6360SOL    HW230714   3.229   2.719  14.853 -1.0107  0.2006 -1.1788
 6361SOL     OW30715   3.501   3.196   8.992 -0.4877  0.1620  0.3330
 6361SOL    HW130716   3.460   3.118   9.029  2.3958 -0.6166  1.9127
 6361SOL    HW230717   3.436   3.229   8.930 -2.1486 -0.6203  1.6702
 6362SOL     OW30718   1.525   2.282   6.816  0.1496 -0.2650 -0.0745
 6362SOL    HW130719   1.557   2.371   6.799  3.0462 -1.9506 -3.3286
 6362SOL    HW230720   1.550   2.262   6.906  3.0085  2.2669 -0.2921
 6363SOL     OW30721   2.158   0.278   1.887  0.1141 -0.1958  0.0747
 6363SOL    HW130722   2.090   0.342   1.864 -0.1705 -0.6729 -0.4256
 6363SOL    HW230723   2.155   0.211   1.818 -0.9042  2.3910 -2.3827
 6364SOL     OW30724   1.057   0.259   4.831 -0.0467 -0.1680 -0.5767
 6364SOL    HW130725   1.091   0.343   4.861 -2.9717  0.4156  1.0544
 6364SOL    HW230726   1.033   0.273   4.739  1.5699 -0.4187 -1.0277
 6365SOL     OW30727   4.473   2.190  12.635  0.7213  0.4380 -0.0536
 6365SOL    HW130728   4.386   2.196  12.675  1.0338 -4.3372  1.4156
 6365SOL    HW230729   4.462   2.269  12.582  1.6699  0.3775 -0.3295
 6366SOL     OW30730   4.059   4.590  16.653 -0.2089 -0.1405 -0.5706
 6366SOL    HW130731   4.126   4.634  16.601  0.1252  1.1027  0.9023
 6366SOL    HW230732   4.047   4.507  16.607  2.1689 -1.6276  1.4842
 6367SOL     OW30733   0.141   2.551   8.735  0.1886  0.1546 -0.3156
 6367SOL    HW130734   0.229   2.575   8.765  0.2558 -1.0047  0.4044
 6367SOL    HW230735   0.115   2.636   8.700 -0.0771 -0.0082 -0.5119
 6368SOL     OW30736   3.258   4.572   1.023  0.2144  0.1628 -0.5823
 6368SOL    HW130737   3.223   4.618   1.099  0.1556  1.4972 -1.4095
 6368SOL    HW230738   3.305   4.642   0.978 -2.6849  2.5506  0.1557
 6369SOL     OW30739   2.027   3.884   8.467 -0.3867 -0.0474 -0.0464
 6369SOL    HW130740   2.020   3.876   8.372  0.2563 -0.6677 -0.0371
 6369SOL    HW230741   2.112   3.927   8.476 -1.2074  0.9323  3.0475
 6370SOL     OW30742   4.670   0.317  11.799  0.0687 -0.5758  0.1818
 6370SOL    HW130743   4.640   0.377  11.731 -0.5464  0.8037  1.6395
 6370SOL    HW230744   0.010   0.275  11.760  0.0007 -0.7972  0.2865
 6371SOL     OW30745   3.361   3.424   3.364  0.4600  0.3181 -0.1597
 6371SOL    HW130746   3.295   3.424   3.295  1.4388 -0.0323 -1.0940
 6371SOL    HW230747   3.431   3.451   3.305 -1.2537 -0.4629 -2.5353
 6372SOL     OW30748   4.121   3.459  10.589  0.5939  0.0033  0.1095
 6372SOL    HW130749   4.071   3.539  10.575 -2.3486 -1.6859  1.1793
 6372SOL    HW230750   4.111   3.436  10.681  0.3654 -1.1966 -0.2089
 6373SOL     OW30751   0.048   4.331   6.032  0.6835  0.2985  0.1264
 6373SOL    HW130752   4.711   4.390   6.052  0.8024  0.9858 -1.4128
 6373SOL    HW230753   0.053   4.291   6.118 -0.4700 -0.7150 -0.2792
 6374SOL     OW30754   1.276   3.611   7.455  0.0494 -0.1613  0.2718
 6374SOL    HW130755   1.349   3.645   7.506  1.1962 -1.1824 -0.6951
 6374SOL    HW230756   1.203   3.642   7.509  1.1301  0.1834  1.5221
 6375SOL     OW30757   3.276   2.719   3.776  0.9050  0.2736 -0.7814
 6375SOL    HW130758   3.352   2.722   3.835  0.3274  0.4896 -0.0383
 6375SOL    HW230759   3.245   2.629   3.790 -0.4073  1.0554  1.3909
 6376SOL     OW30760   0.947   0.171   4.146  0.0479 -0.0848 -0.3955
 6376SOL    HW130761   0.963   0.165   4.240 -0.5979 -1.3460 -0.3706
 6376SOL    HW230762   0.910   0.087   4.120 -0.9878  1.3516 -3.5967
 6377SOL     OW30763   3.025   3.804   9.543 -0.0624 -0.7443  0.4369
 6377SOL    HW130764   3.049   3.711   9.552 -1.0627 -1.1180 -0.7698
 6377SOL    HW230765   3.098   3.837   9.596 -3.0872  1.6324  3.0616
 6378SOL     OW30766   2.707   0.141   5.286 -0.6109  0.0789  0.0931
 6378SOL    HW130767   2.744   0.122   5.372 -1.7528  1.4522  0.8953
 6378SOL    HW230768   2.783   0.117   5.233 -0.9364 -1.3622  0.2624
 6379SOL     OW30769   2.603   3.938   2.947 -0.4182  0.0550 -0.0187
 6379SOL    HW130770   2.534   3.872   2.937 -1.2745  0.9789 -0.1339
 6379SOL    HW230771   2.558   4.021   2.933  1.7844  1.4597  1.0407
 6380SOL     OW30772   1.060   0.809   9.333  0.3781 -0.3419 -0.1035
 6380SOL    HW130773   1.086   0.728   9.376 -1.1518 -0.7285  0.0873
 6380SOL    HW230774   0.996   0.844   9.396  2.2627  0.3533  1.4329
 6381SOL     OW30775   4.469   1.773  14.227 -0.1591 -0.0505  0.1564
 6381SOL    HW130776   4.497   1.850  14.276 -0.1837  0.0147  0.0676
 6381SOL    HW230777   4.513   1.707  14.280  0.6153  0.1268 -0.2783
 6382SOL     OW30778   2.046   1.028   5.114  0.0061  0.3309  0.5344
 6382SOL    HW130779   2.058   0.944   5.158  0.0597 -0.6943 -1.4216
 6382SOL    HW230780   2.080   1.089   5.180  1.0485  0.3977 -0.0660
 6383SOL     OW30781   2.442   0.263   2.243 -0.1128 -0.8389 -0.3706
 6383SOL    HW130782   2.368   0.244   2.185  0.5913  0.8933 -1.8192
 6383SOL    HW230783   2.505   0.194   2.222  0.9746 -0.4063  1.4883
 6384SOL     OW30784   4.313   1.248  10.092 -0.8171  0.5227 -0.0749
 6384SOL    HW130785   4.352   1.164  10.071  0.3162  1.2889 -1.0767
 6384SOL    HW230786   4.371   1.294  10.152  2.4257 -0.7386 -2.2252
 6385SOL     OW30787   0.299   1.689   3.176 -0.4718  0.8221 -0.5856
 6385SOL    HW130788   0.361   1.762   3.175  0.4049  0.0660 -2.1009
 6385SOL    HW230789   0.216   1.736   3.181 -1.1153 -0.2026 -1.5327
 6386SOL     OW30790   3.413   2.225   2.137 -0.1064 -0.0956 -0.2644
 6386SOL    HW130791   3.502   2.241   2.105  0.0573 -1.0132 -0.2770
 6386SOL    HW230792   3.436   2.142   2.181 -1.3368  0.6445  1.7467
 6387SOL     OW30793   1.906   2.374   7.259 -0.4967  0.7371  1.1165
 6387SOL    HW130794   1.894   2.415   7.174 -0.1636  0.0059  0.7190
 6387SOL    HW230795   1.908   2.450   7.317 -0.1006  2.3943 -1.1099
 6388SOL     OW30796   3.766   3.219   7.405  0.4965  0.1294  0.1786
 6388SOL    HW130797   3.832   3.262   7.459 -0.0268 -1.0625  1.7687
 6388SOL    HW230798   3.808   3.177   7.329 -0.4904  1.4396 -1.0941
 6389SOL     OW30799   2.732   0.789   2.970  0.8295  0.0593  0.4158
 6389SOL    HW130800   2.809   0.815   2.920 -0.1551  0.0133 -1.1225
 6389SOL    HW230801   2.673   0.858   2.937  1.3786  0.8928  1.1899
 6390SOL     OW30802   0.639   2.712  14.235 -0.3061 -0.2225  0.1140
 6390SOL    HW130803   0.581   2.647  14.196  0.7025  0.0932 -1.9093
 6390SOL    HW230804   0.582   2.789  14.240  0.7295  0.5134  0.7095
 6391SOL     OW30805   4.570   0.260  11.421  0.2768 -0.2365 -0.0599
 6391SOL    HW130806   4.617   0.182  11.451  0.5401 -0.4511 -1.0276
 6391SOL    HW230807   4.490   0.221  11.386  0.8203 -1.3811 -0.0189
 6392SOL     OW30808   4.404   4.687   1.765  0.1519  0.1605 -0.3185
 6392SOL    HW130809   4.334   4.621   1.769  0.0435  0.3140  0.2946
 6392SOL    HW230810   4.359   0.031   1.792 -0.3815  0.8306 -3.2238
 6393SOL     OW30811   3.334   3.128   3.113 -0.1190 -0.2354 -0.0094
 6393SOL    HW130812   3.353   3.059   3.177  2.2609  0.8713  0.4955
 6393SOL    HW230813   3.271   3.187   3.154 -0.0446  0.5323 -0.9999
 6394SOL     OW30814   3.996   3.268  13.452 -0.0094 -0.2600 -0.7428
 6394SOL    HW130815   3.946   3.307  13.524 -0.1587 -1.1476 -0.3687
 6394SOL    HW230816   4.070   3.237  13.505  0.0877 -0.2769 -0.8863
 6395SOL     OW30817   1.576   4.125   7.780 -0.1280  0.1680  0.2163
 6395SOL    HW130818   1.610   4.057   7.838 -0.4735 -2.1256 -2.2201
 6395SOL    HW230819   1.529   4.069   7.717  1.5410 -0.2486 -0.6706
 6396SOL     OW30820   1.099   4.369  10.032  0.1465 -0.2055 -0.2040
 6396SOL    HW130821   1.069   4.288  10.075  2.7702 -1.2518 -0.3766
 6396SOL    HW230822   1.023   4.387   9.977 -1.4926 -0.6263  1.8945
 6397SOL     OW30823   3.610   0.463  11.490 -0.1594  0.4282 -0.7468
 6397SOL    HW130824   3.680   0.523  11.518 -0.7424  0.6694  0.1951
 6397SOL    HW230825   3.543   0.510  11.540  1.3572  1.4230  0.3909
 6398SOL     OW30826   0.806   3.468   1.908 -0.0793  0.0760  0.1885
 6398SOL    HW130827   0.890   3.514   1.909  0.0960 -0.3635  3.2946
 6398SOL    HW230828   0.844   3.387   1.875 -0.1734  0.0392  0.1702
 6399SOL     OW30829   1.548   1.912  12.421 -0.8177  0.2202  0.0196
 6399SOL    HW130830   1.595   1.872  12.347  0.1969  0.4976  0.5068
 6399SOL    HW230831   1.617   1.964  12.462  0.6339  1.0397 -3.4077
 6400SOL     OW30832   2.479   3.753   7.474 -0.1187 -0.1911  0.3807
 6400SOL    HW130833   2.537   3.811   7.523  0.9786 -1.7740  0.9446
 6400SOL    HW230834   2.538   3.699   7.421  0.1457 -0.7310  1.2286
 6401SOL     OW30835   2.345   2.886   4.857 -0.0542 -0.0542  0.3063
 6401SOL    HW130836   2.373   2.864   4.946  2.7034  1.6190 -0.1680
 6401SOL    HW230837   2.266   2.833   4.849  0.4194 -0.6798 -0.2330
 6402SOL     OW30838   0.661   4.317   6.619  0.5881 -0.5389 -0.0442
 6402SOL    HW130839   0.738   4.305   6.675  0.6453 -1.8403 -0.3984
 6402SOL    HW230840   0.701   4.365   6.545 -0.4602  0.3091 -0.0576
 6403SOL     OW30841   2.924   0.938   9.850  0.3162 -0.3541  0.0499
 6403SOL    HW130842   3.006   0.938   9.801 -0.5081 -1.0702 -1.3003
 6403SOL    HW230843   2.932   1.010   9.913 -0.9191 -1.3854  1.3698
 6404SOL     OW30844   3.813   2.036   1.040 -0.4368 -0.1942  0.3475
 6404SOL    HW130845   3.885   2.092   1.070  0.3897 -0.4519 -1.1397
 6404SOL    HW230846   3.741   2.056   1.099  0.7694  4.0192  0.3827
 6405SOL     OW30847   2.944   4.644   3.362 -0.7492 -0.0199  0.1157
 6405SOL    HW130848   2.937   4.667   3.269 -1.5334 -0.0098  0.1788
 6405SOL    HW230849   2.853   4.669   3.378 -0.2775  2.1126 -0.5069
 6406SOL     OW30850   0.234   0.083   7.471 -0.0148  0.1945  0.2075
 6406SOL    HW130851   0.216   0.175   7.493 -1.3364 -0.0409  0.0778
 6406SOL    HW230852   0.198   0.042   7.549  0.4401  0.2242  0.4362
 6407SOL     OW30853   1.039   0.925  13.378 -0.3357 -0.3906 -0.7291
 6407SOL    HW130854   1.055   0.882  13.293 -2.1581  0.8466 -1.6979
 6407SOL    HW230855   1.055   1.015  13.352  1.3029 -0.9085 -1.4759
 6408SOL     OW30856   0.074   0.851   2.624  0.5447 -0.1772  0.1871
 6408SOL    HW130857   0.167   0.830   2.613  0.8902  0.4609  1.9762
 6408SOL    HW230858   0.079   0.944   2.646  2.5218 -0.1757 -0.2370
 6409SOL     OW30859   0.348   3.557   4.449  0.4880 -0.2510  0.3474
 6409SOL    HW130860   0.295   3.617   4.397  1.2613  1.3853  1.4489
 6409SOL    HW230861   0.364   3.612   4.526  0.0435 -2.7851  2.2599
 6410SOL     OW30862   1.428   0.186   1.709  0.0427  0.1764 -0.1200
 6410SOL    HW130863   1.521   0.182   1.687  0.7358 -0.8428  2.9596
 6410SOL    HW230864   1.405   0.277   1.690 -0.3094 -0.1091 -1.0465
 6411SOL     OW30865   4.027   1.490   2.884 -0.8678 -0.2228  0.1510
 6411SOL    HW130866   3.953   1.493   2.823  0.2372  2.1703 -1.1004
 6411SOL    HW230867   3.998   1.420   2.942  0.4259 -1.1880 -0.3615
 6412SOL     OW30868   4.370   3.861   3.314 -0.3375  0.2324  0.3451
 6412SOL    HW130869   4.333   3.790   3.366 -1.7701 -0.1392 -1.1949
 6412SOL    HW230870   4.445   3.880   3.371 -0.2834 -1.1073  0.7301
 6413SOL     OW30871   2.178   2.867  13.156  0.0331 -0.3342  0.2253
 6413SOL    HW130872   2.106   2.812  13.187  1.0837 -2.4052 -1.0271
 6413SOL    HW230873   2.222   2.825  13.082  0.1014  1.6253 -0.8527
 6414SOL     OW30874   2.545   2.201  10.810 -0.9876 -0.4321 -0.7741
 6414SOL    HW130875   2.596   2.252  10.748  0.1031 -0.9094 -0.2734
 6414SOL    HW230876   2.457   2.237  10.799 -0.6541  0.3872 -0.7726
 6415SOL     OW30877   4.705   2.135   3.644  0.4379 -0.0732 -0.0816
 6415SOL    HW130878   4.669   2.135   3.556 -0.0681 -1.0364  0.1136
 6415SOL    HW230879   4.673   2.220   3.675  1.2775 -0.3579  1.5936
 6416SOL     OW30880   2.719   0.570  17.273 -0.4227 -0.4606 -0.3451
 6416SOL    HW130881   2.772   0.617  17.208 -0.1725  2.7490  2.1667
 6416SOL    HW230882   2.645   0.630  17.286  1.5640  1.8178  0.5094
 6417SOL     OW30883   4.631   2.395   8.277  0.2333  0.7061 -0.1148
 6417SOL    HW130884   4.601   2.305   8.288  0.6291  0.4879 -0.8162
 6417SOL    HW230885   4.683   2.419   8.354  0.6379  2.0686 -0.8156
 6418SOL     OW30886   0.384   4.424   1.337 -0.3604  0.4162  0.2647
 6418SOL    HW130887   0.432   4.485   1.282 -0.3078 -0.3047 -0.4908
 6418SOL    HW230888   0.443   4.403   1.410 -1.3971 -1.8226  0.4910
 6419SOL     OW30889   1.995   1.868  10.277  0.0440 -0.0305 -0.0273
 6419SOL    HW130890   2.014   1.853  10.184 -0.3094  2.2562 -0.4617
 6419SOL    HW230891   2.030   1.782  10.299  0.2400 -0.2155 -1.0666
 6420SOL     OW30892   3.821   3.230   4.993  1.0278  0.0931  0.3240
 6420SOL    HW130893   3.840   3.153   5.047  2.2833 -0.0260 -0.2950
 6420SOL    HW230894   3.734   3.256   5.022  1.5649  0.7181  1.3528
 6421SOL     OW30895   4.275   3.759   4.143 -0.2984  0.0790  0.4811
 6421SOL    HW130896   4.272   3.735   4.236  1.1609  0.1017  0.5386
 6421SOL    HW230897   4.351   3.706   4.119 -1.3127 -0.1307 -2.2425
 6422SOL     OW30898   3.291   2.755  10.784 -0.0698  0.8155 -0.4991
 6422SOL    HW130899   3.231   2.740  10.856 -1.1640  1.2711 -1.3135
 6422SOL    HW230900   3.348   2.678  10.783  0.6307  1.2835  2.5964
 6423SOL     OW30901   1.454   4.224   2.514 -0.1310 -0.1331  0.3495
 6423SOL    HW130902   1.519   4.169   2.558  1.2631  1.5583  0.4014
 6423SOL    HW230903   1.510   4.244   2.440  1.3639 -1.1477  1.2125
 6424SOL     OW30904   2.542   2.972   8.975 -0.2369 -0.6379  0.0060
 6424SOL    HW130905   2.510   3.063   8.975  1.5293  0.0001 -2.2720
 6424SOL    HW230906   2.538   2.948   8.882 -0.3174 -0.5639 -0.0103
 6425SOL     OW30907   4.235   3.297   3.175 -0.0604 -0.2182  0.1982
 6425SOL    HW130908   4.204   3.296   3.266 -1.4613 -1.4359 -0.2996
 6425SOL    HW230909   4.175   3.368   3.152 -0.8182 -1.5953 -2.0859
 6426SOL     OW30910   1.896   3.223  12.929 -0.5227 -0.0947 -0.1910
 6426SOL    HW130911   1.907   3.314  12.956  0.2066 -0.1112 -0.4411
 6426SOL    HW230912   1.802   3.217  12.947 -0.7771  1.7956 -0.9056
 6427SOL     OW30913   1.274   4.094   8.426  0.2598  0.2134  0.2832
 6427SOL    HW130914   1.322   4.176   8.431  1.7665 -0.8816  3.5055
 6427SOL    HW230915   1.188   4.129   8.405  0.4547 -0.4283 -1.5905
 6428SOL     OW30916   2.389   2.992   5.800  0.7104  0.0337 -0.3851
 6428SOL    HW130917   2.367   3.018   5.710 -0.2149 -1.6617 -0.6474
 6428SOL    HW230918   2.346   2.906   5.801 -2.0035  1.3743 -0.6108
 6429SOL     OW30919   3.978   2.747  14.880  0.1720  1.2899 -0.2634
 6429SOL    HW130920   3.919   2.673  14.868  2.4380  0.0775 -4.0578
 6429SOL    HW230921   4.017   2.751  14.793  1.5561  0.9058  0.3527
 6430SOL     OW30922   3.205   4.723   5.158 -0.0376  0.9120 -0.6432
 6430SOL    HW130923   3.115   0.012   5.139 -0.8542 -1.6644 -0.1285
 6430SOL    HW230924   3.256   0.056   5.115 -0.8422 -0.0877 -3.1766
 6431SOL     OW30925   3.131   1.315   9.168 -0.0562  0.2036 -0.3631
 6431SOL    HW130926   3.089   1.299   9.083 -0.6512  1.5401 -0.3241
 6431SOL    HW230927   3.149   1.408   9.153 -2.2867  0.2348 -2.7623
 6432SOL     OW30928   4.168   4.045  14.768 -0.3838 -0.4766 -0.1077
 6432SOL    HW130929   4.178   4.138  14.789  0.9498 -0.9387  1.3649
 6432SOL    HW230930   4.097   4.024  14.829 -0.0732 -0.0442  0.4057
 6433SOL     OW30931   3.118   1.122  14.946 -0.1218 -0.4145 -0.3865
 6433SOL    HW130932   3.108   1.071  14.865 -0.4720  1.8760 -1.7714
 6433SOL    HW230933   3.170   1.192  14.907 -0.7231  0.4545  0.3895
 6434SOL     OW30934   2.475   0.231   9.108  0.3588  0.1296 -0.1956
 6434SOL    HW130935   2.440   0.163   9.051  1.8295 -1.1924  0.4931
 6434SOL    HW230936   2.400   0.285   9.133 -0.0163  0.0301 -1.1040
 6435SOL     OW30937   2.148   0.694  10.228 -0.3690 -0.0173  0.5004
 6435SOL    HW130938   2.225   0.655  10.188 -0.4083  0.2856  0.1284
 6435SOL    HW230939   2.072   0.640  10.206  0.2413 -0.3279 -0.8172
 6436SOL     OW30940   4.441   1.355   3.146 -0.1687  0.0770  0.1689
 6436SOL    HW130941   4.347   1.341   3.162  0.1419 -0.9955  1.0558
 6436SOL    HW230942   4.429   1.431   3.090  0.1810 -1.6547 -2.2279
 6437SOL     OW30943   3.896   3.962  17.550 -0.2354 -0.1208 -0.5033
 6437SOL    HW130944   3.938   3.885  17.512 -1.4626 -1.4589  0.8628
 6437SOL    HW230945   3.813   3.921  17.575  0.7582 -1.5789  0.4445
 6438SOL     OW30946   4.178   4.546   5.068  1.0989  0.4398  0.5131
 6438SOL    HW130947   4.113   4.603   5.109  0.2124  0.6729 -1.2216
 6438SOL    HW230948   4.148   4.550   4.977  0.0760  0.0757  0.8371
 6439SOL     OW30949   1.361   2.348   7.085 -0.3769  0.0872  0.4547
 6439SOL    HW130950   1.390   2.262   7.117 -0.5111 -1.6111 -3.9706
 6439SOL    HW230951   1.266   2.351   7.077 -0.2425  0.9906 -0.8897
 6440SOL     OW30952   3.646   3.377   5.166  0.3803  0.0509 -0.1332
 6440SOL    HW130953   3.573   3.331   5.207  0.9953 -2.3042 -1.7116
 6440SOL    HW230954   3.587   3.431   5.113 -1.2326 -1.5006  0.0609
 6441SOL     OW30955   2.043   2.984   6.563 -0.5970  0.4221 -0.5631
 6441SOL    HW130956   2.113   3.036   6.602 -1.0325  0.7968 -0.2848
 6441SOL    HW230957   2.066   3.005   6.472  2.1367  2.5391  0.5907
 6442SOL     OW30958   2.492   4.237   1.558 -0.0767 -0.1978 -0.2869
 6442SOL    HW130959   2.459   4.326   1.540 -0.3642 -0.2967 -0.2488
 6442SOL    HW230960   2.519   4.210   1.470  1.7223 -1.0192  0.5297
 6443SOL     OW30961   0.449   2.973   4.721 -0.2848 -0.2087  0.0102
 6443SOL    HW130962   0.387   2.920   4.770 -0.9151 -1.1203 -1.7796
 6443SOL    HW230963   0.417   2.939   4.638 -2.0580  0.2344  0.5109
 6444SOL     OW30964   1.504   3.946  17.545  0.4393  0.3301 -0.1862
 6444SOL    HW130965   1.454   3.874  17.583  0.9300 -1.1592 -2.3518
 6444SOL    HW230966   1.559   3.898  17.483  1.1942  1.3865 -0.3390
 6445SOL     OW30967   0.034   4.694  17.464 -0.2048 -0.1484  0.2282
 6445SOL    HW130968   0.091   0.015  17.412 -1.1702 -0.6974 -1.4372
 6445SOL    HW230969   0.086   4.693  17.544 -3.2410  1.8823  2.2437
 6446SOL     OW30970   2.538   2.569  15.337  0.0328 -0.2767 -0.1916
 6446SOL    HW130971   2.516   2.643  15.393  1.6280 -0.0815  0.1506
 6446SOL    HW230972   2.580   2.511  15.400  0.8027  0.3492 -0.1376
 6447SOL     OW30973   4.575   0.654   5.315 -0.2235 -0.2364 -0.0919
 6447SOL    HW130974   4.637   0.705   5.367  1.8356 -1.8121 -1.0077
 6447SOL    HW230975   4.513   0.627   5.382 -1.1564 -1.4220 -1.4525
 6448SOL     OW30976   4.096   1.853   7.572 -0.0051 -0.0484 -0.0788
 6448SOL    HW130977   4.063   1.921   7.513  0.3232  3.0304  3.2365
 6448SOL    HW230978   4.175   1.899   7.601  0.5982 -2.2437  1.7487
 6449SOL     OW30979   0.776   1.159  13.904  0.1399 -0.4113 -0.0886
 6449SOL    HW130980   0.750   1.095  13.971  0.7009  0.2364  0.7558
 6449SOL    HW230981   0.711   1.140  13.836 -1.5467  0.7080  1.2004
 6450SOL     OW30982   3.733   2.136   6.391  0.1422 -0.4907  0.0037
 6450SOL    HW130983   3.819   2.144   6.349 -1.5145 -0.2899 -3.3653
 6450SOL    HW230984   3.743   2.043   6.414 -0.6050 -0.6781 -0.4362
 6451SOL     OW30985   3.007   0.273  17.357  0.7617  0.5194 -0.3381
 6451SOL    HW130986   3.081   0.214  17.355  0.1193 -0.3127  0.2413
 6451SOL    HW230987   3.025   0.310  17.444  0.0914 -4.0979  1.7293
 6452SOL     OW30988   0.946   4.037   2.251 -0.0103  0.3735 -0.6751
 6452SOL    HW130989   0.855   4.016   2.272  0.0663  1.7677  1.0385
 6452SOL    HW230990   1.004   3.995   2.313  1.1677  1.4201 -1.0593
 6453SOL     OW30991   0.912   4.266   6.759 -0.1807  0.0786  0.1303
 6453SOL    HW130992   0.859   4.240   6.834  0.2460 -1.5450 -0.1394
 6453SOL    HW230993   1.003   4.249   6.783  0.5586  0.3450 -2.4170
 6454SOL     OW30994   4.156   3.936   8.171 -0.5558 -0.1485  1.1322
 6454SOL    HW130995   4.199   3.908   8.090  1.6506 -2.7547  3.1827
 6454SOL    HW230996   4.073   3.893   8.154 -0.5285  1.1090 -2.0648
 6455SOL     OW30997   3.707   1.425  16.810 -0.3422  0.6805 -0.1319
 6455SOL    HW130998   3.680   1.467  16.891 -1.0745  0.1412 -0.0909
 6455SOL    HW230999   3.626   1.422  16.759  1.5236  1.2337 -3.1498
 6456SOL     OW31000   0.777   3.094   6.662 -0.3257 -0.2767 -0.0400
 6456SOL    HW131001   0.712   3.164   6.657 -0.3621 -0.2768  0.4449
 6456SOL    HW231002   0.714   3.024   6.642  1.2224 -1.2976 -1.3387
 6457SOL     OW31003   0.868   1.445   6.059 -0.4405 -0.2196  0.2298
 6457SOL    HW131004   0.813   1.386   6.007  0.0409 -0.7916  0.3773
 6457SOL    HW231005   0.894   1.386   6.129  2.8095  0.4188 -0.4583
 6458SOL     OW31006   3.592   1.280   7.000  1.1233  0.2063 -0.0826
 6458SOL    HW131007   3.635   1.357   6.962  0.2261  0.1500 -1.2187
 6458SOL    HW231008   3.550   1.314   7.079 -1.2975 -2.6250 -0.1518
 6459SOL     OW31009   3.573   0.399   1.723  0.4246 -0.0286 -0.0404
 6459SOL    HW131010   3.557   0.404   1.817  1.1063 -0.5714  0.1054
 6459SOL    HW231011   3.589   0.305   1.719 -2.1976 -0.4348 -0.5919
 6460SOL     OW31012   3.558   1.082  17.640 -0.0454 -0.1761 -0.2316
 6460SOL    HW131013   3.560   1.170  17.680 -1.2827 -0.7551  1.0771
 6460SOL    HW231014   3.644   1.054  17.672  0.7469 -0.5434 -2.6962
 6461SOL     OW31015   4.204   4.090   7.367  0.3225 -0.6621  0.7878
 6461SOL    HW131016   4.205   4.172   7.318 -0.0530 -1.3100 -0.3001
 6461SOL    HW231017   4.116   4.064   7.339  0.2419 -0.7086  1.0829
 6462SOL     OW31018   1.482   4.186  14.323 -0.3742 -0.8462  0.2726
 6462SOL    HW131019   1.462   4.166  14.414  0.8771  0.6369  0.8550
 6462SOL    HW231020   1.559   4.241  14.335 -1.8536  1.4415 -0.6338
 6463SOL     OW31021   0.632   2.908   4.263 -0.3962 -0.0547 -0.4031
 6463SOL    HW131022   0.591   2.830   4.226  1.3911 -0.3204 -1.8054
 6463SOL    HW231023   0.667   2.927   4.176 -1.1514  0.4809 -0.5842
 6464SOL     OW31024   4.607   3.788   5.698  0.0075 -0.6585  0.3454
 6464SOL    HW131025   4.620   3.848   5.625 -1.6261 -1.2414 -0.4370
 6464SOL    HW231026   4.627   3.851   5.767 -0.3792 -0.8377  0.6243
 6465SOL     OW31027   3.051   0.704   3.090  0.4922 -0.1112  0.1378
 6465SOL    HW131028   3.002   0.769   3.140 -0.3769  1.4638 -2.7959
 6465SOL    HW231029   3.103   0.758   3.031 -0.1154  1.2253  0.8279
 6466SOL     OW31030   0.735   4.551  11.741 -0.3542  0.0258 -0.0483
 6466SOL    HW131031   0.736   4.596  11.656 -1.9582  3.9709  2.0302
 6466SOL    HW231032   0.653   4.588  11.775 -0.4935  0.3467 -0.7195
 6467SOL     OW31033   3.440   3.924   0.660  0.1797 -0.1891  0.3572
 6467SOL    HW131034   3.398   3.847   0.621 -0.5773 -0.5678  1.9339
 6467SOL    HW231035   3.441   3.979   0.582  0.3097 -0.6459  0.0328
 6468SOL     OW31036   3.184   1.038   4.913  0.3252  0.4577 -0.4007
 6468SOL    HW131037   3.223   1.094   4.845  0.1878  1.0341 -0.0052
 6468SOL    HW231038   3.257   1.019   4.973  1.4968 -0.7929 -2.2253
 6469SOL     OW31039   4.306   4.542   8.579  0.4268 -0.2238  0.0387
 6469SOL    HW131040   4.238   4.604   8.552 -0.0483 -0.8783 -0.2828
 6469SOL    HW231041   4.381   4.601   8.572  0.0603  0.5385  2.5530
 6470SOL     OW31042   0.529   1.057   0.375 -0.1664  0.6009  0.2172
 6470SOL    HW131043   0.519   1.151   0.364  1.1562  0.8573  1.2634
 6470SOL    HW231044   0.623   1.041   0.364 -0.6356 -0.1072 -2.7405
 6471SOL     OW31045   2.481   0.068   1.503  0.5338 -0.5251  0.3894
 6471SOL    HW131046   2.504   0.028   1.587 -2.2322  1.0955  1.9368
 6471SOL    HW231047   2.442   0.152   1.528 -1.3641 -1.3076  0.0731
 6472SOL     OW31048   3.954   4.114   8.261 -0.4645  0.4021 -0.0070
 6472SOL    HW131049   3.998   4.196   8.282 -0.0306  0.4380 -1.0231
 6472SOL    HW231050   4.021   4.066   8.213  0.3454 -0.5973  2.1529
 6473SOL     OW31051   0.204   2.651   4.493  0.2463  0.0134  0.5621
 6473SOL    HW131052   0.279   2.707   4.473 -2.6228  4.4043  2.3099
 6473SOL    HW231053   0.224   2.560   4.470  1.5170  0.7154 -1.0825
 6474SOL     OW31054   1.627   3.358   3.454 -0.5341 -0.7375  0.0636
 6474SOL    HW131055   1.586   3.278   3.419 -0.5743 -0.0051 -1.5592
 6474SOL    HW231056   1.710   3.341   3.410 -0.2959  1.5666 -0.3268
 6475SOL     OW31057   4.697   2.408   8.861  0.1623  0.4305  0.0087
 6475SOL    HW131058   0.010   2.481   8.824  0.9875  0.7113  1.6632
 6475SOL    HW231059   4.612   2.451   8.863  0.3642  0.7267  1.4854
 6476SOL     OW31060   3.969   1.230   4.856 -0.0874  0.6669 -0.4938
 6476SOL    HW131061   3.989   1.318   4.823 -1.2893  0.7733 -0.9328
 6476SOL    HW231062   3.897   1.216   4.795  1.8653  0.9758 -2.8427
 6477SOL     OW31063   2.195   0.275   0.205  0.8626  0.2754  0.7354
 6477SOL    HW131064   2.229   0.204   0.152 -0.7094 -0.6628  0.9702
 6477SOL    HW231065   2.181   0.216   0.279  0.6392 -3.9164 -2.6496
 6478SOL     OW31066   2.569   2.125   1.126 -0.3523  0.1906  0.1810
 6478SOL    HW131067   2.664   2.122   1.114 -0.2321  1.4062  0.7469
 6478SOL    HW231068   2.587   2.169   1.210 -0.6487  0.3615  0.1580
 6479SOL     OW31069   4.639   4.246   4.193 -0.5232  0.3598 -0.1045
 6479SOL    HW131070   4.634   4.165   4.144 -2.8023  0.9079 -0.8060
 6479SOL    HW231071   4.732   4.247   4.213 -0.4004 -0.2493 -0.6528
 6480SOL     OW31072   1.880   3.641   4.199 -0.0388  0.4946  0.7303
 6480SOL    HW131073   1.834   3.593   4.268 -1.6230  0.0485 -0.6437
 6480SOL    HW231074   1.935   3.572   4.161 -2.4689 -1.2382  0.3767
 6481SOL     OW31075   0.898   0.314   7.064  0.2894 -0.0044  0.1238
 6481SOL    HW131076   0.861   0.241   7.014  0.5646  0.7806 -1.2193
 6481SOL    HW231077   0.879   0.389   7.008 -3.4539 -2.4926 -1.9135
 6482SOL     OW31078   1.630   1.759  15.619  0.3304 -0.3474 -0.3376
 6482SOL    HW131079   1.702   1.759  15.555  0.7125 -1.6471  0.0894
 6482SOL    HW231080   1.556   1.742  15.560  1.2627  1.5017 -2.0613
 6483SOL     OW31081   0.657   2.428  14.773  0.3961 -0.2509  0.7901
 6483SOL    HW131082   0.616   2.510  14.798 -0.8270 -0.2837 -1.1169
 6483SOL    HW231083   0.739   2.432  14.822 -0.6232 -0.4174  2.4907
 6484SOL     OW31084   1.835   1.714   8.858  0.3217  0.5840  0.4942
 6484SOL    HW131085   1.848   1.712   8.763  1.1852  0.1328  0.6111
 6484SOL    HW231086   1.879   1.793   8.889 -0.3612 -0.1237  3.2260
 6485SOL     OW31087   3.430   1.708   5.604  0.3363  0.0567 -0.0281
 6485SOL    HW131088   3.425   1.712   5.699  1.4836  0.1675  0.0206
 6485SOL    HW231089   3.456   1.620   5.576 -0.5823 -0.8410  1.9648
 6486SOL     OW31090   4.240   0.766   9.189  0.1723 -0.5601  0.0689
 6486SOL    HW131091   4.250   0.756   9.284  0.5081  0.2935  0.1264
 6486SOL    HW231092   4.331   0.757   9.162  0.7389  2.0793  1.1346
 6487SOL     OW31093   3.178   3.937  12.238 -0.4460  0.0303  0.1942
 6487SOL    HW131094   3.118   3.865  12.259 -0.7801  0.3212  0.2364
 6487SOL    HW231095   3.120   4.012  12.250 -1.3970 -1.3068  4.2123
 6488SOL     OW31096   1.111   1.450  16.257 -0.6349 -0.1241 -0.5345
 6488SOL    HW131097   1.069   1.536  16.256 -0.8974 -0.2300  1.3552
 6488SOL    HW231098   1.040   1.396  16.291 -1.8351  1.0549 -1.1896
 6489SOL     OW31099   2.817   1.546   6.925 -0.0676 -0.4043 -0.2865
 6489SOL    HW131100   2.806   1.473   6.865 -1.5167 -1.3506  1.1386
 6489SOL    HW231101   2.888   1.592   6.882 -0.2923  1.4094  1.2605
 6490SOL     OW31102   3.679   3.052   2.866 -0.1841 -0.7693  0.3574
 6490SOL    HW131103   3.742   3.024   2.933  0.9433 -0.7744 -0.7023
 6490SOL    HW231104   3.631   2.974   2.838 -0.2561 -1.4136  2.3171
 6491SOL     OW31105   3.257   0.685   2.000  0.1184 -0.3240  0.7962
 6491SOL    HW131106   3.170   0.646   1.989  0.1617  0.1449 -1.2310
 6491SOL    HW231107   3.242   0.779   2.015  1.0344 -0.3466  1.8497
 6492SOL     OW31108   0.076   0.835  14.586  0.1455  0.6219 -0.0158
 6492SOL    HW131109   0.020   0.767  14.549  2.6501 -1.1384 -0.6020
 6492SOL    HW231110   0.134   0.828  14.510 -2.5368 -2.0286 -1.8189
 6493SOL     OW31111   4.637   1.747  11.016 -0.5032 -0.5676  0.0183
 6493SOL    HW131112   4.684   1.784  10.942  0.7422 -0.0726  1.0666
 6493SOL    HW231113   4.686   1.665  11.022 -1.4601 -1.1900 -0.6190
 6494SOL     OW31114   1.967   2.181   9.125  0.5983 -0.3456 -0.0802
 6494SOL    HW131115   2.046   2.232   9.142  0.0188  0.5288 -0.0181
 6494SOL    HW231116   1.898   2.245   9.144 -1.2154 -2.7014  1.3472
 6495SOL     OW31117   0.460   1.599   2.308 -0.4378  0.2545 -0.2073
 6495SOL    HW131118   0.542   1.646   2.322  0.1246 -1.1894  1.3410
 6495SOL    HW231119   0.466   1.569   2.218  4.3766 -1.2176  0.6168
 6496SOL     OW31120   1.946   3.504  11.999 -0.4123 -0.2954 -0.4031
 6496SOL    HW131121   1.962   3.432  11.938  1.7529 -1.1621  1.1886
 6496SOL    HW231122   2.030   3.506  12.045 -1.0943 -0.1408  0.8341
 6497SOL     OW31123   0.835   3.134   3.451  0.4800  0.2223  0.8176
 6497SOL    HW131124   0.837   3.134   3.356 -1.3978 -1.0516  0.7716
 6497SOL    HW231125   0.814   3.226   3.463  0.9407  0.4455 -0.1557
 6498SOL     OW31126   2.345   4.192   7.630 -0.6763 -0.9442 -0.0326
 6498SOL    HW131127   2.354   4.110   7.581 -0.3503  0.9617 -3.1894
 6498SOL    HW231128   2.283   4.237   7.573 -0.4791 -2.1105 -1.1754
 6499SOL     OW31129   3.980   2.383  15.467  0.2881 -0.1390  0.1362
 6499SOL    HW131130   3.885   2.386  15.474  0.3305  1.9331 -0.2352
 6499SOL    HW231131   4.000   2.383  15.561 -3.5534 -0.6290  0.9415
 6500SOL     OW31132   2.781   0.540  16.123  0.0201 -0.4529 -0.2911
 6500SOL    HW131133   2.794   0.631  16.153  3.1816 -0.3728 -1.8804
 6500SOL    HW231134   2.867   0.503  16.139  0.5113  1.0693  0.6173
 6501SOL     OW31135   0.140   0.292   2.282 -0.8433  0.4407  0.5725
 6501SOL    HW131136   0.218   0.255   2.323 -1.0934 -0.9257 -0.1731
 6501SOL    HW231137   0.186   0.368   2.247  1.1117 -1.1556 -0.2873
 6502SOL     OW31138   2.074   2.311  14.036  0.2368 -0.4550 -0.0192
 6502SOL    HW131139   2.081   2.221  14.004  2.2372  0.2178 -1.4845
 6502SOL    HW231140   2.079   2.296  14.130 -2.1266 -0.6923  0.0637
 6503SOL     OW31141   3.467   1.102  13.919  0.2984  0.6264 -0.5552
 6503SOL    HW131142   3.518   1.158  13.860  0.3046  1.2126  0.0054
 6503SOL    HW231143   3.378   1.130  13.897  0.1665  1.9196  1.6180
 6504SOL     OW31144   3.693   1.403  11.888 -0.7113  0.3104  0.5379
 6504SOL    HW131145   3.707   1.489  11.927  1.2832  0.1940  0.0859
 6504SOL    HW231146   3.679   1.345  11.964  0.7949 -2.0348 -0.9625
 6505SOL     OW31147   4.679   2.069  17.386  0.0714 -0.2965  0.0674
 6505SOL    HW131148   0.038   2.059  17.397 -0.3748 -1.2276  3.0863
 6505SOL    HW231149   4.676   2.143  17.325 -1.7297  0.2265  0.7803
 6506SOL     OW31150   4.685   4.247   1.381  0.2355 -0.3112  0.6986
 6506SOL    HW131151   0.010   4.296   1.438 -0.2472 -1.0457  1.8341
 6506SOL    HW231152   4.633   4.203   1.448 -0.9108 -0.5680 -0.3711
 6507SOL     OW31153   2.431   2.472   4.942 -0.4058 -0.2025 -0.5219
 6507SOL    HW131154   2.382   2.501   4.865 -0.7595 -1.4373 -0.7605
 6507SOL    HW231155   2.433   2.550   4.998 -2.3127  0.1226 -0.9270
 6508SOL     OW31156   1.426   1.342   4.690 -0.7243 -0.1026 -0.1098
 6508SOL    HW131157   1.372   1.278   4.642 -0.6882 -1.2926  1.4409
 6508SOL    HW231158   1.376   1.347   4.771  2.7283  2.1953  1.8577
 6509SOL     OW31159   2.771   4.420   4.145 -0.7013 -0.3422  0.2299
 6509SOL    HW131160   2.780   4.515   4.157 -0.8325 -0.8448  4.1367
 6509SOL    HW231161   2.704   4.387   4.205  0.2325 -0.6183  1.1107
 6510SOL     OW31162   2.149   4.071   7.181  0.5961 -0.5563 -0.2704
 6510SOL    HW131163   2.128   4.156   7.220 -0.2373 -1.8508  2.1188
 6510SOL    HW231164   2.066   4.025   7.194 -0.2209  0.5838 -1.4784
 6511SOL     OW31165   0.705   4.490  16.391  0.3777 -0.1647  0.0835
 6511SOL    HW131166   0.749   4.494  16.476 -1.3353  0.0719  0.9724
 6511SOL    HW231167   0.680   4.583  16.384 -0.7567 -0.5019 -0.3315
 6512SOL     OW31168   3.595   2.414   2.487 -0.8897  0.5842  0.4366
 6512SOL    HW131169   3.635   2.333   2.456 -0.7040  0.6500  0.5036
 6512SOL    HW231170   3.580   2.386   2.578 -0.5262  1.2168  0.6925
 6513SOL     OW31171   3.230   0.496   6.077  0.3445  0.2133  0.3736
 6513SOL    HW131172   3.171   0.441   6.129  0.7736 -0.2852  0.3348
 6513SOL    HW231173   3.205   0.584   6.104  0.8434  0.0913  1.2325
 6514SOL     OW31174   4.587   1.294   7.432  0.7125 -1.0120 -0.5453
 6514SOL    HW131175   4.619   1.384   7.434 -1.1517 -0.3687  0.2168
 6514SOL    HW231176   4.495   1.295   7.404  0.1708  0.5729  1.2869
 6515SOL     OW31177   1.515   2.381   6.197  0.2635  0.1077 -0.3995
 6515SOL    HW131178   1.519   2.323   6.273  1.1828  0.0609 -0.4766
 6515SOL    HW231179   1.595   2.351   6.153  1.2062  1.5487  0.3283
 6516SOL     OW31180   0.614   0.781   4.443  0.4738  1.0450  0.5048
 6516SOL    HW131181   0.530   0.814   4.475  0.7167  1.1781  1.0061
 6516SOL    HW231182   0.638   0.721   4.514 -3.0600  0.3565  1.1214
 6517SOL     OW31183   1.696   1.486   6.417  0.2755 -0.9066 -0.3940
 6517SOL    HW131184   1.615   1.434   6.418  0.3592 -1.0357  0.7206
 6517SOL    HW231185   1.718   1.491   6.510 -0.9250  0.0948 -0.1611
 6518SOL     OW31186   2.537   0.784   5.704 -0.1139 -0.0155 -0.1272
 6518SOL    HW131187   2.494   0.700   5.720  1.2278 -0.3886  1.5454
 6518SOL    HW231188   2.620   0.758   5.745 -0.3754 -0.2134  0.2680
 6519SOL     OW31189   4.362   1.491   9.314  0.4273 -0.4482 -0.4390
 6519SOL    HW131190   4.293   1.523   9.373  0.1432 -1.4259 -0.2404
 6519SOL    HW231191   4.417   1.450   9.381  1.5932  1.1341 -0.4262
 6520SOL     OW31192   0.774   1.651   6.610 -0.1058  0.2478 -0.2029
 6520SOL    HW131193   0.804   1.729   6.657  2.1791  0.1302 -1.5173
 6520SOL    HW231194   0.680   1.642   6.625 -0.1189 -1.3336 -1.2343
 6521SOL     OW31195   2.528   4.501  17.309  0.1213 -0.3448  0.7965
 6521SOL    HW131196   2.517   4.433  17.243  2.8306  0.1857 -0.2053
 6521SOL    HW231197   2.458   4.508  17.375 -0.4816  0.7680  0.0498
 6522SOL     OW31198   4.321   1.041   1.878 -0.2578  0.5562  0.5960
 6522SOL    HW131199   4.256   0.983   1.839  0.5993  0.7528 -1.1085
 6522SOL    HW231200   4.375   1.057   1.801 -0.7841  2.8834  0.7012
 6523SOL     OW31201   3.644   1.869   8.666  0.0634 -0.0316 -0.3586
 6523SOL    HW131202   3.734   1.859   8.694  0.3098  0.9990 -0.7670
 6523SOL    HW231203   3.651   1.811   8.591  3.1417 -0.4751  0.2700
 6524SOL     OW31204   1.150   1.655  13.125 -0.4130  0.0715  0.5742
 6524SOL    HW131205   1.180   1.715  13.057 -0.4606 -0.0855  0.4142
 6524SOL    HW231206   1.206   1.682  13.197 -0.2856 -0.6078  0.7271
 6525SOL     OW31207   3.181   2.301   1.996 -0.0135 -0.0472  0.2371
 6525SOL    HW131208   3.116   2.249   2.043  0.5848 -2.0981 -1.2134
 6525SOL    HW231209   3.259   2.287   2.049 -0.9216 -1.1587  1.2553
 6526SOL     OW31210   0.213   4.381   7.601 -0.3646  0.0507  0.5499
 6526SOL    HW131211   0.185   4.309   7.544  0.7253  1.7501 -2.0894
 6526SOL    HW231212   0.281   4.337   7.652  0.3620 -0.1813 -0.6174
 6527SOL     OW31213   4.489   1.963   4.806  0.3709 -0.0502  0.4223
 6527SOL    HW131214   4.541   1.944   4.883  1.9471 -0.2868 -0.7063
 6527SOL    HW231215   4.442   2.039   4.840  0.2844 -0.5191  1.3560
 6528SOL     OW31216   2.373   2.859   2.429  0.0850 -0.2062 -0.2892
 6528SOL    HW131217   2.358   2.952   2.442 -3.3872 -0.8951  0.6790
 6528SOL    HW231218   2.467   2.852   2.446  0.2010  0.3509 -0.7319
 6529SOL     OW31219   2.811   2.555  15.106 -0.5256 -0.2351 -0.4346
 6529SOL    HW131220   2.726   2.595  15.122 -0.5149  0.2559 -1.5574
 6529SOL    HW231221   2.840   2.536  15.195 -2.0240 -2.1501 -0.3632
 6530SOL     OW31222   3.835   2.053   7.910  0.1103 -0.1616 -0.3347
 6530SOL    HW131223   3.868   1.995   7.842 -2.7125 -0.8643 -1.1045
 6530SOL    HW231224   3.769   1.999   7.953  2.0427 -2.3005 -0.0456
 6531SOL     OW31225   1.824   3.546   7.882 -0.5865  0.0255 -0.0522
 6531SOL    HW131226   1.897   3.540   7.943  0.0958 -0.9132 -0.9727
 6531SOL    HW231227   1.777   3.466   7.905 -2.6206  0.7012 -1.8534
 6532SOL     OW31228   2.721   2.197  16.009 -0.0672  0.2413 -0.2577
 6532SOL    HW131229   2.625   2.199  16.016 -0.1016 -0.7126 -0.4305
 6532SOL    HW231230   2.738   2.103  16.014  1.2139  0.3893 -1.7883
 6533SOL     OW31231   1.552   2.704   7.435 -0.1521  0.2449 -0.0076
 6533SOL    HW131232   1.633   2.662   7.406 -0.8602 -0.2921 -1.2010
 6533SOL    HW231233   1.580   2.765   7.503  0.2027 -0.3217  0.3472
 6534SOL     OW31234   1.043   4.694   6.920 -0.1145  0.0433  0.6670
 6534SOL    HW131235   0.978   0.019   6.956 -1.0077 -0.4215 -0.1756
 6534SOL    HW231236   1.001   4.610   6.939 -0.7278  0.4616  1.1934
 6535SOL     OW31237   4.108   3.110   4.920 -0.1395  0.1810  0.0314
 6535SOL    HW131238   4.054   3.081   4.994 -1.6541  1.7580 -0.4714
 6535SOL    HW231239   4.045   3.148   4.859 -1.1387 -0.5828  0.6016
 6536SOL     OW31240   1.024   2.812   3.817 -0.2490 -0.0692 -0.3429
 6536SOL    HW131241   1.112   2.815   3.781 -0.2275  1.1636 -0.2082
 6536SOL    HW231242   0.994   2.878   3.755 -2.4672 -0.4824  0.2774
 6537SOL     OW31243   1.998   0.582   7.238  0.1927  0.0732 -0.1369
 6537SOL    HW131244   1.935   0.510   7.235 -0.0477  0.2096  1.6329
 6537SOL    HW231245   2.087   0.548   7.230 -0.1396 -1.0406  0.8651
 6538SOL     OW31246   3.757   1.547   1.544 -0.3405  0.1359 -0.1218
 6538SOL    HW131247   3.836   1.493   1.531 -1.3328 -1.1262 -0.8956
 6538SOL    HW231248   3.793   1.572   1.629  1.8256 -1.7591 -0.4724
 6539SOL     OW31249   4.339   1.124  12.853  0.6090  0.0908  0.0295
 6539SOL    HW131250   4.270   1.188  12.834  0.2460 -0.3176 -0.0275
 6539SOL    HW231251   4.404   1.189  12.880  0.3487  1.3384 -2.2603
 6540SOL     OW31252   2.669   2.223   8.528 -0.4908  0.5952  1.0082
 6540SOL    HW131253   2.586   2.184   8.558 -0.1821 -0.8253  0.0625
 6540SOL    HW231254   2.735   2.161   8.559 -1.8483 -0.9975  0.7727
 6541SOL     OW31255   0.401   4.497   2.537 -0.5060  0.1124 -0.0627
 6541SOL    HW131256   0.375   4.474   2.448 -1.9193  1.0659  0.1112
 6541SOL    HW231257   0.459   4.571   2.519 -1.4777  0.7478 -0.5896
 6542SOL     OW31258   4.026   1.549   8.247  0.4616  0.8942 -0.3816
 6542SOL    HW131259   4.074   1.600   8.182 -0.0254  1.0091 -0.6552
 6542SOL    HW231260   3.966   1.492   8.199  0.3986  0.0480  0.7117
 6543SOL     OW31261   2.305   4.721   7.410  0.1828 -0.7528 -0.0191
 6543SOL    HW131262   2.238   0.028   7.358  0.8048  1.4309  0.9605
 6543SOL    HW231263   2.374   4.715   7.344 -1.2671  0.2390 -1.6232
 6544SOL     OW31264   0.169   1.446   6.020  0.2041  0.1992 -0.1403
 6544SOL    HW131265   0.213   1.375   5.974 -0.1331  0.6215 -1.1135
 6544SOL    HW231266   0.244   1.504   6.033 -0.9102  1.9010 -1.2516
 6545SOL     OW31267   4.645   0.499  11.594 -0.4669 -0.1929  0.5567
 6545SOL    HW131268   4.618   0.468  11.508  1.2442  1.8085 -0.7094
 6545SOL    HW231269   4.734   0.524  11.571 -1.0452  1.4445  0.0471
 6546SOL     OW31270   1.681   2.030   6.829 -0.3772  0.2723  0.8688
 6546SOL    HW131271   1.682   1.987   6.744  2.0940  1.7846  0.1440
 6546SOL    HW231272   1.645   2.116   6.811  0.6484  0.7284  0.9817
 6547SOL     OW31273   0.208   0.177   2.759 -0.1239  0.0719  0.6593
 6547SOL    HW131274   0.223   0.255   2.812 -3.6218  0.1451  1.5389
 6547SOL    HW231275   0.191   0.116   2.831  0.4344 -0.7467  0.0847
 6548SOL     OW31276   2.020   0.827   4.342 -0.8088  0.2967 -0.0256
 6548SOL    HW131277   2.026   0.849   4.435  0.6483 -1.4920  0.3094
 6548SOL    HW231278   1.944   0.879   4.317 -1.2780 -0.4809 -0.2135
 6549SOL     OW31279   4.721   2.740   4.620 -0.0618  0.7014 -0.3018
 6549SOL    HW131280   0.034   2.793   4.683  0.3470 -0.3714  0.2843
 6549SOL    HW231281   0.059   2.709   4.567 -0.1761 -0.7860  0.4156
 6550SOL     OW31282   3.187   2.352  12.571 -0.5580  0.0741 -0.3423
 6550SOL    HW131283   3.125   2.400  12.516  0.0936 -3.0032 -3.7856
 6550SOL    HW231284   3.170   2.259  12.556 -2.5107  0.5974 -1.3367
 6551SOL     OW31285   4.320   3.677  11.745 -1.1367  0.1214 -0.3914
 6551SOL    HW131286   4.264   3.605  11.716  0.6150 -1.2401 -0.3998
 6551SOL    HW231287   4.280   3.758  11.713  0.3935  1.2860  0.6370
 6552SOL     OW31288   0.591   3.016  13.906 -0.5978 -0.5499  0.1093
 6552SOL    HW131289   0.663   2.965  13.940 -1.5572 -1.6006  0.5664
 6552SOL    HW231290   0.583   3.085  13.972 -0.0138 -0.2804 -0.1055
 6553SOL     OW31291   2.436   3.682   2.831  0.2369  0.1322  0.1511
 6553SOL    HW131292   2.389   3.764   2.814 -0.4162 -0.0206  1.2372
 6553SOL    HW231293   2.360   3.624   2.838  1.6598 -1.9319 -1.4712
 6554SOL     OW31294   2.314   3.394   9.306  0.4965  0.1086  0.1654
 6554SOL    HW131295   2.265   3.340   9.244 -1.4787  1.2696  0.6901
 6554SOL    HW231296   2.317   3.474   9.253  0.5210  1.4984  2.2698
 6555SOL     OW31297   3.803   2.910  16.133 -0.0705  0.2486 -0.0005
 6555SOL    HW131298   3.716   2.870  16.131  0.7811 -1.5275 -1.9245
 6555SOL    HW231299   3.863   2.835  16.129 -1.0666 -0.6134  1.3268
 6556SOL     OW31300   0.208   0.808   2.320 -0.2722 -0.5136  0.2425
 6556SOL    HW131301   0.147   0.755   2.372  0.6157 -1.7552  0.0304
 6556SOL    HW231302   0.286   0.752   2.319  0.2030  0.1074  1.8041
 6557SOL     OW31303   2.427   4.465   7.311 -0.6280 -0.1107 -0.4942
 6557SOL    HW131304   2.440   4.417   7.229 -1.9509  0.4499 -1.0233
 6557SOL    HW231305   2.519   4.484   7.330 -1.2840  1.3790  1.2043
 6558SOL     OW31306   1.960   4.719   3.670 -0.5318 -0.2957  0.8041
 6558SOL    HW131307   1.906   4.668   3.730 -0.6497 -0.8497  0.2270
 6558SOL    HW231308   1.977   0.054   3.732 -0.3366 -0.0755  0.5008
 6559SOL     OW31309   2.960   3.805   5.381  0.3131  0.0222 -0.1920
 6559SOL    HW131310   2.966   3.738   5.449  1.5100 -1.4676 -1.7550
 6559SOL    HW231311   2.901   3.749   5.331  1.8815 -2.0432  0.2611
 6560SOL     OW31312   0.199   0.950   2.909 -0.4459 -0.1159 -0.2802
 6560SOL    HW131313   0.258   0.987   2.843  0.5953 -0.5099  0.4243
 6560SOL    HW231314   0.219   1.014   2.977  0.4827 -0.8739  0.1621
 6561SOL     OW31315   1.888   2.994   2.418 -0.6341  0.4629  0.0019
 6561SOL    HW131316   1.849   2.907   2.423 -1.1508  0.7741  1.4306
 6561SOL    HW231317   1.933   2.988   2.334  0.6649 -0.5666  0.7752
 6562SOL     OW31318   3.263   4.608  14.143 -0.1598  0.3874  0.0962
 6562SOL    HW131319   3.347   4.651  14.128 -0.3126  0.8610  0.5700
 6562SOL    HW231320   3.198   4.677  14.133 -0.2164  0.3472  0.1890
 6563SOL     OW31321   3.488   2.245  14.053  0.1531 -0.2994  0.1918
 6563SOL    HW131322   3.490   2.161  14.007 -1.2535 -0.9969  1.4109
 6563SOL    HW231323   3.415   2.293  14.014  1.1031  0.6049 -0.4727
 6564SOL     OW31324   0.073   1.319   2.249  0.5143  0.2352  0.0664
 6564SOL    HW131325   0.107   1.239   2.290  1.3285  0.6257  0.1606
 6564SOL    HW231326   0.043   1.377   2.319 -0.4202  1.7498 -1.5905
 6565SOL     OW31327   1.156   1.348   6.454  0.1337 -0.0753  0.4194
 6565SOL    HW131328   1.196   1.410   6.394  1.8899 -0.9961  0.6396
 6565SOL    HW231329   1.198   1.265   6.429  2.7468  1.1062  0.9505
 6566SOL     OW31330   3.980   0.277   8.645  0.3863  0.8805 -0.4158
 6566SOL    HW131331   3.924   0.263   8.722  0.0744  0.7625 -0.6630
 6566SOL    HW231332   3.919   0.279   8.571 -1.0064 -2.7285  0.5881
 6567SOL     OW31333   2.659   2.319  10.618 -0.1288  0.6999 -0.0455
 6567SOL    HW131334   2.706   2.265  10.554 -2.2128 -0.1742 -0.8606
 6567SOL    HW231335   2.636   2.394  10.563  0.4209  1.8198  1.2466
 6568SOL     OW31336   4.591   0.335   4.350 -0.4606  0.2635  0.1851
 6568SOL    HW131337   4.633   0.361   4.268 -0.1861  0.1015  0.2766
 6568SOL    HW231338   4.665   0.294   4.395 -0.1120 -0.5703 -1.1435
 6569SOL     OW31339   2.231   0.600   5.138  0.4854 -0.2137 -0.1267
 6569SOL    HW131340   2.301   0.644   5.185 -0.2411  0.3476  0.4270
 6569SOL    HW231341   2.271   0.553   5.064 -0.7770 -0.7286 -0.4908
 6570SOL     OW31342   4.415   0.409  17.298  0.1704  0.5468  0.1861
 6570SOL    HW131343   4.426   0.337  17.360 -0.5679  1.5349  1.4536
 6570SOL    HW231344   4.503   0.430  17.266 -0.2533  0.0250 -1.3160
 6571SOL     OW31345   4.157   3.866   8.849  0.2295 -0.5694  0.2260
 6571SOL    HW131346   4.107   3.897   8.774  1.2214 -0.0966 -0.2325
 6571SOL    HW231347   4.111   3.914   8.919  0.7462  1.1140 -0.5846
 6572SOL     OW31348   1.256   3.021   1.210  0.2934 -0.1293 -0.3540
 6572SOL    HW131349   1.292   2.938   1.181 -1.4746 -1.4968  1.3607
 6572SOL    HW231350   1.285   3.010   1.301  1.6004 -0.3078 -0.7950
 6573SOL     OW31351   2.799   3.991   3.506  0.0458 -0.0172  0.0839
 6573SOL    HW131352   2.719   3.956   3.544 -0.6104 -0.0940 -1.3491
 6573SOL    HW231353   2.760   4.006   3.420  1.7532  1.7979 -0.3782
 6574SOL     OW31354   4.351   0.014   9.222  0.3569 -0.5238  0.2151
 6574SOL    HW131355   4.264   0.026   9.183 -0.3883 -2.0446  1.3857
 6574SOL    HW231356   4.323   0.015   9.314 -0.5267  0.7461 -0.0669
 6575SOL     OW31357   3.289   2.479   7.391  0.0003 -0.2481  0.0800
 6575SOL    HW131358   3.342   2.555   7.366  0.0550 -0.1571  0.4703
 6575SOL    HW231359   3.200   2.511   7.379  0.6707  2.1829  1.5034
 6576SOL     OW31360   3.014   2.808   1.968 -0.0352  0.2383  0.5794
 6576SOL    HW131361   2.985   2.798   2.058 -0.9584  2.3439  0.5184
 6576SOL    HW231362   2.984   2.723   1.936  1.5712 -0.8918  2.1322
 6577SOL     OW31363   0.810   2.582   6.159  0.1127 -0.4368 -0.3122
 6577SOL    HW131364   0.897   2.550   6.182  0.8160  2.7404  1.3853
 6577SOL    HW231365   0.751   2.509   6.176 -2.5063  2.0529  1.3211
 6578SOL     OW31366   2.873   3.930   2.924  0.2042  0.1276 -0.1486
 6578SOL    HW131367   2.901   3.964   3.009 -0.3957  1.6648 -0.5839
 6578SOL    HW231368   2.778   3.940   2.920  0.2977  0.4022 -1.7448
 6579SOL     OW31369   3.219   3.470   4.022 -0.0727 -0.1473 -0.1997
 6579SOL    HW131370   3.276   3.538   3.987  2.2993 -2.3545 -0.6521
 6579SOL    HW231371   3.285   3.415   4.064  0.6836  1.3749  0.5981
 6580SOL     OW31372   2.723   1.826   4.292  0.6215 -0.6285  0.3760
 6580SOL    HW131373   2.746   1.743   4.332 -0.2220 -0.4684  1.1980
 6580SOL    HW231374   2.780   1.821   4.216  1.0767 -1.7516  0.7922
 6581SOL     OW31375   0.106   2.284  12.956 -0.2685 -0.4130 -0.3569
 6581SOL    HW131376   0.122   2.311  13.046 -0.3790  0.1550 -0.5072
 6581SOL    HW231377   0.011   2.272  12.963  0.0759 -1.7800  2.0605
 6582SOL     OW31378   3.323   4.542  13.717 -0.5949 -0.0334 -0.0010
 6582SOL    HW131379   3.290   4.479  13.781 -0.7156  0.2196  0.1861
 6582SOL    HW231380   3.243   4.539  13.665 -0.2490 -2.4735 -0.3857
 6583SOL     OW31381   4.564   0.647  12.903  0.3866 -0.5201 -0.2155
 6583SOL    HW131382   4.510   0.726  12.893  0.2866 -0.5049  0.4634
 6583SOL    HW231383   4.552   0.611  12.815  1.3160  0.2555 -0.6613
 6584SOL     OW31384   4.546   1.238   3.961 -0.4119  0.1580 -0.4030
 6584SOL    HW131385   4.513   1.160   3.917 -0.4347 -0.3215  0.4778
 6584SOL    HW231386   4.633   1.206   3.982 -0.0714  1.1136 -0.3318
 6585SOL     OW31387   0.479   0.140   6.295  0.5842  0.1581 -0.0049
 6585SOL    HW131388   0.481   0.231   6.322 -1.3018  0.5502 -1.2654
 6585SOL    HW231389   0.436   0.147   6.210  0.8499 -1.2391 -0.2591
 6586SOL     OW31390   4.142   3.970   3.156 -0.4338  0.4503 -0.1755
 6586SOL    HW131391   4.182   3.948   3.240  2.0927  0.8129 -1.2993
 6586SOL    HW231392   4.220   3.993   3.106 -0.2152 -1.7899 -0.8729
 6587SOL     OW31393   0.860   1.593  13.116  0.1324 -0.2392  0.6549
 6587SOL    HW131394   0.954   1.610  13.112  0.0450  0.0521 -0.1036
 6587SOL    HW231395   0.834   1.578  13.025 -1.9036 -0.5185  1.2895
 6588SOL     OW31396   0.994   0.945   4.960  0.4129 -0.2325  0.2920
 6588SOL    HW131397   0.916   0.915   4.913  0.1731 -1.3544  1.3872
 6588SOL    HW231398   1.042   0.863   4.972  1.3837  0.5338  1.5795
 6589SOL     OW31399   2.630   1.614   7.431  0.1629 -0.0842 -0.1060
 6589SOL    HW131400   2.613   1.705   7.405 -0.4079 -0.1382  0.0644
 6589SOL    HW231401   2.626   1.573   7.345  0.3288 -0.3504  0.0142
 6590SOL     OW31402   1.293   3.663   2.568  0.1859 -0.2680 -0.0291
 6590SOL    HW131403   1.270   3.581   2.611  3.1597 -1.8039 -1.3842
 6590SOL    HW231404   1.287   3.730   2.637  0.1833 -1.9229  1.5812
 6591SOL     OW31405   4.555   0.609   2.992  0.5090  0.1413 -0.0754
 6591SOL    HW131406   4.483   0.666   3.019  1.2700  1.2399 -0.3604
 6591SOL    HW231407   4.518   0.527   3.022 -0.0977  0.7360  0.7816
 6592SOL     OW31408   3.090   4.725   5.739  0.0098 -0.0874  0.1527
 6592SOL    HW131409   3.157   4.715   5.672 -0.7660  0.0460 -0.6462
 6592SOL    HW231410   3.143   0.021   5.812  0.6299  0.1602 -0.3999
 6593SOL     OW31411   2.969   4.573   2.593 -0.3625 -0.4668 -0.0784
 6593SOL    HW131412   2.892   4.631   2.594  2.2933  2.9662  2.2576
 6593SOL    HW231413   3.039   4.638   2.603  0.2038 -0.7811 -2.0164
 6594SOL     OW31414   3.557   3.310   8.369 -0.2117  0.3362  1.2432
 6594SOL    HW131415   3.508   3.372   8.423 -0.7735 -0.2081  1.3556
 6594SOL    HW231416   3.566   3.241   8.434 -0.8727  0.5088  1.5153
 6595SOL     OW31417   3.246   4.680   6.119  0.5913 -0.0431 -0.0308
 6595SOL    HW131418   3.179   4.611   6.125 -0.8291  1.0781 -2.7855
 6595SOL    HW231419   3.322   4.637   6.157  0.3361 -0.0301  0.4932
 6596SOL     OW31420   3.861   1.782   3.133  0.5758  0.7046  0.2963
 6596SOL    HW131421   3.939   1.779   3.079 -0.0399 -2.3461 -0.4169
 6596SOL    HW231422   3.852   1.878   3.131 -2.3077  0.4065 -1.2953
 6597SOL     OW31423   1.777   1.054   4.736  0.2976 -0.1303 -0.0175
 6597SOL    HW131424   1.684   1.047   4.755  0.5022 -0.4174  0.8675
 6597SOL    HW231425   1.798   1.135   4.784  0.4062 -1.1361  1.6251
 6598SOL     OW31426   2.158   3.237   9.140  0.1698  0.2354 -0.0370
 6598SOL    HW131427   2.070   3.226   9.105  0.0564 -2.7947  1.2849
 6598SOL    HW231428   2.202   3.217   9.058  0.1420  0.9134 -0.2208
 6599SOL     OW31429   4.583   2.490   4.414  0.3207 -0.2691  0.1905
 6599SOL    HW131430   4.513   2.471   4.351 -1.1874  0.0365  1.7835
 6599SOL    HW231431   4.530   2.535   4.480 -0.9340 -0.7470 -0.5036
 6600SOL     OW31432   4.604   0.633   6.683 -0.0390 -0.0375  0.9713
 6600SOL    HW131433   4.593   0.620   6.777  0.4988 -0.4011  0.9847
 6600SOL    HW231434   4.679   0.691   6.695  1.1644 -1.5717  0.9227
 6601SOL     OW31435   3.737   4.039   6.522  0.0805 -0.0550  0.0406
 6601SOL    HW131436   3.677   4.099   6.478  0.0599 -0.7063 -0.8201
 6601SOL    HW231437   3.705   3.949   6.507  1.2899 -0.2824 -1.1396
 6602SOL     OW31438   4.364   1.169  16.360 -0.3392 -0.2333 -0.1707
 6602SOL    HW131439   4.355   1.247  16.415  1.5539 -0.1411 -0.0021
 6602SOL    HW231440   4.392   1.209  16.278  1.0357  0.2048  0.5122
 6603SOL     OW31441   3.399   3.080   0.457  0.0057 -0.1928  0.3226
 6603SOL    HW131442   3.376   3.062   0.366  1.8529 -1.7181  0.1390
 6603SOL    HW231443   3.420   2.994   0.495 -0.5064  0.5204  2.1975
 6604SOL     OW31444   3.218   0.256   0.034 -0.3236  0.0733  0.6301
 6604SOL    HW131445   3.289   0.313   0.064 -0.2853 -1.5366  3.5742
 6604SOL    HW231446   3.159   0.265   0.108 -0.7467  2.9515 -0.0552
 6605SOL     OW31447   3.661   0.520  14.054  0.2996 -0.3788  0.3472
 6605SOL    HW131448   3.574   0.543  14.019  0.9080 -0.7020 -1.4082
 6605SOL    HW231449   3.631   0.505  14.143 -1.3107 -0.5428 -0.2172
 6606SOL     OW31450   2.746   2.807  14.247 -0.0835 -0.3095 -0.4794
 6606SOL    HW131451   2.795   2.771  14.321 -0.1122  0.6516  0.0072
 6606SOL    HW231452   2.823   2.851  14.211 -0.8597  1.5970  0.1349
 6607SOL     OW31453   2.848   4.408  10.929 -0.2066  0.1077 -0.6460
 6607SOL    HW131454   2.801   4.472  10.982  1.4241 -0.5922  1.6432
 6607SOL    HW231455   2.859   4.452  10.845 -2.1541  2.3514  0.2615
 6608SOL     OW31456   0.030   0.091   3.916  0.0194  0.1465  0.0679
 6608SOL    HW131457   4.725   0.062   3.998 -1.2460 -1.3608 -1.1027
 6608SOL    HW231458   0.027   0.014   3.860 -0.8676  0.7320 -0.6841
 6609SOL     OW31459   4.674   2.535  17.171  0.2248 -0.1134 -0.2952
 6609SOL    HW131460   4.680   2.468  17.239 -2.4050  0.2347  0.2786
 6609SOL    HW231461   0.013   2.590  17.195  0.5329 -0.7647  0.2482
 6610SOL     OW31462   1.027   0.262   9.489 -0.2394 -0.0645 -0.1500
 6610SOL    HW131463   0.971   0.279   9.564 -0.0393  0.9379 -0.2265
 6610SOL    HW231464   0.980   0.298   9.413  0.2794 -0.3207 -0.5985
 6611SOL     OW31465   1.518   1.674   3.198 -0.2507  0.9072  0.3032
 6611SOL    HW131466   1.610   1.681   3.175 -0.2275 -1.4920 -0.3602
 6611SOL    HW231467   1.476   1.648   3.116  0.8850 -0.4612  0.1530
 6612SOL     OW31468   2.190   3.436  15.544 -0.1505  0.4263  0.0415
 6612SOL    HW131469   2.166   3.418  15.635  1.5628 -2.7283 -0.1118
 6612SOL    HW231470   2.132   3.377  15.497 -0.9473  0.3671  1.1052
 6613SOL     OW31471   1.063   4.736   9.452  0.2208  0.1022 -0.4468
 6613SOL    HW131472   1.137   4.728   9.512 -1.1290  0.8637  1.3052
 6613SOL    HW231473   1.043   0.093   9.454 -3.9756 -0.8441  0.2391
 6614SOL     OW31474   0.371   3.047   8.494 -0.2318 -0.0239 -0.4051
 6614SOL    HW131475   0.374   3.141   8.478 -2.3639  0.2953  1.0671
 6614SOL    HW231476   0.279   3.038   8.517 -0.0564  0.9589  0.6335
 6615SOL     OW31477   3.106   0.725   6.114 -0.2675  0.7322  0.1006
 6615SOL    HW131478   3.059   0.670   6.052  0.5145 -0.5732  0.6664
 6615SOL    HW231479   3.079   0.688   6.198  3.2487 -1.7931  0.0970
 6616SOL     OW31480   3.296   2.298  12.889 -0.4371  0.5816 -0.2213
 6616SOL    HW131481   3.257   2.321  12.973  1.0082 -0.1576  0.6597
 6616SOL    HW231482   3.375   2.349  12.873 -0.1188  0.0571 -0.3344
 6617SOL     OW31483   1.025   0.153  11.617 -0.2558 -0.0447 -0.7501
 6617SOL    HW131484   1.084   0.078  11.617  1.5841  1.4314 -1.8356
 6617SOL    HW231485   1.060   0.203  11.544  0.9742  0.1279 -0.0351
 6618SOL     OW31486   0.235   4.403  14.271 -0.0607 -0.3471  0.3129
 6618SOL    HW131487   0.175   4.415  14.344 -0.0957  1.4608 -0.0119
 6618SOL    HW231488   0.266   4.316  14.294  1.1179  0.0567  0.2526
 6619SOL     OW31489   0.649   4.473   8.397 -0.5923  0.5215  0.7039
 6619SOL    HW131490   0.719   4.511   8.449  1.1092 -0.4850 -0.8876
 6619SOL    HW231491   0.635   4.540   8.331  2.4574  1.4415  1.0023
 6620SOL     OW31492   1.278   2.988   5.119 -0.0282  0.4151  0.2667
 6620SOL    HW131493   1.264   3.082   5.106  0.1252  0.6485  1.7427
 6620SOL    HW231494   1.223   2.971   5.195 -1.3010  0.1451 -0.7231
 6621SOL     OW31495   1.827   2.819   6.616  0.2417 -0.1545 -0.6606
 6621SOL    HW131496   1.831   2.746   6.554 -0.8356 -0.9391  0.1872
 6621SOL    HW231497   1.913   2.857   6.596 -0.2434 -0.4331 -3.2774
 6622SOL     OW31498   2.438   2.174  16.479  0.0091 -0.0252  0.9542
 6622SOL    HW131499   2.516   2.167  16.534 -0.3487 -4.5637  0.8369
 6622SOL    HW231500   2.467   2.166  16.389 -1.1554 -0.3283  0.6064
 6623SOL     OW31501   1.874   1.329   9.967  0.3685 -1.2383  1.0027
 6623SOL    HW131502   1.807   1.396   9.984  1.6465  0.1078  0.7988
 6623SOL    HW231503   1.935   1.351  10.038 -0.1896 -2.0506  1.7427
 6624SOL     OW31504   4.555   4.629   6.484  0.6027  0.0981  0.0218
 6624SOL    HW131505   4.573   4.605   6.576 -0.5035 -1.3042 -0.1130
 6624SOL    HW231506   4.593   4.552   6.442 -0.9583 -0.7192  0.0919
 6625SOL     OW31507   3.586   2.003   3.301  0.0603  0.3087  0.9033
 6625SOL    HW131508   3.549   1.984   3.215  0.9444 -1.2915  0.8845
 6625SOL    HW231509   3.529   2.069   3.341  1.1718  1.7183  0.1843
 6626SOL     OW31510   2.148   3.197   4.361 -0.4420  0.5138  0.2523
 6626SOL    HW131511   2.181   3.168   4.446 -0.8035  1.7513  0.8181
 6626SOL    HW231512   2.164   3.292   4.366  1.3304  0.2311 -0.0390
 6627SOL     OW31513   4.129   1.975   6.490 -0.4728  0.8878 -0.0438
 6627SOL    HW131514   4.122   2.050   6.549  0.7501  1.7231 -0.9547
 6627SOL    HW231515   4.220   1.984   6.460 -0.1635  0.9875  0.9333
 6628SOL     OW31516   2.187   3.780   6.603  0.5982 -0.0283  0.3503
 6628SOL    HW131517   2.242   3.848   6.640  1.9647 -0.9652  0.0499
 6628SOL    HW231518   2.129   3.753   6.674 -1.6487 -0.0068 -1.4713
 6629SOL     OW31519   1.415   0.500   8.622 -0.2620 -0.0313 -0.1814
 6629SOL    HW131520   1.477   0.570   8.645 -0.8716  0.5813 -0.4180
 6629SOL    HW231521   1.418   0.452   8.705 -4.6063  1.6304  0.9480
 6630SOL     OW31522   1.328   0.779  11.800 -0.1111 -0.2199  0.7773
 6630SOL    HW131523   1.400   0.719  11.780  0.5590  0.6840  0.4848
 6630SOL    HW231524   1.317   0.814  11.712  0.2951  2.6231  1.8428
 6631SOL     OW31525   3.806   0.264   2.214  0.4418 -0.0502 -0.1822
 6631SOL    HW131526   3.710   0.256   2.216  0.3794  0.3499 -1.5073
 6631SOL    HW231527   3.809   0.344   2.267  1.0344  0.5884 -1.1739
 6632SOL     OW31528   3.382   1.040   2.968 -0.0963 -0.6789  0.5417
 6632SOL    HW131529   3.345   0.956   2.940 -2.5274  0.6398 -0.2563
 6632SOL    HW231530   3.433   1.020   3.046 -1.0389 -3.4655  0.4397
 6633SOL     OW31531   2.652   1.431   2.621 -0.0920  0.0889  0.0800
 6633SOL    HW131532   2.657   1.336   2.627  1.5565  0.1849  0.1926
 6633SOL    HW231533   2.687   1.452   2.708  1.3474  0.5327 -0.5920
 6634SOL     OW31534   0.585   3.510   0.375  0.3432  0.2018  0.0424
 6634SOL    HW131535   0.613   3.420   0.391  1.3669  0.8330  1.8667
 6634SOL    HW231536   0.660   3.562   0.347 -1.2160  2.2206 -0.3334
 6635SOL     OW31537   1.775   0.348  17.700 -0.2010 -0.0047  0.6868
 6635SOL    HW131538   1.768   0.330   0.052  0.1124 -0.3187  0.6540
 6635SOL    HW231539   1.867   0.325  17.686 -0.0225  2.5504 -2.3079
 6636SOL     OW31540   1.498   1.577   9.149  0.0489  0.3579  0.4127
 6636SOL    HW131541   1.589   1.595   9.125  0.2453  0.2415  1.0866
 6636SOL    HW231542   1.496   1.481   9.154  0.6895  0.2483 -1.3701
 6637SOL     OW31543   1.407   2.687  11.435  0.3898 -0.2773  0.1904
 6637SOL    HW131544   1.490   2.655  11.399  0.6588 -1.1953  1.6204
 6637SOL    HW231545   1.436   2.680  11.526 -1.4387  1.5358  0.8935
 6638SOL     OW31546   3.703   1.565   2.281  0.3808  0.2652  0.2260
 6638SOL    HW131547   3.783   1.611   2.307  1.0339 -2.1345  2.4607
 6638SOL    HW231548   3.714   1.470   2.294 -0.0915 -0.1684 -2.4871
 6639SOL     OW31549   2.414   0.562  15.701 -0.5120 -0.0327  0.2335
 6639SOL    HW131550   2.508   0.555  15.682 -0.5938  0.2641 -0.2964
 6639SOL    HW231551   2.391   0.650  15.671 -0.5289 -0.0184  0.2893
 6640SOL     OW31552   2.751   1.501   2.896 -0.1092  0.0874 -0.0755
 6640SOL    HW131553   2.812   1.574   2.896  0.9407 -0.7880  0.9593
 6640SOL    HW231554   2.683   1.534   2.955 -1.3041 -2.3794 -0.0617
 6641SOL     OW31555   4.610   1.632   0.123  0.5933 -0.4464  0.6212
 6641SOL    HW131556   4.611   1.617   0.029  2.3959 -0.9983  0.7227
 6641SOL    HW231557   4.650   1.718   0.125  0.3147 -0.2952 -0.3153
 6642SOL     OW31558   3.991   0.978   5.018 -0.2022  0.2118 -0.7186
 6642SOL    HW131559   3.990   1.069   4.988 -1.1001  0.5522  0.3651
 6642SOL    HW231560   4.084   0.958   5.016 -0.4950 -1.2987  1.1391
 6643SOL     OW31561   3.529   3.989   4.308 -0.3897  0.3688 -0.3208
 6643SOL    HW131562   3.595   3.981   4.377 -0.3552 -2.0809 -0.6373
 6643SOL    HW231563   3.466   3.917   4.319  0.0063 -0.1734 -1.5403
 6644SOL     OW31564   2.437   0.346  11.851 -0.2629  0.7503  0.5292
 6644SOL    HW131565   2.367   0.281  11.863 -0.1281  0.3128 -1.1294
 6644SOL    HW231566   2.403   0.407  11.785 -1.6187 -1.2030 -0.5744
 6645SOL     OW31567   2.038   2.236  10.578 -0.0783  0.3703  1.2494
 6645SOL    HW131568   1.965   2.296  10.567 -1.4012 -1.5635 -0.5553
 6645SOL    HW231569   2.007   2.179  10.508 -0.7679  0.4653  1.4781
 6646SOL     OW31570   3.920   1.820   1.185  0.1141  0.0620  0.1234
 6646SOL    HW131571   3.924   1.779   1.099  0.5459 -0.6572  0.4830
 6646SOL    HW231572   3.863   1.896   1.169  1.3360  1.5659  2.8623
 6647SOL     OW31573   2.523   3.490   3.263  0.3059  0.4808  0.0075
 6647SOL    HW131574   2.607   3.489   3.310 -0.3979  0.1428  1.2543
 6647SOL    HW231575   2.539   3.433   3.188 -0.1574  0.7173 -0.2676
 6648SOL     OW31576   4.541   2.736   6.256  0.2348  0.2776 -0.3878
 6648SOL    HW131577   4.462   2.685   6.240 -0.2177  1.5560 -2.2626
 6648SOL    HW231578   4.489   2.816   6.267  1.1355  0.8033  0.0032
 6649SOL     OW31579   1.168   3.219  12.541 -0.0931 -0.3183 -0.2035
 6649SOL    HW131580   1.108   3.145  12.539 -0.6241  0.0016  3.1212
 6649SOL    HW231581   1.127   3.290  12.491 -1.8147 -0.0611  1.5791
 6650SOL     OW31582   0.911   0.605  14.674 -0.2365 -0.0531 -0.5114
 6650SOL    HW131583   0.873   0.536  14.728  2.5547  1.8243  3.8076
 6650SOL    HW231584   1.000   0.605  14.709  0.4905 -0.2430 -2.3563
 6651SOL     OW31585   1.955   4.416   7.233 -0.2373 -0.5125  0.1521
 6651SOL    HW131586   1.921   4.375   7.154  1.7321  1.1667 -1.5802
 6651SOL    HW231587   1.930   4.361   7.308  4.2560  0.3358  2.2790
 6652SOL     OW31588   4.540   4.165   7.962 -0.4115 -0.0160  0.4369
 6652SOL    HW131589   4.619   4.218   7.970  0.3276 -0.7735 -1.7796
 6652SOL    HW231590   4.544   4.120   7.877  0.3077  2.9466 -1.0864
 6653SOL     OW31591   2.171   4.288   7.821  0.0268 -0.0619 -0.9511
 6653SOL    HW131592   2.245   4.288   7.760  0.3870  1.4476 -0.5187
 6653SOL    HW231593   2.145   4.196   7.827  0.7854 -0.2625 -0.7148
 6654SOL     OW31594   1.848   0.782  10.572  0.0661 -0.4099 -0.5845
 6654SOL    HW131595   1.827   0.750  10.483  0.9679  0.0596 -0.9608
 6654SOL    HW231596   1.938   0.813  10.569  0.7436 -2.3644 -0.9027
 6655SOL     OW31597   3.096   1.459  17.604  0.2951  0.4157  0.7895
 6655SOL    HW131598   3.032   1.524  17.575 -1.3062 -1.9319 -0.8813
 6655SOL    HW231599   3.134   1.424  17.523  2.0327  1.7841  0.9909
 6656SOL     OW31600   3.889   1.648   7.226  0.2702 -0.4432 -0.1091
 6656SOL    HW131601   3.858   1.739   7.226 -1.2550 -0.9748  3.2570
 6656SOL    HW231602   3.880   1.639   7.131 -1.7902  2.8966 -0.2413
 6657SOL     OW31603   0.136   1.697   9.398 -0.0019 -0.2213  0.8078
 6657SOL    HW131604   0.155   1.717   9.490 -0.6533  0.4523  0.7928
 6657SOL    HW231605   0.115   1.605   9.412 -2.5096  0.1069 -0.8964
 6658SOL     OW31606   1.346   3.283   3.093  0.2357  0.1776 -0.0084
 6658SOL    HW131607   1.299   3.200   3.102 -0.7951  0.6521 -0.9171
 6658SOL    HW231608   1.365   3.285   2.999  0.9891 -0.1296  0.1399
 6659SOL     OW31609   0.598   0.472   8.456  0.1771  0.7901 -0.1569
 6659SOL    HW131610   0.522   0.489   8.400 -0.0245 -1.1314 -0.4593
 6659SOL    HW231611   0.638   0.559   8.462 -1.6105  1.6875 -1.0740
 6660SOL     OW31612   0.188   4.030  15.080 -0.2282 -0.1844  0.2491
 6660SOL    HW131613   0.105   3.984  15.071 -1.7099  1.8904  3.1462
 6660SOL    HW231614   0.188   4.070  14.993 -1.1436 -0.0331  0.3260
 6661SOL     OW31615   2.976   0.633  14.215  0.1002 -0.3592 -0.1864
 6661SOL    HW131616   2.973   0.598  14.304 -1.2860  0.3125  0.0263
 6661SOL    HW231617   2.895   0.598  14.179 -0.8054  0.2765  1.2364
 6662SOL     OW31618   0.292   4.443   2.290  0.0238 -0.2751  0.4785
 6662SOL    HW131619   0.310   4.524   2.242  1.9517 -0.0978  1.5136
 6662SOL    HW231620   0.203   4.470   2.311 -0.4480 -0.1931 -1.5871
 6663SOL     OW31621   3.043   3.845  10.931 -0.3456  0.5462 -0.4567
 6663SOL    HW131622   3.034   3.823  10.838  1.7891  2.5257 -1.1403
 6663SOL    HW231623   3.001   3.770  10.972 -1.1262  2.2321  1.7951
 6664SOL     OW31624   3.263   1.454  15.078 -0.0299 -0.8618  0.3212
 6664SOL    HW131625   3.197   1.429  15.014 -3.0957  3.0642  1.9295
 6664SOL    HW231626   3.215   1.532  15.105 -2.9862 -2.2656 -0.8659
 6665SOL     OW31627   0.310   2.197   7.416 -0.2175  0.0691  0.6660
 6665SOL    HW131628   0.255   2.274   7.435  1.4471  0.9909  1.7131
 6665SOL    HW231629   0.389   2.243   7.388 -1.0491  1.1142 -0.0187
 6666SOL     OW31630   3.244   2.623   5.670  0.8815 -0.2298 -0.0402
 6666SOL    HW131631   3.194   2.702   5.649  1.3692  0.0492 -0.1573
 6666SOL    HW231632   3.237   2.580   5.585  1.4490  0.1869 -0.2985
 6667SOL     OW31633   4.061   4.555  10.264  0.5947 -0.1266  0.0526
 6667SOL    HW131634   4.138   4.590  10.310  0.9111  1.9456 -2.0116
 6667SOL    HW231635   4.022   4.510  10.339  1.4420  0.9453  1.1315
 6668SOL     OW31636   0.150   0.526   8.052 -0.1800  0.2208 -0.1363
 6668SOL    HW131637   0.197   0.506   7.971 -0.0879  1.7341 -0.4527
 6668SOL    HW231638   0.155   0.445   8.102 -0.2104 -1.3856 -2.7677
 6669SOL     OW31639   1.630   4.485   7.459  0.1294 -0.0459 -0.0696
 6669SOL    HW131640   1.655   4.399   7.493 -0.8923  0.8167  2.8335
 6669SOL    HW231641   1.565   4.464   7.391 -0.5269  0.2965  0.4485
 6670SOL     OW31642   0.041   4.100   6.260  0.3082 -0.5408  0.1854
 6670SOL    HW131643   0.093   4.088   6.340 -1.5871 -1.3910  1.2666
 6670SOL    HW231644   0.079   4.035   6.201  1.6239  0.5883 -0.2348
 6671SOL     OW31645   3.536   4.191   5.861 -0.0338 -0.6628  0.6061
 6671SOL    HW131646   3.472   4.156   5.924  0.7235 -1.6778  0.8070
 6671SOL    HW231647   3.500   4.278   5.840  2.0066  0.1469  0.4629
 6672SOL     OW31648   3.610   0.674  16.715  0.2859  0.0975  0.3343
 6672SOL    HW131649   3.653   0.589  16.705  1.6970  0.5412  2.6493
 6672SOL    HW231650   3.623   0.697  16.807 -2.5915  2.0997  0.2397
 6673SOL     OW31651   4.396   1.271   8.517 -0.2451 -0.6956 -0.2961
 6673SOL    HW131652   4.487   1.250   8.496 -0.7356 -0.9200 -2.1911
 6673SOL    HW231653   4.386   1.337   8.449 -3.2477  0.4597  1.3267
 6674SOL     OW31654   3.987   3.028   6.976  0.2165  0.7911  0.1966
 6674SOL    HW131655   4.075   2.991   6.969  0.1271  0.4252  0.9513
 6674SOL    HW231656   3.957   3.023   6.885  0.5362  0.0983  0.1270
 6675SOL     OW31657   2.750   2.431   7.343  0.2667 -0.1861  0.2738
 6675SOL    HW131658   2.722   2.470   7.426 -0.9726  1.1702 -0.7764
 6675SOL    HW231659   2.726   2.501   7.282  0.1954  0.5859  1.1702
 6676SOL     OW31660   0.692   2.471   3.985 -0.2108 -0.5357 -0.3499
 6676SOL    HW131661   0.773   2.466   3.935  0.3329  1.1005  0.3880
 6676SOL    HW231662   0.623   2.469   3.919  0.2820 -1.2566 -0.8446
 6677SOL     OW31663   2.347   1.605   9.800  0.2185 -0.0544  0.0854
 6677SOL    HW131664   2.334   1.558   9.883 -1.6383 -1.6590 -1.1308
 6677SOL    HW231665   2.345   1.529   9.742  2.4121 -0.4179  0.4674
 6678SOL     OW31666   1.356   1.349  16.248  0.3817 -0.1024 -0.6199
 6678SOL    HW131667   1.290   1.404  16.290 -0.3339 -0.6731 -1.0002
 6678SOL    HW231668   1.312   1.265  16.241  1.0781 -0.6232  1.2484
 6679SOL     OW31669   4.525   1.374   3.390 -0.4945 -0.3320  0.1241
 6679SOL    HW131670   4.586   1.448   3.381 -1.2940  0.2329 -0.6332
 6679SOL    HW231671   4.495   1.361   3.300 -0.6893  1.4855 -0.0832
 6680SOL     OW31672   3.988   2.680   4.034 -0.0052 -0.1252 -0.0171
 6680SOL    HW131673   3.963   2.595   4.070 -0.6379  0.9456  2.0719
 6680SOL    HW231674   4.082   2.678   4.055 -0.0012  1.2444  0.1431
 6681SOL     OW31675   0.161   3.752  10.882 -0.2137  0.4671 -0.3987
 6681SOL    HW131676   0.137   3.683  10.821 -1.8927  1.7312 -1.1868
 6681SOL    HW231677   0.151   3.712  10.968  0.3713 -1.1128 -1.0774
 6682SOL     OW31678   0.454   2.770   2.934  0.2142  0.1345 -0.0698
 6682SOL    HW131679   0.450   2.794   2.841 -1.1713  2.5050  0.6186
 6682SOL    HW231680   0.519   2.834   2.961 -0.1239  0.0883  0.8550
 6683SOL     OW31681   3.778   1.459  15.891  0.2772  0.4556 -0.3239
 6683SOL    HW131682   3.870   1.470  15.867  1.1662  0.0310  2.8630
 6683SOL    HW231683   3.778   1.368  15.922 -0.5067  1.0475  1.3513
 6684SOL     OW31684   2.280   0.585  11.714  0.4911  0.1908 -0.2553
 6684SOL    HW131685   2.187   0.561  11.719  0.2372  1.1494 -0.4159
 6684SOL    HW231686   2.313   0.524  11.649  0.1273  2.3245 -2.4366
 6685SOL     OW31687   1.215   3.678   7.722 -0.3880 -0.0118  0.3430
 6685SOL    HW131688   1.133   3.721   7.748 -0.4690  1.5306 -2.4517
 6685SOL    HW231689   1.189   3.589   7.747  1.2260 -0.9814 -1.4035
 6686SOL     OW31690   2.890   0.088  16.918  0.0330  0.1061  0.2073
 6686SOL    HW131691   2.867   4.731  16.907 -0.3690  0.3293 -0.8254
 6686SOL    HW231692   2.864   0.100  17.010  2.1899 -0.8291  0.9440
 6687SOL     OW31693   0.981   4.481   1.780  0.3336 -0.4515 -0.2651
 6687SOL    HW131694   1.038   4.483   1.857  0.0526 -0.9604 -0.0430
 6687SOL    HW231695   0.934   4.400   1.802  1.2076 -1.3173 -1.5439
 6688SOL     OW31696   1.505   2.925   9.775  0.3415 -0.3357  0.4771
 6688SOL    HW131697   1.524   2.833   9.793 -1.6744 -1.0869 -1.3136
 6688SOL    HW231698   1.594   2.958   9.789  0.8759 -1.1827 -0.9593
 6689SOL     OW31699   2.989   0.401   1.582 -0.2408  0.0109  0.4219
 6689SOL    HW131700   2.928   0.328   1.591 -0.3504  0.1692  0.9737
 6689SOL    HW231701   2.936   0.461   1.531  0.1265  1.3165  1.5822
 6690SOL     OW31702   0.363   1.374   5.218 -0.3632  0.0796 -0.4674
 6690SOL    HW131703   0.341   1.291   5.259 -0.0365 -0.2847 -1.0397
 6690SOL    HW231704   0.408   1.406   5.297 -0.8886 -0.6965  0.1389
 6691SOL     OW31705   2.802   0.466   1.357  0.1564 -0.1831  0.3201
 6691SOL    HW131706   2.801   0.553   1.317 -1.2387  0.7505  2.4189
 6691SOL    HW231707   2.871   0.429   1.301 -1.4048  0.6241 -2.1289
 6692SOL     OW31708   3.932   4.340   0.300 -0.4877  0.1628 -0.0911
 6692SOL    HW131709   3.887   4.264   0.265 -0.3020 -0.1868  0.4351
 6692SOL    HW231710   3.899   4.337   0.389 -0.1939 -2.3624 -0.0766
 6693SOL     OW31711   3.027   3.784  10.643  0.4644  0.0219  0.0312
 6693SOL    HW131712   3.024   3.733  10.562  1.5375  0.2111 -0.1383
 6693SOL    HW231713   3.117   3.816  10.631  0.3440  0.3118 -0.1008
 6694SOL     OW31714   0.157   2.692   2.932 -0.9590 -0.6739  0.1246
 6694SOL    HW131715   0.164   2.633   2.857 -0.3237 -1.4115  0.7632
 6694SOL    HW231716   0.246   2.694   2.967 -0.9935  0.8657  0.1240
 6695SOL     OW31717   3.767   0.900   9.537  0.6160  0.1502 -0.1558
 6695SOL    HW131718   3.706   0.936   9.601  0.8732 -0.5152  0.4633
 6695SOL    HW231719   3.773   0.971   9.474  2.5796  0.2461  0.1574
 6696SOL     OW31720   1.653   4.487   3.708  0.0460 -0.1117 -0.6705
 6696SOL    HW131721   1.633   4.482   3.615 -1.6326 -4.5789 -0.0259
 6696SOL    HW231722   1.656   4.395   3.732 -0.0699  0.0846  0.1042
 6697SOL     OW31723   0.665   3.843  17.522 -0.5899 -0.0876  0.3041
 6697SOL    HW131724   0.593   3.814  17.466  0.9289 -0.7157 -1.3412
 6697SOL    HW231725   0.681   3.930  17.486 -0.1975  0.0664  0.8514
 6698SOL     OW31726   0.797   1.005   0.417 -0.5721 -0.5126  0.3445
 6698SOL    HW131727   0.774   0.915   0.439 -3.1663 -0.4611 -2.2471
 6698SOL    HW231728   0.849   1.025   0.495 -0.7027 -1.8766  0.7896
 6699SOL     OW31729   2.067   4.280   6.723 -0.0282  0.3128 -0.0484
 6699SOL    HW131730   1.988   4.332   6.705 -1.7383 -1.8641  1.1265
 6699SOL    HW231731   2.091   4.326   6.804  0.2769 -1.6040  0.9504
 6700SOL     OW31732   0.602   2.712   7.682 -0.4632 -0.0539 -0.4355
 6700SOL    HW131733   0.569   2.797   7.711 -0.2034  0.4358 -1.5464
 6700SOL    HW231734   0.680   2.713   7.737 -1.6668 -0.3242  1.2598
 6701SOL     OW31735   2.800   2.247  11.764  0.9775  0.2437  0.0959
 6701SOL    HW131736   2.859   2.315  11.798 -0.8430 -0.1194  4.0035
 6701SOL    HW231737   2.763   2.287  11.686  1.1118 -1.3224 -0.7633
 6702SOL     OW31738   0.133   0.598  11.448 -0.1615  0.4897 -0.9145
 6702SOL    HW131739   0.178   0.670  11.403  2.1478 -0.0586  0.4899
 6702SOL    HW231740   0.208   0.547  11.480  0.3369  1.6245 -0.3041
 6703SOL     OW31741   3.445   1.054  13.578  0.0846  0.0966  0.0006
 6703SOL    HW131742   3.443   0.976  13.632 -2.4114 -0.9292 -1.6229
 6703SOL    HW231743   3.371   1.035  13.521 -0.4408 -0.2441  0.8068
 6704SOL     OW31744   3.956   0.882  15.117 -0.3189  0.1321 -0.6414
 6704SOL    HW131745   3.862   0.878  15.134 -0.2913  1.9265 -0.0309
 6704SOL    HW231746   3.982   0.940  15.189 -0.3122  0.2739 -0.7576
 6705SOL     OW31747   1.269   0.018  13.795 -0.4753 -0.1428 -0.0230
 6705SOL    HW131748   1.230   4.701  13.864 -1.8303 -0.4466 -1.0235
 6705SOL    HW231749   1.359   0.030  13.826  0.1209 -3.1099 -0.6443
 6706SOL     OW31750   3.729   2.182   6.674  0.6574 -0.2987  0.2800
 6706SOL    HW131751   3.702   2.197   6.583  1.6080 -1.4921 -0.2017
 6706SOL    HW231752   3.822   2.205   6.674  0.1026  1.9457 -0.0893
 6707SOL     OW31753   1.346   0.986   5.911 -0.4394 -0.0023  0.0113
 6707SOL    HW131754   1.268   0.994   5.967 -0.3375  0.9623  0.0085
 6707SOL    HW231755   1.327   1.064   5.860 -0.1183  1.0927  1.5453
 6708SOL     OW31756   2.279   1.387   4.320 -0.2921 -0.1834 -0.1463
 6708SOL    HW131757   2.309   1.449   4.386  0.8017  1.2470 -1.9819
 6708SOL    HW231758   2.213   1.338   4.368 -0.4036  0.0715 -0.0447
 6709SOL     OW31759   3.857   0.801  13.320 -0.0249 -0.1474 -0.2281
 6709SOL    HW131760   3.767   0.830  13.332 -0.2382 -1.1211  0.5195
 6709SOL    HW231761   3.864   0.735  13.389 -0.5519 -1.3397 -1.3214
 6710SOL     OW31762   0.858   0.613   0.796  0.6918 -0.0574  0.3866
 6710SOL    HW131763   0.837   0.702   0.768  0.2915 -0.6282 -1.1270
 6710SOL    HW231764   0.908   0.638   0.874 -1.2982  0.4422  1.4890
 6711SOL     OW31765   2.369   1.239   8.950 -0.4630  0.3700  0.0375
 6711SOL    HW131766   2.433   1.168   8.959 -1.1371 -0.2248  0.1223
 6711SOL    HW231767   2.372   1.277   9.038 -1.8822 -0.4505  0.4422
 6712SOL     OW31768   3.927   2.918   8.808 -0.0644 -0.3004 -0.1095
 6712SOL    HW131769   3.863   2.989   8.818 -0.3020 -0.6193  0.6939
 6712SOL    HW231770   3.941   2.916   8.713  1.5129  1.2511  0.0900
 6713SOL     OW31771   4.712   4.609   7.077  0.3554 -0.5094 -0.2128
 6713SOL    HW131772   0.007   4.626   6.988  0.8091  0.7780  0.1899
 6713SOL    HW231773   0.020   4.684   7.117 -0.0300 -0.5108  0.2104
 6714SOL     OW31774   0.377   3.198   3.986  0.1963  0.1826 -0.6799
 6714SOL    HW131775   0.394   3.190   4.079 -1.4180 -1.2191 -0.5200
 6714SOL    HW231776   0.363   3.293   3.981  0.8158  0.3543  0.8142
 6715SOL     OW31777   3.259   4.065   6.789  0.1156 -0.0149 -0.2958
 6715SOL    HW131778   3.293   4.052   6.878 -1.8531  1.0845  0.6212
 6715SOL    HW231779   3.294   4.152   6.770 -0.0718 -0.0305 -0.7056
 6716SOL     OW31780   2.324   1.211   3.657 -0.4954 -0.3017  0.1946
 6716SOL    HW131781   2.241   1.199   3.703 -0.4127 -0.3236  0.3395
 6716SOL    HW231782   2.361   1.284   3.707  0.6496 -0.8922  0.2076
 6717SOL     OW31783   1.403   4.530   5.543 -0.5705  0.1998 -0.2244
 6717SOL    HW131784   1.485   4.578   5.526 -0.1907 -0.2523  0.3340
 6717SOL    HW231785   1.366   4.579   5.617  1.2611  0.2406  0.6712
 6718SOL     OW31786   3.821   3.237   6.373  0.5858 -0.4210 -0.5227
 6718SOL    HW131787   3.782   3.298   6.310  1.2199 -1.3412 -1.8127
 6718SOL    HW231788   3.797   3.154   6.332  0.5004 -0.2969 -0.7259
 6719SOL     OW31789   0.699   3.208  12.507  0.5764 -0.3806 -0.2372
 6719SOL    HW131790   0.643   3.131  12.510  1.5950 -1.0289  2.3346
 6719SOL    HW231791   0.731   3.223  12.596  0.1658  1.7815 -0.4343
 6720SOL     OW31792   0.737   1.786   8.138 -0.0226  0.5421 -0.0491
 6720SOL    HW131793   0.762   1.748   8.222 -2.0254 -1.0097 -0.1804
 6720SOL    HW231794   0.664   1.844   8.161 -0.8628 -0.3301 -0.5546
 6721SOL     OW31795   3.812   3.819   5.176 -0.1684 -0.3639 -1.0391
 6721SOL    HW131796   3.824   3.914   5.183 -1.0599 -0.4300  1.1234
 6721SOL    HW231797   3.716   3.815   5.174 -0.2298  0.2187  1.7462
 6722SOL     OW31798   1.896   2.283  15.584  0.4997  0.1164 -0.1302
 6722SOL    HW131799   1.951   2.359  15.569  0.4381  0.6133  2.1708
 6722SOL    HW231800   1.809   2.321  15.573 -0.3989 -1.8724  0.1045
 6723SOL     OW31801   2.045   1.111   5.571 -0.6804 -0.1796 -0.6674
 6723SOL    HW131802   1.974   1.089   5.511  0.2672 -1.5924 -1.2652
 6723SOL    HW231803   2.121   1.102   5.514 -0.5248  1.8416 -0.7580
 6724SOL     OW31804   1.510   1.421  15.796  0.8892 -0.3403  0.2029
 6724SOL    HW131805   1.483   1.330  15.782  0.4679 -0.2768  0.5781
 6724SOL    HW231806   1.430   1.452  15.752  1.8409 -0.5946 -1.6988
 6725SOL     OW31807   2.566   2.987  10.055 -0.1537  0.0073  0.4850
 6725SOL    HW131808   2.543   2.972  10.146 -2.6285  1.7201  0.1296
 6725SOL    HW231809   2.509   3.062  10.039  1.0080  0.4361 -1.7285
 6726SOL     OW31810   3.077   1.351   3.026 -0.2526  0.1890 -0.2846
 6726SOL    HW131811   3.094   1.326   3.117 -0.7558 -0.4217 -0.3603
 6726SOL    HW231812   3.044   1.440   3.038 -0.8355  0.3760 -3.4293
 6727SOL     OW31813   4.045   3.335   1.576 -0.7836  0.4617  0.1696
 6727SOL    HW131814   4.064   3.276   1.649  0.6017  0.9984  0.2411
 6727SOL    HW231815   4.135   3.361   1.557 -0.3499 -1.7369 -0.7524
 6728SOL     OW31816   1.409   3.025   7.276 -0.1361  0.0117  0.1569
 6728SOL    HW131817   1.344   2.982   7.221 -0.6117 -0.9040  1.4367
 6728SOL    HW231818   1.365   3.021   7.361  0.2630 -5.1024  0.0693
 6729SOL     OW31819   4.336   4.403   9.198 -0.4479  0.0781 -0.0958
 6729SOL    HW131820   4.256   4.354   9.183  0.2365 -0.6405 -1.3848
 6729SOL    HW231821   4.334   4.458   9.119 -1.6914 -1.3311 -1.0216
 6730SOL     OW31822   0.830   4.645   2.913  0.3399 -0.5602 -0.4408
 6730SOL    HW131823   0.859   4.721   2.863  0.9375  0.3243  1.2371
 6730SOL    HW231824   0.914   4.609   2.941  0.5315 -0.9064 -1.4545
 6731SOL     OW31825   0.598   2.018   1.481  0.4297  0.2237  0.3467
 6731SOL    HW131826   0.643   1.990   1.401  1.0733  1.1007  0.4046
 6731SOL    HW231827   0.669   2.056   1.533  0.5062 -0.1500  0.5198
 6732SOL     OW31828   0.348   4.102   3.613 -0.3626 -0.0747  0.3796
 6732SOL    HW131829   0.329   4.015   3.578  2.2640 -0.1570 -0.8493
 6732SOL    HW231830   0.329   4.152   3.534  3.8848  1.4470  0.2726
 6733SOL     OW31831   0.993   1.590  13.993  0.0677 -0.3695 -0.1721
 6733SOL    HW131832   0.992   1.583  13.898  0.8863  0.9110 -0.2671
 6733SOL    HW231833   0.899   1.593  14.010  0.1549  0.1483  0.2047
 6734SOL     OW31834   4.610   1.198   6.514  0.7166 -0.6146  0.5670
 6734SOL    HW131835   4.600   1.191   6.419  1.6469 -0.7120  0.4752
 6734SOL    HW231836   4.665   1.275   6.525  2.1280 -1.8685  2.1213
 6735SOL     OW31837   0.261   1.018   5.807  0.3367  0.7168 -0.0935
 6735SOL    HW131838   0.336   0.982   5.854  0.1361  0.2740 -0.1201
 6735SOL    HW231839   0.272   0.987   5.717  0.9939  0.0786  0.2079
 6736SOL     OW31840   1.758   3.829   1.276 -0.5402 -0.3810  0.5527
 6736SOL    HW131841   1.782   3.790   1.193 -0.6139  0.5062  0.1143
 6736SOL    HW231842   1.743   3.921   1.256  1.7016 -0.4851 -1.4959
 6737SOL     OW31843   2.276   3.971   0.706  0.4380 -0.3832 -0.2652
 6737SOL    HW131844   2.192   4.001   0.673  0.2868  1.1344  1.5300
 6737SOL    HW231845   2.342   4.023   0.661  0.9383 -0.8324 -0.0518
 6738SOL     OW31846   4.072   1.179   6.104  0.1206 -0.0537  0.1353
 6738SOL    HW131847   4.027   1.098   6.129 -0.2024  0.2130  0.4088
 6738SOL    HW231848   4.118   1.155   6.022  0.6315 -1.3789  0.7986
 6739SOL     OW31849   3.379   2.330   0.139  0.1228 -0.4489 -0.1299
 6739SOL    HW131850   3.368   2.398   0.072 -0.3444  0.8377  1.2403
 6739SOL    HW231851   3.300   2.334   0.192  0.3500 -1.8737  0.3232
 6740SOL     OW31852   1.463   0.801   9.856  0.0861 -0.4100 -0.1668
 6740SOL    HW131853   1.515   0.822   9.778  0.4086  1.9163  0.6633
 6740SOL    HW231854   1.405   0.729   9.831  0.2474 -0.2062 -1.1398
 6741SOL     OW31855   2.667   0.026   7.858  0.3311  0.7983 -0.2477
 6741SOL    HW131856   2.643   0.092   7.924  1.1404  2.0647 -1.2355
 6741SOL    HW231857   2.599   0.037   7.792 -0.0343  0.7543  0.1190
 6742SOL     OW31858   1.501   2.416   9.503  0.3659 -0.2251  0.4165
 6742SOL    HW131859   1.456   2.386   9.582 -1.4420  3.4563  0.7762
 6742SOL    HW231860   1.499   2.330   9.461  0.8085 -0.6048  1.1867
 6743SOL     OW31861   3.829   0.826   1.509  0.0199  0.5532 -0.8355
 6743SOL    HW131862   3.747   0.791   1.544  1.7265 -1.8550  0.7704
 6743SOL    HW231863   3.897   0.792   1.567 -0.3924  0.2049 -0.5545
 6744SOL     OW31864   0.021   1.273  13.018  0.2336 -0.2236 -0.1558
 6744SOL    HW131865   4.708   1.192  13.003 -2.6552  1.5077 -0.1207
 6744SOL    HW231866   0.031   1.308  12.929  1.3180  0.2201  0.1369
 6745SOL     OW31867   0.240   1.368  16.488  0.1699 -0.4679 -0.0794
 6745SOL    HW131868   0.328   1.357  16.523  0.1871  1.8414  0.6001
 6745SOL    HW231869   0.272   1.373  16.397 -0.5255  2.8028 -0.1423
 6746SOL     OW31870   0.033   3.418   6.529 -0.0136  0.1889 -0.5185
 6746SOL    HW131871   4.702   3.431   6.461 -0.6198 -0.0990  0.0207
 6746SOL    HW231872   0.038   3.322   6.532  2.6112  0.3248 -0.3468
 6747SOL     OW31873   0.342   0.990   8.903 -0.5492 -0.1781 -0.2796
 6747SOL    HW131874   0.395   1.033   8.836  0.6222  0.0825  0.8098
 6747SOL    HW231875   0.363   1.048   8.976 -1.9654  0.4297 -0.3665
 6748SOL     OW31876   0.322   1.046   6.959  0.3242  0.2216  0.1034
 6748SOL    HW131877   0.353   1.130   6.992  1.7016  0.1325 -0.9674
 6748SOL    HW231878   0.277   1.019   7.039 -1.2866 -0.2166 -0.9621
 6749SOL     OW31879   1.014   4.103   8.722  0.8433  0.0378  0.0033
 6749SOL    HW131880   1.096   4.153   8.716 -0.2823  1.9707  0.8045
 6749SOL    HW231881   0.947   4.168   8.698  1.6304  0.7714 -0.2323
 6750SOL     OW31882   2.173   0.529  16.500 -0.1797  0.1965  0.6144
 6750SOL    HW131883   2.129   0.575  16.571  2.2880 -1.2367  3.0795
 6750SOL    HW231884   2.198   0.606  16.448  1.7942  0.8642  2.5582
 6751SOL     OW31885   4.608   2.804  14.621 -0.8256 -0.2451 -0.1660
 6751SOL    HW131886   4.562   2.755  14.689 -1.2716 -1.1811 -1.1520
 6751SOL    HW231887   4.539   2.819  14.557 -1.6811 -0.4540  0.7005
 6752SOL     OW31888   0.121   1.228  13.601 -0.0608  0.5420  0.7862
 6752SOL    HW131889   0.205   1.250  13.642  0.5910 -1.1520  0.3580
 6752SOL    HW231890   0.132   1.136  13.576 -0.6742  1.0736 -1.3433
 6753SOL     OW31891   0.076   3.067   2.089 -0.1126  0.3162 -0.2804
 6753SOL    HW131892   0.116   3.002   2.032 -1.0586 -0.5465  0.0320
 6753SOL    HW231893   0.139   3.054   2.160 -1.2800  2.6090  1.1940
 6754SOL     OW31894   2.330   4.422   3.977 -0.7041 -0.1732  0.3490
 6754SOL    HW131895   2.412   4.464   3.955  0.1356 -0.8234  2.2315
 6754SOL    HW231896   2.276   4.478   3.921  0.2697  0.0505 -0.3649
 6755SOL     OW31897   1.324   0.540  12.668 -0.4651 -0.1881  0.8134
 6755SOL    HW131898   1.343   0.632  12.649 -1.3593 -0.3003 -0.5850
 6755SOL    HW231899   1.365   0.534  12.755 -2.3281  0.7811  1.7654
 6756SOL     OW31900   4.232   0.367   5.836 -0.4222 -0.1850 -0.0327
 6756SOL    HW131901   4.199   0.440   5.888  3.3816  1.5514 -0.0065
 6756SOL    HW231902   4.198   0.288   5.878  3.0336 -2.0479 -0.6945
 6757SOL     OW31903   4.118   4.612   8.903  0.1536  0.7311 -0.2263
 6757SOL    HW131904   4.114   4.563   8.820  0.3332 -0.5821  0.5316
 6757SOL    HW231905   4.029   4.646   8.910  0.3858  1.5223 -1.0777
 6758SOL     OW31906   1.433   0.458  12.904  0.3471  0.3923 -0.2163
 6758SOL    HW131907   1.500   0.407  12.951  2.0019  2.9950  0.2590
 6758SOL    HW231908   1.452   0.551  12.918  1.0668  0.2530 -0.2394
 6759SOL     OW31909   3.030   3.102   2.443 -0.2903 -0.0425 -0.3198
 6759SOL    HW131910   2.941   3.136   2.449 -0.0562  0.5802 -0.3567
 6759SOL    HW231911   3.093   3.174   2.439  1.3444 -1.3564  1.6400
 6760SOL     OW31912   4.489   2.685   4.975 -0.0241 -0.2860 -0.1003
 6760SOL    HW131913   4.446   2.662   5.057  1.2431 -0.8336  0.4099
 6760SOL    HW231914   4.507   2.603   4.929 -1.3031 -0.8361  0.3718
 6761SOL     OW31915   4.647   4.028  17.291 -0.1808  0.5878 -0.0249
 6761SOL    HW131916   4.727   3.979  17.272  0.9165  1.5917  1.9664
 6761SOL    HW231917   4.684   4.116  17.294  0.1402  0.4619 -0.2853
 6762SOL     OW31918   1.520   3.660   2.368 -0.4704  0.5781  0.3504
 6762SOL    HW131919   1.574   3.581   2.370  0.7497  1.3837 -0.0904
 6762SOL    HW231920   1.462   3.638   2.440 -2.0827  2.1721 -0.4657
 6763SOL     OW31921   0.728   0.905  11.067  0.4891  0.4903 -0.0453
 6763SOL    HW131922   0.675   0.850  11.124 -0.2512  0.6136 -0.6066
 6763SOL    HW231923   0.817   0.871  11.073 -0.0794 -1.8561 -4.3621
 6764SOL     OW31924   4.211   2.222  12.712 -0.2151  0.4225  0.3050
 6764SOL    HW131925   4.216   2.127  12.707 -0.2723  0.4784 -0.7877
 6764SOL    HW231926   4.136   2.226  12.771 -0.0536  1.3168  0.4505
 6765SOL     OW31927   1.151   1.897   5.405  0.7581 -0.1370  0.5405
 6765SOL    HW131928   1.102   1.820   5.434 -2.8806  2.1393  0.4330
 6765SOL    HW231929   1.169   1.871   5.315 -2.2644  0.0914 -0.1326
 6766SOL     OW31930   4.699   0.571   5.683  0.1201  0.8982  0.2201
 6766SOL    HW131931   0.030   0.505   5.663 -1.7067 -1.5032  2.0955
 6766SOL    HW231932   4.652   0.527   5.753  1.1424  1.8620  1.5247
 6767SOL     OW31933   2.928   2.115   6.728  0.2337  0.0647 -0.9296
 6767SOL    HW131934   2.834   2.129   6.718  0.0813 -0.2064  0.2091
 6767SOL    HW231935   2.934   2.087   6.819 -0.1587 -0.8653 -1.1904
 6768SOL     OW31936   2.309   0.592  12.545  0.3091 -0.0691 -0.4810
 6768SOL    HW131937   2.345   0.576  12.458  2.6089 -0.7447  0.5708
 6768SOL    HW231938   2.387   0.634  12.583  1.2107 -0.1902 -2.1969
 6769SOL     OW31939   0.337   3.246   6.862 -0.3457 -0.1821 -0.3148
 6769SOL    HW131940   0.314   3.339   6.856 -0.2888 -0.2854 -2.1040
 6769SOL    HW231941   0.340   3.230   6.956 -2.6009 -0.8957 -0.3409
 6770SOL     OW31942   0.172   0.964   9.360 -0.6710  0.0624  0.0571
 6770SOL    HW131943   0.095   0.962   9.303  0.1817  0.9976 -1.1277
 6770SOL    HW231944   0.194   0.874   9.384  0.1322  0.2232 -0.0691
 6771SOL     OW31945   1.146   2.784   1.651 -0.2440  0.0677 -0.6199
 6771SOL    HW131946   1.144   2.696   1.688 -1.2397  0.5663  0.5018
 6771SOL    HW231947   1.168   2.755   1.562  1.6975  0.3152 -0.2211
 6772SOL     OW31948   4.541   1.939   3.095 -0.3772 -0.0329  0.2429
 6772SOL    HW131949   4.480   1.962   3.165 -0.6627  0.8596 -0.2967
 6772SOL    HW231950   4.538   2.022   3.048  2.7315 -0.6908 -1.1155
 6773SOL     OW31951   4.632   4.091   7.709 -0.0955 -0.0993 -0.1858
 6773SOL    HW131952   4.620   4.033   7.634  1.4032 -1.5994  0.7097
 6773SOL    HW231953   4.622   4.174   7.663 -0.2891 -0.0135  0.0138
 6774SOL     OW31954   3.000   3.040   1.857 -0.7244  0.4313 -0.1755
 6774SOL    HW131955   3.012   2.966   1.915 -0.8019  0.4951 -0.0776
 6774SOL    HW231956   2.936   3.005   1.795  1.1799 -2.2057 -0.6405
 6775SOL     OW31957   0.165   3.489   4.723  0.4030 -0.5163  0.4911
 6775SOL    HW131958   0.129   3.528   4.643  0.9203 -0.2604  0.3824
 6775SOL    HW231959   0.231   3.549   4.759 -0.5812  2.4113 -2.6140
 6776SOL     OW31960   0.740   2.640   0.275 -0.4474  0.3473 -0.2780
 6776SOL    HW131961   0.726   2.672   0.185 -1.3675 -1.4251 -0.7706
 6776SOL    HW231962   0.679   2.697   0.321 -2.5942 -2.7035  0.6327
 6777SOL     OW31963   2.199   3.833   1.877  0.5303  0.4458  0.7793
 6777SOL    HW131964   2.275   3.808   1.824 -0.0728  1.6148 -0.6309
 6777SOL    HW231965   2.166   3.910   1.832 -0.2345 -0.0340  0.5191
 6778SOL     OW31966   4.072   1.882   5.651  0.2186 -0.1795  0.6619
 6778SOL    HW131967   4.108   1.850   5.733  0.3936  2.1023  1.4753
 6778SOL    HW231968   4.152   1.902   5.602  0.7498 -2.3918  0.6154
 6779SOL     OW31969   2.404   1.313   2.976  0.0603 -0.3807 -0.1718
 6779SOL    HW131970   2.493   1.285   2.997  0.8592  2.5130  0.3376
 6779SOL    HW231971   2.393   1.374   3.049  0.2487 -0.1302 -0.3528
 6780SOL     OW31972   1.155   1.381   8.674  0.1609 -0.3345  0.4572
 6780SOL    HW131973   1.198   1.422   8.750 -0.0620 -0.3768  0.6070
 6780SOL    HW231974   1.073   1.348   8.710 -1.0837  1.1687 -1.0425
 6781SOL     OW31975   1.758   1.692   9.719  0.3403 -0.0129  0.3044
 6781SOL    HW131976   1.797   1.605   9.714  1.6144  0.3107  3.9735
 6781SOL    HW231977   1.828   1.757   9.709 -1.1923  1.6508  0.2644
 6782SOL     OW31978   2.001   3.608   3.723 -0.1963 -0.3592 -0.5372
 6782SOL    HW131979   2.054   3.646   3.793  2.4543  0.0951 -2.7401
 6782SOL    HW231980   2.056   3.530   3.713  0.9446  0.2897  0.7028
 6783SOL     OW31981   1.550   2.637  14.615 -0.1391  0.1290  0.1716
 6783SOL    HW131982   1.530   2.612  14.525 -0.1218 -2.1538  0.7883
 6783SOL    HW231983   1.635   2.595  14.611 -1.6388 -2.9376  0.3369
 6784SOL     OW31984   1.453   0.867   7.472  0.2124 -0.2608  0.3728
 6784SOL    HW131985   1.462   0.951   7.518  1.0555 -0.5288  0.6912
 6784SOL    HW231986   1.358   0.867   7.462  0.1672  1.7444  0.6602
 6785SOL     OW31987   1.539   2.169   3.283 -0.1643  0.0663 -0.6714
 6785SOL    HW131988   1.455   2.178   3.326  0.1299 -0.1287 -0.0555
 6785SOL    HW231989   1.559   2.076   3.292  0.3845  0.1775 -0.7346
 6786SOL     OW31990   1.939   0.002  10.011  0.2056  0.1648  0.0502
 6786SOL    HW131991   1.967   0.074   9.955 -0.1849  1.2961  1.3175
 6786SOL    HW231992   1.955   4.659   9.958  1.1152 -0.6062  1.4570
 6787SOL     OW31993   1.150   4.443   6.721  0.2347 -0.2114  0.5664
 6787SOL    HW131994   1.151   4.397   6.805  0.6662  1.3010  1.3884
 6787SOL    HW231995   1.134   4.376   6.653  1.2246 -1.6815  1.7732
 6788SOL     OW31996   4.219   4.111   2.262 -0.2395 -0.0103 -0.1510
 6788SOL    HW131997   4.245   4.202   2.267  0.1018 -0.2267  1.8571
 6788SOL    HW231998   4.303   4.073   2.287 -0.6153 -0.2792  0.6907
 6789SOL     OW31999   2.824   0.127   0.546  0.1115 -0.3925  0.0483
 6789SOL    HW132000   2.917   0.106   0.531  0.3443  1.7687 -1.5622
 6789SOL    HW232001   2.786   0.047   0.582 -0.3322 -1.4778 -2.7631
 6790SOL     OW32002   3.039   3.341   1.569  0.2111 -0.4313  0.1567
 6790SOL    HW132003   2.989   3.261   1.552 -0.6378  0.2708 -0.6647
 6790SOL    HW232004   3.102   3.303   1.631  2.0662  1.8975 -0.2999
 6791SOL     OW32005   3.927   0.370   6.938  0.3427  0.2704  0.9834
 6791SOL    HW132006   3.859   0.304   6.955  1.3041 -1.3454 -1.4148
 6791SOL    HW232007   4.006   0.317   6.947 -0.1680 -0.9301 -1.6697
 6792SOL     OW32008   2.280   1.473  12.340 -0.0517 -0.0185  0.2595
 6792SOL    HW132009   2.315   1.387  12.317  1.9106  0.7774  0.2733
 6792SOL    HW232010   2.209   1.445  12.398  0.0054 -0.1052  0.2869
 6793SOL     OW32011   2.181   3.384  11.702 -0.0115 -0.6483  0.3713
 6793SOL    HW132012   2.221   3.438  11.633  0.1324 -1.2898 -0.0437
 6793SOL    HW232013   2.256   3.386  11.761  0.4317  1.7552 -0.2340
 6794SOL     OW32014   2.482   1.486  15.136  0.2879  0.5576  0.1325
 6794SOL    HW132015   2.475   1.400  15.177 -1.0822 -0.8536 -3.1200
 6794SOL    HW232016   2.408   1.486  15.076 -0.3908 -1.5649  0.9613
 6795SOL     OW32017   0.231   3.964   0.736 -0.5611 -0.5811  0.6514
 6795SOL    HW132018   0.282   3.979   0.816  0.1186 -0.2339  0.1566
 6795SOL    HW232019   0.296   3.958   0.665  2.7020  0.6373  3.5189
 6796SOL     OW32020   1.460   2.140   9.384 -0.0236  0.2848  0.4562
 6796SOL    HW132021   1.487   2.051   9.365 -1.6949  0.4101 -2.4368
 6796SOL    HW232022   1.366   2.133   9.365  0.3030  0.3100 -1.1776
 6797SOL     OW32023   4.289   1.139   2.420  0.0984 -0.0491 -0.1815
 6797SOL    HW132024   4.366   1.194   2.435 -1.1524  1.6354  0.0423
 6797SOL    HW232025   4.306   1.119   2.328 -0.5991 -1.8738  0.0769
 6798SOL     OW32026   1.268   2.945  11.070 -0.0088  0.5895  0.5590
 6798SOL    HW132027   1.221   2.971  10.990 -2.3978 -0.6905  1.5418
 6798SOL    HW232028   1.352   2.988  11.052  0.4737  0.0836  1.6347
 6799SOL     OW32029   2.395   3.080  11.583 -0.2844 -0.4944  0.4343
 6799SOL    HW132030   2.406   3.029  11.502 -0.3537  0.1594  0.0089
 6799SOL    HW232031   2.301   3.094  11.571 -0.5373 -0.0360  3.0425
 6800SOL     OW32032   1.415   4.175   6.632 -0.7070 -0.1319 -0.3081
 6800SOL    HW132033   1.453   4.150   6.548  0.4071 -0.1256  0.1932
 6800SOL    HW232034   1.327   4.138   6.639 -1.6451  2.3150  0.8369
 6801SOL     OW32035   4.712   3.302   3.606  0.6078  0.4694  0.2192
 6801SOL    HW132036   4.693   3.394   3.624  0.4644  0.3533  0.6469
 6801SOL    HW232037   0.066   3.287   3.635  0.5104  0.0593  0.3055
 6802SOL     OW32038   2.715   2.429   9.351 -0.4388 -0.7257 -0.4483
 6802SOL    HW132039   2.752   2.512   9.379  0.9387 -1.4370 -0.1476
 6802SOL    HW232040   2.784   2.366   9.371  2.5505  2.1283 -1.8502
 6803SOL     OW32041   1.352   0.521  11.110  0.0124  0.0158 -0.4339
 6803SOL    HW132042   1.422   0.579  11.079  0.9627 -0.3046  1.1192
 6803SOL    HW232043   1.342   0.461  11.036  2.2004 -0.6254 -0.2320
 6804SOL     OW32044   2.741   3.090   8.041 -0.0160 -0.3457  0.0717
 6804SOL    HW132045   2.785   3.005   8.034 -1.2831 -1.1494  1.7990
 6804SOL    HW232046   2.749   3.119   8.132  0.3708  0.8888 -0.3531
 6805SOL     OW32047   3.837   1.127   2.112 -0.0630  0.3141  0.0755
 6805SOL    HW132048   3.848   1.033   2.126 -0.6722  0.1142 -0.7894
 6805SOL    HW232049   3.793   1.128   2.027 -0.4218  1.7259  0.2789
 6806SOL     OW32050   0.255   0.889   1.345  0.4189  0.5653 -0.3785
 6806SOL    HW132051   0.221   0.839   1.419  1.6292  2.3967  1.3822
 6806SOL    HW232052   0.350   0.884   1.354  0.1887  0.4892  1.9621
 6807SOL     OW32053   0.802   3.694  12.596  0.4583 -0.6437  0.1561
 6807SOL    HW132054   0.836   3.608  12.623  1.4039  0.8770  3.7475
 6807SOL    HW232055   0.711   3.675  12.572  1.3010 -1.1965 -2.6528
 6808SOL     OW32056   4.286   3.255   7.584 -0.1042 -0.2260  0.0884
 6808SOL    HW132057   4.341   3.237   7.507 -0.4592 -1.1457  0.0459
 6808SOL    HW232058   4.245   3.339   7.565  0.6925 -0.2495 -1.7044
 6809SOL     OW32059   4.223   1.893   5.121  0.1621 -0.6860 -0.0340
 6809SOL    HW132060   4.165   1.925   5.052  0.3486  0.4759  0.3492
 6809SOL    HW232061   4.227   1.970   5.177  0.1113 -0.5327 -0.2412
 6810SOL     OW32062   1.014   3.145   1.671 -0.5147  0.1030 -0.2407
 6810SOL    HW132063   0.990   3.237   1.661  0.9819  0.5497  0.2333
 6810SOL    HW232064   1.015   3.132   1.766 -1.8590  1.6710 -0.0102
 6811SOL     OW32065   3.036   3.607   8.651  0.0982 -0.1299 -0.0870
 6811SOL    HW132066   2.954   3.621   8.603  0.4479  1.7512 -0.1492
 6811SOL    HW232067   3.066   3.697   8.638 -0.0099 -0.3309 -1.7036
 6812SOL     OW32068   4.334   3.079  15.364  0.0990 -0.2732 -0.3795
 6812SOL    HW132069   4.250   3.033  15.353  0.0567  0.4349 -3.0931
 6812SOL    HW232070   4.336   3.113  15.274  0.0934  0.2599 -0.1737
 6813SOL     OW32071   3.133   1.643   1.631 -0.5310  0.5246  0.3288
 6813SOL    HW132072   3.162   1.601   1.712  0.5409 -0.7357 -0.6959
 6813SOL    HW232073   3.219   1.665   1.595 -1.5332  0.7427 -1.9234
 6814SOL     OW32074   3.968   2.561   6.605  0.0151  0.2142 -0.2608
 6814SOL    HW132075   3.987   2.559   6.511 -2.7064  0.0106 -0.7965
 6814SOL    HW232076   3.947   2.651   6.628 -3.5082 -1.0172  1.3332
 6815SOL     OW32077   4.021   1.387   1.557 -0.1338  0.6029 -0.1629
 6815SOL    HW132078   4.102   1.401   1.507 -0.9882 -1.3175 -2.0899
 6815SOL    HW232079   3.996   1.295   1.545  1.2510  0.4348 -1.9127
 6816SOL     OW32080   2.051   3.676   1.498 -0.5560  0.0549 -0.0127
 6816SOL    HW132081   1.991   3.631   1.438  2.4024  0.1964 -3.0371
 6816SOL    HW232082   2.132   3.629   1.478 -0.6775 -0.8448  1.6164
 6817SOL     OW32083   0.859   4.351  13.909 -0.1894  0.1930 -0.2299
 6817SOL    HW132084   0.907   4.274  13.878 -0.0673  0.3934 -0.5401
 6817SOL    HW232085   0.785   4.308  13.954  0.3854  0.5123  1.0115
 6818SOL     OW32086   1.641   1.307  16.320 -0.2076  0.8381 -0.2379
 6818SOL    HW132087   1.551   1.306  16.287 -0.4398  0.6418  0.3986
 6818SOL    HW232088   1.685   1.296  16.236  1.0640  0.2385  0.5181
 6819SOL     OW32089   3.879   3.652   8.760 -0.1140  0.0592  0.5924
 6819SOL    HW132090   3.931   3.672   8.682 -1.0896  0.2999  0.0012
 6819SOL    HW232091   3.800   3.628   8.712 -0.9882  0.8128  1.6659
 6820SOL     OW32092   2.946   1.563   3.872  0.1038 -0.3084 -0.2014
 6820SOL    HW132093   2.956   1.495   3.804 -0.9367  0.4744 -1.1276
 6820SOL    HW232094   3.037   1.592   3.876 -0.3625  0.8881  1.4135
 6821SOL     OW32095   2.578   4.731   3.243 -0.1964  0.0501 -0.1385
 6821SOL    HW132096   2.585   4.732   3.339 -3.1209  0.5391  0.0751
 6821SOL    HW232097   2.516   4.659   3.233  0.1810 -0.4360  0.9627
 6822SOL     OW32098   0.476   3.593   5.244 -0.1055  0.4717  0.2968
 6822SOL    HW132099   0.421   3.595   5.166  2.0950 -1.0265 -1.2509
 6822SOL    HW232100   0.460   3.502   5.269 -0.5112  0.2438 -0.8076
 6823SOL     OW32101   1.094   0.572   9.475 -0.4775 -0.2382 -0.3806
 6823SOL    HW132102   1.171   0.625   9.495  0.2540 -1.5582  0.2727
 6823SOL    HW232103   1.075   0.537   9.562 -2.3522  1.0368 -0.2657
 6824SOL     OW32104   1.362   0.468   0.009 -0.3062  0.2428 -0.0029
 6824SOL    HW132105   1.408   0.542   0.048 -0.9596  0.5196  0.2440
 6824SOL    HW232106   1.417   0.463  17.672 -0.4742 -0.8168 -0.0530
 6825SOL     OW32107   2.119   0.635  17.592 -0.0747  0.1160  0.1848
 6825SOL    HW132108   2.098   0.561  17.648  1.1942  0.1356  0.6903
 6825SOL    HW232109   2.098   0.703  17.656  0.2210  0.7457 -0.3925
 6826SOL     OW32110   1.267   0.316  11.266 -0.2611 -0.4192 -0.1148
 6826SOL    HW132111   1.339   0.287  11.321  1.6673  2.0520 -1.3570
 6826SOL    HW232112   1.305   0.394  11.226  1.2191 -1.1880 -0.2092
 6827SOL     OW32113   0.107   1.528   7.619  0.5022 -0.6642  0.1805
 6827SOL    HW132114   0.034   1.590   7.615  0.9578 -0.1683 -0.4754
 6827SOL    HW232115   0.160   1.567   7.549  0.6961  1.4382  1.5267
 6828SOL     OW32116   2.240   4.391   5.718 -0.2394  0.3800  0.0969
 6828SOL    HW132117   2.284   4.406   5.801  0.3806 -0.3995 -0.0818
 6828SOL    HW232118   2.172   4.458   5.715  0.1636  0.6641 -3.8431
 6829SOL     OW32119   2.198   3.662   3.906 -0.0456  0.0736  0.6860
 6829SOL    HW132120   2.182   3.734   3.967 -0.5293  0.5502 -0.0067
 6829SOL    HW232121   2.273   3.617   3.945  0.2029  0.6710  0.8984
 6830SOL     OW32122   0.179   4.732   7.203 -0.5215 -0.0202  0.5598
 6830SOL    HW132123   0.178   0.006   7.299 -2.2276  0.1258  0.5257
 6830SOL    HW232124   0.230   0.071   7.171 -1.8432  0.4575 -0.4076
 6831SOL     OW32125   2.132   3.421  15.823 -0.0811 -0.1289  0.1217
 6831SOL    HW132126   2.113   3.369  15.901  0.4273  0.8945  0.9300
 6831SOL    HW232127   2.057   3.479  15.828 -0.7118 -0.7974 -1.5183
 6832SOL     OW32128   1.954   0.094   0.104  0.2950  0.1186  0.2083
 6832SOL    HW132129   1.889   0.027   0.125  0.9898 -0.8942 -0.9202
 6832SOL    HW232130   1.922   0.165   0.160 -2.1912 -0.6688 -0.2198
 6833SOL     OW32131   3.976   2.950   4.035  0.7610  0.0636  0.2923
 6833SOL    HW132132   3.978   2.961   4.130 -0.2919 -0.7908  0.4137
 6833SOL    HW232133   3.988   2.855   4.034 -0.9681 -0.1429 -0.0236
 6834SOL     OW32134   1.313   4.499  16.267  0.1320  0.8952 -0.3713
 6834SOL    HW132135   1.290   4.506  16.174  0.4027 -2.0012 -0.6758
 6834SOL    HW232136   1.408   4.492  16.267  0.0704  0.0636 -1.3911
 6835SOL     OW32137   0.018   1.109   8.056 -0.2716  0.1349  0.2226
 6835SOL    HW132138   0.087   1.052   8.022  0.4051  1.4828 -0.6636
 6835SOL    HW232139   4.714   1.140   7.975  2.6000  2.7506 -0.1811
 6836SOL     OW32140   2.502   4.201   8.276 -0.2972  0.2705 -0.3045
 6836SOL    HW132141   2.427   4.154   8.310 -0.4463  0.9005  0.2386
 6836SOL    HW232142   2.479   4.221   8.185 -0.6372 -0.6014 -0.4034
 6837SOL     OW32143   0.297   1.368  13.838 -0.1126 -0.4070 -0.0919
 6837SOL    HW132144   0.373   1.398  13.888 -0.1590  0.8694 -0.7953
 6837SOL    HW232145   0.245   1.447  13.852 -0.9641 -1.1521  0.9025
 6838SOL     OW32146   2.264   0.387  15.395  0.3582  0.0105  0.2516
 6838SOL    HW132147   2.305   0.473  15.379 -1.9843  0.8195 -1.3650
 6838SOL    HW232148   2.323   0.357  15.464  0.3546  0.0258  0.2613
 6839SOL     OW32149   0.856   3.966  15.829 -0.6084 -0.0223  0.3078
 6839SOL    HW132150   0.799   4.019  15.773 -3.2782 -1.3864  1.7426
 6839SOL    HW232151   0.937   4.006  15.798  0.8680 -2.2049  1.3336
 6840SOL     OW32152   2.148   3.834   2.405 -0.1749  0.2774  0.0205
 6840SOL    HW132153   2.215   3.831   2.337 -1.5060 -0.0700 -1.2837
 6840SOL    HW232154   2.068   3.805   2.361  1.0803 -1.2766 -1.2561
 6841SOL     OW32155   2.345   1.150  14.424 -0.4398 -0.3540  0.0507
 6841SOL    HW132156   2.334   1.190  14.510 -1.0063 -0.6608  0.1197
 6841SOL    HW232157   2.440   1.136  14.421  0.3610  4.6628  2.1502
 6842SOL     OW32158   0.040   4.072   8.610  0.4875  0.6080  0.0652
 6842SOL    HW132159   4.703   4.126   8.578  0.8433  0.2469 -1.3464
 6842SOL    HW232160   0.119   4.094   8.561  0.3453 -0.2143 -0.5429
 6843SOL     OW32161   0.804   1.132  16.021 -0.3975  0.5192  0.3707
 6843SOL    HW132162   0.809   1.041  15.991  0.7926  0.7649 -0.1416
 6843SOL    HW232163   0.896   1.150  16.040  0.3540 -0.6468 -2.2322
 6844SOL     OW32164   2.109   2.143   8.900  0.1397  0.0821 -0.7038
 6844SOL    HW132165   2.054   2.137   8.978  3.5016  1.0325  1.6973
 6844SOL    HW232166   2.124   2.238   8.898 -0.4101  0.2038  0.9512
 6845SOL     OW32167   4.461   2.422   5.959 -0.3238  0.6149 -0.1952
 6845SOL    HW132168   4.408   2.426   6.039 -0.4108  2.0907 -0.3164
 6845SOL    HW232169   4.412   2.473   5.894 -0.3669 -0.3153 -0.8983
 6846SOL     OW32170   0.427   0.688   3.470 -0.2306 -0.2341  0.1284
 6846SOL    HW132171   0.418   0.732   3.385 -1.4762  0.5646  0.6724
 6846SOL    HW232172   0.336   0.666   3.488 -0.8405  0.0768 -2.4927
 6847SOL     OW32173   2.170   1.367  11.674  0.2782 -0.8907  0.2019
 6847SOL    HW132174   2.197   1.448  11.718  0.7512 -2.0708  2.0814
 6847SOL    HW232175   2.191   1.394  11.584  0.6580  0.2913  0.6423
 6848SOL     OW32176   4.662   0.931   2.940 -0.4918 -0.1871 -0.1495
 6848SOL    HW132177   4.628   0.987   2.870  1.5465 -0.0961 -1.0690
 6848SOL    HW232178   0.016   0.915   2.911  0.0486  0.8460  0.9686
 6849SOL     OW32179   4.199   2.482  16.975  0.0947 -0.5474  0.0060
 6849SOL    HW132180   4.128   2.470  17.038 -0.9371 -0.1393 -1.0812
 6849SOL    HW232181   4.273   2.474  17.035  1.1706  1.1110 -1.1149
 6850SOL     OW32182   0.819   4.072  17.371 -0.5362  0.2539 -0.0641
 6850SOL    HW132183   0.823   4.108  17.459 -0.2897 -0.9441  0.4137
 6850SOL    HW232184   0.864   4.135  17.315  0.6165 -1.1070 -0.6552
 6851SOL     OW32185   2.045   0.150   8.114 -0.0753  0.1354 -0.2882
 6851SOL    HW132186   2.118   0.094   8.089  0.3147  0.8579 -0.7694
 6851SOL    HW232187   1.964   0.105   8.089  0.4594 -0.2674 -1.2824
 6852SOL     OW32188   4.604   4.372   3.799 -0.1478 -0.2623 -0.4378
 6852SOL    HW132189   4.526   4.426   3.815  1.2593  0.6648  3.3497
 6852SOL    HW232190   4.578   4.290   3.840  1.1686  1.0380  3.0511
 6853SOL     OW32191   2.833   3.535  14.564 -0.5760 -0.0808  0.4156
 6853SOL    HW132192   2.796   3.612  14.606 -2.9530 -1.5655  1.0234
 6853SOL    HW232193   2.907   3.580  14.522  0.1087  0.3949  2.1347
 6854SOL     OW32194   1.801   0.887   7.029 -0.6512  0.2522 -0.1511
 6854SOL    HW132195   1.745   0.910   7.102  0.2741  1.1329  0.2913
 6854SOL    HW232196   1.889   0.904   7.064 -0.5268 -1.0573  0.1396
 6855SOL     OW32197   2.904   3.212   9.558 -0.1415 -0.3107  0.2089
 6855SOL    HW132198   2.882   3.291   9.508 -0.1548  0.7161  1.8479
 6855SOL    HW232199   2.998   3.221   9.573  0.2846 -3.1061 -0.7435
 6856SOL     OW32200   4.358   2.755  15.489 -0.0914  0.2091  0.3374
 6856SOL    HW132201   4.308   2.720  15.415  1.0659  0.5944 -0.6404
 6856SOL    HW232202   4.408   2.823  15.442  1.3092 -2.2950 -1.8072
 6857SOL     OW32203   1.681   1.387   5.486 -0.1548 -0.2329 -0.0130
 6857SOL    HW132204   1.693   1.481   5.499 -0.5738 -0.2442  0.4769
 6857SOL    HW232205   1.586   1.376   5.495 -0.1513 -1.6026 -1.6392
 6858SOL     OW32206   0.730   1.248   4.664  0.1575 -0.8070  0.0257
 6858SOL    HW132207   0.700   1.238   4.574  0.0063  0.7378 -0.0885
 6858SOL    HW232208   0.710   1.342   4.671 -2.7534 -1.5779  2.0823
 6859SOL     OW32209   1.856   2.517   9.990  0.0578 -0.5859  0.6738
 6859SOL    HW132210   1.838   2.424   9.980  1.7900 -1.0552  1.8430
 6859SOL    HW232211   1.934   2.520  10.046 -0.4212  0.1441  1.2975
 6860SOL     OW32212   4.463   0.079   2.477  0.1239 -0.1022  0.1977
 6860SOL    HW132213   4.543   0.052   2.433  1.0499  0.4229  1.5722
 6860SOL    HW232214   4.487   0.170   2.494  2.3550 -0.7310  0.3617
 6861SOL     OW32215   1.583   4.250   2.245 -0.1519  0.3076  0.0251
 6861SOL    HW132216   1.623   4.288   2.166  0.5025 -2.6367 -1.0557
 6861SOL    HW232217   1.536   4.330   2.265  1.1838  1.4450 -1.3529
 6862SOL     OW32218   1.526   2.231   5.654  0.5080  0.6206 -0.1787
 6862SOL    HW132219   1.621   2.226   5.664  0.3698 -2.3725 -0.4278
 6862SOL    HW232220   1.509   2.323   5.673 -2.8817  0.3442 -1.8854
 6863SOL     OW32221   3.310   1.426  11.616  0.0736 -0.1141 -0.1721
 6863SOL    HW132222   3.274   1.439  11.704 -1.1033  0.0451 -0.6780
 6863SOL    HW232223   3.403   1.436  11.632 -0.0752 -1.0010  1.2900
 6864SOL     OW32224   2.235   2.562   6.371 -0.0935  0.1039 -0.3388
 6864SOL    HW132225   2.311   2.612   6.398 -0.0856  0.1862 -0.5111
 6864SOL    HW232226   2.265   2.512   6.295  1.6689  2.7137 -1.3388
 6865SOL     OW32227   1.611   4.460   5.247 -0.3636  0.1515 -0.3321
 6865SOL    HW132228   1.582   4.450   5.156  0.2502  0.1492 -0.5258
 6865SOL    HW232229   1.534   4.497   5.290  0.9076  0.6730  1.4861
 6866SOL     OW32230   1.505   0.773   8.685 -0.3275 -0.3544 -0.1373
 6866SOL    HW132231   1.557   0.785   8.765  0.9533 -1.5763 -0.7881
 6866SOL    HW232232   1.539   0.840   8.625  0.0560  0.3285  0.8296
 6867SOL     OW32233   3.245   3.732   8.476 -0.5605  0.2875 -0.0610
 6867SOL    HW132234   3.304   3.789   8.526  0.7053 -0.9812 -0.1186
 6867SOL    HW232235   3.310   3.669   8.445  0.2047  1.6629 -1.2249
 6868SOL     OW32236   2.804   0.798   2.549 -0.3244 -0.4478  0.1011
 6868SOL    HW132237   2.882   0.789   2.493 -1.1619  0.0554 -1.1571
 6868SOL    HW232238   2.829   0.858   2.619 -0.9788  1.3987 -1.2270
 6869SOL     OW32239   4.315   1.230   1.579 -0.2307 -0.0541  0.3626
 6869SOL    HW132240   4.241   1.176   1.605 -0.0911 -0.7140 -0.6174
 6869SOL    HW232241   4.385   1.181   1.621  1.1095  1.3693 -0.2031
 6870SOL     OW32242   3.191   1.160   2.170  0.0968  0.2506  0.3761
 6870SOL    HW132243   3.150   1.225   2.113  3.6958  1.8580 -0.3771
 6870SOL    HW232244   3.144   1.175   2.251 -0.9773 -1.5676  0.0891
 6871SOL     OW32245   0.333   4.396   5.164  0.0219  0.0257 -0.1055
 6871SOL    HW132246   0.326   4.390   5.260  2.1482 -1.4108 -0.0535
 6871SOL    HW232247   0.257   4.344   5.136  1.1597 -0.0234 -3.0426
 6872SOL     OW32248   1.083   3.336   3.980 -0.4514 -0.1142  0.4786
 6872SOL    HW132249   1.155   3.374   4.030 -1.6440  0.9125  1.4208
 6872SOL    HW232250   1.112   3.319   3.890 -0.1421 -0.6370  0.6811
 6873SOL     OW32251   1.876   3.022   3.797 -0.9945 -0.3588 -0.2888
 6873SOL    HW132252   1.890   3.063   3.711 -1.7940  0.0646 -0.2154
 6873SOL    HW232253   1.797   2.974   3.776 -0.4370 -0.4180 -2.2622
 6874SOL     OW32254   2.001   3.517   1.263  0.0775  0.1406 -0.3742
 6874SOL    HW132255   2.035   3.447   1.208 -3.2531 -0.9658 -1.0604
 6874SOL    HW232256   2.033   3.599   1.225  0.2726  0.9028  1.4266
 6875SOL     OW32257   3.270   1.289  14.802 -0.8793  0.0578 -0.2780
 6875SOL    HW132258   3.357   1.286  14.841 -1.1514  0.1947  0.3383
 6875SOL    HW232259   3.272   1.343  14.722 -1.9824  1.3744  0.5724
 6876SOL     OW32260   1.229   2.502   3.438  0.5324 -0.0753 -0.3887
 6876SOL    HW132261   1.268   2.424   3.478  1.1711  0.9311  0.9303
 6876SOL    HW232262   1.297   2.523   3.374  1.5673  2.4439  1.5649
 6877SOL     OW32263   4.423   0.800   2.173  0.3730  0.1142  0.1659
 6877SOL    HW132264   4.512   0.833   2.164  1.0625 -1.4536  1.2484
 6877SOL    HW232265   4.440   0.713   2.208 -0.4223 -0.3695 -0.6700
 6878SOL     OW32266   1.639   1.817   1.626 -0.1195 -0.2574  0.2495
 6878SOL    HW132267   1.567   1.778   1.675 -1.0095 -0.2732 -1.0941
 6878SOL    HW232268   1.619   1.908   1.646 -1.2459 -0.4565  0.0194
 6879SOL     OW32269   4.558   2.837   7.241  0.2602  0.4056  0.5535
 6879SOL    HW132270   4.574   2.775   7.313  1.3776  0.2431  0.1653
 6879SOL    HW232271   4.628   2.902   7.247 -1.2691  2.0664  0.2521
 6880SOL     OW32272   3.818   4.181   4.946 -0.3112 -0.0524 -0.1081
 6880SOL    HW132273   3.879   4.161   5.017 -1.8073 -1.4453  0.7824
 6880SOL    HW232274   3.845   4.272   4.929 -0.9178  0.1201 -0.1350
 6881SOL     OW32275   3.422   0.769   7.347  0.6352 -0.4600  0.5448
 6881SOL    HW132276   3.423   0.759   7.251  1.0634  0.9494  0.4082
 6881SOL    HW232277   3.389   0.681   7.369  2.6010 -0.8110  2.0509
 6882SOL     OW32278   3.549   1.267   4.511  0.1351  0.2163 -0.3031
 6882SOL    HW132279   3.531   1.193   4.454  0.9303 -0.3637  0.2117
 6882SOL    HW232280   3.473   1.324   4.494 -0.6058 -0.6417  0.1462
 6883SOL     OW32281   0.435   0.778   0.671 -0.1911  0.3470 -0.0686
 6883SOL    HW132282   0.464   0.706   0.726  1.0365  0.2698 -0.8149
 6883SOL    HW232283   0.342   0.761   0.657 -0.6536  1.8786  1.0887
 6884SOL     OW32284   4.252   1.187   9.561  0.5944 -0.7676 -0.1179
 6884SOL    HW132285   4.222   1.102   9.528  0.4136  0.3282 -2.7803
 6884SOL    HW232286   4.195   1.244   9.510 -0.2619 -0.6476  0.9664
 6885SOL     OW32287   2.571   4.700  16.236  0.0373  0.1825 -0.4705
 6885SOL    HW132288   2.660   4.732  16.222 -0.4935  2.2279  0.9722
 6885SOL    HW232289   2.540   4.707  16.145 -1.4612 -1.7456 -0.0978
 6886SOL     OW32290   1.387   4.281   5.583  0.3421  0.2391  0.0168
 6886SOL    HW132291   1.307   4.237   5.553 -0.0123  1.8378 -1.4026
 6886SOL    HW232292   1.368   4.375   5.577  2.7791  0.7049 -0.3674
 6887SOL     OW32293   2.896   3.643   2.403 -0.0586  0.1688 -0.1589
 6887SOL    HW132294   2.829   3.600   2.456 -1.0090  2.0492  0.1783
 6887SOL    HW232295   2.972   3.664   2.458  1.3574 -0.9060 -1.7260
 6888SOL     OW32296   1.443   0.279   2.358  0.0314 -0.1018 -0.5690
 6888SOL    HW132297   1.459   0.302   2.450  0.4310  1.3940 -1.0221
 6888SOL    HW232298   1.363   0.316   2.323  0.2544  1.1078  0.1911
 6889SOL     OW32299   2.716   2.432  17.620  0.0765  0.1591 -0.1349
 6889SOL    HW132300   2.676   2.415  17.706  1.4671 -1.0527  0.2693
 6889SOL    HW232301   2.711   2.528  17.615 -1.7142  0.1696  2.1799
 6890SOL     OW32302   1.780   2.898  15.370 -0.3368  0.0163  0.7484
 6890SOL    HW132303   1.836   2.871  15.443  0.2411 -2.8201 -0.7435
 6890SOL    HW232304   1.820   2.976  15.332  0.0597 -0.8440 -0.5693
 6891SOL     OW32305   1.943   4.197   4.520  0.0148 -0.0270 -0.0977
 6891SOL    HW132306   1.959   4.277   4.470 -2.1134 -0.0845 -0.8736
 6891SOL    HW232307   2.022   4.197   4.573 -0.2107  3.9860  0.2952
 6892SOL     OW32308   1.555   0.985   9.014  0.3775 -0.3244 -0.7353
 6892SOL    HW132309   1.533   0.894   9.033 -0.2196  0.2430  1.2891
 6892SOL    HW232310   1.487   1.011   8.952  0.2537  3.3757  0.9690
 6893SOL     OW32311   3.071   4.595   4.806 -0.6128 -0.1603 -0.7329
 6893SOL    HW132312   2.984   4.565   4.833 -0.9802  0.4240 -1.2707
 6893SOL    HW232313   3.058   4.690   4.812 -0.3412 -0.1585 -0.1403
 6894SOL     OW32314   0.579   2.260   4.137 -0.0990 -0.1620 -0.7149
 6894SOL    HW132315   0.593   2.353   4.119  3.1960 -0.6318 -0.6755
 6894SOL    HW232316   0.537   2.249   4.051  0.6239 -0.6991 -1.0049
 6895SOL     OW32317   1.871   4.177  12.710 -0.8828 -0.0441 -0.1389
 6895SOL    HW132318   1.844   4.127  12.787  1.1289 -2.3173 -0.9090
 6895SOL    HW232319   1.868   4.269  12.736  0.6020  0.0538 -0.2733
 6896SOL     OW32320   2.042   2.763  15.976  0.5506  0.3486  0.2198
 6896SOL    HW132321   1.961   2.769  16.026  0.5846  0.4846  0.2603
 6896SOL    HW232322   2.051   2.669  15.964 -0.3733  0.3089 -0.1819
 6897SOL     OW32323   0.965   4.434   4.789 -0.2358 -0.3204  0.0458
 6897SOL    HW132324   0.914   4.466   4.863 -1.3953 -1.4113 -0.2905
 6897SOL    HW232325   0.999   4.352   4.824 -0.3224 -1.0192 -1.4644
 6898SOL     OW32326   3.953   3.134  10.681 -0.2127  0.2262  0.0939
 6898SOL    HW132327   3.892   3.090  10.622  0.6225 -0.6091 -0.1504
 6898SOL    HW232328   4.037   3.121  10.637 -0.0866 -0.9989  0.6893
 6899SOL     OW32329   4.412   2.933   2.492  0.0012  0.0863 -0.0005
 6899SOL    HW132330   4.397   2.861   2.553 -1.2070  0.9098  0.6643
 6899SOL    HW232331   4.352   2.998   2.529  1.4836  0.8832  1.0212
 6900SOL     OW32332   0.735   3.383   6.907  0.0023 -0.1109 -0.0085
 6900SOL    HW132333   0.811   3.418   6.859 -1.1721 -0.8435 -2.4138
 6900SOL    HW232334   0.731   3.437   6.986  2.1656  0.8276 -0.5398
 6901SOL     OW32335   2.635   0.034  16.562  0.5894 -0.9139  0.3526
 6901SOL    HW132336   2.539   0.039  16.569  0.7071  0.1427  1.2358
 6901SOL    HW232337   2.640   4.701  16.496 -0.9225  1.1691 -1.9523
 6902SOL     OW32338   1.535   3.350   5.047 -0.1179 -0.0528  0.1075
 6902SOL    HW132339   1.482   3.377   4.972  0.5543  1.0307  0.0106
 6902SOL    HW232340   1.505   3.396   5.125  0.6748 -0.3501  0.5870
 6903SOL     OW32341   1.378   3.324   5.419  0.1181 -0.2403  0.1117
 6903SOL    HW132342   1.471   3.333   5.399 -0.4801  0.7380 -2.3895
 6903SOL    HW232343   1.335   3.317   5.333  1.8259 -0.0912 -0.7519
 6904SOL     OW32344   3.595   3.642  15.828  0.1125 -0.1667 -0.3481
 6904SOL    HW132345   3.538   3.650  15.905  1.3319 -1.8973  0.7315
 6904SOL    HW232346   3.555   3.571  15.777  0.7426  0.3883 -1.6002
 6905SOL     OW32347   3.916   0.771  15.560 -0.4235  0.6208  0.4807
 6905SOL    HW132348   4.009   0.754  15.546 -0.0219  2.0539  1.5297
 6905SOL    HW232349   3.927   0.858  15.596 -1.0686  0.4418  1.1175
 6906SOL     OW32350   1.027   4.342   0.387  0.1445  0.6338  0.2772
 6906SOL    HW132351   1.114   4.318   0.418 -1.7337 -2.4508  3.1537
 6906SOL    HW232352   1.030   4.437   0.394 -3.0086  0.6319  1.4273
 6907SOL     OW32353   1.240   1.697   2.049 -0.0254 -0.4027 -0.0369
 6907SOL    HW132354   1.251   1.738   1.963 -2.0611  2.0048  0.8523
 6907SOL    HW232355   1.147   1.715   2.063  0.0607 -0.4527  0.6011
 6908SOL     OW32356   3.674   1.433   8.816  0.0498 -0.1255 -0.3961
 6908SOL    HW132357   3.768   1.418   8.817  0.0012 -0.2350  2.1925
 6908SOL    HW232358   3.643   1.383   8.891  2.3704  0.9067  1.2118
 6909SOL     OW32359   2.909   0.358   6.912  0.0759 -0.0932 -0.0104
 6909SOL    HW132360   2.945   0.421   6.850  0.5601 -0.0203  0.3524
 6909SOL    HW232361   2.841   0.402   6.963 -0.6614 -1.6462  0.3223
 6910SOL     OW32362   1.048   3.278   8.819  0.0495 -0.2228 -0.6114
 6910SOL    HW132363   1.030   3.213   8.887  0.2893  0.3429 -0.0009
 6910SOL    HW232364   1.003   3.358   8.848  0.1752 -0.5185  0.3976
 6911SOL     OW32365   2.115   4.440  12.965 -0.5515  0.3963  0.8416
 6911SOL    HW132366   2.111   4.349  12.994  0.3070  0.3805  0.9087
 6911SOL    HW232367   2.023   4.468  12.958 -0.8284 -0.9992 -0.8588
 6912SOL     OW32368   3.304   0.246   5.056 -0.1756  0.4235 -0.0163
 6912SOL    HW132369   3.283   0.324   5.003  0.5813  0.3819 -0.3679
 6912SOL    HW232370   3.351   0.192   4.993 -1.9812 -0.0803 -0.9441
 6913SOL     OW32371   1.348   1.824  12.963  0.1957  0.5749 -0.1581
 6913SOL    HW132372   1.397   1.760  13.015  0.4879 -0.2282 -1.3989
 6913SOL    HW232373   1.341   1.778  12.879  1.6875  0.1786 -0.0567
 6914SOL     OW32374   3.680   1.786  14.545 -0.2342  0.1205 -0.0578
 6914SOL    HW132375   3.759   1.794  14.597 -0.9248  1.8314  0.7179
 6914SOL    HW232376   3.611   1.780  14.612  0.6650  2.8385  1.0853
 6915SOL     OW32377   3.060   1.757  15.892  1.0240 -0.4506 -0.3263
 6915SOL    HW132378   2.997   1.711  15.948 -2.1574  1.7198 -2.1769
 6915SOL    HW232379   3.114   1.791  15.963  0.8858 -1.4812  0.2720
 6916SOL     OW32380   3.645   3.581  16.708  0.4509  0.1146 -0.2456
 6916SOL    HW132381   3.704   3.582  16.633  0.3947 -0.1193 -0.2916
 6916SOL    HW232382   3.632   3.675  16.724  0.1296 -0.1490  0.9840
 6917SOL     OW32383   0.444   1.848   1.623 -0.4407  0.5633  0.4993
 6917SOL    HW132384   0.500   1.915   1.582  0.5743 -1.8403 -2.0328
 6917SOL    HW232385   0.477   1.781   1.563  0.2224 -1.5639  3.2506
 6918SOL     OW32386   0.061   2.732   6.427 -0.2568 -0.1129  0.8739
 6918SOL    HW132387   0.126   2.772   6.369 -0.8331  1.5024  1.3431
 6918SOL    HW232388   4.716   2.733   6.374  0.3832 -0.2143 -0.0990
 6919SOL     OW32389   1.078   0.405  11.843 -0.1237 -0.0646 -0.4873
 6919SOL    HW132390   1.016   0.429  11.775 -2.8918 -2.9427  0.9962
 6919SOL    HW232391   1.134   0.349  11.790 -1.7947 -2.0344 -0.1923
 6920SOL     OW32392   2.709   1.464  16.663  0.5816 -0.3190 -0.5544
 6920SOL    HW132393   2.670   1.519  16.595  0.5105 -2.1125 -1.9371
 6920SOL    HW232394   2.644   1.395  16.664  2.2401 -1.8535  0.6831
 6921SOL     OW32395   2.539   1.315   3.406 -0.1836 -0.2437 -0.5153
 6921SOL    HW132396   2.498   1.248   3.351 -1.0474  0.8227 -1.1583
 6921SOL    HW232397   2.459   1.340   3.451  0.9374  1.0802  0.7315
 6922SOL     OW32398   0.981   2.503   6.698 -0.0017  0.3762 -0.3974
 6922SOL    HW132399   0.982   2.592   6.733 -0.1520  0.4148 -0.4906
 6922SOL    HW232400   1.062   2.470   6.737 -0.2907 -1.7808 -1.6273
 6923SOL     OW32401   1.034   3.586   0.411  0.1914 -0.0071  0.1061
 6923SOL    HW132402   1.033   3.605   0.505 -0.7786 -0.3357  0.1628
 6923SOL    HW232403   0.978   3.655   0.375 -0.0027 -0.4181 -0.3868
 6924SOL     OW32404   2.063   1.463   1.524 -0.1014 -0.3448  0.0701
 6924SOL    HW132405   1.973   1.430   1.530 -0.3722  0.2864 -0.4579
 6924SOL    HW232406   2.087   1.466   1.617 -2.9674 -0.3525  0.8316
 6925SOL     OW32407   0.100   3.603  14.579 -1.0978 -0.0853 -0.5924
 6925SOL    HW132408   0.019   3.592  14.629 -0.3247  0.0213  0.6816
 6925SOL    HW232409   0.066   3.605  14.490  1.0275  0.6838 -1.3839
 6926SOL     OW32410   4.251   1.831   9.047  0.1097  0.1442 -0.0531
 6926SOL    HW132411   4.297   1.754   9.083  0.9510  0.0019 -1.4422
 6926SOL    HW232412   4.328   1.877   9.013  0.1290  1.7579  2.1667
 6927SOL     OW32413   4.002   3.635  16.726  0.2673 -0.1464 -0.2318
 6927SOL    HW132414   3.965   3.636  16.637  0.0331 -0.8684 -0.1430
 6927SOL    HW232415   4.073   3.570  16.723  1.1226  0.8623 -2.0341
 6928SOL     OW32416   3.743   4.435  17.345 -0.0489 -0.2747  0.3402
 6928SOL    HW132417   3.766   4.348  17.377 -2.3331 -1.5838 -1.5836
 6928SOL    HW232418   3.819   4.480  17.382 -1.1672 -0.2174  2.5636
 6929SOL     OW32419   4.514   3.340   3.934 -0.6521 -0.4017  0.3878
 6929SOL    HW132420   4.576   3.269   3.947  1.2206  1.0648 -0.4715
 6929SOL    HW232421   4.570   3.411   3.902 -2.0644  0.1812 -0.8144
 6930SOL     OW32422   3.885   0.790   4.788  0.2541  0.1648 -0.0587
 6930SOL    HW132423   3.972   0.803   4.825  0.5182 -0.1413 -0.5795
 6930SOL    HW232424   3.889   0.696   4.805  2.0277  0.1960 -0.2870
 6931SOL     OW32425   1.927   0.861   1.423  0.1066  0.6303  0.4147
 6931SOL    HW132426   1.987   0.926   1.459  2.3900 -0.4964 -1.3693
 6931SOL    HW232427   1.990   0.824   1.361 -2.1757 -0.4490 -1.2411
 6932SOL     OW32428   3.253   0.801   4.320 -0.5499  0.0740 -0.1579
 6932SOL    HW132429   3.296   0.852   4.252 -0.4331  1.0938  0.6881
 6932SOL    HW232430   3.254   0.870   4.386 -3.0772 -0.0034 -0.0272
 6933SOL     OW32431   0.327   4.209   8.141  0.2911 -0.2158  0.4560
 6933SOL    HW132432   0.232   4.200   8.151  0.0550  1.8524  0.1639
 6933SOL    HW232433   0.344   4.286   8.086 -0.5667 -1.0148 -0.9287
 6934SOL     OW32434   1.371   0.438   4.273 -0.5130  0.0235  0.0723
 6934SOL    HW132435   1.317   0.406   4.345 -0.8084  0.3308 -0.0116
 6934SOL    HW232436   1.373   0.530   4.300 -0.4135  0.9202 -2.9277
 6935SOL     OW32437   4.297   3.978   2.642 -0.4464  0.4268 -0.1399
 6935SOL    HW132438   4.331   3.936   2.563  1.0768 -0.0823  0.7968
 6935SOL    HW232439   4.313   4.071   2.625 -0.1298  0.1976 -1.1199
 6936SOL     OW32440   3.463   2.884   4.852 -0.2493 -0.0579 -0.4392
 6936SOL    HW132441   3.415   2.833   4.917  0.0326  0.2182 -0.0097
 6936SOL    HW232442   3.441   2.970   4.887  2.4520  0.4172  0.1059
 6937SOL     OW32443   2.037   3.003   4.183  0.1456  0.0034 -0.0839
 6937SOL    HW132444   2.017   3.063   4.111 -1.4888  1.0488  1.2352
 6937SOL    HW232445   2.096   3.062   4.228  0.8080 -2.7029  2.6316
 6938SOL     OW32446   2.302   0.718  15.382 -0.2141 -0.3996 -0.7448
 6938SOL    HW132447   2.279   0.739  15.473 -2.4410  1.6906 -1.7684
 6938SOL    HW232448   2.335   0.805  15.358 -1.9521  0.9255  1.5650
 6939SOL     OW32449   4.262   4.316   8.369  0.0272  0.0347 -0.2235
 6939SOL    HW132450   4.313   4.291   8.292  2.5083  0.0548  1.4166
 6939SOL    HW232451   4.332   4.352   8.424  0.7952 -0.1784 -1.0718
 6940SOL     OW32452   4.559   3.023   9.814  0.7993 -0.7016 -0.3187
 6940SOL    HW132453   4.585   3.080   9.741 -1.1058  0.7476  0.1331
 6940SOL    HW232454   4.471   3.057   9.828  1.3410  1.4181 -1.8800
 6941SOL     OW32455   0.080   3.924   7.521  0.2802 -0.2277 -0.0296
 6941SOL    HW132456   0.016   3.871   7.568 -0.1801 -0.6660 -1.1645
 6941SOL    HW232457   0.113   3.976   7.594  0.3793 -1.7130  0.9695
 6942SOL     OW32458   0.760   1.569  16.354 -0.0756 -0.4023  0.0979
 6942SOL    HW132459   0.737   1.660  16.335 -0.7546 -0.7403 -0.6640
 6942SOL    HW232460   0.802   1.585  16.439  2.8388  1.8738 -1.7947
 6943SOL     OW32461   2.516   1.870   6.784 -0.5079 -0.1266  1.0161
 6943SOL    HW132462   2.506   1.832   6.871 -0.1094 -0.6435  0.8400
 6943SOL    HW232463   2.582   1.938   6.797  0.2117 -0.5088 -0.5440
 6944SOL     OW32464   2.004   0.640   3.571 -0.2002  0.1010  0.1619
 6944SOL    HW132465   1.950   0.618   3.647 -0.8316  1.2165  0.0380
 6944SOL    HW232466   1.937   0.676   3.513  0.2801  0.8095  0.0424
 6945SOL     OW32467   1.205   0.702   7.488 -0.2193  0.7868 -0.1961
 6945SOL    HW132468   1.276   0.675   7.547  0.6188  2.4315 -0.4666
 6945SOL    HW232469   1.130   0.664   7.534  1.2756 -0.1368  1.5310
 6946SOL     OW32470   0.531   0.675  11.128  0.1524  0.0002  0.3292
 6946SOL    HW132471   0.489   0.759  11.108  1.7195  0.4554 -1.0441
 6946SOL    HW232472   0.597   0.656  11.061 -0.2928 -0.6031  0.0667
 6947SOL     OW32473   1.744   3.802   7.504 -0.3748  0.3245 -0.2907
 6947SOL    HW132474   1.657   3.776   7.535  0.0381  1.3734  1.7664
 6947SOL    HW232475   1.727   3.829   7.414 -0.2129 -0.6101 -0.6025
 6948SOL     OW32476   2.696   2.157  13.228  0.0163  0.0853  0.4068
 6948SOL    HW132477   2.653   2.094  13.170 -2.2415  1.0864  1.0060
 6948SOL    HW232478   2.703   2.111  13.312 -0.2395  1.0759  0.9761
 6949SOL     OW32479   0.737   1.265   3.839 -0.0829 -0.1186 -0.1098
 6949SOL    HW132480   0.688   1.292   3.761  0.1480  1.3933  0.2696
 6949SOL    HW232481   0.702   1.306   3.919 -0.6694  0.8450 -0.8656
 6950SOL     OW32482   2.952   4.124  10.335 -0.1082  0.1181 -0.2063
 6950SOL    HW132483   3.028   4.112  10.393 -0.8256  0.3201  0.7640
 6950SOL    HW232484   2.905   4.192  10.382 -0.2597  0.2958 -0.6189
 6951SOL     OW32485   3.824   0.388   4.570  0.2163  0.2726 -0.1670
 6951SOL    HW132486   3.780   0.345   4.643 -0.5707  2.4659  0.6374
 6951SOL    HW232487   3.754   0.443   4.536 -0.7231 -0.7345  0.1319
 6952SOL     OW32488   0.182   3.463   1.416 -0.2089  0.6952 -0.0563
 6952SOL    HW132489   0.150   3.514   1.491 -1.0999 -1.7331  1.2010
 6952SOL    HW232490   0.260   3.421   1.452 -1.6403 -2.1847 -0.3768
 6953SOL     OW32491   3.070   3.790   7.375  0.7322 -0.0701 -0.4779
 6953SOL    HW132492   3.008   3.850   7.333  0.6251 -1.0281 -1.6716
 6953SOL    HW232493   3.086   3.834   7.459  2.1476  0.5276 -1.0445
 6954SOL     OW32494   2.215   4.708   8.028  0.8229  0.1937  0.0443
 6954SOL    HW132495   2.229   4.617   8.054 -1.8792 -0.0265  0.7208
 6954SOL    HW232496   2.181   4.699   7.939  4.7818  2.0363 -1.6423
 6955SOL     OW32497   0.664   3.411  12.057  0.1265  0.9072  0.5477
 6955SOL    HW132498   0.631   3.384  11.971  0.2009  0.7995  0.5529
 6955SOL    HW232499   0.734   3.468  12.025  0.2627 -1.0104 -2.5172
 6956SOL     OW32500   0.776   2.657   4.667 -0.2265 -0.5309 -0.3311
 6956SOL    HW132501   0.858   2.635   4.712  0.5866  1.5331 -0.7829
 6956SOL    HW232502   0.791   2.742   4.624  1.1969 -0.3581  0.5286
 6957SOL     OW32503   3.201   2.815   7.430  0.5277  0.3057  0.8638
 6957SOL    HW132504   3.285   2.781   7.462 -0.0372 -0.4847  1.4802
 6957SOL    HW232505   3.205   2.905   7.464  1.9448 -0.2178  2.0892
 6958SOL     OW32506   1.586   1.218   9.421 -0.9834 -0.4854 -0.0262
 6958SOL    HW132507   1.579   1.294   9.479  2.0599  0.8557 -1.3977
 6958SOL    HW232508   1.594   1.147   9.485 -3.1510 -0.1686  0.6025
 6959SOL     OW32509   2.888   3.598  17.474  0.2350  0.3674 -0.0279
 6959SOL    HW132510   2.886   3.529  17.541  0.3327  2.2440  1.8993
 6959SOL    HW232511   2.798   3.631  17.469 -0.4235 -1.3052  0.6773
 6960SOL     OW32512   4.570   1.957  15.249  0.0365 -0.1907  0.0230
 6960SOL    HW132513   4.528   1.871  15.245  0.8904 -0.5372 -1.0926
 6960SOL    HW232514   4.588   1.961  15.343  0.7295  1.4589 -0.1654
 6961SOL     OW32515   4.181   1.833   6.850  1.0114 -0.1780 -0.3229
 6961SOL    HW132516   4.218   1.766   6.793 -0.1049  0.2064 -1.5075
 6961SOL    HW232517   4.091   1.815   6.824  0.4379 -0.9917  2.3521
 6962SOL     OW32518   3.340   2.371   1.291 -0.7957  0.3200 -0.4195
 6962SOL    HW132519   3.378   2.284   1.274 -1.0644  0.1624 -0.2251
 6962SOL    HW232520   3.386   2.393   1.372 -1.4690  0.5168 -0.0921
 6963SOL     OW32521   3.957   3.332   2.925 -0.2541  0.4941  0.6509
 6963SOL    HW132522   3.885   3.390   2.898  1.8520  3.6173  1.7703
 6963SOL    HW232523   4.022   3.402   2.922 -0.5060  0.6355 -2.0164
 6964SOL     OW32524   2.969   3.778  12.337 -0.0756 -0.4852 -0.0277
 6964SOL    HW132525   2.988   3.736  12.421 -1.0214 -0.9749 -0.0592
 6964SOL    HW232526   2.916   3.708  12.300  1.0132 -1.3736  0.0820
 6965SOL     OW32527   0.706   0.809   3.411  0.1755  0.0775  0.1722
 6965SOL    HW132528   0.756   0.765   3.343 -2.0580 -2.4967  0.1862
 6965SOL    HW232529   0.627   0.755   3.416 -0.7180  1.2299 -1.6467
 6966SOL     OW32530   1.523   0.001   1.923 -0.2887 -0.3857 -0.2389
 6966SOL    HW132531   1.494   0.030   2.009 -1.2653 -0.9800 -0.3668
 6966SOL    HW232532   1.444   0.003   1.869 -0.7498 -2.6035  0.3580
 6967SOL     OW32533   4.202   4.592   6.994  0.5034  0.3220  0.2405
 6967SOL    HW132534   4.230   4.634   6.912 -1.6882  0.7061 -0.2980
 6967SOL    HW232535   4.172   4.506   6.965 -0.3465  0.6535  0.1388
 6968SOL     OW32536   3.966   2.533   4.745 -0.2950 -0.4105 -0.3327
 6968SOL    HW132537   3.962   2.617   4.790 -1.4175 -1.4950  1.5979
 6968SOL    HW232538   3.917   2.563   4.669 -2.2795  1.5066  1.7095
 6969SOL     OW32539   0.049   1.330  17.353  0.3204 -0.0507  0.5085
 6969SOL    HW132540   0.102   1.259  17.389  0.7187 -0.1129 -0.1962
 6969SOL    HW232541   0.115   1.370  17.297  0.6262  0.1579  1.0135
 6970SOL     OW32542   4.536   2.498   9.177 -0.5817 -0.1057 -0.0028
 6970SOL    HW132543   4.451   2.529   9.146 -0.8069  0.1243  0.8485
 6970SOL    HW232544   4.593   2.487   9.101 -0.4712  0.7077 -0.0310
 6971SOL     OW32545   0.217   4.166   5.491  0.2329  0.2595  0.2629
 6971SOL    HW132546   0.270   4.244   5.472 -0.3060  0.3409 -0.9065
 6971SOL    HW232547   0.143   4.210   5.532 -0.8897 -0.6050 -0.8320
 6972SOL     OW32548   0.300   3.724   2.387  0.5907 -0.2766  0.0057
 6972SOL    HW132549   0.210   3.730   2.418  0.3061 -2.4766 -0.3493
 6972SOL    HW232550   0.327   3.638   2.420  2.4906 -0.3386 -1.7243
 6973SOL     OW32551   0.489   1.065   1.575  0.4527 -0.1015 -0.0414
 6973SOL    HW132552   0.505   1.117   1.654 -2.2123  0.8116 -0.0955
 6973SOL    HW232553   0.432   1.135   1.542 -1.2387 -0.8922  1.2358
 6974SOL     OW32554   1.340   2.609   8.990 -0.0594  0.0205 -0.2426
 6974SOL    HW132555   1.321   2.550   9.063  1.0482 -2.3364 -1.8293
 6974SOL    HW232556   1.254   2.641   8.965 -0.4020 -0.5618  0.2075
 6975SOL     OW32557   0.778   1.529   3.092 -0.0008  0.2241  0.3089
 6975SOL    HW132558   0.818   1.553   3.175  3.5602 -0.1739 -1.3027
 6975SOL    HW232559   0.840   1.579   3.038  0.3037 -1.8729 -1.2959
 6976SOL     OW32560   1.981   0.676   2.661 -0.5199 -0.1337 -0.0195
 6976SOL    HW132561   2.059   0.730   2.648 -0.1126 -1.2113 -2.1472
 6976SOL    HW232562   2.010   0.590   2.631 -0.0038  0.6303 -1.7191
 6977SOL     OW32563   0.791   1.779   7.597 -0.8000  0.1916  0.3042
 6977SOL    HW132564   0.815   1.823   7.516 -0.1219  1.4793  1.1931
 6977SOL    HW232565   0.758   1.857   7.640 -0.7076  0.9046 -0.9416
 6978SOL     OW32566   0.972   2.560   8.119  0.0839  0.0821  0.5589
 6978SOL    HW132567   0.956   2.595   8.031 -0.1235  2.1496  1.4252
 6978SOL    HW232568   1.062   2.535   8.098  0.8770  1.9218  1.8182
 6979SOL     OW32569   1.117   0.744   5.940  0.0494 -0.0021 -0.1134
 6979SOL    HW132570   1.190   0.755   6.002  1.5162 -0.8698 -1.6932
 6979SOL    HW232571   1.089   0.836   5.949  1.0964  0.2765  0.2895
 6980SOL     OW32572   3.759   1.953   5.569  0.0977 -0.4931  0.7493
 6980SOL    HW132573   3.734   1.867   5.603  1.8927 -0.8755  1.1212
 6980SOL    HW232574   3.847   1.963   5.606  0.9379 -0.0465 -1.3968
 6981SOL     OW32575   4.594   2.307  12.182  0.2624 -0.3531  0.5515
 6981SOL    HW132576   4.554   2.233  12.228 -2.5746  0.3237 -0.8659
 6981SOL    HW232577   4.522   2.353  12.139  0.3668 -0.3700  0.3593
 6982SOL     OW32578   3.283   4.053   7.078 -0.3903 -0.0740  0.2874
 6982SOL    HW132579   3.371   4.088   7.070 -0.5052 -0.1727 -1.4239
 6982SOL    HW232580   3.278   4.026   7.170  0.4447 -0.3719  0.2400
 6983SOL     OW32581   3.431   2.565  12.492 -0.3819  0.0934 -0.1908
 6983SOL    HW132582   3.394   2.493  12.543 -3.0409  0.5433 -1.4493
 6983SOL    HW232583   3.520   2.532  12.501 -0.7268 -1.0970 -1.1740
 6984SOL     OW32584   3.656   0.284   6.376 -0.1629  0.7168 -0.1637
 6984SOL    HW132585   3.709   0.358   6.348  2.1714  0.6505  3.9956
 6984SOL    HW232586   3.568   0.317   6.361 -0.4866  0.6417  1.5953
 6985SOL     OW32587   1.798   2.647   3.606 -0.1653  0.0721 -0.4869
 6985SOL    HW132588   1.745   2.577   3.568 -0.5898 -0.6817  1.5195
 6985SOL    HW232589   1.762   2.719   3.554  0.8977 -0.7901 -2.4164
 6986SOL     OW32590   2.531   4.711  10.483  0.3810  0.4540  0.5448
 6986SOL    HW132591   2.444   0.010  10.503 -0.4746 -0.8868 -0.8861
 6986SOL    HW232592   2.522   4.619  10.507  0.1791  0.5993  1.0319
 6987SOL     OW32593   3.080   0.063  10.220 -0.3851 -1.0187 -0.2047
 6987SOL    HW132594   3.004   0.065  10.162  0.6767 -0.2791 -1.5671
 6987SOL    HW232595   3.122   4.716  10.197  3.5112  0.4974  1.3602
 6988SOL     OW32596   1.055   3.186   7.942 -0.1945  0.3028  0.3602
 6988SOL    HW132597   1.015   3.184   8.029 -0.4958  3.4840  0.2815
 6988SOL    HW232598   1.137   3.137   7.941  0.4308  1.3810 -1.3084
 6989SOL     OW32599   1.101   1.055   6.473 -0.5167  0.2435  0.1550
 6989SOL    HW132600   1.047   1.093   6.543 -0.1080 -2.6980  2.0837
 6989SOL    HW232601   1.190   1.043   6.504 -1.4071 -0.8835  2.3275
 6990SOL     OW32602   1.713   1.139  12.319  0.0390  0.6882 -0.4078
 6990SOL    HW132603   1.686   1.072  12.383  1.8806  0.1258 -0.2094
 6990SOL    HW232604   1.749   1.083  12.250 -4.1890 -0.0588 -2.0169
 6991SOL     OW32605   4.413   0.947   8.862  0.0071 -0.4007 -0.1135
 6991SOL    HW132606   4.483   0.893   8.824 -0.0414 -0.6465  0.1499
 6991SOL    HW232607   4.378   0.989   8.783  1.2801  0.1879 -0.3785
 6992SOL     OW32608   4.133   3.157   2.192  0.6931  0.0401 -0.8095
 6992SOL    HW132609   4.146   3.206   2.273  0.9005 -1.4722  0.0790
 6992SOL    HW232610   4.192   3.083   2.207 -1.8127 -1.5022  1.4869
 6993SOL     OW32611   0.416   1.307   7.016 -0.9162 -0.0796  0.5482
 6993SOL    HW132612   0.343   1.369   7.013 -1.3177 -0.7044 -2.6731
 6993SOL    HW232613   0.472   1.355   7.077 -0.7821 -1.8351  1.8018
 6994SOL     OW32614   4.215   0.972  10.771 -0.1267 -0.0881  0.4359
 6994SOL    HW132615   4.189   0.925  10.851 -1.2734  0.5094  0.4189
 6994SOL    HW232616   4.193   1.063  10.788 -2.0720 -0.5096  0.1822
 6995SOL     OW32617   0.613   1.309   6.812 -0.1212  0.2589  0.4128
 6995SOL    HW132618   0.553   1.323   6.886  0.4401  0.6542  0.8012
 6995SOL    HW232619   0.579   1.364   6.742 -0.7548  1.1762  1.4281
 6996SOL     OW32620   4.221   1.198  10.472 -0.3399  0.4802 -0.2645
 6996SOL    HW132621   4.261   1.282  10.448 -1.3744  0.8947 -0.5285
 6996SOL    HW232622   4.293   1.164  10.526 -2.0469 -1.5729  0.6957
 6997SOL     OW32623   4.188   3.753   5.089 -0.2709  0.6705  0.4262
 6997SOL    HW132624   4.173   3.666   5.053  3.1044  1.1181 -2.1015
 6997SOL    HW232625   4.147   3.742   5.175 -1.8246  2.0038 -0.1383
 6998SOL     OW32626   0.754   1.471  11.792 -0.1179  0.5548  0.7050
 6998SOL    HW132627   0.800   1.462  11.875 -0.1694 -0.2871  0.6425
 6998SOL    HW232628   0.662   1.464  11.818 -0.6139  1.3315 -0.7911
 6999SOL     OW32629   1.519   0.875   5.750 -0.6980 -0.4131 -0.5427
 6999SOL    HW132630   1.465   0.893   5.827  0.1828 -0.6470  0.1221
 6999SOL    HW232631   1.531   0.780   5.748 -0.7136 -0.3874 -1.7009
 7000SOL     OW32632   1.772   3.864   5.777  0.2069  0.2200 -0.1243
 7000SOL    HW132633   1.734   3.949   5.797  0.7750  0.3241  0.5187
 7000SOL    HW232634   1.753   3.810   5.854  0.0123  2.1881  1.2217
 7001SOL     OW32635   2.724   0.344   7.354  0.6279  0.6210  0.1416
 7001SOL    HW132636   2.812   0.307   7.348  0.1282 -0.1712 -2.5630
 7001SOL    HW232637   2.705   0.318   7.444 -2.2014 -0.0680 -0.6323
 7002SOL     OW32638   4.711   3.146   6.230 -0.1202  0.1879  0.1573
 7002SOL    HW132639   4.730   3.148   6.323  0.1035  1.6741  0.0771
 7002SOL    HW232640   0.065   3.150   6.198 -0.4713 -3.1864 -1.2658
 7003SOL     OW32641   1.374   0.808  17.284  0.0207 -0.8362  0.2347
 7003SOL    HW132642   1.372   0.862  17.205  1.4672 -1.1336  0.0023
 7003SOL    HW232643   1.465   0.813  17.313  0.2583 -1.0928 -0.4558
 7004SOL     OW32644   1.396   4.007  11.829  0.0471  0.2542  0.5705
 7004SOL    HW132645   1.356   4.004  11.742  0.9535 -3.0966  0.2676
 7004SOL    HW232646   1.475   3.953  11.822 -0.6087 -0.5570 -0.4727
 7005SOL     OW32647   3.712   0.115   4.590 -0.3707  0.1361  0.0308
 7005SOL    HW132648   3.728   0.116   4.496 -0.1703 -1.0671  0.0597
 7005SOL    HW232649   3.618   0.098   4.587 -0.1077 -1.6490  1.9073
 7006SOL     OW32650   0.831   0.311  14.420 -0.0420  0.3835  0.3763
 7006SOL    HW132651   0.761   0.297  14.483 -1.1932  4.5713  0.0685
 7006SOL    HW232652   0.912   0.290  14.467  0.3631  0.2996 -0.3663
 7007SOL     OW32653   3.083   1.974   8.494  0.3195  0.0284 -0.3956
 7007SOL    HW132654   3.086   1.880   8.472  2.0910  0.2791 -1.1800
 7007SOL    HW232655   3.154   1.992   8.555  0.8050 -0.9857 -0.6548
 7008SOL     OW32656   0.203   0.694  15.259 -0.1443  0.1194 -0.0435
 7008SOL    HW132657   0.109   0.700  15.279 -0.0673 -0.7006  0.5490
 7008SOL    HW232658   0.208   0.721  15.168  1.0049 -1.6916 -0.5096
 7009SOL     OW32659   2.219   2.694  13.737  0.0515 -0.1440 -0.2654
 7009SOL    HW132660   2.311   2.675  13.752  0.0954  0.8634  0.7202
 7009SOL    HW232661   2.185   2.662  13.821  1.5945 -1.4495 -0.1448
 7010SOL     OW32662   1.006   3.834   3.322 -0.0883  0.2454  0.0462
 7010SOL    HW132663   1.020   3.759   3.264  1.7114 -0.9966  2.0932
 7010SOL    HW232664   0.911   3.828   3.332  0.2302 -0.9960  2.2507
 7011SOL     OW32665   0.007   0.586   2.154  0.2804  0.1819  0.2486
 7011SOL    HW132666   4.669   0.526   2.153 -0.3713  0.9862  0.1415
 7011SOL    HW232667   0.006   0.615   2.245  0.5198  2.3333 -0.4165
 7012SOL     OW32668   3.054   3.785   6.190  0.9947 -0.2428 -0.2613
 7012SOL    HW132669   3.143   3.818   6.178  1.1100 -0.3276  0.4011
 7012SOL    HW232670   3.023   3.850   6.254  2.1565 -2.0097  2.0711
 7013SOL     OW32671   3.941   0.383   5.202  0.0104  0.3914 -0.3083
 7013SOL    HW132672   3.941   0.468   5.159  0.7238  0.8874  0.6826
 7013SOL    HW232673   4.024   0.360   5.160 -0.7636 -0.6010 -1.3120
 7014SOL     OW32674   0.706   2.494   3.118  0.4994  0.7184 -0.2500
 7014SOL    HW132675   0.624   2.499   3.167  0.9975 -1.3277  0.8043
 7014SOL    HW232676   0.688   2.526   3.029 -0.1081 -0.7382 -0.6564
 7015SOL     OW32677   4.049   1.599   7.449  0.3372 -0.6878  0.0995
 7015SOL    HW132678   4.051   1.686   7.491 -0.7970 -0.9030  0.6061
 7015SOL    HW232679   4.004   1.632   7.371  0.4271  0.5453  0.5676
 7016SOL     OW32680   0.989   4.158   8.414  0.0646 -0.1104  0.1274
 7016SOL    HW132681   1.014   4.249   8.399  0.2432 -0.2263 -0.2722
 7016SOL    HW232682   0.969   4.143   8.507 -0.0717 -1.5663 -0.1264
 7017SOL     OW32683   3.904   2.786   4.832 -0.1524  0.1557  0.2206
 7017SOL    HW132684   3.895   2.850   4.903  1.3600  0.1583  0.4154
 7017SOL    HW232685   3.830   2.817   4.780 -1.4188 -1.1172  1.2846
 7018SOL     OW32686   0.327   0.200   4.399  0.4029 -0.2798  0.0060
 7018SOL    HW132687   0.353   0.291   4.393 -0.9313  0.2256  2.0020
 7018SOL    HW232688   0.392   0.172   4.334  0.5233  0.4328 -0.1761
 7019SOL     OW32689   2.151   2.720   2.305 -0.2711 -0.4788  0.0284
 7019SOL    HW132690   2.181   2.633   2.276 -1.3203 -1.7514  2.6883
 7019SOL    HW232691   2.233   2.765   2.323 -0.7592  0.1758  0.5865
 7020SOL     OW32692   2.426   2.657   4.085  0.3711  0.2983  0.0306
 7020SOL    HW132693   2.372   2.690   4.013  0.3771 -0.7272 -0.4415
 7020SOL    HW232694   2.476   2.733   4.114 -0.2212  0.6583  0.1181
 7021SOL     OW32695   3.941   4.577  17.149  0.0842  0.2438 -0.6451
 7021SOL    HW132696   4.030   4.599  17.123  0.5510  0.4350  1.0894
 7021SOL    HW232697   3.895   4.618  17.076 -1.6168 -0.3064  0.0985
 7022SOL     OW32698   3.181   4.121   2.522  0.7476  0.1403  0.2934
 7022SOL    HW132699   3.255   4.178   2.499  0.4758  0.9752  1.4549
 7022SOL    HW232700   3.191   4.052   2.458  0.6419  0.3529  0.0483
 7023SOL     OW32701   1.920   0.040  17.074  0.7461  0.4218 -0.5930
 7023SOL    HW132702   1.892   4.710  17.010 -0.0653  1.1748 -1.0079
 7023SOL    HW232703   1.956   0.110  17.019  2.2851  1.1769  1.3754
 7024SOL     OW32704   0.991   3.532   6.937 -1.4762 -0.1375 -0.1932
 7024SOL    HW132705   1.005   3.568   6.849 -2.3638  0.1192 -0.2314
 7024SOL    HW232706   0.943   3.600   6.984  1.7851  2.5560 -0.7806
 7025SOL     OW32707   3.480   1.358   0.980  0.1639 -0.1847  0.3309
 7025SOL    HW132708   3.554   1.314   0.937  0.6347 -0.3268  1.2816
 7025SOL    HW232709   3.414   1.288   0.977  0.8849 -0.8720  0.3182
 7026SOL     OW32710   0.020   3.582   4.534  0.1822  0.8831 -0.1231
 7026SOL    HW132711   4.674   3.626   4.553  1.7051  4.1885 -1.2929
 7026SOL    HW232712   0.034   3.586   4.439  1.3673 -0.9730 -0.0368
 7027SOL     OW32713   3.106   1.281   1.650 -0.0452 -0.0463 -0.1564
 7027SOL    HW132714   3.099   1.201   1.598 -0.6194 -1.6363  2.3352
 7027SOL    HW232715   3.117   1.349   1.584  1.4002  0.9983  1.1753
 7028SOL     OW32716   3.727   4.331  17.092 -0.5383  0.4952 -0.0896
 7028SOL    HW132717   3.715   4.386  17.170 -1.5095 -0.4969  0.4641
 7028SOL    HW232718   3.804   4.281  17.118 -0.6177  1.1423  1.4074
 7029SOL     OW32719   4.174   3.207   5.840 -0.4444  0.0742  0.0057
 7029SOL    HW132720   4.161   3.192   5.747  1.3294  0.9969 -0.3955
 7029SOL    HW232721   4.128   3.129   5.870  0.8041  0.0332  1.8069
 7030SOL     OW32722   0.955   0.277   7.594  0.1694 -0.4077 -0.0104
 7030SOL    HW132723   0.921   0.250   7.509  2.2565  2.1731 -1.6785
 7030SOL    HW232724   1.008   0.354   7.573 -0.5247 -0.1741 -0.9035
 7031SOL     OW32725   1.005   3.979   1.350  0.5130  0.0757  0.5020
 7031SOL    HW132726   1.068   3.948   1.414  1.2653 -1.4414 -0.9851
 7031SOL    HW232727   1.046   4.062   1.328 -0.8452  0.5364 -0.3261
 7032SOL     OW32728   4.084   4.338   5.401  0.2191 -0.2047 -0.8372
 7032SOL    HW132729   4.052   4.279   5.469 -1.0556 -0.5585 -1.7543
 7032SOL    HW232730   4.093   4.422   5.446  0.2592 -0.5668 -0.1681
 7033SOL     OW32731   1.528   3.407   8.753 -0.1735  0.2732  0.5032
 7033SOL    HW132732   1.569   3.423   8.669 -1.4676 -1.2586 -0.4076
 7033SOL    HW232733   1.600   3.393   8.815 -0.7962  1.4614  1.5000
 7034SOL     OW32734   3.080   0.815   7.709 -0.5707 -0.5904 -0.1003
 7034SOL    HW132735   3.097   0.731   7.666  2.6078  0.3915 -0.7736
 7034SOL    HW232736   2.989   0.801   7.735 -0.2522  2.1864  2.3851
 7035SOL     OW32737   2.680   1.077   4.984 -0.0964 -0.2383  0.0780
 7035SOL    HW132738   2.662   1.082   4.890 -1.1386  0.5165  0.3190
 7035SOL    HW232739   2.770   1.109   4.996  0.0653 -0.7457  0.1970
 7036SOL     OW32740   1.327   0.291   3.140 -0.0428  1.2681 -0.3095
 7036SOL    HW132741   1.245   0.340   3.149 -1.2304 -1.2883  2.4697
 7036SOL    HW232742   1.286   0.209   3.167 -2.5608  2.3173 -0.8696
 7037SOL     OW32743   2.790   3.689   5.780  0.0004 -0.1662  0.0797
 7037SOL    HW132744   2.771   3.782   5.767 -0.1389 -0.1456  0.4333
 7037SOL    HW232745   2.837   3.693   5.864 -0.5077  0.1443  0.3563
 7038SOL     OW32746   1.086   4.666   0.695 -0.0417 -0.3540 -0.5115
 7038SOL    HW132747   1.072   4.732   0.626  1.0970  0.9895  0.5352
 7038SOL    HW232748   1.116   4.593   0.640  0.9091  0.1586 -0.6850
 7039SOL     OW32749   3.925   3.601   6.710  0.2944 -0.0897 -0.1500
 7039SOL    HW132750   3.890   3.603   6.621 -1.3151  1.0162  0.4977
 7039SOL    HW232751   3.856   3.569   6.769  0.3439 -1.1051 -0.6329
 7040SOL     OW32752   0.568   2.558   6.515 -0.0366 -0.2492 -0.4483
 7040SOL    HW132753   0.536   2.470   6.495  1.8812 -1.2154  0.6541
 7040SOL    HW232754   0.488   2.609   6.525 -0.9035 -2.1963  2.8171
 7041SOL     OW32755   0.318   4.360   6.915 -0.2638  0.2531 -0.3487
 7041SOL    HW132756   0.232   4.395   6.892  0.3580  2.1274  0.2242
 7041SOL    HW232757   0.302   4.349   7.009 -0.0989  0.2923 -0.3163
 7042SOL     OW32758   3.407   2.130   0.809 -0.1801 -0.3239  0.2320
 7042SOL    HW132759   3.447   2.132   0.896 -1.0696  0.9444  0.6183
 7042SOL    HW232760   3.320   2.101   0.837 -0.4339  0.3501  0.1410
 7043SOL     OW32761   1.161   1.321   0.830 -0.0106 -0.3652 -0.1174
 7043SOL    HW132762   1.254   1.330   0.849 -0.3934  2.1299  0.5769
 7043SOL    HW232763   1.165   1.226   0.814  3.7922  0.0803 -1.7297
 7044SOL     OW32764   0.768   2.032   4.151 -0.6778  0.0530 -1.0369
 7044SOL    HW132765   0.719   1.991   4.079 -2.1503  0.9762 -0.5564
 7044SOL    HW232766   0.728   2.119   4.148 -0.9727 -0.1277 -2.3851
 7045SOL     OW32767   3.994   1.919   0.875 -0.1131 -0.3151 -0.2915
 7045SOL    HW132768   3.945   1.973   0.937  0.6001  0.2223 -0.1982
 7045SOL    HW232769   3.944   1.912   0.794  1.6240 -2.6607 -1.1616
 7046SOL     OW32770   2.789   0.063   4.378  0.4722  0.2855  0.4196
 7046SOL    HW132771   2.767   4.708   4.400 -0.6895  0.2786 -0.8223
 7046SOL    HW232772   2.856   0.078   4.445  0.2410  0.0907  0.6976
 7047SOL     OW32773   1.627   3.134   2.352  0.6403 -0.0601 -0.0804
 7047SOL    HW132774   1.708   3.089   2.375  1.8283  1.5363 -1.1959
 7047SOL    HW232775   1.563   3.082   2.402 -0.5250  0.8291 -0.6496
 7048SOL     OW32776   4.363   4.083  17.260  0.1208  0.5405 -0.5605
 7048SOL    HW132777   4.457   4.079  17.242 -0.1110  1.4480 -1.9577
 7048SOL    HW232778   4.346   4.000  17.304  0.2199  0.5812 -0.4457
 7049SOL     OW32779   2.237   2.969   3.140  0.1698 -0.6939 -0.1189
 7049SOL    HW132780   2.316   2.985   3.087 -1.4596  0.9008 -2.0727
 7049SOL    HW232781   2.170   2.952   3.075 -3.2931  2.4667  2.6406
 7050SOL     OW32782   1.962   3.357  10.634 -0.1605 -0.2712 -0.1116
 7050SOL    HW132783   2.038   3.408  10.664 -0.1605 -0.9151  0.9796
 7050SOL    HW232784   1.952   3.393  10.546  0.8570 -0.8789 -0.4675
 7051SOL     OW32785   1.964   3.650   3.218 -0.2234  0.4524 -0.4580
 7051SOL    HW132786   1.927   3.684   3.300  2.0052  1.8841 -0.0442
 7051SOL    HW232787   1.885   3.641   3.164  1.5363 -1.4324 -2.7013
 7052SOL     OW32788   2.728   1.286  17.192 -0.4403  0.6520  0.4738
 7052SOL    HW132789   2.797   1.297  17.126 -0.5574  0.4684  0.3215
 7052SOL    HW232790   2.657   1.330  17.143  1.3591  0.0725 -2.6810
 7053SOL     OW32791   4.019   1.700  14.891  0.1608  0.2103 -0.2008
 7053SOL    HW132792   3.929   1.708  14.922 -0.7998  0.6165 -3.1318
 7053SOL    HW232793   4.023   1.768  14.823  2.0958  0.8386  0.5338
 7054SOL     OW32794   4.022   3.663   0.125  0.2175 -0.5389 -0.1993
 7054SOL    HW132795   3.961   3.653   0.052 -0.2718 -1.4367  0.3426
 7054SOL    HW232796   4.034   3.758   0.122 -0.0763 -0.4927  0.2011
 7055SOL     OW32797   3.167   0.005   2.624 -0.1012 -0.0443  0.2680
 7055SOL    HW132798   3.191   0.095   2.602 -1.4377 -0.0549 -1.2406
 7055SOL    HW232799   3.247   4.689   2.615  1.7044  2.6277  1.0772
 7056SOL     OW32800   1.817   2.762  11.686  0.4019 -0.1625 -0.1458
 7056SOL    HW132801   1.835   2.856  11.689 -1.9150  0.2792 -0.1421
 7056SOL    HW232802   1.870   2.732  11.612 -0.3273  2.0210 -1.5777
 7057SOL     OW32803   4.230   3.059   2.642 -0.1280 -0.8521  0.3438
 7057SOL    HW132804   4.202   3.134   2.590 -2.5582 -2.1394 -0.2255
 7057SOL    HW232805   4.253   3.093   2.729 -1.8116  2.4044 -0.4758
 7058SOL     OW32806   4.193   1.676   2.004  0.0661 -0.5054 -0.5173
 7058SOL    HW132807   4.170   1.621   1.929 -1.6905 -2.0662  1.1733
 7058SOL    HW232808   4.286   1.658   2.016  0.1156  0.1967  0.1782
 7059SOL     OW32809   4.713   1.446   5.507  0.3065 -0.0011  0.4298
 7059SOL    HW132810   0.046   1.511   5.491 -2.4444  2.6751 -0.4892
 7059SOL    HW232811   0.004   1.375   5.448 -1.5336  0.0566 -0.4521
 7060SOL     OW32812   4.490   0.475   3.878  1.1487 -0.3225 -0.0797
 7060SOL    HW132813   4.492   0.561   3.922  3.5812  0.1157 -1.0237
 7060SOL    HW232814   4.447   0.426   3.948  2.2507 -0.4021  0.5424
 7061SOL     OW32815   4.041   1.106   1.572 -0.1117  0.2368 -0.8843
 7061SOL    HW132816   4.089   1.048   1.513  0.1381 -2.4731  1.9821
 7061SOL    HW232817   4.052   1.056   1.652  2.6164 -0.4845 -1.7203
 7062SOL     OW32818   2.659   1.307   6.199 -0.5073 -0.0106  0.0138
 7062SOL    HW132819   2.565   1.317   6.210 -0.7063 -0.8630 -1.0333
 7062SOL    HW232820   2.667   1.308   6.104  1.6082  1.2086  0.1818
 7063SOL     OW32821   3.057   4.178   1.813 -0.4251  0.0708 -0.2132
 7063SOL    HW132822   3.044   4.164   1.906  0.5899 -1.5443 -0.3110
 7063SOL    HW232823   3.048   4.093   1.769  0.0116  0.5908 -1.3168
 7064SOL     OW32824   3.119   4.497  10.165 -0.3646  0.0576 -0.4365
 7064SOL    HW132825   3.126   4.430  10.097 -0.4183  0.3717 -0.7523
 7064SOL    HW232826   3.209   4.512  10.194 -0.5187 -1.4900  0.8590
 7065SOL     OW32827   2.698   3.463   5.675 -0.6221  0.2226 -0.3511
 7065SOL    HW132828   2.696   3.542   5.729 -0.6058 -0.8218  1.1651
 7065SOL    HW232829   2.661   3.505   5.597 -1.8106  0.0260  0.1135
 7066SOL     OW32830   3.919   3.622  15.608 -0.4260  0.1066 -0.5241
 7066SOL    HW132831   3.964   3.577  15.679  1.2247  3.1223  0.3364
 7066SOL    HW232832   3.965   3.706  15.615  0.6252 -0.6431  1.3217
 7067SOL     OW32833   2.873   0.143  17.664  0.2334 -0.3495 -0.5547
 7067SOL    HW132834   2.806   0.168  17.601 -0.6822 -2.4851 -0.4145
 7067SOL    HW232835   2.858   0.214  17.727  2.3794 -1.2995  1.0154
 7068SOL     OW32836   2.047   2.344   9.708 -0.5321 -0.1236 -0.3301
 7068SOL    HW132837   1.965   2.314   9.748 -1.3604  0.5220 -1.5221
 7068SOL    HW232838   2.101   2.270   9.733 -0.0156  0.0956 -0.7978
 7069SOL     OW32839   0.241   3.400   7.996 -0.0255 -0.1155 -0.0487
 7069SOL    HW132840   0.254   3.366   7.907 -1.1509 -0.1875 -0.1867
 7069SOL    HW232841   0.148   3.381   8.003 -0.4226  1.4435 -1.1430
 7070SOL     OW32842   3.690   0.701  15.456 -0.0915  0.3984  0.6186
 7070SOL    HW132843   3.671   0.794  15.446  0.4080  0.4392 -0.0089
 7070SOL    HW232844   3.781   0.703  15.486 -0.2759 -0.8124  1.2242
 7071SOL     OW32845   3.811   3.396   1.436  0.5108 -0.1018  0.1564
 7071SOL    HW132846   3.867   3.455   1.386 -2.4752  1.9106 -0.7558
 7071SOL    HW232847   3.872   3.352   1.495 -1.3297 -1.9946  0.6422
 7072SOL     OW32848   0.419   3.728  17.013  0.5566  0.1549  0.1554
 7072SOL    HW132849   0.435   3.769  17.098  0.1436  1.3297 -0.3407
 7072SOL    HW232850   0.396   3.640  17.041 -1.2124  1.2720  2.1959
 7073SOL     OW32851   3.814   1.899   5.860  0.2069 -0.0495 -0.3726
 7073SOL    HW132852   3.779   1.896   5.949 -2.1888 -0.2049 -1.3290
 7073SOL    HW232853   3.746   1.962   5.835  0.6229  0.3282 -0.5456
 7074SOL     OW32854   2.389   2.273   1.790  0.3299  0.1610 -0.3894
 7074SOL    HW132855   2.381   2.334   1.863 -0.3850  0.7368 -0.9470
 7074SOL    HW232856   2.463   2.225   1.827 -0.7902 -0.8079  0.5678
 7075SOL     OW32857   2.252   1.555   8.837  0.0987 -0.0433 -0.2789
 7075SOL    HW132858   2.243   1.650   8.830 -1.0350 -0.0948  0.4349
 7075SOL    HW232859   2.229   1.539   8.929  0.1064 -0.8939 -0.4251
 7076SOL     OW32860   3.459   0.377   1.976 -0.7967 -0.2045  0.8830
 7076SOL    HW132861   3.475   0.449   2.037  2.0593  0.3469 -0.5587
 7076SOL    HW232862   3.384   0.404   1.923 -1.1201 -1.9903  0.4126
 7077SOL     OW32863   4.321   2.630   5.814  0.0011  0.0234 -0.0334
 7077SOL    HW132864   4.306   2.693   5.744 -1.3292 -2.2188 -1.7603
 7077SOL    HW232865   4.243   2.574   5.811 -0.2265  0.4520 -1.9350
 7078SOL     OW32866   2.518   2.892   9.219  0.0039  0.1230  0.0750
 7078SOL    HW132867   2.514   2.924   9.129 -0.6257 -1.5793 -0.4991
 7078SOL    HW232868   2.537   2.799   9.214 -1.2711 -0.2175  1.3408
 7079SOL     OW32869   4.495   2.986   6.796  0.0748 -0.0604 -0.4197
 7079SOL    HW132870   4.570   2.978   6.737 -1.2898  0.6552 -2.2283
 7079SOL    HW232871   4.518   3.065   6.846 -2.3929  0.5738 -0.2692
 7080SOL     OW32872   3.604   3.472   7.230  0.5214 -0.7655  0.1602
 7080SOL    HW132873   3.676   3.416   7.201  0.9619 -0.0074 -0.2262
 7080SOL    HW232874   3.563   3.485   7.144  2.9924 -0.2102 -0.9495
 7081SOL     OW32875   0.466   3.201   7.306 -0.3898  0.1515 -0.3566
 7081SOL    HW132876   0.455   3.225   7.398  2.3876 -0.1311  0.0552
 7081SOL    HW232877   0.559   3.179   7.302 -0.6793 -1.0392 -0.4710
 7082SOL     OW32878   0.198   1.762   4.458  0.0403  0.0010  0.7657
 7082SOL    HW132879   0.279   1.810   4.470 -0.6543  1.2217  0.6108
 7082SOL    HW232880   0.144   1.834   4.426  0.9732  0.9843  1.3858
 7083SOL     OW32881   4.102   3.457   5.977 -0.7378  0.5328  0.1612
 7083SOL    HW132882   4.101   3.370   5.937 -0.1358  0.3638  0.5128
 7083SOL    HW232883   4.014   3.472   6.011  0.4586  1.9172  2.6829
 7084SOL     OW32884   3.060   0.022  11.275 -0.6539 -0.5690  0.6923
 7084SOL    HW132885   3.072   0.035  11.181 -1.3290 -2.0766  0.3927
 7084SOL    HW232886   3.145   0.044  11.314  0.0402 -1.3085 -0.3818
 7085SOL     OW32887   3.512   4.129   2.727  0.0837 -0.1547 -0.2135
 7085SOL    HW132888   3.485   4.048   2.682  2.0453  0.2924 -2.2222
 7085SOL    HW232889   3.468   4.200   2.681  0.5775  0.3635  0.1249
 7086SOL     OW32890   3.151   2.102  12.510  0.5037  0.2563  0.4107
 7086SOL    HW132891   3.219   2.040  12.537  1.5685  1.4661  0.5170
 7086SOL    HW232892   3.080   2.039  12.496  0.7665 -0.0908  0.6482
 7087SOL     OW32893   3.913   1.385   5.930  0.2067 -0.4388 -0.3344
 7087SOL    HW132894   3.971   1.454   5.964 -0.0768 -0.1726 -0.3935
 7087SOL    HW232895   3.956   1.303   5.955  1.3519  0.0872 -0.5770
 7088SOL     OW32896   2.036   4.025   7.914  0.7221  0.0655 -0.2746
 7088SOL    HW132897   2.058   3.963   7.983 -0.5765  0.1504  0.2162
 7088SOL    HW232898   1.944   4.002   7.897  0.9494 -0.8836 -0.1980
 7089SOL     OW32899   0.845   1.991  14.486 -0.2493  0.0236 -1.2253
 7089SOL    HW132900   0.761   1.956  14.457 -1.2549  1.4628 -0.0719
 7089SOL    HW232901   0.808   2.059  14.543  0.5888 -0.0407 -0.6098
 7090SOL     OW32902   1.907   1.911   9.082  0.2167  0.4182 -0.2216
 7090SOL    HW132903   1.896   2.004   9.103 -0.3377  0.2638  0.1460
 7090SOL    HW232904   2.000   1.894   9.101 -0.3811 -0.2780  2.0583
 7091SOL     OW32905   0.069   2.253   3.319  0.1096 -0.2512  0.1616
 7091SOL    HW132906   4.713   2.237   3.341 -0.2928  0.3832 -1.0727
 7091SOL    HW232907   0.065   2.302   3.237 -0.0801 -1.4405 -0.5400
 7092SOL     OW32908   0.266   2.189   6.519  0.0542 -0.8156  0.3517
 7092SOL    HW132909   0.262   2.188   6.615  0.2998  0.9867  0.3788
 7092SOL    HW232910   0.186   2.241   6.505 -0.6686 -1.9967  0.1046
 7093SOL     OW32911   4.116   3.942   0.953  0.3719 -0.5669  0.2060
 7093SOL    HW132912   4.191   3.883   0.944  0.3697 -0.4109 -0.8040
 7093SOL    HW232913   4.148   3.995   1.026 -1.8613 -0.7250  1.2934
 7094SOL     OW32914   1.845   4.364   6.191 -0.0721 -0.6339 -0.0221
 7094SOL    HW132915   1.924   4.311   6.190 -0.7432 -1.6599  1.7884
 7094SOL    HW232916   1.781   4.294   6.175 -0.5309 -0.2511  0.1171
 7095SOL     OW32917   0.684   3.473   8.543 -0.2462  0.8314  0.3060
 7095SOL    HW132918   0.743   3.399   8.561 -1.1237  0.0517 -0.0061
 7095SOL    HW232919   0.660   3.476   8.451  0.5855 -0.1433  0.0597
 7096SOL     OW32920   0.549   4.490   1.612 -0.1770 -0.5173 -0.0211
 7096SOL    HW132921   0.543   4.566   1.555 -0.5850 -1.5023 -1.2805
 7096SOL    HW232922   0.641   4.468   1.594 -0.4738 -0.0668 -1.9942
 7097SOL     OW32923   3.491   1.008   6.619  0.4367 -0.0125 -0.2974
 7097SOL    HW132924   3.520   1.094   6.648 -2.7017  0.1656  2.3834
 7097SOL    HW232925   3.396   1.015   6.621  0.3106 -1.4569 -1.3198
 7098SOL     OW32926   0.607   4.676   7.111  0.7148 -0.0095 -0.3705
 7098SOL    HW132927   0.524   4.628   7.115  1.1793 -0.8123 -0.3506
 7098SOL    HW232928   0.607   4.718   7.197  0.1024 -0.8401  0.0393
 7099SOL     OW32929   4.280   2.061   2.072 -0.0611  0.1820 -0.1604
 7099SOL    HW132930   4.334   2.018   2.005  1.0929  2.1313 -0.4648
 7099SOL    HW232931   4.269   2.148   2.034 -0.8868 -1.2573 -3.1713
 7100SOL     OW32932   0.555   4.274   4.505  0.4306 -0.2013 -0.3990
 7100SOL    HW132933   0.607   4.355   4.509  0.9911 -0.5926  0.3578
 7100SOL    HW232934   0.491   4.297   4.573  2.1786 -0.1746  1.2442
 7101SOL     OW32935   4.198   0.074   5.693 -0.0638  0.2744 -0.1205
 7101SOL    HW132936   4.211   0.140   5.762 -2.2587 -1.3177  1.8440
 7101SOL    HW232937   4.268   0.098   5.633  0.1141 -1.3855 -0.5690
 7102SOL     OW32938   4.145   0.958   7.081  0.1650 -0.0763 -0.5000
 7102SOL    HW132939   4.167   0.866   7.068 -0.0322 -0.4842  2.1463
 7102SOL    HW232940   4.051   0.957   7.098 -0.2047  0.5072 -2.5243
 7103SOL     OW32941   2.573   2.210   1.964 -0.1640  0.0107 -0.2164
 7103SOL    HW132942   2.653   2.245   2.003 -0.3858 -1.0251  1.1894
 7103SOL    HW232943   2.591   2.116   1.956  3.4239  0.6085  0.9137
 7104SOL     OW32944   4.638   4.217   2.612  0.4388  0.0094  0.4129
 7104SOL    HW132945   4.632   4.175   2.699 -2.3427 -0.9505 -0.2360
 7104SOL    HW232946   4.687   4.296   2.634  0.0142  0.7811 -1.4666
 7105SOL     OW32947   3.111   3.345   9.743  0.2463 -0.7148  0.1637
 7105SOL    HW132948   3.188   3.347   9.800 -0.2225 -1.4324  0.8159
 7105SOL    HW232949   3.048   3.336   9.814  2.0568 -1.5447  1.6889
 7106SOL     OW32950   3.456   1.995  13.932  0.5496  0.2253  0.2338
 7106SOL    HW132951   3.405   1.994  13.851  0.7569 -0.3462  0.1092
 7106SOL    HW232952   3.428   1.912  13.969 -0.5231 -0.0843 -1.2779
 7107SOL     OW32953   1.237   0.294   7.210  0.4836 -0.6925 -0.1440
 7107SOL    HW132954   1.248   0.318   7.118 -2.6513 -0.2151 -0.3925
 7107SOL    HW232955   1.157   0.345   7.222  1.5347  0.9821 -0.1718
 7108SOL     OW32956   4.290   4.190   7.008  0.5121  0.1987 -0.0738
 7108SOL    HW132957   4.291   4.217   7.099  0.7020 -0.5710  0.1527
 7108SOL    HW232958   4.222   4.246   6.972  0.7200 -1.1045 -2.5017
 7109SOL     OW32959   3.855   4.585   1.106  0.5817  0.4860  0.4458
 7109SOL    HW132960   3.870   4.491   1.090 -2.5218  0.0940 -0.2831
 7109SOL    HW232961   3.759   4.590   1.101  0.8031  2.2294 -2.0431
 7110SOL     OW32962   3.075   0.063  14.012 -0.2691 -0.4132  0.1160
 7110SOL    HW132963   3.045   0.115  14.087  0.2994 -1.9826  1.4344
 7110SOL    HW232964   2.992   0.058  13.966 -0.2977 -1.5919  0.2845
 7111SOL     OW32965   2.214   1.353   5.982 -0.0836 -0.7156  0.6203
 7111SOL    HW132966   2.184   1.263   5.977  1.5642 -1.2014 -0.4116
 7111SOL    HW232967   2.137   1.390   5.938 -0.2324 -1.3846  0.3305
 7112SOL     OW32968   0.897   2.393   6.477  0.0474 -0.5000  0.0481
 7112SOL    HW132969   0.921   2.429   6.562 -0.2498 -0.7615  0.2422
 7112SOL    HW232970   0.955   2.448   6.424 -0.5032 -0.0986 -0.1239
 7113SOL     OW32971   3.534   1.251  14.855  0.2828  0.1071 -0.3617
 7113SOL    HW132972   3.546   1.208  14.770  1.9485 -1.9634  0.9376
 7113SOL    HW232973   3.535   1.183  14.922 -1.3695  0.1884 -0.2768
 7114SOL     OW32974   4.276   0.638   8.671  0.5545  0.2660  0.3978
 7114SOL    HW132975   4.264   0.545   8.691  3.5449 -0.6859 -2.1143
 7114SOL    HW232976   4.347   0.633   8.607 -1.4692 -0.8824 -1.7984
 7115SOL     OW32977   0.653   0.445   2.981 -0.0041  0.5545 -0.1083
 7115SOL    HW132978   0.607   0.519   3.019  0.0648  0.5047  0.0711
 7115SOL    HW232979   0.692   0.492   2.907  1.0603 -0.1689 -0.0108
 7116SOL     OW32980   1.179   3.830  11.454  0.5704  0.2261 -0.3719
 7116SOL    HW132981   1.163   3.909  11.402 -1.4638  1.3520  1.9969
 7116SOL    HW232982   1.271   3.805  11.440  0.6278  0.7448 -0.9240
 7117SOL     OW32983   0.820   3.405   7.317  0.1933  0.1474 -0.1457
 7117SOL    HW132984   0.898   3.457   7.301  0.0267  1.0405  1.8855
 7117SOL    HW232985   0.793   3.429   7.405  0.2174  1.0483 -0.3885
 7118SOL     OW32986   4.040   2.260  11.903 -0.0572 -0.1911 -0.5454
 7118SOL    HW132987   4.119   2.257  11.956 -0.6533 -0.0125  0.3413
 7118SOL    HW232988   3.971   2.290  11.962 -0.0238  0.1356 -0.6747
 7119SOL     OW32989   1.345   1.136   3.043 -0.1063  0.3037 -0.3129
 7119SOL    HW132990   1.387   1.155   2.959 -1.2323 -1.5659 -1.2894
 7119SOL    HW232991   1.359   1.219   3.088 -0.3290 -1.4207  2.9323
 7120SOL     OW32992   2.742   2.288   6.462  0.3309 -0.0898  0.4280
 7120SOL    HW132993   2.746   2.302   6.368 -0.3331 -0.6677  0.3140
 7120SOL    HW232994   2.815   2.227   6.473  1.3654  0.8330 -1.4298
 7121SOL     OW32995   3.661   2.220   8.119  0.5591 -0.1258  0.1698
 7121SOL    HW132996   3.729   2.190   8.180  0.9114  0.1840 -0.0741
 7121SOL    HW232997   3.626   2.301   8.154  1.6898 -0.2304  1.5628
 7122SOL     OW32998   3.091   3.320   7.627 -0.2415  0.0178  0.0805
 7122SOL    HW132999   3.124   3.324   7.717  1.1462  1.3843 -0.4956
 7122SOL    HW233000   3.010   3.369   7.636 -0.9393 -1.3248  1.1414
 7123SOL     OW33001   1.874   3.607   0.172 -0.2133 -0.4051  0.0607
 7123SOL    HW133002   1.887   3.611   0.266 -0.4265 -1.3248  0.1293
 7123SOL    HW233003   1.782   3.632   0.165 -0.1910 -0.3465 -0.0238
 7124SOL     OW33004   3.907   1.754   8.436  0.4705 -0.6027  0.2135
 7124SOL    HW133005   3.827   1.704   8.456 -0.8928  1.4625 -0.1115
 7124SOL    HW233006   3.947   1.686   8.381  0.9217 -0.5483  0.4803
 7125SOL     OW33007   1.173   0.624   8.614 -0.1959  0.7539 -0.4893
 7125SOL    HW133008   1.127   0.575   8.546 -0.2283 -0.4271  0.4072
 7125SOL    HW233009   1.258   0.584   8.597 -1.4387 -1.4926 -1.4058
 7126SOL     OW33010   3.792   1.868   4.877  0.0348  0.6225 -0.7645
 7126SOL    HW133011   3.727   1.800   4.857 -0.5669  0.2492  2.4799
 7126SOL    HW233012   3.743   1.947   4.856 -0.9497  0.8933  2.4528
 7127SOL     OW33013   0.724   4.540   2.587  0.4587 -0.4598  0.6755
 7127SOL    HW133014   0.657   4.547   2.656 -0.7560 -0.8607 -0.4771
 7127SOL    HW233015   0.812   4.549   2.626 -0.7622  1.1943  3.0765
 7128SOL     OW33016   0.346   2.069   2.769 -0.1325 -0.4134 -0.1177
 7128SOL    HW133017   0.288   2.064   2.845 -0.4099  0.3637 -0.2800
 7128SOL    HW233018   0.426   2.104   2.809 -0.1482  1.1706 -1.4604
 7129SOL     OW33019   3.037   0.963   3.603 -0.1196  0.1059  0.3469
 7129SOL    HW133020   3.093   1.040   3.614  0.9055 -0.6191  0.2458
 7129SOL    HW233021   3.088   0.912   3.541 -0.4761  1.5710 -1.1677
 7130SOL     OW33022   1.796   4.642   7.315  0.2365  0.5821  0.0386
 7130SOL    HW133023   1.857   4.576   7.283  2.6042  3.0429 -0.5938
 7130SOL    HW233024   1.742   4.580   7.363 -1.2176  1.7081 -0.1387
 7131SOL     OW33025   0.821   0.812   2.021  0.1167 -0.4697  0.2132
 7131SOL    HW133026   0.812   0.908   2.025 -0.3723 -0.5684  1.4300
 7131SOL    HW233027   0.864   0.785   1.940  2.6756 -0.8835  1.7058
 7132SOL     OW33028   1.046   3.918  11.675 -0.1983  0.1818 -0.1836
 7132SOL    HW133029   1.121   3.886  11.624 -1.4276 -1.6156 -0.8464
 7132SOL    HW233030   1.039   4.007  11.640 -2.9368 -1.9739 -5.0082
 7133SOL     OW33031   3.350   0.036   9.126  0.0460  0.5608  0.3704
 7133SOL    HW133032   3.336   0.092   9.202 -2.9473  1.1184 -0.6196
 7133SOL    HW233033   3.274   0.056   9.072 -0.1943 -3.1891 -0.6993
 7134SOL     OW33034   1.607   1.035   5.054  0.5512  0.2221 -0.1732
 7134SOL    HW133035   1.629   1.114   5.105 -1.1336 -0.0600  1.0179
 7134SOL    HW233036   1.606   0.975   5.128 -0.3985  1.2572  0.6624
 7135SOL     OW33037   1.294   2.827  12.560  0.0446 -0.3827  0.0215
 7135SOL    HW133038   1.261   2.737  12.558 -0.6178 -0.1962  2.0289
 7135SOL    HW233039   1.218   2.878  12.590  0.0752 -0.3171 -0.0112
 7136SOL     OW33040   2.648   0.441   6.989 -0.1236 -0.2390 -0.1156
 7136SOL    HW133041   2.704   0.488   7.050 -2.5425  2.3629  0.1446
 7136SOL    HW233042   2.639   0.500   6.914 -1.2143 -0.8616 -0.4852
 7137SOL     OW33043   2.429   1.945   1.317  0.1350 -0.5914 -0.5127
 7137SOL    HW133044   2.513   1.976   1.352 -1.1027  2.3903 -0.1595
 7137SOL    HW233045   2.449   1.936   1.223 -0.5912 -1.0437 -0.6246
 7138SOL     OW33046   4.061   3.375   3.574 -0.8356  0.4610  0.0267
 7138SOL    HW133047   4.032   3.371   3.483  1.9691 -1.0398 -0.8165
 7138SOL    HW233048   4.004   3.439   3.617 -0.5122  1.3805 -0.9175
 7139SOL     OW33049   0.307   1.778  15.769 -0.1165  0.4838  0.0654
 7139SOL    HW133050   0.335   1.764  15.859  0.1540 -1.9336 -0.3762
 7139SOL    HW233051   0.274   1.868  15.774  0.9784  0.7700  1.8969
 7140SOL     OW33052   3.273   2.586   2.809 -0.0218 -0.3543 -0.8991
 7140SOL    HW133053   3.250   2.494   2.804  0.4716 -0.3513 -3.5627
 7140SOL    HW233054   3.365   2.577   2.834 -0.4819 -0.4635  0.7405
 7141SOL     OW33055   0.539   2.101   4.797 -0.1383  0.0341 -0.1672
 7141SOL    HW133056   0.467   2.038   4.794 -0.8159  0.7758  0.2896
 7141SOL    HW233057   0.501   2.172   4.745 -2.1876  0.4233  1.8742
 7142SOL     OW33058   2.397   4.491   1.460  0.5372  0.6546 -0.4087
 7142SOL    HW133059   2.351   4.523   1.537 -1.1557 -2.1549 -0.2376
 7142SOL    HW233060   2.441   4.574   1.442 -0.6235  1.5131  0.7046
 7143SOL     OW33061   1.296   2.566  12.583 -0.5335  0.1541 -0.1211
 7143SOL    HW133062   1.245   2.555  12.503 -0.7676  0.9563 -0.0813
 7143SOL    HW233063   1.384   2.563  12.546 -0.1970  0.1285  0.6755
 7144SOL     OW33064   1.721   1.918   9.998 -0.0354 -0.6034 -0.0467
 7144SOL    HW133065   1.706   1.844  10.057 -1.6170  0.8800  1.4291
 7144SOL    HW233066   1.646   1.894   9.944  0.7585 -0.6776 -1.0976
 7145SOL     OW33067   4.169   4.588   1.852 -0.0687  0.2062 -0.3080
 7145SOL    HW133068   4.107   4.515   1.854  1.3514 -1.0508 -2.2541
 7145SOL    HW233069   4.113   4.661   1.876  1.0799  1.3800 -1.1814
 7146SOL     OW33070   3.305   0.621   6.438  0.0450  0.1218 -0.6900
 7146SOL    HW133071   3.229   0.638   6.382 -0.3789  1.4368  0.2836
 7146SOL    HW233072   3.359   0.690   6.399 -0.5441  0.8892 -0.1305
 7147SOL     OW33073   3.261   3.306   4.333  0.3554  0.1874 -0.1091
 7147SOL    HW133074   3.321   3.292   4.259  0.4423 -1.8102  0.3488
 7147SOL    HW233075   3.243   3.399   4.315 -0.8934  0.5178  2.8337
 7148SOL     OW33076   3.227   1.576   6.995 -0.3657  0.6208 -0.0495
 7148SOL    HW133077   3.174   1.506   7.033  0.4909 -0.2118 -0.4127
 7148SOL    HW233078   3.306   1.528   7.020 -1.8883 -1.0246  1.6122
 7149SOL     OW33079   0.782   3.620   4.635  0.6396 -0.1630  0.0860
 7149SOL    HW133080   0.834   3.692   4.671  1.8683 -1.4130  0.8260
 7149SOL    HW233081   0.734   3.593   4.714  2.5220 -0.4204  1.1370
 7150SOL     OW33082   3.963   0.464   3.699  0.1581 -0.3273  0.0189
 7150SOL    HW133083   3.963   0.531   3.767 -2.8216 -0.2044 -0.0978
 7150SOL    HW233084   3.977   0.383   3.748  0.4264 -0.0808  0.3478
 7151SOL     OW33085   3.417   1.214  11.929  0.1212  0.4436  0.3120
 7151SOL    HW133086   3.491   1.233  11.986  0.3219 -1.9916  0.8926
 7151SOL    HW233087   3.472   1.179  11.859 -3.1341 -1.2594 -1.3918
 7152SOL     OW33088   3.546   3.936   1.822  0.4531 -0.0615 -0.1999
 7152SOL    HW133089   3.548   3.978   1.908 -0.0954  1.1002 -0.7565
 7152SOL    HW233090   3.481   3.985   1.772  0.5417 -1.1303 -1.3703
 7153SOL     OW33091   3.566   3.806   6.699  0.2785  0.0081  0.4486
 7153SOL    HW133092   3.488   3.815   6.753 -0.0047  0.5137 -0.0370
 7153SOL    HW233093   3.620   3.755   6.759 -0.7633 -1.7658 -0.1446
 7154SOL     OW33094   4.380   4.507  11.162  0.1159  0.1148  0.1379
 7154SOL    HW133095   4.403   4.542  11.249  0.2126 -0.8362  0.4982
 7154SOL    HW233096   4.419   4.419  11.163 -0.5974 -0.2142 -1.2842
 7155SOL     OW33097   4.629   1.010  14.659 -0.1584  0.2400  0.0223
 7155SOL    HW133098   4.564   0.999  14.590  0.0143  2.3637 -0.4895
 7155SOL    HW233099   4.693   0.941  14.644  0.4651  0.7970  0.1314
 7156SOL     OW33100   3.894   0.993   7.723  0.8938  0.4312 -1.2923
 7156SOL    HW133101   3.886   1.014   7.630 -0.1212  0.9149 -1.0909
 7156SOL    HW233102   3.908   0.898   7.731 -1.1821  0.3435  1.4594
 7157SOL     OW33103   1.696   0.059  17.296  0.0056 -0.1114 -0.4005
 7157SOL    HW133104   1.745   0.082  17.374  1.0013 -2.9140 -0.1936
 7157SOL    HW233105   1.721   4.706  17.271  0.3188 -0.1087 -0.0836
 7158SOL     OW33106   3.654   4.554   9.369 -0.4918  0.2307 -0.2694
 7158SOL    HW133107   3.653   4.588   9.280  2.8422  2.7218  0.6587
 7158SOL    HW233108   3.674   4.630   9.424  2.7757 -0.1398 -0.9346
 7159SOL     OW33109   1.126   1.908   7.469 -0.5155  0.2326  0.0446
 7159SOL    HW133110   1.043   1.938   7.505  0.1185  1.0909  0.7869
 7159SOL    HW233111   1.096   1.841   7.407  1.1754  1.3195 -1.9518
 7160SOL     OW33112   3.480   1.879   1.786  0.2764 -0.1425 -0.1365
 7160SOL    HW133113   3.562   1.891   1.738  0.4903 -0.1262  0.2302
 7160SOL    HW233114   3.468   1.966   1.825 -0.8156 -0.0518 -0.6883
 7161SOL     OW33115   3.791   0.875  12.472 -0.2181  0.0546 -0.1403
 7161SOL    HW133116   3.758   0.881  12.561 -0.9670  1.0606 -0.4882
 7161SOL    HW233117   3.880   0.844  12.488 -0.2366 -0.6473 -1.4153
 7162SOL     OW33118   3.329   3.938  13.076 -0.5314 -0.6062 -0.0557
 7162SOL    HW133119   3.338   3.897  12.990 -2.0339  1.0061 -0.9806
 7162SOL    HW233120   3.248   3.896  13.107 -0.3858 -0.1510  0.9225
 7163SOL     OW33121   0.582   1.690   4.481  0.4359  0.1015 -0.3270
 7163SOL    HW133122   0.592   1.782   4.506 -0.9290  0.2161 -0.1970
 7163SOL    HW233123   0.531   1.711   4.403  0.7119  1.9040 -0.0389
 7164SOL     OW33124   3.054   4.733   1.899 -0.4039 -0.3973  0.0338
 7164SOL    HW133125   3.048   4.638   1.907  1.0823 -0.4949 -0.0825
 7164SOL    HW233126   2.981   0.012   1.839 -0.4477 -0.2822  0.1160
 7165SOL     OW33127   3.952   0.648   3.877 -0.4061 -0.0079 -0.3815
 7165SOL    HW133128   3.939   0.743   3.874 -0.7354 -0.1169 -2.3262
 7165SOL    HW233129   3.872   0.629   3.926 -0.8481  0.0439 -1.0790
 7166SOL     OW33130   1.326   1.909   5.618  0.3746  0.2491  0.1080
 7166SOL    HW133131   1.373   1.990   5.599  0.3498  0.2706  0.1386
 7166SOL    HW233132   1.269   1.899   5.541  1.2459  1.5273 -0.6890
 7167SOL     OW33133   1.016   1.965  11.649 -0.1463 -0.2065  0.0691
 7167SOL    HW133134   0.980   1.879  11.668  0.1650 -0.5706 -1.0142
 7167SOL    HW233135   1.057   1.945  11.565 -1.7511  1.0022 -1.0006
 7168SOL     OW33136   1.338   3.416   6.453 -0.2204  0.8336  0.4593
 7168SOL    HW133137   1.330   3.480   6.524  1.0539  0.2294  1.1478
 7168SOL    HW233138   1.264   3.446   6.401 -2.2290 -1.8489  1.7822
 7169SOL     OW33139   4.562   2.776  15.086 -0.1302 -0.0574  0.0628
 7169SOL    HW133140   4.657   2.788  15.088 -0.2041  0.5108  0.3423
 7169SOL    HW233141   4.556   2.729  15.003  0.8391 -0.5412  0.2683
 7170SOL     OW33142   1.650   2.116   9.599 -0.1088 -0.0580  0.4043
 7170SOL    HW133143   1.572   2.109   9.653 -1.2421 -0.5121 -1.2803
 7170SOL    HW233144   1.611   2.116   9.511  0.2399 -1.6168  0.2409
 7171SOL     OW33145   2.781   4.325   5.372  0.0758  0.0038 -0.0112
 7171SOL    HW133146   2.751   4.234   5.373  2.2691 -0.7132  0.7134
 7171SOL    HW233147   2.824   4.335   5.457 -1.3712  1.5304  0.5321
 7172SOL     OW33148   4.479   3.025   6.296  0.5104 -0.5607 -0.3409
 7172SOL    HW133149   4.457   3.101   6.349 -0.1305  0.5872 -2.2648
 7172SOL    HW233150   4.567   3.049   6.269  0.1930 -0.8620 -1.6331
 7173SOL     OW33151   4.175   2.866   3.394  0.4028 -0.3059  0.3892
 7173SOL    HW133152   4.080   2.866   3.404  0.2655  0.1000 -0.9276
 7173SOL    HW233153   4.199   2.787   3.443  0.0966  1.1523  2.9221
 7174SOL     OW33154   3.679   4.371   6.712 -0.7285 -0.0777 -0.0260
 7174SOL    HW133155   3.680   4.413   6.626  1.0651  2.4597  1.2311
 7174SOL    HW233156   3.721   4.445   6.756 -1.5139 -0.0283  0.6412
 7175SOL     OW33157   1.255   2.720   6.982  0.2056 -0.3221  0.0956
 7175SOL    HW133158   1.267   2.796   7.039  0.5900 -0.8337  0.6880
 7175SOL    HW233159   1.344   2.712   6.947 -0.4317 -3.0900 -0.8407
 7176SOL     OW33160   1.470   3.129   8.649  0.2794  0.3607  0.0339
 7176SOL    HW133161   1.447   3.211   8.693 -0.1929  0.2458  0.0090
 7176SOL    HW233162   1.469   3.076   8.729  0.5545 -2.5299 -1.8581
 7177SOL     OW33163   2.814   1.723  16.822 -0.2803 -0.0615  0.7493
 7177SOL    HW133164   2.771   1.704  16.739 -1.5280 -0.6799  1.5345
 7177SOL    HW233165   2.798   1.816  16.836 -2.9837 -0.3019 -0.7400
 7178SOL     OW33166   1.752   4.522  10.082 -0.0026 -0.4158 -0.0388
 7178SOL    HW133167   1.794   4.606  10.062 -1.2134 -0.6098 -3.4649
 7178SOL    HW233168   1.742   4.477   9.998  1.5396  0.9778 -0.9706
 7179SOL     OW33169   1.687   3.817   4.721 -0.3788  0.1599  0.9931
 7179SOL    HW133170   1.653   3.775   4.642 -2.4617  2.2040  0.8045
 7179SOL    HW233171   1.646   3.902   4.704 -1.1956 -0.4715 -0.1620
 7180SOL     OW33172   3.997   4.428  15.462  0.0594 -0.0583  0.1109
 7180SOL    HW133173   4.075   4.450  15.513  1.9084 -0.5423 -2.5352
 7180SOL    HW233174   3.956   4.358  15.514  0.8744  0.2390  1.1657
 7181SOL     OW33175   2.877   4.328   3.237  0.1852  0.2664 -0.4256
 7181SOL    HW133176   2.821   4.400   3.265  0.5064  0.6599 -0.7876
 7181SOL    HW233177   2.905   4.291   3.321 -1.6083 -0.1747 -0.0397
 7182SOL     OW33178   2.620   3.634   5.489 -0.1542 -0.2942 -0.0446
 7182SOL    HW133179   2.654   3.636   5.400 -1.0888 -0.8083 -0.4028
 7182SOL    HW233180   2.575   3.718   5.492 -0.9634 -0.7974  1.5720
 7183SOL     OW33181   1.495   3.988   8.217  0.2407 -0.6134 -0.2704
 7183SOL    HW133182   1.443   4.037   8.154 -1.6001  0.0288  1.7715
 7183SOL    HW233183   1.440   3.985   8.295 -0.6327  0.6102 -0.8309
 7184SOL     OW33184   2.224   4.375   1.278 -0.3634 -0.3596  0.6671
 7184SOL    HW133185   2.276   4.414   1.348  1.5201 -0.8307 -0.4687
 7184SOL    HW233186   2.291   4.369   1.210  1.4223  1.7895  2.2317
 7185SOL     OW33187   3.105   2.765   2.690 -0.0682 -0.4177 -0.4650
 7185SOL    HW133188   3.170   2.705   2.727 -0.0420 -0.0716  0.0665
 7185SOL    HW233189   3.151   2.803   2.615 -0.7677  0.0050 -0.6808
 7186SOL     OW33190   1.523   1.782   9.804 -0.0195  0.1299 -0.4867
 7186SOL    HW133191   1.601   1.749   9.758 -0.8813 -1.3198 -0.9033
 7186SOL    HW233192   1.466   1.707   9.786  0.6948 -0.2126 -1.3257
 7187SOL     OW33193   0.742   4.633   5.281  0.2441 -0.2079  0.5162
 7187SOL    HW133194   0.711   4.562   5.224  0.2536 -0.3125  0.6414
 7187SOL    HW233195   0.836   4.617   5.276  0.2733 -0.1682  0.9286
 7188SOL     OW33196   2.791   3.981  13.213 -0.3525  0.3879 -0.7377
 7188SOL    HW133197   2.850   4.057  13.212 -1.1328  0.9729 -2.0060
 7188SOL    HW233198   2.828   3.925  13.145  0.5719  0.3482 -0.1955
 7189SOL     OW33199   4.249   3.790  15.844  0.4494  0.4360  0.7769
 7189SOL    HW133200   4.223   3.818  15.757  0.3784 -0.9162  0.3540
 7189SOL    HW233201   4.340   3.762  15.834  0.1142  0.1095 -1.4794
 7190SOL     OW33202   3.590   3.452   2.709 -0.4432  0.2645 -0.1116
 7190SOL    HW133203   3.581   3.397   2.787  0.2697  0.8899  0.4046
 7190SOL    HW233204   3.555   3.391   2.645 -0.5668  0.7573 -0.5118
 7191SOL     OW33205   4.390   4.078   9.013 -0.2018 -0.0951  0.4322
 7191SOL    HW133206   4.308   4.112   9.048 -2.8442 -1.6557 -4.2152
 7191SOL    HW233207   4.418   4.163   8.979 -0.5823  0.4855  1.5809
 7192SOL     OW33208   0.717   0.346   4.712 -0.5440  0.6161 -0.4017
 7192SOL    HW133209   0.740   0.254   4.718 -1.8273  0.3274  0.1744
 7192SOL    HW233210   0.670   0.354   4.795 -1.0979 -0.5499 -0.6057
 7193SOL     OW33211   2.817   4.691   2.238 -0.6006 -0.1433 -0.1632
 7193SOL    HW133212   2.799   4.672   2.330  1.9484 -0.7252  0.2201
 7193SOL    HW233213   2.911   4.710   2.246 -0.6478  0.9394 -1.9753
 7194SOL     OW33214   2.901   1.551   1.529 -0.9124 -0.4595 -0.3688
 7194SOL    HW133215   2.853   1.506   1.598  0.9073 -0.0895  1.1272
 7194SOL    HW233216   2.972   1.589   1.582 -0.2213  0.9846 -2.3118
 7195SOL     OW33217   0.753   3.200   2.924 -0.6220  0.0184  0.0345
 7195SOL    HW133218   0.759   3.176   2.831  1.7808  0.4808  0.0772
 7195SOL    HW233219   0.666   3.239   2.930 -0.3892  0.7323 -1.1852
 7196SOL     OW33220   2.563   2.006   9.114 -0.2719  0.0258  0.3099
 7196SOL    HW133221   2.636   2.052   9.072  0.8224 -1.3007  0.7539
 7196SOL    HW233222   2.549   2.064   9.189  0.7666  1.9861 -1.0005
 7197SOL     OW33223   2.804   3.229   1.868 -1.3350  0.2393  0.1878
 7197SOL    HW133224   2.869   3.159   1.874  0.3001  1.7495  0.3208
 7197SOL    HW233225   2.723   3.182   1.849 -0.6040 -1.3011  0.8731
 7198SOL     OW33226   2.214   2.901  16.139 -0.0470 -0.0689  0.1657
 7198SOL    HW133227   2.170   2.834  16.087  0.3990  0.9047 -1.4955
 7198SOL    HW233228   2.170   2.883  16.222  0.7467  3.0247  1.2579
 7199SOL     OW33229   1.866   0.407   3.769  0.4732 -0.3227  0.7837
 7199SOL    HW133230   1.785   0.396   3.720  1.0902 -0.3338 -0.2438
 7199SOL    HW233231   1.827   0.382   3.853 -2.1010  0.0647 -0.3302
 7200SOL     OW33232   1.519   2.367   3.104 -0.4363 -0.3515 -0.0502
 7200SOL    HW133233   1.608   2.363   3.068 -1.3501  1.4482 -2.5354
 7200SOL    HW233234   1.528   2.292   3.163  0.4576  1.0375  1.5836
 7201SOL     OW33235   2.953   3.246  14.467 -0.1646  0.2976 -0.2153
 7201SOL    HW133236   2.924   3.295  14.544  1.8497  1.5884 -0.2755
 7201SOL    HW233237   2.925   3.307  14.399 -0.0276 -0.3187 -0.8259
 7202SOL     OW33238   4.182   4.346   7.259 -0.5814  0.0166  0.2651
 7202SOL    HW133239   4.219   4.430   7.287 -0.2329  0.4189 -1.3783
 7202SOL    HW233240   4.088   4.362   7.260 -0.3370  1.5799 -0.8610
 7203SOL     OW33241   0.957   0.878   9.015  0.1423  0.6068  0.3143
 7203SOL    HW133242   1.031   0.849   8.961 -0.7050 -0.9022 -0.0459
 7203SOL    HW233243   0.982   0.862   9.106  0.6892  0.7301  0.1848
 7204SOL     OW33244   1.953   1.101   6.384  0.4632  0.1823  0.1473
 7204SOL    HW133245   1.889   1.170   6.397 -0.3659 -0.5478 -0.0211
 7204SOL    HW233246   1.888   1.036   6.357  1.9667 -0.3671 -2.0860
 7205SOL     OW33247   1.946   2.564   6.950  0.1542 -0.0753 -0.3660
 7205SOL    HW133248   1.999   2.613   6.886 -0.1396  1.6263  0.6939
 7205SOL    HW233249   1.948   2.625   7.023  2.7993 -1.1581  0.4520
 7206SOL     OW33250   1.169   3.311   3.713 -0.1050  0.6489 -0.1180
 7206SOL    HW133251   1.220   3.388   3.691  2.0176 -1.2441 -1.8267
 7206SOL    HW233252   1.126   3.308   3.627 -0.4099 -0.5924  0.0757
 7207SOL     OW33253   3.989   0.262   7.636 -0.1483 -0.2417  0.3959
 7207SOL    HW133254   4.072   0.300   7.608 -0.0218 -0.3170  0.6715
 7207SOL    HW233255   3.967   0.295   7.723 -2.3158  1.8134 -0.9320
 7208SOL     OW33256   2.538   0.343   5.704  0.3952 -0.0097  0.3279
 7208SOL    HW133257   2.516   0.368   5.614  0.3598  1.0559  0.6292
 7208SOL    HW233258   2.632   0.325   5.699  0.5408  0.1668  2.2813
 7209SOL     OW33259   2.112   3.667   7.417  0.1054  0.2117 -0.8074
 7209SOL    HW133260   2.145   3.688   7.505 -0.5022 -0.2992 -0.4584
 7209SOL    HW233261   2.040   3.605   7.427  1.5537 -1.6870 -2.3890
 7210SOL     OW33262   0.789   0.293   3.877  0.5445 -0.0509  0.0587
 7210SOL    HW133263   0.764   0.312   3.787  2.2962  0.7417 -0.2668
 7210SOL    HW233264   0.704   0.262   3.906 -0.4413  1.9013 -0.7199
 7211SOL     OW33265   4.500   4.201   8.640  0.2507 -0.2830  0.7406
 7211SOL    HW133266   4.536   4.278   8.597  1.3293 -1.0550  0.2742
 7211SOL    HW233267   4.516   4.227   8.731 -2.1831 -0.5127  1.2267
 7212SOL     OW33268   4.510   4.209   7.221  0.2309 -0.1226 -0.3868
 7212SOL    HW133269   4.588   4.220   7.166 -0.6023 -0.8391 -1.7150
 7212SOL    HW233270   4.486   4.294   7.259 -1.4645 -1.2584  1.0888
 7213SOL     OW33271   1.181   1.677   4.522  0.2353  0.0048  0.1744
 7213SOL    HW133272   1.234   1.717   4.453 -1.2151 -0.2276 -1.0801
 7213SOL    HW233273   1.218   1.589   4.528 -1.5953 -0.7813 -0.1412
 7214SOL     OW33274   1.565   4.094  13.967  0.1320  0.1096  0.0819
 7214SOL    HW133275   1.481   4.097  14.013  1.1700  0.4504  1.9409
 7214SOL    HW233276   1.600   4.008  13.989 -0.8126 -0.2532  0.1764
 7215SOL     OW33277   1.907   2.967   1.240  0.1440 -0.7084  0.1964
 7215SOL    HW133278   1.996   3.002   1.250  0.4204 -1.9585  2.0605
 7215SOL    HW233279   1.870   3.055   1.246 -1.6499 -1.4525  0.0774
 7216SOL     OW33280   0.998   0.643   1.813 -0.6862 -0.3090 -0.2279
 7216SOL    HW133281   1.023   0.565   1.765 -1.2897 -0.5661 -0.1244
 7216SOL    HW233282   1.079   0.677   1.850 -0.3871 -1.1135 -0.1435
 7217SOL     OW33283   0.600   0.913   7.813  0.0697 -0.5457  0.0642
 7217SOL    HW133284   0.558   0.832   7.785  0.2524  0.4773 -3.2745
 7217SOL    HW233285   0.602   0.906   7.908  0.8495  1.1493  0.1881
 7218SOL     OW33286   3.415   3.591   3.857  0.5075 -0.7036  0.8734
 7218SOL    HW133287   3.462   3.509   3.843  2.5522  0.4345  1.1206
 7218SOL    HW233288   3.422   3.615   3.764  2.2740  1.2970  1.5148
 7219SOL     OW33289   3.294   2.554   5.925 -0.5495  0.9257 -0.1882
 7219SOL    HW133290   3.289   2.589   5.836 -1.5562 -0.1753 -0.5698
 7219SOL    HW233291   3.200   2.561   5.943 -0.6928  1.7511 -1.2998
 7220SOL     OW33292   4.228   3.086  11.229 -0.4549 -0.3129 -0.7493
 7220SOL    HW133293   4.228   3.026  11.303 -0.6213 -2.2679 -2.3455
 7220SOL    HW233294   4.245   3.030  11.154  1.5752 -0.0484 -0.5054
 7221SOL     OW33295   3.271   1.403   3.248  0.2241  0.2879 -0.4812
 7221SOL    HW133296   3.354   1.384   3.291 -0.8186 -0.6738  1.1093
 7221SOL    HW233297   3.292   1.479   3.194  0.0106  0.4801 -0.2965
 7222SOL     OW33298   1.623   0.902   2.589  0.1227 -0.7902 -0.1129
 7222SOL    HW133299   1.620   0.983   2.640  0.6425  0.3466 -1.8825
 7222SOL    HW233300   1.632   0.840   2.662  1.2565 -1.1254 -0.5425
 7223SOL     OW33301   3.751   4.054  11.779 -0.3305 -0.6855  0.1113
 7223SOL    HW133302   3.721   4.004  11.854  0.4354 -2.6428 -0.8885
 7223SOL    HW233303   3.822   3.998  11.748 -0.7704 -1.0142 -0.2945
 7224SOL     OW33304   2.009   2.156   3.303 -0.0965  0.3596 -0.2911
 7224SOL    HW133305   1.945   2.214   3.263 -1.9753 -1.6008 -0.0603
 7224SOL    HW233306   2.041   2.106   3.228 -1.6326 -0.1222 -0.6034
 7225SOL     OW33307   2.806   0.704   1.579  0.3573  0.0518 -0.4343
 7225SOL    HW133308   2.832   0.795   1.595 -1.4862  0.2250  1.5432
 7225SOL    HW233309   2.855   0.684   1.499 -0.1166  1.4836 -1.0919
 7226SOL     OW33310   0.422   0.924  11.079 -0.1056 -0.2777  0.2917
 7226SOL    HW133311   0.350   0.969  11.123  0.3953  0.3582  0.4643
 7226SOL    HW233312   0.428   0.966  10.994  0.4041 -0.9276  0.0104
 7227SOL     OW33313   2.057   2.208   7.034 -0.2456  0.3212 -0.0609
 7227SOL    HW133314   2.143   2.251   7.039 -0.7129  1.1958  0.4369
 7227SOL    HW233315   2.066   2.146   7.106  0.8486 -1.0735 -1.3804
 7228SOL     OW33316   0.191   1.851   7.538 -0.8938 -0.7170  0.5670
 7228SOL    HW133317   0.128   1.919   7.516  1.2147  0.9978 -0.2059
 7228SOL    HW233318   0.259   1.899   7.587  2.3700 -2.8859 -1.8279
 7229SOL     OW33319   0.247   4.388  10.106  0.1755 -0.1638  0.1063
 7229SOL    HW133320   0.203   4.473  10.113  0.6783 -0.0458  1.8163
 7229SOL    HW233321   0.175   4.334  10.071  0.3293  1.4435 -2.7413
 7230SOL     OW33322   3.396   4.713   3.266 -0.6173 -0.0591  0.0659
 7230SOL    HW133323   3.346   4.717   3.347 -2.4553  0.7093 -1.1013
 7230SOL    HW233324   3.486   4.713   3.298 -0.4504 -0.8729 -0.4084
 7231SOL     OW33325   2.163   1.489   4.690  0.0606  0.2368  0.0415
 7231SOL    HW133326   2.208   1.408   4.714  0.5052  0.4997  0.1008
 7231SOL    HW233327   2.113   1.499   4.771 -0.2286  2.4493 -0.3929
 7232SOL     OW33328   1.500   3.763   3.678  0.1993  0.0035 -0.0031
 7232SOL    HW133329   1.440   3.833   3.702 -0.8029 -0.1289 -2.1691
 7232SOL    HW233330   1.556   3.750   3.755 -0.3901  0.1063  0.4402
 7233SOL     OW33331   1.044   3.959  12.738 -0.2426  0.0819  0.0342
 7233SOL    HW133332   1.110   4.020  12.770 -1.1027  0.7251  0.5632
 7233SOL    HW233333   1.022   3.983  12.648  2.1401 -0.0895 -0.5900
 7234SOL     OW33334   1.507   4.153   5.300  0.0130  0.0886 -0.3789
 7234SOL    HW133335   1.523   4.223   5.364  0.5362  0.4713 -0.9351
 7234SOL    HW233336   1.466   4.213   5.238 -0.7901 -0.8002 -0.6967
 7235SOL     OW33337   3.573   1.014   3.153 -0.5127  0.0246  0.1450
 7235SOL    HW133338   3.528   1.006   3.237  2.2484 -0.2263  1.6034
 7235SOL    HW233339   3.638   1.080   3.177  1.9001 -1.5895 -1.8020
 7236SOL     OW33340   3.634   2.846   9.000  0.1270  0.2093 -0.0193
 7236SOL    HW133341   3.719   2.832   9.040 -0.9204  1.2974  2.5434
 7236SOL    HW233342   3.579   2.856   9.077 -1.5951 -1.2969 -1.0502
 7237SOL     OW33343   2.709   2.526   6.613  0.4701  0.5316 -0.5754
 7237SOL    HW133344   2.719   2.442   6.568  1.0981  1.4538 -2.1265
 7237SOL    HW233345   2.724   2.591   6.545 -1.8013 -0.0009 -1.5948
 7238SOL     OW33346   2.575   0.850   5.089 -0.8693 -0.0573 -0.0692
 7238SOL    HW133347   2.505   0.839   5.024 -1.4258  0.9879  0.3531
 7238SOL    HW233348   2.613   0.935   5.069 -1.4645  0.3183  0.4138
 7239SOL     OW33349   3.987   3.351  10.371  0.3896 -0.7503  0.3906
 7239SOL    HW133350   4.073   3.391  10.361  0.9684 -2.0880  0.1320
 7239SOL    HW233351   3.987   3.351  10.467  1.3658 -1.6058  0.3913
 7240SOL     OW33352   0.135   0.335   8.258  0.0383 -0.0080 -0.5191
 7240SOL    HW133353   0.089   0.342   8.342  1.3688 -3.8865  0.5518
 7240SOL    HW233354   0.079   0.281   8.202 -0.2446  1.5846 -1.7648
 7241SOL     OW33355   3.326   2.153   6.734  0.7020  0.2065 -0.1590
 7241SOL    HW133356   3.359   2.080   6.786 -0.6186 -0.8121 -0.7467
 7241SOL    HW233357   3.406   2.179   6.689  0.3020  1.0232 -0.4089
 7242SOL     OW33358   2.649   1.722  17.453  0.0077 -0.0799  0.7077
 7242SOL    HW133359   2.692   1.761  17.377 -0.0866  0.0338  0.7132
 7242SOL    HW233360   2.574   1.680  17.411  0.6881  1.9804 -2.5655
 7243SOL     OW33361   0.242   1.867   2.568 -0.1417  0.1576 -0.3437
 7243SOL    HW133362   0.270   1.913   2.489  0.1228 -2.9439 -2.0403
 7243SOL    HW233363   0.272   1.935   2.629 -0.1246  0.7698 -1.0313
 7244SOL     OW33364   3.988   1.032  13.184 -0.2890  0.3491  0.0247
 7244SOL    HW133365   3.939   0.981  13.249 -1.8117  2.3917  0.5092
 7244SOL    HW233366   3.946   1.117  13.167  1.2421  1.4392  1.8097
 7245SOL     OW33367   1.568   0.441  10.065 -0.1004 -0.4590  0.2588
 7245SOL    HW133368   1.560   0.534  10.089 -2.9133 -0.1139 -2.0413
 7245SOL    HW233369   1.635   0.415  10.129  1.5718  1.3999 -0.7037
 7246SOL     OW33370   4.158   3.472   5.049  0.3157  0.0989  0.2422
 7246SOL    HW133371   4.063   3.467   5.043  0.2431  1.4842  0.3513
 7246SOL    HW233372   4.169   3.479   5.144  1.5529  1.1477  0.0231
 7247SOL     OW33373   3.662   4.051   4.545  0.5044  0.0519 -0.4698
 7247SOL    HW133374   3.719   3.985   4.584 -0.9009 -1.0259 -0.2245
 7247SOL    HW233375   3.589   4.050   4.608  1.1610  0.9202  0.3139
 7248SOL     OW33376   1.665   3.874   2.283 -0.3270  0.3478  0.1283
 7248SOL    HW133377   1.584   3.828   2.304 -2.0578  2.9367 -0.8563
 7248SOL    HW233378   1.729   3.804   2.268  0.1858  0.9018 -0.3241
 7249SOL     OW33379   2.004   1.005  14.241 -0.0843  0.2130  0.0136
 7249SOL    HW133380   1.920   0.998  14.194 -0.8461  0.9111  1.2690
 7249SOL    HW233381   1.965   1.030  14.325  1.7444  3.0789 -0.0055
 7250SOL     OW33382   3.032   4.561   7.359 -0.4790 -0.5907  0.1384
 7250SOL    HW133383   3.052   4.494   7.294  0.4426 -0.2802  0.1091
 7250SOL    HW233384   2.999   4.512   7.435 -0.6460 -1.0029 -0.2019
 7251SOL     OW33385   2.721   1.652   5.362 -0.0027 -0.1755 -0.2093
 7251SOL    HW133386   2.770   1.636   5.444  1.8766 -3.5128 -1.9677
 7251SOL    HW233387   2.685   1.739   5.376  3.9920  1.2041  1.6265
 7252SOL     OW33388   1.698   4.493   4.991 -0.3419  0.3126 -0.2157
 7252SOL    HW133389   1.750   4.502   5.071 -0.5674  1.5916 -0.2074
 7252SOL    HW233390   1.736   4.562   4.936  0.7163 -1.7158 -2.0244
 7253SOL     OW33391   1.828   1.434   4.428 -0.2252  0.1423 -0.3771
 7253SOL    HW133392   1.844   1.341   4.411 -0.6223 -0.1567  0.9029
 7253SOL    HW233393   1.748   1.426   4.479 -1.6921 -3.6607 -3.3210
 7254SOL     OW33394   3.502   3.331  11.697 -0.1090 -0.4554  0.1286
 7254SOL    HW133395   3.435   3.399  11.688 -0.0652 -0.4588 -0.2227
 7254SOL    HW233396   3.556   3.362  11.770 -0.8855 -0.9702  0.9259
 7255SOL     OW33397   4.328   4.340   5.297  0.5261  0.4041  0.2882
 7255SOL    HW133398   4.328   4.400   5.222  1.5340 -1.3684 -1.1385
 7255SOL    HW233399   4.239   4.350   5.331  1.0402  0.1454  1.7087
 7256SOL     OW33400   4.245   4.732   6.769  0.1393  0.9569 -0.0342
 7256SOL    HW133401   4.227   0.019   6.678 -0.9279  1.9123  0.4106
 7256SOL    HW233402   4.340   4.736   6.766  0.2931 -3.0905 -0.6123
 7257SOL     OW33403   2.580   2.474   8.514 -0.0161 -0.5116 -0.0937
 7257SOL    HW133404   2.596   2.490   8.607 -0.7492  0.2324 -0.0992
 7257SOL    HW233405   2.635   2.396   8.503 -0.5277 -0.6539 -1.6508
 7258SOL     OW33406   0.593   4.452   5.120  1.0232  0.6104  0.2088
 7258SOL    HW133407   0.595   4.369   5.167 -0.6024 -1.2625 -2.9983
 7258SOL    HW233408   0.499   4.466   5.106  1.2038  1.9972  0.3591
 7259SOL     OW33409   0.277   2.452  12.812  0.1532 -0.0899  0.0939
 7259SOL    HW133410   0.218   2.388  12.852 -1.0742  0.0347 -1.5193
 7259SOL    HW233411   0.352   2.396  12.790  0.8528  0.4711  1.0930
 7260SOL     OW33412   1.368   4.369   4.350 -0.0601  0.7456  0.3230
 7260SOL    HW133413   1.290   4.313   4.358  0.9901 -0.8384 -0.5042
 7260SOL    HW233414   1.337   4.426   4.279 -0.5927  0.3538  0.2371
 7261SOL     OW33415   0.938   0.611   6.157 -0.1656  0.2629 -0.3507
 7261SOL    HW133416   0.961   0.671   6.086 -2.4219  0.1814 -1.1606
 7261SOL    HW233417   0.843   0.624   6.164 -0.0155  1.9200 -1.3979
 7262SOL     OW33418   0.835   2.484   5.031 -0.4809 -0.2062  0.3514
 7262SOL    HW133419   0.898   2.450   4.967 -1.1831  1.7476 -1.3592
 7262SOL    HW233420   0.861   2.575   5.039  1.5930 -0.9335  1.9488
 7263SOL     OW33421   3.926   4.048   9.962  0.2383 -0.0204 -0.0921
 7263SOL    HW133422   3.868   3.975   9.984 -0.3696  0.5448  0.1738
 7263SOL    HW233423   4.006   3.999   9.983 -0.9411 -2.1159 -0.5305
 7264SOL     OW33424   2.481   2.071   9.386 -0.5033  0.2457  0.4711
 7264SOL    HW133425   2.524   2.064   9.471 -0.0458 -3.3089 -0.0505
 7264SOL    HW233426   2.466   1.978   9.373 -1.2110  0.3626  0.4635
 7265SOL     OW33427   4.594   1.687   5.578 -0.0626 -0.3090  0.0309
 7265SOL    HW133428   4.630   1.601   5.597 -0.4280 -0.1257  1.5181
 7265SOL    HW233429   4.668   1.742   5.603 -0.0184 -0.1653 -0.4085
 7266SOL     OW33430   4.688   0.170   0.954 -0.7886  0.4751 -0.2009
 7266SOL    HW133431   4.667   0.080   0.929 -0.0794  0.5149 -0.9332
 7266SOL    HW233432   4.600   0.203   0.973 -0.3403  0.2380  2.3156
 7267SOL     OW33433   3.196   3.906   3.057 -0.0290  0.1141  0.1714
 7267SOL    HW133434   3.166   3.958   2.982  0.5093  1.7042  1.0446
 7267SOL    HW233435   3.128   3.840   3.065 -1.2039  1.1450 -1.4235
 7268SOL     OW33436   0.873   2.337  13.614 -0.2321 -0.4858 -0.0992
 7268SOL    HW133437   0.850   2.258  13.566 -1.7237  0.1303 -0.4056
 7268SOL    HW233438   0.846   2.405  13.553 -3.3358  2.6045  4.7192
 7269SOL     OW33439   3.789   1.549   6.951  0.4292  0.4673 -0.0025
 7269SOL    HW133440   3.829   1.622   6.905  0.9234  0.1641 -0.0517
 7269SOL    HW233441   3.861   1.486   6.957 -0.0513 -0.0375  0.5558
 7270SOL     OW33442   2.851   0.120  17.193 -0.1291 -0.6266  0.2650
 7270SOL    HW133443   2.766   0.163  17.193 -0.4987 -1.3777 -3.1126
 7270SOL    HW233444   2.918   0.179  17.230  0.3682 -0.3241 -1.1133
 7271SOL     OW33445   2.398   2.646  14.123 -0.3470  0.2643 -0.1736
 7271SOL    HW133446   2.326   2.596  14.085 -0.8031  2.0409 -1.6228
 7271SOL    HW233447   2.363   2.657  14.212 -0.6038 -0.2624 -0.2106
 7272SOL     OW33448   1.936   0.007   2.784 -0.3462  0.0633  0.1574
 7272SOL    HW133449   1.947   0.086   2.837 -2.5750 -0.6190  1.6557
 7272SOL    HW233450   1.900   4.672   2.838 -2.2035  1.0341  0.1976
 7273SOL     OW33451   0.421   1.951   7.696  0.0177  0.1189 -0.0496
 7273SOL    HW133452   0.383   2.026   7.742  0.3486 -1.0085  2.0473
 7273SOL    HW233453   0.493   1.925   7.754  1.4885  2.8075 -0.6749
 7274SOL     OW33454   4.634   1.830   4.501 -0.3993 -0.4222  0.1179
 7274SOL    HW133455   4.686   1.860   4.426  0.9515 -1.0639  0.7978
 7274SOL    HW233456   4.612   1.742   4.469  0.5145 -0.9855  1.0438
 7275SOL     OW33457   2.844   2.471   4.497 -0.1977 -0.0248 -0.6099
 7275SOL    HW133458   2.813   2.562   4.501 -0.6636 -0.2622  1.1120
 7275SOL    HW233459   2.835   2.436   4.586 -1.0022 -2.0402 -1.5026
 7276SOL     OW33460   2.651   2.057   7.875  0.3806  0.4257  0.3891
 7276SOL    HW133461   2.666   1.968   7.905 -1.5137  0.4720  1.4834
 7276SOL    HW233462   2.631   2.092   7.962 -3.2808  0.1153 -0.3588
 7277SOL     OW33463   2.259   4.189  13.463  0.4732  0.3574  0.0231
 7277SOL    HW133464   2.312   4.158  13.537  1.3604  1.7855 -0.0128
 7277SOL    HW233465   2.339   4.219  13.419 -0.0411 -0.5687 -1.5318
 7278SOL     OW33466   2.502   3.784   0.344 -1.0754  0.4601  0.7103
 7278SOL    HW133467   2.505   3.861   0.287  0.0376  1.5577  2.2483
 7278SOL    HW233468   2.409   3.765   0.335 -1.0804  0.9113 -0.2538
 7279SOL     OW33469   0.109   3.322   7.401 -0.8082 -0.4188 -0.0878
 7279SOL    HW133470   0.059   3.394   7.438 -2.6424 -2.2736  1.0153
 7279SOL    HW233471   0.201   3.348   7.411 -0.3519 -1.1819 -2.2874
 7280SOL     OW33472   1.876   2.119  13.161  0.2093  0.1418 -0.1225
 7280SOL    HW133473   1.820   2.184  13.119  0.8311 -0.6298 -2.1684
 7280SOL    HW233474   1.894   2.155  13.248 -0.6901 -0.4353  0.2933
 7281SOL     OW33475   3.150   3.281  17.324  0.0008  0.0366 -0.3243
 7281SOL    HW133476   3.071   3.243  17.361  1.5076 -3.5052 -0.7949
 7281SOL    HW233477   3.166   3.220  17.251 -2.6748  0.6901 -1.4421
 7282SOL     OW33478   0.332   0.973   5.538  0.0858  0.3074  0.0242
 7282SOL    HW133479   0.331   0.880   5.561  2.6514 -0.1334 -1.6865
 7282SOL    HW233480   0.425   0.995   5.547  0.1935  0.3550 -1.2959
 7283SOL     OW33481   0.183   4.646   6.045  0.1814 -0.2212 -0.1636
 7283SOL    HW133482   0.199   4.582   5.976 -1.3380  0.2218 -0.9187
 7283SOL    HW233483   0.174   4.590   6.122  0.1113  1.1237  0.8112
 7284SOL     OW33484   0.134   4.359   1.766 -0.0051 -0.2355  0.3103
 7284SOL    HW133485   0.181   4.393   1.689  1.1283 -1.3993  0.4898
 7284SOL    HW233486   0.083   4.284   1.735  0.7842 -0.7731  0.3100
 7285SOL     OW33487   2.616   3.853   2.645 -0.3337  0.5089  0.2698
 7285SOL    HW133488   2.640   3.943   2.667  1.3905  0.0582  0.2351
 7285SOL    HW233489   2.573   3.831   2.728 -0.2668  2.0935  0.7366
 7286SOL     OW33490   3.754   2.363   7.868 -0.1679  0.2086 -0.4259
 7286SOL    HW133491   3.741   2.294   7.933 -2.2701  0.7545 -0.2585
 7286SOL    HW233492   3.663   2.381   7.845  0.7850  0.5152 -3.9409
 7287SOL     OW33493   2.786   1.064  11.265 -0.0871  0.4239 -0.2414
 7287SOL    HW133494   2.877   1.095  11.258 -0.3834  1.2536 -0.4269
 7287SOL    HW233495   2.757   1.109  11.344 -0.4048 -0.5119  0.1761
 7288SOL     OW33496   0.321   2.929   7.309  0.6267 -0.2872 -0.3484
 7288SOL    HW133497   0.396   2.988   7.311  0.7489 -0.4181 -0.8629
 7288SOL    HW233498   0.340   2.878   7.230 -2.3348 -0.3993 -1.0031
 7289SOL     OW33499   3.408   2.302   8.344  0.2808  0.5726  0.0748
 7289SOL    HW133500   3.390   2.282   8.252 -1.2823 -0.7163  0.6596
 7289SOL    HW233501   3.464   2.228   8.369 -0.0612  0.7355  1.3515
 7290SOL     OW33502   3.320   3.316   9.965  0.6680 -0.5255 -0.1723
 7290SOL    HW133503   3.409   3.350   9.981  0.2031 -0.7895  2.9868
 7290SOL    HW233504   3.333   3.222   9.950  1.2132 -0.5778  0.5825
 7291SOL     OW33505   1.190   2.691   2.080  0.3922  0.1780 -0.1804
 7291SOL    HW133506   1.095   2.687   2.079  0.3702  1.3531 -2.2047
 7291SOL    HW233507   1.201   2.755   2.010  2.1804  2.1811  1.9597
 7292SOL     OW33508   3.588   1.764   6.630  0.3488 -0.0434 -0.4547
 7292SOL    HW133509   3.666   1.787   6.579  1.6212 -2.5275  0.3643
 7292SOL    HW233510   3.566   1.677   6.596  1.8071 -0.7801  0.4917
 7293SOL     OW33511   1.531   2.254   0.595 -0.0203 -0.2282 -0.4086
 7293SOL    HW133512   1.548   2.326   0.656 -0.7584 -1.2354  0.9902
 7293SOL    HW233513   1.448   2.283   0.556  0.2299  0.5381 -0.3671
 7294SOL     OW33514   2.256   4.181  17.384 -0.2093 -0.0898  0.7234
 7294SOL    HW133515   2.351   4.171  17.387 -0.1772  0.8422  2.5472
 7294SOL    HW233516   2.252   4.177  17.288 -0.2290 -0.6801  0.7480
 7295SOL     OW33517   1.948   4.567   5.149 -0.2243 -0.0493 -0.1965
 7295SOL    HW133518   1.943   4.610   5.063  1.3191  0.6034  0.0473
 7295SOL    HW233519   2.042   4.559   5.161 -0.5109 -0.5917  1.6710
 7296SOL     OW33520   2.443   2.494  14.833 -0.1426 -0.3195  0.1183
 7296SOL    HW133521   2.468   2.568  14.777  2.9746 -1.7737 -0.3997
 7296SOL    HW233522   2.496   2.511  14.911 -0.2740 -0.2648  0.1947
 7297SOL     OW33523   3.415   1.329  16.720  0.1981  0.3839 -0.0524
 7297SOL    HW133524   3.360   1.376  16.782 -0.8157 -0.8070 -0.0529
 7297SOL    HW233525   3.355   1.263  16.684  0.0639 -0.0207  0.9104
 7298SOL     OW33526   0.136   2.312   1.055 -0.6800  0.4048  0.2940
 7298SOL    HW133527   0.177   2.245   1.110 -1.7559 -1.5410 -1.2806
 7298SOL    HW233528   0.058   2.305   1.110 -0.1441 -0.8196  0.9001
 7299SOL     OW33529   1.263   2.857   9.211 -0.5581 -0.4964  0.0936
 7299SOL    HW133530   1.250   2.947   9.178  2.2269  0.2055  0.8476
 7299SOL    HW233531   1.316   2.877   9.288 -0.5337  0.1543 -0.0841
 7300SOL     OW33532   1.380   0.752   2.249  0.1341  0.1886  0.3240
 7300SOL    HW133533   1.346   0.708   2.171  0.4941 -0.5640  0.5965
 7300SOL    HW233534   1.365   0.687   2.317  1.8612 -0.8917 -0.3082
 7301SOL     OW33535   2.380   3.275   1.587 -0.0100  0.0882  0.1526
 7301SOL    HW133536   2.294   3.235   1.585  0.4429 -0.9358  1.1537
 7301SOL    HW233537   2.412   3.251   1.499 -0.4762  1.2309 -0.3192
 7302SOL     OW33538   2.703   4.515   1.488  0.2932  0.2431 -0.4241
 7302SOL    HW133539   2.768   4.452   1.458 -0.5935 -0.9509  0.1836
 7302SOL    HW233540   2.623   4.465   1.469  1.5392 -1.3508 -1.4693
 7303SOL     OW33541   2.952   3.948   7.853  0.1746  0.1938  0.0620
 7303SOL    HW133542   2.979   3.859   7.827 -1.2008  0.3074 -1.7849
 7303SOL    HW233543   3.019   3.978   7.914  1.1656  1.1042 -1.4820
 7304SOL     OW33544   1.897   1.025   2.491 -0.2558 -0.3940  0.0376
 7304SOL    HW133545   1.956   1.084   2.538  2.1893 -2.2362 -0.6986
 7304SOL    HW233546   1.820   1.037   2.546 -0.2688 -1.4432  0.2431
 7305SOL     OW33547   2.752   2.950   7.572 -0.0041  0.0524  0.3432
 7305SOL    HW133548   2.782   2.926   7.660 -0.5218 -1.7660  0.0201
 7305SOL    HW233549   2.838   2.943   7.530 -0.3576  1.3026 -0.5867
 7306SOL     OW33550   2.951   0.907  17.405 -0.2261  0.4370 -0.1638
 7306SOL    HW133551   2.956   0.846  17.332 -0.4398 -2.2551  2.0790
 7306SOL    HW233552   3.012   0.977  17.380  1.1793 -1.1642 -1.1837
 7307SOL     OW33553   4.229   2.417   6.502  0.0546  0.0080  0.2269
 7307SOL    HW133554   4.220   2.352   6.572  1.1111 -0.7678 -0.3640
 7307SOL    HW233555   4.143   2.458   6.508  0.4579  0.6768  1.5222
 7308SOL     OW33556   2.879   4.260   2.774 -0.4202  0.4368 -0.5425
 7308SOL    HW133557   2.916   4.251   2.686  1.2006  0.9917  0.0806
 7308SOL    HW233558   2.947   4.272   2.840 -0.7162  1.1277 -0.3709
 7309SOL     OW33559   4.643   0.674  14.458  0.4944  0.0170  0.0002
 7309SOL    HW133560   4.651   0.589  14.502 -1.5155  0.2508  0.7955
 7309SOL    HW233561   4.549   0.685  14.451  0.7329  1.6750 -0.6649
 7310SOL     OW33562   2.736   2.293   6.987 -0.0800  0.4176  0.2062
 7310SOL    HW133563   2.657   2.347   6.984 -1.8077 -2.1398 -0.2922
 7310SOL    HW233564   2.801   2.349   7.030  1.3652 -1.2660  0.2545
 7311SOL     OW33565   4.273   2.052   5.551 -0.0958 -0.2125 -0.3596
 7311SOL    HW133566   4.323   2.120   5.597 -1.0058  0.1710  0.0656
 7311SOL    HW233567   4.337   2.030   5.483  1.1129 -0.9313  1.0242
 7312SOL     OW33568   2.875   3.875   9.219 -0.2589 -0.2100 -0.3412
 7312SOL    HW133569   2.862   3.785   9.251 -1.0492 -0.5231 -1.5606
 7312SOL    HW233570   2.814   3.925   9.273 -0.8708 -0.5132 -0.7557
 7313SOL     OW33571   2.782   0.196   2.821 -0.3942 -0.5746 -0.8907
 7313SOL    HW133572   2.764   0.139   2.746 -0.9672 -0.3435 -0.9240
 7313SOL    HW233573   2.694   0.219   2.849  0.1425  0.0389  0.3069
 7314SOL     OW33574   1.719   3.452   1.221 -0.1037  0.1221 -0.1718
 7314SOL    HW133575   1.668   3.533   1.229 -0.8527 -0.2899 -0.8594
 7314SOL    HW233576   1.811   3.477   1.235  0.2952 -1.8777  0.8589
 7315SOL     OW33577   1.491   3.266   0.393 -0.5801 -0.0822  0.8889
 7315SOL    HW133578   1.567   3.323   0.383  1.5936 -2.6347  2.6808
 7315SOL    HW233579   1.434   3.332   0.433 -1.9419 -0.5101 -0.3456
 7316SOL     OW33580   4.389   1.717   7.444  0.1936  0.3655 -0.7258
 7316SOL    HW133581   4.342   1.768   7.378 -2.9553  0.5699  1.6532
 7316SOL    HW233582   4.377   1.629   7.408 -1.9246  0.4982 -0.3376
 7317SOL     OW33583   4.344   4.559   6.334 -0.2238 -0.6682  0.0487
 7317SOL    HW133584   4.401   4.595   6.402  0.4064 -2.6959  0.5906
 7317SOL    HW233585   4.342   4.467   6.360  1.0327 -0.4445  0.9553
 7318SOL     OW33586   0.035   3.001   5.804 -0.4211 -0.0130 -0.3664
 7318SOL    HW133587   4.695   3.025   5.857  0.6953 -0.5102  1.4588
 7318SOL    HW233588   0.007   2.922   5.757  2.0192 -1.1685  0.1208
 7319SOL     OW33589   2.157   2.433   4.550 -0.0867 -0.2761  0.7457
 7319SOL    HW133590   2.137   2.371   4.479 -1.4348  1.7436 -0.6440
 7319SOL    HW233591   2.071   2.473   4.556 -0.4549 -0.6918 -1.7055
 7320SOL     OW33592   4.507   1.127   5.926 -0.0802 -0.2783  0.1197
 7320SOL    HW133593   4.547   1.163   5.846 -0.5641 -1.0177 -0.4558
 7320SOL    HW233594   4.497   1.035   5.900 -1.2761  0.2412 -1.2501
 7321SOL     OW33595   1.216   0.663   6.963  0.1201  0.3311 -0.2978
 7321SOL    HW133596   1.166   0.705   6.893 -2.4867  1.2926  2.1328
 7321SOL    HW233597   1.231   0.735   7.025 -1.1387  0.5168 -0.2115
 7322SOL     OW33598   3.077   2.012   5.412  0.4714 -0.0055  0.2520
 7322SOL    HW133599   3.119   1.941   5.460 -0.5014 -0.1621  0.8730
 7322SOL    HW233600   2.985   1.989   5.403  0.0357  1.5858  0.6738
 7323SOL     OW33601   3.823   2.577   2.878 -0.3144  0.2863 -0.1027
 7323SOL    HW133602   3.865   2.603   2.960 -0.6409 -1.3405  0.5815
 7323SOL    HW233603   3.889   2.521   2.835  1.0355  1.7857  0.0155
 7324SOL     OW33604   0.472   2.153   1.934  0.1542 -0.2240  0.3104
 7324SOL    HW133605   0.497   2.120   2.021 -0.3911 -0.7932  0.2482
 7324SOL    HW233606   0.396   2.102   1.907 -0.2722 -0.1694  1.3834
 7325SOL     OW33607   2.101   1.825   8.592 -0.4817  0.3622 -0.2692
 7325SOL    HW133608   2.016   1.846   8.553 -0.5684 -0.9852 -0.7822
 7325SOL    HW233609   2.095   1.730   8.598  1.7563  0.1948 -0.6749
 7326SOL     OW33610   1.884   1.478   7.167  0.2352 -0.1065 -0.1661
 7326SOL    HW133611   1.906   1.565   7.200 -0.5513  0.5180 -1.2933
 7326SOL    HW233612   1.789   1.475   7.182  0.5139 -1.6738  1.2610
 7327SOL     OW33613   3.774   2.439   3.835 -0.2526  0.6112  0.4891
 7327SOL    HW133614   3.696   2.459   3.887 -0.3220  0.1890  0.5462
 7327SOL    HW233615   3.794   2.522   3.793 -0.2130 -0.0049 -0.7134
 7328SOL     OW33616   1.922   2.586   4.570 -0.2083  0.2240 -0.4248
 7328SOL    HW133617   1.831   2.614   4.555 -0.4500 -1.1674 -1.5920
 7328SOL    HW233618   1.904   2.500   4.607 -0.4266 -0.0653 -1.2102
 7329SOL     OW33619   4.051   3.849   7.701  0.5178  0.7781  0.0160
 7329SOL    HW133620   3.968   3.874   7.661 -0.4502 -3.1691 -0.4082
 7329SOL    HW233621   4.028   3.756   7.705  2.5978  0.1809 -1.6944
 7330SOL     OW33622   2.921   2.702   1.230  0.2548  0.2716 -0.5184
 7330SOL    HW133623   2.887   2.612   1.225 -1.3324  0.9633 -2.2354
 7330SOL    HW233624   2.948   2.715   1.139 -2.5549  0.5023 -1.3246
 7331SOL     OW33625   3.527   2.765  11.538 -0.1782  0.7061  0.3211
 7331SOL    HW133626   3.541   2.800  11.627  0.4292 -1.2519  0.9915
 7331SOL    HW233627   3.518   2.853  11.501  0.1568 -1.0867 -3.9570
 7332SOL     OW33628   2.677   2.633   8.182 -0.6501 -0.5373  0.2985
 7332SOL    HW133629   2.761   2.673   8.205 -1.9959  3.2414 -1.3443
 7332SOL    HW233630   2.703   2.542   8.200 -0.9244 -0.8585 -0.8796
 7333SOL     OW33631   1.488   0.399   8.840 -0.0301  0.4583  0.2476
 7333SOL    HW133632   1.540   0.327   8.875  0.5278  0.9375  0.4022
 7333SOL    HW233633   1.442   0.428   8.919 -0.2327  1.0984 -0.1032
 7334SOL     OW33634   1.647   2.216   7.080 -0.3463 -0.2429 -0.0557
 7334SOL    HW133635   1.723   2.158   7.076  0.9063  1.5414 -1.7838
 7334SOL    HW233636   1.591   2.148   7.117  0.1347  0.9741  2.9005
 7335SOL     OW33637   3.159   1.182  16.704  0.6165 -0.5969 -0.5231
 7335SOL    HW133638   3.101   1.258  16.714  1.8310  0.0341  1.8812
 7335SOL    HW233639   3.097   1.123  16.660  0.1289 -0.6460  0.2215
 7336SOL     OW33640   4.392   1.041  14.183  0.3376 -0.3500  0.1294
 7336SOL    HW133641   4.408   0.951  14.155  0.8770 -0.8014  1.8832
 7336SOL    HW233642   4.392   1.097  14.105  2.7481  1.6984  1.5722
 7337SOL     OW33643   4.238   4.368  12.415  0.4965  0.3144  0.0150
 7337SOL    HW133644   4.158   4.364  12.362  0.0431 -1.1261  0.8026
 7337SOL    HW233645   4.215   4.441  12.472  2.2777  0.6296  0.3014
 7338SOL     OW33646   1.503   3.398   8.222 -0.4252 -0.5915  0.3672
 7338SOL    HW133647   1.490   3.447   8.303  0.8322 -0.5703  0.5522
 7338SOL    HW233648   1.577   3.449   8.188 -2.5537  2.2334 -0.0155
 7339SOL     OW33649   0.913   2.511   2.874  0.1918 -0.0490  0.0085
 7339SOL    HW133650   0.831   2.465   2.861 -0.1975  0.6161  0.0808
 7339SOL    HW233651   0.943   2.481   2.959 -2.8882 -0.7804  0.8265
 7340SOL     OW33652   2.909   4.065  11.472  0.1393 -0.3997  0.4484
 7340SOL    HW133653   2.885   4.089  11.561 -3.5473 -1.1544 -0.3718
 7340SOL    HW233654   2.824   4.034  11.441 -0.2353  1.4528 -0.4261
 7341SOL     OW33655   3.127   0.652  17.707 -0.0107 -0.3406 -0.0448
 7341SOL    HW133656   3.206   0.622  17.662  1.6246 -0.3288  2.8880
 7341SOL    HW233657   3.067   0.587  17.670  1.3090 -0.7675 -1.4477
 7342SOL     OW33658   3.897   1.545   7.693  0.3291  0.1384  0.3598
 7342SOL    HW133659   3.923   1.537   7.601  0.6004 -1.2596  0.5556
 7342SOL    HW233660   3.912   1.455   7.723 -1.9583 -0.4343 -0.2254
 7343SOL     OW33661   2.474   0.081   3.877  0.3528  0.0581  0.6391
 7343SOL    HW133662   2.517   0.136   3.942  1.9938 -0.3872 -0.0688
 7343SOL    HW233663   2.395   0.134   3.870 -0.1925 -0.8367 -0.1101
 7344SOL     OW33664   1.728   3.990   4.400 -0.4235  0.0248  0.0999
 7344SOL    HW133665   1.647   3.952   4.434  0.0063  0.2817  1.4052
 7344SOL    HW233666   1.751   4.052   4.469 -0.2150  3.1299 -2.7252
 7345SOL     OW33667   4.325   2.636  10.669 -0.2232  0.2821 -0.9719
 7345SOL    HW133668   4.392   2.633  10.601  0.3026  1.0273 -0.4830
 7345SOL    HW233669   4.262   2.567  10.644 -1.3550  1.8280 -2.4240
 7346SOL     OW33670   3.083   1.376   2.702  0.0532  0.6799 -0.2890
 7346SOL    HW133671   3.045   1.441   2.760 -0.6128 -0.0877  0.1414
 7346SOL    HW233672   3.156   1.332   2.744 -0.5615 -0.2878 -0.2273
 7347SOL     OW33673   2.297   1.782   2.885 -0.2069  0.1184  0.0051
 7347SOL    HW133674   2.327   1.865   2.846 -3.3033  1.7091  1.0500
 7347SOL    HW233675   2.381   1.769   2.929 -0.1181  1.1736  0.1516
 7348SOL     OW33676   2.110   3.428   6.185  0.0665 -0.2584  0.2130
 7348SOL    HW133677   2.056   3.357   6.219  0.3479 -0.8504 -0.5865
 7348SOL    HW233678   2.127   3.477   6.265 -0.2163  0.6841 -0.3083
 7349SOL     OW33679   2.975   1.789  12.060  0.8000 -0.1948 -0.5207
 7349SOL    HW133680   2.934   1.871  12.087 -1.3662 -1.5885  0.4034
 7349SOL    HW233681   3.057   1.820  12.021  0.0619 -2.0064 -3.5456
 7350SOL     OW33682   4.661   3.465  10.128 -0.1691  0.2043  0.0565
 7350SOL    HW133683   4.654   3.370  10.121  1.4485  0.1999 -1.6320
 7350SOL    HW233684   4.587   3.496  10.076 -0.5851 -0.9332 -0.0267
 7351SOL     OW33685   1.047   0.943   3.089 -0.6165 -0.0777 -0.2941
 7351SOL    HW133686   1.106   0.937   3.013  0.0014 -1.0757  0.2621
 7351SOL    HW233687   1.065   0.859   3.131  2.9762  0.9578  0.3081
 7352SOL     OW33688   0.236   2.640   5.425  0.0300 -0.1419 -0.0656
 7352SOL    HW133689   0.271   2.646   5.336  2.7054 -1.4222  0.9209
 7352SOL    HW233690   0.188   2.560   5.403 -0.8046  0.5806 -0.9003
 7353SOL     OW33691   4.196   3.659   5.563 -0.4459 -0.1707  0.1230
 7353SOL    HW133692   4.212   3.754   5.565  0.6126 -0.3770  1.9955
 7353SOL    HW233693   4.274   3.624   5.521  0.9448  1.8428  1.0021
 7354SOL     OW33694   2.550   3.255   9.412  0.3996 -0.5052  0.1395
 7354SOL    HW133695   2.470   3.302   9.390  1.0164  0.4235 -0.0937
 7354SOL    HW233696   2.578   3.243   9.321 -0.5382 -1.3517 -0.0468
 7355SOL     OW33697   0.456   1.398   7.414 -0.0670 -0.4020  0.0628
 7355SOL    HW133698   0.361   1.407   7.406  0.0654  0.7650 -0.1287
 7355SOL    HW233699   0.490   1.481   7.447 -0.4147 -0.3797  0.3583
 7356SOL     OW33700   2.954   1.834   1.670  0.1069  0.3262  0.1572
 7356SOL    HW133701   2.957   1.886   1.590  1.3731  1.7317  1.1172
 7356SOL    HW233702   3.024   1.771   1.652  0.2668  0.5214  0.0925
 7357SOL     OW33703   3.533   2.694  15.442  0.2937  0.1231 -0.1230
 7357SOL    HW133704   3.562   2.744  15.518 -0.6505 -0.3218  0.5354
 7357SOL    HW233705   3.439   2.700  15.459  0.2304 -1.4767  0.0450
 7358SOL     OW33706   0.940   0.013  12.342 -0.6255  1.0399 -0.6941
 7358SOL    HW133707   1.021   0.050  12.377  0.1759 -0.3033 -1.1009
 7358SOL    HW233708   0.953   4.734  12.248 -0.7574 -2.6295 -0.1278
 7359SOL     OW33709   4.216   1.980  16.118  0.0430  0.5760 -0.3994
 7359SOL    HW133710   4.265   1.946  16.043  0.8318  2.5060 -0.7574
 7359SOL    HW233711   4.157   1.904  16.119  1.6034 -0.6079  2.7625
 7360SOL     OW33712   1.385   4.631   6.123  0.3430  0.8068 -0.8621
 7360SOL    HW133713   1.320   4.569   6.155  0.1014  0.1749 -2.6005
 7360SOL    HW233714   1.456   4.612   6.183  0.8277  3.1556 -0.6948
 7361SOL     OW33715   4.692   1.526   1.531 -0.3983  0.7236  0.1638
 7361SOL    HW133716   4.682   1.433   1.510 -1.3890  1.1256 -1.1850
 7361SOL    HW233717   4.611   1.536   1.582  0.3391 -1.6785  1.8071
 7362SOL     OW33718   0.308   3.376   5.297 -0.2947  0.3081 -0.2779
 7362SOL    HW133719   0.298   3.308   5.231  1.0140 -0.4203  0.2867
 7362SOL    HW233720   0.271   3.326   5.370  0.3883  0.3605  0.1067
 7363SOL     OW33721   2.351   2.948  15.904 -0.3660 -0.0023 -0.4520
 7363SOL    HW133722   2.320   2.940  15.995  0.5919 -1.4962 -0.2535
 7363SOL    HW233723   2.357   3.043  15.898  4.2132 -0.3508 -0.8802
 7364SOL     OW33724   2.047   4.048   0.611 -0.2524  0.2756  0.1430
 7364SOL    HW133725   1.984   3.979   0.588  1.6978 -1.1899 -0.7286
 7364SOL    HW233726   1.981   4.118   0.613  0.3898  0.8943 -0.3319
 7365SOL     OW33727   1.135   1.331   5.326  0.4021 -1.0847  0.1660
 7365SOL    HW133728   1.113   1.413   5.283  2.4542 -0.1296  0.9573
 7365SOL    HW233729   1.101   1.273   5.258  1.4233 -0.2931 -0.9884
 7366SOL     OW33730   3.756   4.215   3.660  0.3712  0.3090  0.2593
 7366SOL    HW133731   3.754   4.164   3.741 -0.9706 -1.3696 -0.8438
 7366SOL    HW233732   3.666   4.232   3.635  1.1439  2.0351 -1.3813
 7367SOL     OW33733   1.235   2.887   5.868  0.4834 -0.7237 -0.4974
 7367SOL    HW133734   1.287   2.963   5.894 -0.8362  0.9043 -2.6475
 7367SOL    HW233735   1.194   2.861   5.950  2.3143  2.6893  1.4732
 7368SOL     OW33736   2.228   3.237   5.913  0.0322 -0.0843 -0.2172
 7368SOL    HW133737   2.247   3.169   5.849  0.5944  0.7311 -0.9182
 7368SOL    HW233738   2.155   3.200   5.963 -0.2401  1.5571  0.6126
 7369SOL     OW33739   3.788   3.680   0.620  0.1744  0.0601 -0.2585
 7369SOL    HW133740   3.748   3.617   0.680  4.6014  0.3303  2.9582
 7369SOL    HW233741   3.704   3.688   0.575 -1.4537 -2.0352  2.3308
 7370SOL     OW33742   3.381   4.296   2.433  0.1357  0.0366 -0.2817
 7370SOL    HW133743   3.410   4.341   2.354 -2.1180  1.1011 -0.5264
 7370SOL    HW233744   3.373   4.373   2.491  2.9369 -0.1337  0.3302
 7371SOL     OW33745   2.472   2.361   0.367  0.0147  0.2860 -0.6805
 7371SOL    HW133746   2.385   2.382   0.402 -0.4446 -1.5205 -0.7075
 7371SOL    HW233747   2.518   2.352   0.451 -1.3177  2.1151  0.2411
 7372SOL     OW33748   2.352   0.604   7.012 -0.0355  0.3786 -0.0719
 7372SOL    HW133749   2.266   0.643   7.029  0.7727  1.5491  1.3328
 7372SOL    HW233750   2.345   0.535   7.079 -0.7953  0.0319 -0.5047
 7373SOL     OW33751   1.014   3.481   9.030 -0.4123 -0.0181  0.9379
 7373SOL    HW133752   1.012   3.550   9.097 -1.7387  1.1981 -0.3596
 7373SOL    HW233753   1.067   3.411   9.067  0.8294 -0.3859 -1.5376
 7374SOL     OW33754   0.783   0.514  17.529  0.2359  0.5377 -0.5294
 7374SOL    HW133755   0.729   0.590  17.509 -1.2298 -0.5732 -0.7676
 7374SOL    HW233756   0.848   0.560  17.582  0.6099 -0.6477  0.0441
 7375SOL     OW33757   2.570   2.752   5.387 -0.1449 -0.1745 -0.1041
 7375SOL    HW133758   2.665   2.749   5.398 -0.2417 -1.2291  0.4191
 7375SOL    HW233759   2.557   2.841   5.354  1.5617 -0.7874 -2.3605
 7376SOL     OW33760   4.644   0.035   4.182  0.0908  0.0649  0.2474
 7376SOL    HW133761   4.597   0.045   4.265  0.3335  3.2854 -0.0224
 7376SOL    HW233762   4.573   0.026   4.119  1.9417  2.4724 -2.1945
 7377SOL     OW33763   4.726   1.607   2.977 -0.7238 -0.2606 -0.3393
 7377SOL    HW133764   0.055   1.655   2.925 -0.6327  3.5815  3.3188
 7377SOL    HW233765   0.049   1.545   3.020 -0.9326  0.1007  0.4735
 7378SOL     OW33766   3.145   0.298  13.392  0.2281 -0.9796  0.2519
 7378SOL    HW133767   3.178   0.208  13.387 -2.2587 -1.7164 -2.4096
 7378SOL    HW233768   3.105   0.290  13.479  0.0512 -0.1074  0.2487
 7379SOL     OW33769   4.084   1.317   9.421 -0.0639 -0.1471 -0.5576
 7379SOL    HW133770   4.000   1.305   9.465  0.1792  2.7620  0.6961
 7379SOL    HW233771   4.073   1.399   9.373  0.1911 -0.6582 -1.4949
 7380SOL     OW33772   0.913   2.831   1.283 -0.2181 -0.5288 -0.1013
 7380SOL    HW133773   0.915   2.898   1.351  1.8593 -0.7195  0.0291
 7380SOL    HW233774   0.821   2.806   1.276 -0.1990 -0.5744 -0.1927
 7381SOL     OW33775   3.888   1.644   6.572  0.1046  0.3416 -0.7979
 7381SOL    HW133776   3.889   1.565   6.626 -2.0404  0.9854  0.1836
 7381SOL    HW233777   3.929   1.612   6.491 -0.1439  1.7006 -1.4509
 7382SOL     OW33778   0.388   4.541   7.159 -0.4943  1.0082  0.7383
 7382SOL    HW133779   0.348   4.454   7.166  2.1413 -0.1064  1.9914
 7382SOL    HW233780   0.304   4.587   7.153 -0.5825  0.6160 -1.2685
 7383SOL     OW33781   2.091   2.069  13.924 -0.2700  0.5046 -0.0857
 7383SOL    HW133782   2.167   2.041  13.974  2.3634  2.5768 -2.9692
 7383SOL    HW233783   2.017   2.025  13.965 -0.1304 -0.0042 -0.3876
 7384SOL     OW33784   0.768   3.882  16.601  0.4566  0.1950  0.1535
 7384SOL    HW133785   0.805   3.876  16.513  0.2826  0.3022  0.0719
 7384SOL    HW233786   0.722   3.798  16.597 -1.4137  1.2120  0.6788
 7385SOL     OW33787   0.988   4.087   1.665 -0.0960 -0.2941  0.7031
 7385SOL    HW133788   0.966   4.176   1.638  4.0819  0.4918 -0.0321
 7385SOL    HW233789   0.896   4.060   1.669 -0.7338  1.8581  0.6632
 7386SOL     OW33790   1.126   1.926   3.735 -0.0820  0.3441  0.3787
 7386SOL    HW133791   1.144   1.909   3.828  1.7223 -0.1770 -0.0508
 7386SOL    HW233792   1.153   1.848   3.687 -0.2891  1.2996 -1.2860
 7387SOL     OW33793   3.105   1.099   9.326 -0.1130 -0.0471  0.1311
 7387SOL    HW133794   3.117   1.187   9.289 -0.8932 -0.5223 -1.2632
 7387SOL    HW233795   3.011   1.087   9.319 -0.2642  2.8315 -2.8829
 7388SOL     OW33796   1.087   2.479  12.769  0.3467 -0.1907 -0.1485
 7388SOL    HW133797   1.136   2.507  12.846 -2.8368  1.1515  1.4270
 7388SOL    HW233798   1.147   2.497  12.697  2.1875 -1.6226  1.0265
 7389SOL     OW33799   1.328   0.793  16.119  0.2163  0.2484  0.0539
 7389SOL    HW133800   1.235   0.776  16.135  0.1883  0.5411  0.2053
 7389SOL    HW233801   1.354   0.736  16.191 -0.0892 -3.2467 -2.5974
 7390SOL     OW33802   0.383   1.533   3.726 -0.1079 -0.6016 -0.3077
 7390SOL    HW133803   0.461   1.479   3.712 -0.2482 -1.0889  0.7487
 7390SOL    HW233804   0.372   1.515   3.819  1.3210  1.9250  0.3422
 7391SOL     OW33805   4.564   1.891   1.557 -0.2525  0.9261 -0.4856
 7391SOL    HW133806   4.516   1.971   1.575 -1.1075  0.1233  0.8289
 7391SOL    HW233807   4.546   1.837   1.634  0.6991 -2.2699 -2.4827
 7392SOL     OW33808   2.780   0.102   6.957 -0.0530 -0.4536 -0.1136
 7392SOL    HW133809   2.688   0.106   6.985 -0.1075  0.4730 -0.4386
 7392SOL    HW233810   2.807   0.192   6.971  3.7566 -1.2802 -2.2134
 7393SOL     OW33811   0.473   0.007   4.555  0.6012  0.1075 -0.2010
 7393SOL    HW133812   0.410   4.675   4.529  2.3303 -2.3429  1.9360
 7393SOL    HW233813   0.453   0.077   4.494  2.2773  0.6127 -0.1790
 7394SOL     OW33814   1.394   3.971   6.239  0.9200  0.0424  0.4170
 7394SOL    HW133815   1.390   3.935   6.150 -0.1766  2.9470 -0.7067
 7394SOL    HW233816   1.382   3.889   6.288  0.2790  1.0069  1.8735
 7395SOL     OW33817   1.036   2.723   7.561  0.2092  0.3989 -0.2314
 7395SOL    HW133818   1.107   2.738   7.499  0.8372 -1.7278 -0.0368
 7395SOL    HW233819   1.052   2.790   7.627 -0.9365  0.3595  0.0971
 7396SOL     OW33820   3.483   2.126   5.390 -0.2046  0.4369 -0.0730
 7396SOL    HW133821   3.502   2.107   5.298  0.7088  0.4776  0.1045
 7396SOL    HW233822   3.560   2.181   5.404  0.6539 -0.0948 -2.6002
 7397SOL     OW33823   2.394   3.521   7.619  0.0991  0.1818  0.3726
 7397SOL    HW133824   2.336   3.595   7.637  0.5823  0.6824 -0.1432
 7397SOL    HW233825   2.481   3.560   7.626  0.4547 -0.6619  0.6466
 7398SOL     OW33826   4.163   1.781   2.534  0.3608  0.1522 -0.4156
 7398SOL    HW133827   4.069   1.765   2.537  0.4364 -0.4419 -1.5151
 7398SOL    HW233828   4.172   1.784   2.439  2.3249  0.1306 -0.2441
 7399SOL     OW33829   0.775   1.905   1.295  0.2804  0.5822  0.6214
 7399SOL    HW133830   0.816   1.819   1.284 -1.3139  0.0532 -1.2821
 7399SOL    HW233831   0.838   1.956   1.246  1.6312 -0.7543  0.9609
 7400SOL     OW33832   0.014   3.350   8.591 -0.3286 -0.4283 -0.1314
 7400SOL    HW133833   0.061   3.411   8.649 -0.7407 -2.0064  1.8711
 7400SOL    HW233834   4.679   3.412   8.573 -1.2866 -2.2337 -2.4628
 7401SOL     OW33835   0.584   3.721  12.374  0.5265 -0.3117  0.0054
 7401SOL    HW133836   0.650   3.790  12.365  0.4139 -0.1546  0.3649
 7401SOL    HW233837   0.633   3.641  12.354  0.3886 -0.0167 -1.5265
 7402SOL     OW33838   0.531   1.084  15.911  0.4360 -0.0651 -0.3656
 7402SOL    HW133839   0.626   1.087  15.905  0.2761  1.8496 -1.8053
 7402SOL    HW233840   0.507   1.078  15.819 -0.1706 -0.6084 -0.1754
 7403SOL     OW33841   4.546   3.850   2.006 -0.2224 -0.5471  0.4706
 7403SOL    HW133842   4.492   3.774   1.985  0.3496 -0.9252  0.3594
 7403SOL    HW233843   4.475   3.913   2.007 -0.7364 -1.1510  1.8205
 7404SOL     OW33844   3.400   3.111   4.967  0.2694  0.3039 -0.3425
 7404SOL    HW133845   3.419   3.146   5.055  0.7559  0.1927 -0.4017
 7404SOL    HW233846   3.312   3.144   4.952  0.6470  0.7127 -1.6554
 7405SOL     OW33847   2.110   2.318   3.497  0.0575  0.3836 -0.1227
 7405SOL    HW133848   2.194   2.274   3.511  0.0525  0.7102  0.9412
 7405SOL    HW233849   2.069   2.254   3.439 -0.0888  0.2651  0.1115
 7406SOL     OW33850   4.382   2.534  16.027 -0.3306 -0.0228  0.0685
 7406SOL    HW133851   4.461   2.568  15.986  0.6798  0.8503  2.7272
 7406SOL    HW233852   4.323   2.598  15.986  0.8138  0.5506 -0.6776
 7407SOL     OW33853   0.742   4.598   4.931 -0.3371 -0.4531 -0.0906
 7407SOL    HW133854   0.684   4.674   4.934  0.7273  0.3588 -0.0209
 7407SOL    HW233855   0.702   4.546   5.001 -2.3973  1.8767  0.4534
 7408SOL     OW33856   3.696   1.909  10.454  0.7973  0.1394 -0.2967
 7408SOL    HW133857   3.643   1.829  10.455 -0.9194  1.2666 -1.5284
 7408SOL    HW233858   3.778   1.859  10.446  1.1786  0.7448 -0.2032
 7409SOL     OW33859   0.822   3.164   1.913  0.2557  0.2010  0.2687
 7409SOL    HW133860   0.733   3.145   1.942 -0.6590  0.8923 -2.1694
 7409SOL    HW233861   0.800   3.162   1.820  0.7417 -1.6522  0.1798
 7410SOL     OW33862   3.112   3.368   3.670  0.0337  0.0345  0.2283
 7410SOL    HW133863   3.139   3.370   3.762  1.8388 -0.2008 -0.2901
 7410SOL    HW233864   3.096   3.276   3.653 -0.4890  0.5182 -1.9102
 7411SOL     OW33865   2.853   3.998   6.334  0.3123  0.2178 -0.2272
 7411SOL    HW133866   2.823   3.928   6.392 -0.4840  1.5992  1.0264
 7411SOL    HW233867   2.783   4.063   6.333  1.6656  1.6587 -0.2548
 7412SOL     OW33868   2.828   2.423  16.108 -0.1694  0.8180  0.2073
 7412SOL    HW133869   2.794   2.340  16.075  1.2410  0.3868 -0.1856
 7412SOL    HW233870   2.812   2.413  16.201  0.7816 -1.4407  0.1567
 7413SOL     OW33871   4.121   1.192   8.883 -0.0395 -0.3753  0.1711
 7413SOL    HW133872   4.188   1.238   8.933  0.7701 -0.1346 -1.1397
 7413SOL    HW233873   4.176   1.139   8.826  1.3085  0.4844  0.6722
 7414SOL     OW33874   1.556   1.312   8.910  0.2754 -0.0124  0.9580
 7414SOL    HW133875   1.612   1.235   8.905  0.7123  0.3051  0.9591
 7414SOL    HW233876   1.562   1.336   9.002 -2.3020  0.0677  1.1116
 7415SOL     OW33877   1.261   1.828   4.744 -0.2818 -0.5101 -0.2289
 7415SOL    HW133878   1.275   1.759   4.679 -0.4419 -0.8867  0.1378
 7415SOL    HW233879   1.175   1.812   4.782 -0.7128  0.9112 -0.6040
 7416SOL     OW33880   2.257   2.686   5.332 -0.2390  0.3112  0.0295
 7416SOL    HW133881   2.337   2.693   5.385 -0.6686  2.6189  0.3757
 7416SOL    HW233882   2.217   2.604   5.361 -2.0211  1.5935  1.2183
 7417SOL     OW33883   3.581   0.556   3.592 -0.0186 -0.1326  0.1025
 7417SOL    HW133884   3.513   0.524   3.534 -0.1733  4.1652 -2.1096
 7417SOL    HW233885   3.530   0.596   3.663 -1.6534 -0.7747 -0.7216
 7418SOL     OW33886   1.139   0.430  12.512 -0.2399  0.3293 -0.0349
 7418SOL    HW133887   1.126   0.344  12.554 -2.4466  0.0460 -1.2907
 7418SOL    HW233888   1.202   0.464  12.575 -0.1462  0.8480 -0.4147
 7419SOL     OW33889   1.843   1.954   2.699  0.1191 -0.4661 -0.3245
 7419SOL    HW133890   1.760   1.930   2.739  0.3752 -2.1400 -0.7851
 7419SOL    HW233891   1.831   1.914   2.613  1.0706 -2.3680  0.4195
 7420SOL     OW33892   3.787   3.570  17.062 -0.0991 -0.2445 -0.6143
 7420SOL    HW133893   3.814   3.520  17.139 -0.8997  0.9809  0.4826
 7420SOL    HW233894   3.868   3.601  17.022 -0.0907  0.2802 -0.1988
 7421SOL     OW33895   1.221   0.950   5.361 -0.6455  0.2664 -0.0961
 7421SOL    HW133896   1.228   0.856   5.377  3.1788  0.4987 -0.2744
 7421SOL    HW233897   1.266   0.979   5.440 -0.2372 -0.9397  0.1154
 7422SOL     OW33898   0.000   3.626   6.178 -0.1551 -0.1770  0.8504
 7422SOL    HW133899   4.694   3.560   6.234  1.6549 -0.8372  1.4159
 7422SOL    HW233900   4.679   3.625   6.101 -0.1737  2.2813  0.8285
 7423SOL     OW33901   1.009   1.602  13.734 -0.1482 -0.1563  0.1647
 7423SOL    HW133902   1.004   1.508  13.712 -1.3955  0.0953 -0.6323
 7423SOL    HW233903   1.079   1.623  13.672  1.5437 -0.9914  1.8209
 7424SOL     OW33904   3.308   1.343   7.790  0.0970 -0.1125  0.0336
 7424SOL    HW133905   3.270   1.332   7.877  0.1810  0.4954  0.1467
 7424SOL    HW233906   3.277   1.432   7.772 -0.3480 -0.1709  0.5169
 7425SOL     OW33907   2.263   3.554   1.430  0.0892  0.6342 -0.2195
 7425SOL    HW133908   2.268   3.495   1.355 -0.8781 -0.2463  0.4225
 7425SOL    HW233909   2.351   3.556   1.468  0.4439 -1.9040 -0.9517
 7426SOL     OW33910   2.819   3.196   6.712 -0.3952 -0.7205 -0.2045
 7426SOL    HW133911   2.851   3.203   6.802 -1.0757 -0.4321  0.0159
 7426SOL    HW233912   2.732   3.236   6.704  0.1203  0.0507 -1.9803
 7427SOL     OW33913   4.637   0.174   6.614  0.3062  0.0096 -0.3801
 7427SOL    HW133914   4.571   0.124   6.565 -1.2427  3.1201 -1.4728
 7427SOL    HW233915   4.720   0.145   6.578  0.4318 -1.6059  1.2130
 7428SOL     OW33916   3.845   3.486   6.080  0.3507  0.5566  0.1417
 7428SOL    HW133917   3.766   3.486   6.135 -1.1814 -0.7621 -2.0419
 7428SOL    HW233918   3.819   3.546   6.011 -1.4608 -0.5307 -0.1258
 7429SOL     OW33919   4.112   2.237   9.449 -0.0010 -0.1098  0.2044
 7429SOL    HW133920   4.171   2.310   9.466 -0.9440  0.3583  1.4438
 7429SOL    HW233921   4.065   2.280   9.378  1.4057  0.1091 -0.5933
 7430SOL     OW33922   4.661   2.915   2.667 -0.4749  0.0519  0.0754
 7430SOL    HW133923   4.677   2.993   2.720 -1.2012  1.3271 -1.6133
 7430SOL    HW233924   4.598   2.954   2.607  0.2427  1.8472  0.4824
 7431SOL     OW33925   2.836   2.821   4.737 -0.1464 -0.0227  0.2727
 7431SOL    HW133926   2.927   2.811   4.765  0.8514 -0.2662 -2.9668
 7431SOL    HW233927   2.796   2.742   4.773  2.5984 -1.2661  0.6053
 7432SOL     OW33928   2.858   1.787   6.015 -0.9607 -0.2668 -0.7271
 7432SOL    HW133929   2.798   1.817   6.082  0.6803  0.0029  0.6121
 7432SOL    HW233930   2.807   1.719   5.969 -2.8226  1.2775 -0.9392
 7433SOL     OW33931   1.594   2.407   7.536 -0.1492 -0.6519  0.1802
 7433SOL    HW133932   1.560   2.422   7.624 -1.4368  0.3441 -0.4959
 7433SOL    HW233933   1.514   2.400   7.484  0.9628 -0.6716 -1.5221
 7434SOL     OW33934   4.571   3.829   7.595  0.7870 -0.3162  0.0918
 7434SOL    HW133935   4.568   3.757   7.659 -0.4750 -0.6741 -0.3730
 7434SOL    HW233936   4.480   3.857   7.586  0.7147 -1.3884 -2.3333
 7435SOL     OW33937   0.239   2.911   8.275 -0.4435  0.6193 -0.3796
 7435SOL    HW133938   0.241   2.818   8.299 -1.8541  1.2625  2.2467
 7435SOL    HW233939   0.216   2.936   8.365  0.2311 -1.7840  0.4675
 7436SOL     OW33940   3.187   4.199   0.363  0.3323 -0.7887 -0.1388
 7436SOL    HW133941   3.201   4.190   0.269  1.4798  0.9639 -0.1323
 7436SOL    HW233942   3.276   4.177   0.393  0.7241 -2.3704 -2.4745
 7437SOL     OW33943   4.119   3.158   3.896 -0.2579 -0.1442  0.1029
 7437SOL    HW133944   4.055   3.115   3.953  0.3518  0.1075  0.9740
 7437SOL    HW233945   4.200   3.155   3.947  0.0960  1.7802 -0.3645
 7438SOL     OW33946   0.188   3.458   6.007  0.2508 -0.4023  0.3163
 7438SOL    HW133947   0.116   3.401   5.980 -0.5649  0.5613  0.4551
 7438SOL    HW233948   0.139   3.529   6.049  2.1450  2.1444 -1.7809
 7439SOL     OW33949   1.649   1.214   5.924 -0.3266 -0.0936 -0.1371
 7439SOL    HW133950   1.623   1.131   5.964  2.8342 -0.3011  1.4819
 7439SOL    HW233951   1.735   1.237   5.959 -0.4169 -1.1519  0.7574
 7440SOL     OW33952   0.203   2.868   0.245 -0.2485 -0.4770 -0.2142
 7440SOL    HW133953   0.148   2.838   0.317 -0.2790 -0.0666 -0.0672
 7440SOL    HW233954   0.279   2.905   0.289 -1.7998  1.4473  0.8057
 7441SOL     OW33955   3.267   0.206   4.060 -0.2241 -0.6200  0.0419
 7441SOL    HW133956   3.201   0.275   4.053 -0.7938 -0.9584  1.8653
 7441SOL    HW233957   3.263   0.155   3.979  1.6928  0.8039 -0.9453
 7442SOL     OW33958   0.607   2.328   5.601  0.6870  0.7780 -0.2567
 7442SOL    HW133959   0.578   2.397   5.541 -1.8736 -1.2597 -1.3442
 7442SOL    HW233960   0.671   2.278   5.550 -0.6655 -0.4993 -0.6995
 7443SOL     OW33961   0.145   1.394   4.988 -0.1216 -0.4558 -0.0215
 7443SOL    HW133962   0.184   1.415   5.073 -1.0228 -3.1419  1.0486
 7443SOL    HW233963   0.120   1.303   5.003  0.0143 -0.4775  0.0732
 7444SOL     OW33964   3.038   0.855   2.379 -0.1529  0.3410  0.1081
 7444SOL    HW133965   2.981   0.931   2.387  1.6849  1.5889  1.4231
 7444SOL    HW233966   3.009   0.828   2.292  0.3843 -0.1721  0.0862
 7445SOL     OW33967   0.911   3.955   4.516  0.3217  0.1715 -0.2005
 7445SOL    HW133968   0.986   4.013   4.527  0.5165 -0.2949  0.9229
 7445SOL    HW233969   0.945   3.894   4.451  2.2354  0.5481  0.4264
 7446SOL     OW33970   2.259   3.157  14.191 -0.3590  0.6988  0.7990
 7446SOL    HW133971   2.318   3.232  14.185  0.9514 -0.3969  0.0076
 7446SOL    HW233972   2.259   3.121  14.102 -1.2069 -4.0963  2.7509
 7447SOL     OW33973   2.735   1.311  17.479 -0.3226  0.6936 -0.5572
 7447SOL    HW133974   2.715   1.296  17.386  2.6071 -1.4310 -0.8307
 7447SOL    HW233975   2.653   1.285  17.520  0.6705 -2.4230 -0.5861
 7448SOL     OW33976   1.672   2.814   8.244 -0.0755 -0.5490  0.2271
 7448SOL    HW133977   1.616   2.875   8.194 -1.6504  0.4471  3.2361
 7448SOL    HW233978   1.759   2.850   8.225  0.2994 -1.7903 -0.4206
 7449SOL     OW33979   3.316   0.577   1.021  0.4362 -0.4781 -0.2302
 7449SOL    HW133980   3.382   0.588   1.090  0.7617  0.6824 -0.7322
 7449SOL    HW233981   3.375   0.617   0.957 -1.4222  1.0615 -0.9661
 7450SOL     OW33982   1.464   2.535  10.335 -0.3487  0.3033  0.0235
 7450SOL    HW133983   1.542   2.570  10.291  0.3915 -1.4937 -0.0874
 7450SOL    HW233984   1.403   2.526  10.261  1.0763  0.7952 -1.2235
 7451SOL     OW33985   2.573   2.495   5.545  0.1563 -0.0958 -0.3055
 7451SOL    HW133986   2.603   2.430   5.481  1.9425  0.3992  0.0490
 7451SOL    HW233987   2.571   2.574   5.493  0.2014  0.1045 -0.0033
 7452SOL     OW33988   0.928   1.389   5.541 -0.3460  0.4702  0.2577
 7452SOL    HW133989   0.929   1.483   5.525 -4.8601  0.5721  0.6070
 7452SOL    HW233990   1.000   1.357   5.487 -0.7748  1.0929 -0.6833
 7453SOL     OW33991   2.518   3.636   6.675  0.6317  0.1769  0.2176
 7453SOL    HW133992   2.532   3.721   6.634 -0.2389 -0.2386 -0.9685
 7453SOL    HW233993   2.551   3.572   6.612 -1.9964 -1.3470  0.3962
 7454SOL     OW33994   0.998   4.699   4.425 -0.5935 -0.0560 -0.8941
 7454SOL    HW133995   1.090   4.683   4.447 -0.8980 -0.3178  0.2252
 7454SOL    HW233996   0.988   4.618   4.376 -0.5482  0.0054 -1.0048
 7455SOL     OW33997   0.019   0.641   2.432 -0.0940 -0.1653 -0.2023
 7455SOL    HW133998   4.683   0.584   2.458 -0.2784  0.1127 -0.0994
 7455SOL    HW233999   0.026   0.684   2.517 -1.2457  2.0225 -1.2048
 7456SOL     OW34000   4.488   3.359  10.382 -0.1871 -0.6995  0.4460
 7456SOL    HW134001   4.476   3.264  10.378 -0.4461 -0.5603 -2.5152
 7456SOL    HW234002   4.574   3.358  10.339  0.3007  1.2108  1.3831
 7457SOL     OW34003   1.385   4.294   7.414 -0.1172 -0.0442 -0.6572
 7457SOL    HW134004   1.334   4.364   7.456 -0.3998 -0.7330  0.1457
 7457SOL    HW234005   1.418   4.333   7.333 -0.4187  1.0322 -0.2690
 7458SOL     OW34006   0.741   3.847  17.094 -0.0496  0.5460  0.4052
 7458SOL    HW134007   0.747   3.752  17.083  1.9265  0.8388 -0.9821
 7458SOL    HW234008   0.784   3.880  17.015  0.1979  0.9518  0.7116
 7459SOL     OW34009   1.156   2.136   9.265 -0.1504  0.1244  0.7108
 7459SOL    HW134010   1.112   2.113   9.346 -1.2991 -1.4722 -0.3738
 7459SOL    HW234011   1.145   2.055   9.216 -0.7276  1.5844 -1.5662
 7460SOL     OW34012   2.967   3.352   8.602 -0.0875  0.1638  0.0106
 7460SOL    HW134013   3.050   3.306   8.589 -0.4373 -0.6417  0.6509
 7460SOL    HW234014   3.001   3.438   8.627 -2.5359  1.3924 -0.9049
 7461SOL     OW34015   1.515   2.177   3.932 -0.6123  0.2065  0.1606
 7461SOL    HW134016   1.477   2.224   4.006  0.0851  1.1127 -0.0505
 7461SOL    HW234017   1.603   2.159   3.966 -1.0015 -0.0156  1.0531
 7462SOL     OW34018   3.102   2.008   2.348 -0.4117  0.3082  0.7095
 7462SOL    HW134019   3.133   1.923   2.378 -1.3802 -0.4706 -0.5106
 7462SOL    HW234020   3.018   1.991   2.306 -0.2047  2.9337 -0.8191
 7463SOL     OW34021   0.721   4.675   7.682  0.0743 -0.4705 -0.3978
 7463SOL    HW134022   0.814   4.698   7.673 -0.2187  0.0414 -2.0438
 7463SOL    HW234023   0.720   4.616   7.607 -1.7295 -1.0895  0.1257
 7464SOL     OW34024   0.522   1.258   2.882 -0.1021  0.2193 -0.1387
 7464SOL    HW134025   0.558   1.200   2.949  0.5621 -0.2183 -0.8720
 7464SOL    HW234026   0.487   1.200   2.814  2.7043 -0.2574 -1.1826
 7465SOL     OW34027   0.829   3.403   3.888  0.2560 -0.4639  0.0012
 7465SOL    HW134028   0.909   3.375   3.932 -0.3093 -1.7660  0.1812
 7465SOL    HW234029   0.771   3.364   3.953  1.3051 -0.6766  0.7959
 7466SOL     OW34030   0.671   1.607   4.116 -0.1211  0.0407  0.0101
 7466SOL    HW134031   0.590   1.643   4.151  1.4391  4.4917 -0.9595
 7466SOL    HW234032   0.694   1.533   4.172 -1.2864 -1.3502 -1.3722
 7467SOL     OW34033   2.608   2.426   9.817  0.0530  0.1772  0.2562
 7467SOL    HW134034   2.560   2.366   9.759 -0.8892 -0.0590  1.2848
 7467SOL    HW234035   2.617   2.496   9.752  0.3763 -0.7849 -0.7477
 7468SOL     OW34036   4.005   4.301  13.094 -0.4810 -0.2794 -0.4868
 7468SOL    HW134037   4.004   4.391  13.061 -1.7720  0.5727  1.8385
 7468SOL    HW234038   4.046   4.261  13.018  2.6766  0.0156  1.0714
 7469SOL     OW34039   1.134   0.408  10.208  0.1539 -0.3701 -0.4992
 7469SOL    HW134040   1.165   0.482  10.261 -1.1648 -1.4018  1.7161
 7469SOL    HW234041   1.205   0.411  10.144 -0.2661 -0.2325 -0.9592
 7470SOL     OW34042   3.996   0.107   4.734 -0.2022 -0.3229 -0.0972
 7470SOL    HW134043   3.915   0.155   4.723 -0.8198 -1.2098  0.5060
 7470SOL    HW234044   4.033   0.120   4.647  0.6911  1.3587  0.5259
 7471SOL     OW34045   3.656   2.590  16.805  0.2529  0.0443  0.2953
 7471SOL    HW134046   3.570   2.630  16.797  0.9443  1.2172 -1.1249
 7471SOL    HW234047   3.707   2.666  16.835 -1.2840  1.5657 -0.9876
 7472SOL     OW34048   3.135   4.340   7.208  0.4499  0.5240  0.2550
 7472SOL    HW134049   3.212   4.312   7.259 -0.4827 -3.2358 -0.3958
 7472SOL    HW234050   3.177   4.401   7.147  2.6129 -1.2469 -0.0308
 7473SOL     OW34051   2.477   0.504  10.083 -0.2270 -0.5513  0.7038
 7473SOL    HW134052   2.489   0.425  10.029  0.4226 -1.0284  1.5503
 7473SOL    HW234053   2.571   0.515  10.100 -0.3131 -3.1463  2.8357
 7474SOL     OW34054   0.506   3.614   8.680 -0.3382  0.1425 -0.9369
 7474SOL    HW134055   0.578   3.563   8.643 -1.0965 -1.3247 -0.4205
 7474SOL    HW234056   0.535   3.655   8.761  2.7233  2.8845 -3.4400
 7475SOL     OW34057   1.154   3.622  11.114  0.4225 -0.0367 -0.0650
 7475SOL    HW134058   1.136   3.657  11.027 -0.2328 -1.5245 -0.5132
 7475SOL    HW234059   1.088   3.553  11.120 -2.2850  2.7540  2.6314
 7476SOL     OW34060   2.107   0.138  10.725  0.2050  0.3266 -0.2290
 7476SOL    HW134061   2.120   0.211  10.787  0.6787 -0.3009  0.4077
 7476SOL    HW234062   2.013   0.124  10.720  0.0811  1.0399  0.0966
 7477SOL     OW34063   4.631   4.425  14.005 -0.1103  0.2657  0.0155
 7477SOL    HW134064   4.659   4.450  14.093  0.2405  2.2835 -0.6837
 7477SOL    HW234065   4.672   4.489  13.947 -1.0200  1.6374  0.8730
 7478SOL     OW34066   3.273   2.859   4.287  0.4155  0.2318  0.2130
 7478SOL    HW134067   3.201   2.796   4.297  0.3113  0.2275 -0.5100
 7478SOL    HW234068   3.308   2.871   4.375 -0.3508  0.2159  0.5118
 7479SOL     OW34069   3.381   0.226  11.448 -0.3816  0.0942  0.2604
 7479SOL    HW134070   3.390   0.217  11.353 -2.0306  1.0651  0.0041
 7479SOL    HW234071   3.290   0.256  11.454 -1.1629 -1.9892 -1.1335
 7480SOL     OW34072   1.359   2.971   4.238  0.0098 -0.2838  0.2754
 7480SOL    HW134073   1.267   2.947   4.231 -0.4747  1.1272  1.8744
 7480SOL    HW234074   1.401   2.898   4.192  1.1065 -1.2361  2.7998
 7481SOL     OW34075   3.368   3.018   7.842 -0.1444  0.4709  0.4154
 7481SOL    HW134076   3.284   3.063   7.833 -1.0931 -1.4526 -0.1747
 7481SOL    HW234077   3.432   3.076   7.799 -0.2719 -0.2440 -0.7398
 7482SOL     OW34078   3.381   1.486  16.484  0.5784  0.3014 -0.0149
 7482SOL    HW134079   3.426   1.487  16.399 -2.5764 -0.2456 -1.7153
 7482SOL    HW234080   3.316   1.416  16.480  0.7943  0.0803  0.4407
 7483SOL     OW34081   0.416   0.675   1.722 -0.0281  0.5115  0.1852
 7483SOL    HW134082   0.506   0.668   1.754  0.1581 -2.3673 -0.9324
 7483SOL    HW234083   0.414   0.595   1.669 -2.3457 -0.5101  1.7995
 7484SOL     OW34084   2.427   1.747   3.664 -0.1284  0.1771 -0.0709
 7484SOL    HW134085   2.347   1.783   3.701 -0.0482  2.0232 -1.6974
 7484SOL    HW234086   2.484   1.786   3.731 -0.9816 -0.0295  0.7734
 7485SOL     OW34087   0.865   0.609   8.007  0.5787  0.0597 -0.1506
 7485SOL    HW134088   0.927   0.536   8.000  2.8460  2.0284 -0.3770
 7485SOL    HW234089   0.907   0.687   7.972  1.6238  0.3657  1.8288
 7486SOL     OW34090   3.083   3.394   7.077  0.4846  0.3465  0.4797
 7486SOL    HW134091   2.988   3.389   7.062  0.6876 -0.0064 -0.6898
 7486SOL    HW234092   3.082   3.417   7.169 -2.7137 -0.4048  0.6315
 7487SOL     OW34093   0.251   3.223   6.123  0.2999 -0.2369 -0.1173
 7487SOL    HW134094   0.249   3.311   6.086 -0.7358  0.4499  1.5733
 7487SOL    HW234095   0.295   3.238   6.207  1.0833 -0.6861 -0.4500
 7488SOL     OW34096   1.713   1.908   5.107 -0.0783  0.1486  0.6231
 7488SOL    HW134097   1.783   1.961   5.145  1.0308  0.4234 -1.7939
 7488SOL    HW234098   1.640   1.939   5.162  0.4096  0.6343  0.9992
 7489SOL     OW34099   0.660   1.979   4.514 -0.4442  0.3336  0.0697
 7489SOL    HW134100   0.728   1.961   4.449  0.0515  0.6299  0.5134
 7489SOL    HW234101   0.696   2.054   4.561  1.6875  0.3442 -1.5827
 7490SOL     OW34102   3.773   3.680   3.353 -0.5406 -0.1286 -0.2539
 7490SOL    HW134103   3.755   3.671   3.259 -0.8362  3.0044 -0.5095
 7490SOL    HW234104   3.748   3.769   3.377  1.9307  0.5199 -0.0606
 7491SOL     OW34105   1.233   2.074  16.703  0.3246 -0.4307  0.1946
 7491SOL    HW134106   1.235   2.058  16.608  0.7913  0.5904  0.0341
 7491SOL    HW234107   1.210   2.167  16.700 -0.9064 -0.7898 -1.3609
 7492SOL     OW34108   2.022   1.984   9.538  0.0560  0.0265 -0.2996
 7492SOL    HW134109   2.024   2.080   9.532 -0.3660  0.0680  0.2045
 7492SOL    HW234110   2.064   1.958   9.456  1.8389  0.0289  0.6110
 7493SOL     OW34111   4.581   4.262  10.039  0.2031 -0.0633 -0.0640
 7493SOL    HW134112   4.644   4.271   9.967 -0.8561  1.9845 -0.7498
 7493SOL    HW234113   4.640   4.261  10.115  1.9819 -0.7916 -1.4528
 7494SOL     OW34114   4.062   2.022   8.447  0.7881 -0.2142  0.1923
 7494SOL    HW134115   4.023   2.081   8.512 -0.0328 -1.1780  0.5622
 7494SOL    HW234116   3.998   1.951   8.445 -0.5723  1.0541 -0.9470
 7495SOL     OW34117   3.260   2.408   2.453  0.1323  0.1148 -0.2120
 7495SOL    HW134118   3.313   2.438   2.528 -2.3897  2.0109  0.7988
 7495SOL    HW234119   3.248   2.488   2.402 -1.0718 -0.0708 -0.2156
 7496SOL     OW34120   3.864   1.877   6.432 -0.3065  0.2437 -0.0605
 7496SOL    HW134121   3.869   1.795   6.481 -1.3670 -0.1611 -0.6299
 7496SOL    HW234122   3.940   1.919   6.472 -0.3098 -0.7945  1.0402
 7497SOL     OW34123   3.367   0.017   2.147 -0.4273  0.3731 -0.8701
 7497SOL    HW134124   3.422   0.092   2.168  1.3904 -0.3332 -3.0246
 7497SOL    HW234125   3.367   0.026   2.051 -2.1279 -0.9224 -0.9844
 7498SOL     OW34126   3.485   1.834   7.302  0.6553 -0.3926  0.0211
 7498SOL    HW134127   3.433   1.825   7.221 -1.1277 -0.5456  1.1860
 7498SOL    HW234128   3.413   1.810   7.360  2.3202  0.9234  2.6078
 7499SOL     OW34129   4.380   3.512   8.792  0.2990 -0.2211  0.0785
 7499SOL    HW134130   4.397   3.433   8.843  0.1679  0.6626  1.5182
 7499SOL    HW234131   4.284   3.512   8.788  0.3357  2.2745 -0.6506
 7500SOL     OW34132   0.592   3.337   2.567 -0.1012  0.8238 -0.0106
 7500SOL    HW134133   0.644   3.382   2.633 -0.4519  0.9561  0.1721
 7500SOL    HW234134   0.650   3.260   2.566 -0.6549  0.3862  1.4021
 7501SOL     OW34135   1.137   2.142  14.148 -0.2851  0.1605  0.5333
 7501SOL    HW134136   1.088   2.064  14.176 -0.1280  0.0797  0.5841
 7501SOL    HW234137   1.174   2.113  14.065 -2.1313 -1.4520  0.2715
 7502SOL     OW34138   2.194   0.521  16.893  0.4163 -0.4635  0.5038
 7502SOL    HW134139   2.266   0.468  16.926 -0.2863 -1.7180  0.0337
 7502SOL    HW234140   2.206   0.597  16.950 -2.9653 -0.3773  1.1027
 7503SOL     OW34141   2.021   4.241   2.212 -0.3784  0.5511 -0.0494
 7503SOL    HW134142   2.008   4.162   2.264 -0.1854  0.8978  0.5332
 7503SOL    HW234143   2.108   4.227   2.173 -0.2080 -0.5404  0.7352
 7504SOL     OW34144   3.600   0.254  14.507 -0.2958 -0.5040  0.0335
 7504SOL    HW134145   3.681   0.302  14.521  0.6650 -1.5301 -1.9776
 7504SOL    HW234146   3.619   0.191  14.438  0.4042 -1.4391  1.0909
 7505SOL     OW34147   1.457   3.430   7.662 -0.4548 -0.5902  0.5328
 7505SOL    HW134148   1.478   3.457   7.572  0.1060  0.8606  1.0998
 7505SOL    HW234149   1.459   3.513   7.711  1.9826 -0.5487  0.3704
 7506SOL     OW34150   3.485   2.006   2.283 -0.1678 -0.2413 -0.4168
 7506SOL    HW134151   3.474   2.035   2.374 -4.1899 -0.1970 -0.9108
 7506SOL    HW234152   3.459   1.914   2.283  0.5903 -0.4492  1.2015
 7507SOL     OW34153   0.288   3.316   7.731  0.0114 -0.4698  0.2812
 7507SOL    HW134154   0.380   3.293   7.723  0.2001  0.5130 -0.3910
 7507SOL    HW234155   0.240   3.251   7.679 -0.0254 -1.7555  1.9456
 7508SOL     OW34156   4.199   3.069   4.453  0.4902  0.1326 -0.3084
 7508SOL    HW134157   4.265   2.999   4.449  0.3250 -0.0359 -0.1366
 7508SOL    HW234158   4.130   3.047   4.390  1.3917  0.5779 -1.4433
 7509SOL     OW34159   4.285   4.714  10.380  0.5016 -0.4310 -0.1893
 7509SOL    HW134160   4.223   0.048  10.400 -1.5023 -1.1069 -4.0841
 7509SOL    HW234161   4.295   4.681  10.469  2.4882 -0.5978 -0.4635
 7510SOL     OW34162   4.221   2.169   9.144  0.0566 -0.0534  0.0327
 7510SOL    HW134163   4.182   2.253   9.170  1.6887 -0.1349  2.6932
 7510SOL    HW234164   4.154   2.103   9.162  2.3396 -2.0951  1.0334
 7511SOL     OW34165   4.642   4.479   8.586  0.3861  0.6498 -0.9078
 7511SOL    HW134166   4.591   4.558   8.601 -1.1425 -0.5645  0.3370
 7511SOL    HW234167   4.674   4.470   8.676 -0.4647  1.2980 -0.5432
 7512SOL     OW34168   4.617   2.972  12.451 -0.0566 -0.8264  0.3992
 7512SOL    HW134169   4.710   2.961  12.470  0.1910  2.4159  0.9915
 7512SOL    HW234170   4.615   3.063  12.421 -0.6488 -0.5775  1.1839
 7513SOL     OW34171   3.660   3.556   0.810 -0.4018  0.1805  0.3060
 7513SOL    HW134172   3.632   3.610   0.884 -1.7613 -0.3914  0.1958
 7513SOL    HW234173   3.605   3.478   0.818  0.7694 -0.5713  1.0595
 7514SOL     OW34174   1.001   3.409   1.544  0.1619  0.0327  0.3814
 7514SOL    HW134175   0.913   3.423   1.578  0.4947  3.9937 -0.3785
 7514SOL    HW234176   0.989   3.371   1.457 -0.8644 -0.4182  0.7185
 7515SOL     OW34177   0.945   3.305   9.555  0.5351  0.4146 -0.0411
 7515SOL    HW134178   0.977   3.371   9.617 -0.7042  1.0218 -0.0473
 7515SOL    HW234179   0.913   3.232   9.609 -0.1224  1.0816  0.4631
 7516SOL     OW34180   2.632   1.129   6.391  0.6007 -0.1953 -0.3709
 7516SOL    HW134181   2.605   1.194   6.455  0.3647 -1.2862  0.6422
 7516SOL    HW234182   2.650   1.184   6.315 -0.2542  0.5606 -0.0195
 7517SOL     OW34183   1.085   0.485   4.358 -0.4588  0.4454 -0.3729
 7517SOL    HW134184   1.026   0.438   4.417 -0.0202  0.7816  0.3304
 7517SOL    HW234185   1.126   0.547   4.418  0.4146 -0.0772 -0.4366
 7518SOL     OW34186   1.471   2.391   3.767 -0.2231  0.3733  0.0258
 7518SOL    HW134187   1.469   2.335   3.845  1.7205 -0.8604 -0.7938
 7518SOL    HW234188   1.450   2.477   3.804  0.3872  0.3317  0.4771
 7519SOL     OW34189   0.823   3.824  15.375 -0.0276  0.7063  0.0530
 7519SOL    HW134190   0.743   3.810  15.325  0.6983  1.7414 -1.4023
 7519SOL    HW234191   0.813   3.919  15.390  1.4657  1.0462 -1.0922
 7520SOL     OW34192   1.536   2.046   7.576 -0.2740  0.5029  0.0143
 7520SOL    HW134193   1.497   2.086   7.498  0.5241  0.9424 -0.1642
 7520SOL    HW234194   1.480   1.969   7.580  0.3782  0.0958  1.6547
 7521SOL     OW34195   3.456   0.114   6.788 -1.1195  0.2345 -0.9248
 7521SOL    HW134196   3.417   0.145   6.870 -1.9879  0.1254 -1.2909
 7521SOL    HW234197   3.533   0.170   6.788 -1.2624  0.4293  0.0320
 7522SOL     OW34198   0.371   1.681   6.930 -0.2026 -0.2009  0.3713
 7522SOL    HW134199   0.304   1.725   6.878  0.4791  0.4402  0.0429
 7522SOL    HW234200   0.309   1.632   6.985 -0.2584  0.4237  0.8649
 7523SOL     OW34201   4.449   2.927   8.648  0.1654 -0.2357  0.1925
 7523SOL    HW134202   4.466   2.912   8.741  0.1778 -0.0789  0.2156
 7523SOL    HW234203   4.380   2.992   8.638  2.6069  2.2599 -0.6355
 7524SOL     OW34204   3.715   0.292   2.646  0.3604 -0.0400 -0.3218
 7524SOL    HW134205   3.766   0.322   2.571  1.7545 -0.8999  0.2698
 7524SOL    HW234206   3.751   0.334   2.725 -0.2818 -0.6498  0.2997
 7525SOL     OW34207   1.482   0.066   8.034 -0.6088 -0.1226  0.0711
 7525SOL    HW134208   1.395   0.067   8.073 -0.1226 -0.6269  1.1757
 7525SOL    HW234209   1.523   0.023   8.110 -2.3835 -0.5804  0.7743
 7526SOL     OW34210   2.243   1.857  11.478  0.5136 -0.0594  0.1368
 7526SOL    HW134211   2.301   1.871  11.553  1.9314  4.4839 -1.7980
 7526SOL    HW234212   2.169   1.911  11.504  1.4896  1.8353 -0.9771
 7527SOL     OW34213   1.786   2.440  10.576  0.1607 -0.3364 -0.1932
 7527SOL    HW134214   1.781   2.528  10.613 -1.3068 -1.0708  1.3429
 7527SOL    HW234215   1.694   2.424  10.557  0.2254  0.4191 -1.1610
 7528SOL     OW34216   2.949   1.342   2.442  0.3944  0.3478  0.1929
 7528SOL    HW134217   3.010   1.404   2.402  0.5431 -1.5466 -2.4992
 7528SOL    HW234218   2.972   1.346   2.535 -0.7564 -1.0063  0.5426
 7529SOL     OW34219   0.504   1.998   6.202  0.4789 -0.0074  0.7392
 7529SOL    HW134220   0.589   2.042   6.210  0.2676  0.1837  2.0510
 7529SOL    HW234221   0.525   1.926   6.262 -0.9566 -1.6861 -0.7584
 7530SOL     OW34222   0.136   1.723   1.536  0.3425  0.3913  0.0515
 7530SOL    HW134223   0.220   1.678   1.521 -0.2070 -0.6852  0.2065
 7530SOL    HW234224   0.072   1.653   1.527  0.5597  0.1618  0.2741
 7531SOL     OW34225   2.403   0.996   8.611  0.9429 -0.7369  0.2432
 7531SOL    HW134226   2.481   0.998   8.557 -0.1032 -0.7610 -1.2672
 7531SOL    HW234227   2.382   1.084   8.642 -0.3064 -0.5170 -1.2185
 7532SOL     OW34228   3.828   0.471   6.319 -0.1805  0.5624  0.0879
 7532SOL    HW134229   3.842   0.529   6.244 -2.6944 -0.3026 -1.0630
 7532SOL    HW234230   3.829   0.539   6.386 -0.4457  2.8226 -2.2195
 7533SOL     OW34231   2.879   2.581   7.111 -0.2814 -0.2418 -0.2910
 7533SOL    HW134232   2.788   2.608   7.118 -0.5435 -1.2501  0.2433
 7533SOL    HW234233   2.889   2.603   7.018 -0.8429 -2.6276 -0.9193
 7534SOL     OW34234   2.114   3.432   0.971 -0.2929 -1.0370  0.2686
 7534SOL    HW134235   2.106   3.527   0.980  0.7855 -1.0990  1.8387
 7534SOL    HW234236   2.209   3.419   0.975 -1.1993 -7.6657 -0.1785
 7535SOL     OW34237   3.426   2.831  12.438 -0.0833  0.0311  0.2324
 7535SOL    HW134238   3.418   2.740  12.467 -0.2506 -0.2098 -0.5882
 7535SOL    HW234239   3.337   2.860  12.457 -0.9624 -1.3309 -1.8123
 7536SOL     OW34240   3.916   2.473  14.155 -0.0426  0.0286 -0.0650
 7536SOL    HW134241   3.896   2.384  14.128 -0.9440 -0.4253  2.0333
 7536SOL    HW234242   3.832   2.499  14.194 -0.6083 -0.8249 -0.7295
 7537SOL     OW34243   0.850   0.273   5.062  0.0990  0.1942  0.4592
 7537SOL    HW134244   0.910   0.271   4.988 -0.2772 -1.2710  0.2007
 7537SOL    HW234245   0.910   0.270   5.136  2.1853  0.5937 -1.2412
 7538SOL     OW34246   2.685   0.008   3.513  0.1161 -0.3924  0.3925
 7538SOL    HW134247   2.631   4.685   3.567 -0.7157  1.1564  1.2205
 7538SOL    HW234248   2.731   0.053   3.583 -1.1120  0.2460  0.7874
 7539SOL     OW34249   3.059   2.304   1.381  0.2708  0.6493 -0.2973
 7539SOL    HW134250   3.082   2.291   1.289  1.4055 -0.6156  0.1598
 7539SOL    HW234251   3.106   2.386   1.396 -0.8469  1.3392 -0.5735
 7540SOL     OW34252   1.297   2.750   9.653 -0.3522 -0.2666  0.0678
 7540SOL    HW134253   1.365   2.809   9.683  0.6500 -0.4480 -1.8466
 7540SOL    HW234254   1.338   2.663   9.653 -0.7467 -0.4568 -0.0776
 7541SOL     OW34255   4.150   2.962   7.956 -0.2553  0.1564  0.1949
 7541SOL    HW134256   4.106   3.039   7.993 -0.6218 -0.6533  1.4510
 7541SOL    HW234257   4.075   2.912   7.923  0.2148 -0.2769 -0.2151
 7542SOL     OW34258   2.609   1.027   2.897  1.0000 -0.4765  0.3612
 7542SOL    HW134259   2.515   1.034   2.910  1.3437  3.7565  0.6749
 7542SOL    HW234260   2.635   1.067   2.981 -0.7492  1.2671  0.0681
 7543SOL     OW34261   3.312   1.766   7.476  0.2320  0.1502 -0.2198
 7543SOL    HW134262   3.242   1.827   7.454 -1.6057 -1.0898  2.1317
 7543SOL    HW234263   3.266   1.684   7.493 -0.6476  0.4325 -1.2532
 7544SOL     OW34264   2.576   1.812   3.909 -0.0186 -0.3210  0.1877
 7544SOL    HW134265   2.570   1.903   3.939  0.6196  0.2461 -1.4114
 7544SOL    HW234266   2.568   1.758   3.988 -0.9006  1.4413  1.3132
 7545SOL     OW34267   1.105   3.543  14.280 -0.4358  0.0323  0.3447
 7545SOL    HW134268   1.081   3.622  14.328  2.7877  0.4744  1.2165
 7545SOL    HW234269   1.087   3.551  14.186 -2.1634  1.7784  0.8432
 7546SOL     OW34270   4.401   4.460   2.877  0.7534 -0.5445 -0.3266
 7546SOL    HW134271   4.310   4.436   2.893  0.8158 -1.2727 -1.0590
 7546SOL    HW234272   4.426   4.517   2.950  1.1653 -1.4114  0.2033
 7547SOL     OW34273   2.089   1.312  10.828 -0.4869 -0.1952  0.5005
 7547SOL    HW134274   2.102   1.407  10.823  1.3661 -0.4946 -0.3105
 7547SOL    HW234275   2.178   1.278  10.822 -0.6889 -0.6837  0.3166
 7548SOL     OW34276   3.369   0.541   4.277  0.1024  0.0640  0.1839
 7548SOL    HW134277   3.348   0.634   4.288  0.6308  0.1163  0.7900
 7548SOL    HW234278   3.281   0.505   4.272 -0.9515  3.1000 -2.7713
 7549SOL     OW34279   3.885   4.486   5.003 -0.1053 -0.2713 -0.0183
 7549SOL    HW134280   3.923   4.516   4.920 -0.1677 -1.2402 -0.4045
 7549SOL    HW234281   3.890   4.560   5.062 -1.2127 -1.4253  1.5261
 7550SOL     OW34282   2.601   2.515   2.502 -0.0285  0.3627 -0.1225
 7550SOL    HW134283   2.610   2.487   2.593 -0.0371  1.8856  0.3409
 7550SOL    HW234284   2.519   2.562   2.517  0.4970  2.3716 -3.6328
 7551SOL     OW34285   1.579   4.645   6.364 -0.3843  0.2734  0.8767
 7551SOL    HW134286   1.534   4.718   6.406 -1.9244 -0.0379 -0.2128
 7551SOL    HW234287   1.516   4.576   6.385  1.1996 -1.0893  1.1504
 7552SOL     OW34288   1.409   0.073   5.927 -0.0238 -0.6020  0.3690
 7552SOL    HW134289   1.394   0.027   5.844  1.6961  1.9615 -1.3616
 7552SOL    HW234290   1.393   4.731   5.982  1.1246 -1.0258  0.1130
 7553SOL     OW34291   3.671   4.132   6.839 -0.5550 -0.1850 -0.4173
 7553SOL    HW134292   3.699   4.209   6.790  1.6063 -0.0315  1.0559
 7553SOL    HW234293   3.636   4.072   6.773 -1.0159 -2.0385  1.4999
 7554SOL     OW34294   0.693   2.696   6.807  0.2072 -0.5876  0.3829
 7554SOL    HW134295   0.655   2.726   6.724  1.6137  0.7108  0.2182
 7554SOL    HW234296   0.780   2.731   6.789 -0.6516  0.3913 -1.8868
 7555SOL     OW34297   3.041   2.578   0.113  0.0345  0.4158 -0.5225
 7555SOL    HW134298   2.970   2.583   0.177  1.9864 -1.7389  1.8185
 7555SOL    HW234299   3.101   2.509   0.143 -2.7604 -1.5050  0.7280
 7556SOL     OW34300   1.732   3.393   8.543 -0.6599 -0.4642 -0.0129
 7556SOL    HW134301   1.806   3.450   8.523 -0.4613 -1.1145 -1.1114
 7556SOL    HW234302   1.780   3.343   8.609 -2.1474 -0.0022  1.4223
 7557SOL     OW34303   0.673   4.198   8.362 -0.5467  0.0036  0.4281
 7557SOL    HW134304   0.761   4.215   8.397  1.1013 -1.3277 -3.0303
 7557SOL    HW234305   0.642   4.287   8.377 -0.0829  0.6222 -2.2348
 7558SOL     OW34306   4.347   4.491   3.805  0.4260  0.3844  0.6412
 7558SOL    HW134307   4.326   4.453   3.719 -1.3385  1.1056  0.7466
 7558SOL    HW234308   4.265   4.475   3.852 -0.0395  0.3499 -0.1829
 7559SOL     OW34309   4.537   3.100   2.145 -0.0416  0.1897  0.3962
 7559SOL    HW134310   4.553   3.166   2.212 -1.3529  2.5160 -1.5674
 7559SOL    HW234311   4.627   3.068   2.133 -0.6409 -2.2470  2.4579
 7560SOL     OW34312   2.812   0.832   4.800  0.1370  0.1162  0.0520
 7560SOL    HW134313   2.895   0.814   4.844 -0.7648  4.1810  3.4050
 7560SOL    HW234314   2.848   0.898   4.740 -0.2975 -2.2521 -2.7911
 7561SOL     OW34315   4.534   4.294   8.895  0.7594 -0.0778 -0.3647
 7561SOL    HW134316   4.476   4.369   8.907 -0.7957 -1.7828  2.7066
 7561SOL    HW234317   4.594   4.304   8.969  1.3904  0.2918 -0.9190
 7562SOL     OW34318   1.704   2.827   1.722 -0.1559  0.1045  0.3838
 7562SOL    HW134319   1.741   2.745   1.689 -2.6735 -1.8126  2.3014
 7562SOL    HW234320   1.697   2.875   1.639  2.2179 -0.0671  0.0798
 7563SOL     OW34321   1.618   2.918   9.375  0.5732  0.2840 -0.1149
 7563SOL    HW134322   1.695   2.953   9.421  1.2848 -0.1619 -0.9665
 7563SOL    HW234323   1.601   2.841   9.429  1.8851  0.7374  0.9616
 7564SOL     OW34324   1.451   2.704   5.371 -0.3607 -0.8106 -0.3847
 7564SOL    HW134325   1.526   2.670   5.419 -0.0183 -1.3633 -1.3085
 7564SOL    HW234326   1.403   2.622   5.362 -0.4639 -0.6079 -1.7071
 7565SOL     OW34327   0.547   1.719  14.376 -0.2774 -0.3388 -0.1875
 7565SOL    HW134328   0.566   1.795  14.431 -0.1546 -1.3501  1.1469
 7565SOL    HW234329   0.501   1.655  14.429  2.2664 -1.7723  0.3048
 7566SOL     OW34330   1.539   0.045  15.492  0.3924  0.1920 -0.0951
 7566SOL    HW134331   1.606   4.712  15.493 -0.6521 -0.8118  0.1411
 7566SOL    HW234332   1.522   0.047  15.398 -0.7454  1.5536  0.1427
 7567SOL     OW34333   4.717   2.809   4.316 -0.7156  0.0629 -0.1424
 7567SOL    HW134334   4.693   2.760   4.238 -0.4696  1.4294 -1.0803
 7567SOL    HW234335   0.010   2.735   4.368  0.3688  1.0078  0.6127
 7568SOL     OW34336   4.278   0.640   7.911 -0.3582  0.1203 -0.2266
 7568SOL    HW134337   4.342   0.634   7.982  0.7170  1.4175 -1.0863
 7568SOL    HW234338   4.281   0.552   7.873  1.2778  0.6443 -1.3075
 7569SOL     OW34339   2.183   1.543   6.724 -0.0250  0.2293 -0.7884
 7569SOL    HW134340   2.160   1.620   6.673  1.9024  2.4267  1.6260
 7569SOL    HW234341   2.137   1.481   6.668  1.3913 -0.4933 -1.1545
 7570SOL     OW34342   4.410   0.210   5.538  0.1463 -0.1351  0.2232
 7570SOL    HW134343   4.363   0.268   5.477 -2.5479 -1.2920  1.1949
 7570SOL    HW234344   4.488   0.264   5.546  1.3254 -2.1772  2.3297
 7571SOL     OW34345   1.012   2.604   8.402  0.4112 -0.3611 -0.1859
 7571SOL    HW134346   1.010   2.612   8.306 -1.9469  0.2124 -0.0859
 7571SOL    HW234347   1.089   2.654   8.429 -0.9232  1.9346 -0.6146
 7572SOL     OW34348   4.719   3.775   2.685 -0.4003  0.4873 -0.2329
 7572SOL    HW134349   0.017   3.737   2.604  1.3229  1.2445  0.1263
 7572SOL    HW234350   0.031   3.722   2.749 -2.0326 -1.2434 -0.4276
 7573SOL     OW34351   3.673   1.151   3.761 -0.1184 -0.7481 -0.3296
 7573SOL    HW134352   3.647   1.123   3.674  0.7076 -1.0841 -0.4732
 7573SOL    HW234353   3.768   1.146   3.752  0.1500 -1.7438  2.8656
 7574SOL     OW34354   4.149   0.313   9.311  0.1283  0.5865 -0.1174
 7574SOL    HW134355   4.166   0.292   9.219  0.0134 -1.2348  0.2854
 7574SOL    HW234356   4.054   0.309   9.302  0.2836  0.8350 -2.0768
 7575SOL     OW34357   0.999   4.034   4.172  0.1405  0.0231 -0.3177
 7575SOL    HW134358   0.980   3.947   4.207  1.4231 -0.8746 -1.8195
 7575SOL    HW234359   0.947   4.028   4.091 -1.7446  2.1761  0.7526
 7576SOL     OW34360   0.234   3.213   3.744  0.2384  0.1892 -0.6987
 7576SOL    HW134361   0.316   3.209   3.794 -0.6314  1.3945  0.8578
 7576SOL    HW234362   0.166   3.195   3.810  0.6168  0.1412 -0.3216
 7577SOL     OW34363   4.384   2.704   2.597 -0.1273  0.0689 -0.1099
 7577SOL    HW134364   4.432   2.624   2.618 -1.6538 -1.5259 -2.5896
 7577SOL    HW234365   4.299   2.660   2.588 -1.3631  2.4008  0.3664
 7578SOL     OW34366   0.990   2.056   9.487  0.1846  0.5479 -0.0373
 7578SOL    HW134367   0.973   1.962   9.485 -1.1748  0.8363 -2.0955
 7578SOL    HW234368   1.077   2.060   9.528  0.0424 -1.9362  0.4929
 7579SOL     OW34369   4.197   0.056   6.506 -0.5215  0.6770 -0.2856
 7579SOL    HW134370   4.182   0.151   6.501 -1.9477  0.4191 -0.8316
 7579SOL    HW234371   4.139   0.018   6.439  1.1891 -0.8840 -0.8842
 7580SOL     OW34372   3.663   0.764   1.108  0.0073  0.7102  1.1887
 7580SOL    HW134373   3.732   0.726   1.054 -1.0547  1.2408 -0.5446
 7580SOL    HW234374   3.622   0.685   1.142  1.0560 -0.0723  0.6559
 7581SOL     OW34375   1.746   4.014   3.183  0.2131 -0.1981  0.0599
 7581SOL    HW134376   1.770   4.095   3.137 -1.3695  0.7594  0.9338
 7581SOL    HW234377   1.711   4.046   3.266 -1.8114 -1.2949 -0.3493
 7582SOL     OW34378   1.014   3.548   2.190 -0.2626 -0.1225 -0.3945
 7582SOL    HW134379   1.092   3.569   2.138  0.5245 -0.0331  0.8327
 7582SOL    HW234380   1.042   3.464   2.226 -0.1709 -0.3477 -0.9907
 7583SOL     OW34381   1.682   2.180  10.022  0.6590 -0.1972 -0.1502
 7583SOL    HW134382   1.705   2.087  10.026 -1.5240 -0.7665 -0.7476
 7583SOL    HW234383   1.669   2.193  10.116 -0.3985  2.6450 -0.7040
 7584SOL     OW34384   3.761   3.815   0.236  0.0744 -0.0913  0.8547
 7584SOL    HW134385   3.801   3.768   0.310 -1.5305 -1.3002  0.9500
 7584SOL    HW234386   3.732   3.748   0.175 -0.4667 -0.0794  1.1006
 7585SOL     OW34387   3.427   4.272   6.695 -0.1502 -0.6035  0.1182
 7585SOL    HW134388   3.492   4.320   6.746  1.1287 -3.9764  1.7071
 7585SOL    HW234389   3.453   4.289   6.605 -0.8983 -0.6439 -0.1073
 7586SOL     OW34390   1.177   3.869  14.315  0.3443 -0.6193  0.1162
 7586SOL    HW134391   1.215   3.861  14.402  1.8859 -0.1160 -0.5221
 7586SOL    HW234392   1.224   3.799  14.269  0.0619 -1.8652  1.7348
 7587SOL     OW34393   1.842   1.045   5.423  0.1496  0.1314 -0.2052
 7587SOL    HW134394   1.796   1.066   5.505  0.2133  0.7323 -0.3213
 7587SOL    HW234395   1.825   0.952   5.410 -3.2620  0.9044 -1.4044
 7588SOL     OW34396   4.559   2.108   5.744 -0.4955 -0.5122 -0.2586
 7588SOL    HW134397   4.483   2.163   5.725 -0.2425 -0.4315 -1.0423
 7588SOL    HW234398   4.630   2.156   5.701 -0.7693 -1.1749 -1.4449
 7589SOL     OW34399   2.705   3.291   1.198  0.2554 -0.0071 -0.8072
 7589SOL    HW134400   2.672   3.375   1.166  0.1603 -0.5789 -2.2132
 7589SOL    HW234401   2.754   3.250   1.127  1.1006  2.2037 -1.4965
 7590SOL     OW34402   4.258   0.799   1.717 -0.4133  0.4203 -0.2699
 7590SOL    HW134403   4.313   0.736   1.764  1.1892  2.1201  0.0944
 7590SOL    HW234404   4.308   0.810   1.637  0.3991 -0.0532  0.1771
 7591SOL     OW34405   1.488   3.739   7.618 -0.3593 -0.1051 -0.4480
 7591SOL    HW134406   1.406   3.763   7.662 -0.4834  0.1756 -0.8370
 7591SOL    HW234407   1.537   3.762   7.698  1.3883  1.2666 -1.9163
 7592SOL     OW34408   3.394   0.002  15.256 -0.2756  0.2609  0.4230
 7592SOL    HW134409   3.364   4.660  15.304  0.2430 -1.0431 -1.3525
 7592SOL    HW234410   3.388   4.713  15.163  0.6858  1.0446  0.1557
 7593SOL     OW34411   0.216   2.607   6.725 -0.0494 -0.0825 -0.5115
 7593SOL    HW134412   0.225   2.579   6.816 -0.8973 -0.5666 -0.5709
 7593SOL    HW234413   0.121   2.603   6.717  0.0829 -0.6795 -1.7626
 7594SOL     OW34414   4.529   1.296   7.023 -0.1003 -0.3552  0.4503
 7594SOL    HW134415   4.446   1.266   7.061 -0.9978  0.2676 -0.9941
 7594SOL    HW234416   4.516   1.266   6.933  1.6959 -0.6775  0.3058
 7595SOL     OW34417   4.137   2.495  13.227  0.4380  0.1594  0.2007
 7595SOL    HW134418   4.059   2.550  13.230  0.3790  0.0064  1.2833
 7595SOL    HW234419   4.172   2.530  13.145 -0.8788 -0.6495 -0.6989
 7596SOL     OW34420   4.654   1.126   9.972 -0.2370  0.2292 -0.4296
 7596SOL    HW134421   4.657   1.086   9.885  0.5417 -0.6942  0.0152
 7596SOL    HW234422   4.591   1.074  10.022  0.7452 -0.4803  0.0786
 7597SOL     OW34423   2.048   0.407  17.729 -0.7038 -0.0520  0.7090
 7597SOL    HW134424   2.089   0.368   0.065  1.5446  0.1296 -0.3853
 7597SOL    HW234425   2.076   0.337  17.670 -0.8372 -1.4849  2.3419
 7598SOL     OW34426   0.599   4.214   2.903 -0.3878  0.3622  0.2438
 7598SOL    HW134427   0.612   4.307   2.919  0.5520  0.0629  1.3115
 7598SOL    HW234428   0.553   4.227   2.821 -1.2598 -5.0692 -0.1249
 7599SOL     OW34429   2.620   3.155   5.136 -0.1305  0.5763 -0.4596
 7599SOL    HW134430   2.583   3.239   5.166  3.2815  1.7131  0.5305
 7599SOL    HW234431   2.713   3.168   5.150  0.2749 -1.0169 -1.6497
 7600SOL     OW34432   3.888   2.837   2.725 -1.0229 -0.1323 -0.2281
 7600SOL    HW134433   3.808   2.843   2.673 -0.6152  2.0205 -0.6281
 7600SOL    HW234434   3.865   2.770   2.789  0.9322 -0.2164  0.3831
 7601SOL     OW34435   0.952   1.792   9.542 -0.0679  0.4146 -0.0515
 7601SOL    HW134436   1.002   1.785   9.623 -0.1116 -0.7479 -0.1257
 7601SOL    HW234437   0.872   1.746   9.566  0.1130  0.5708  0.8388
 7602SOL     OW34438   2.176   2.832   2.863 -0.2789 -0.4451 -0.1554
 7602SOL    HW134439   2.082   2.849   2.865  0.0967  1.4487  1.1822
 7602SOL    HW234440   2.201   2.874   2.781 -0.6595  2.2275  1.1198
 7603SOL     OW34441   2.433   2.728   6.433 -0.0485 -0.1630  0.3882
 7603SOL    HW134442   2.509   2.686   6.392  0.8149  1.1362  0.6230
 7603SOL    HW234443   2.468   2.817   6.422 -0.0818 -0.0149  1.4839
 7604SOL     OW34444   1.488   1.924  16.706  0.0286  0.7882  0.1567
 7604SOL    HW134445   1.396   1.948  16.700 -0.4103 -0.4509  1.8370
 7604SOL    HW234446   1.519   1.977  16.779  0.2582 -0.3284  0.8797
 7605SOL     OW34447   4.415   4.370   4.782 -0.0037 -0.6899  0.5473
 7605SOL    HW134448   4.412   4.380   4.877 -1.1645  1.8641  0.2312
 7605SOL    HW234449   4.375   4.286   4.761 -0.9049 -0.2677  0.5992
 7606SOL     OW34450   4.729   1.231  16.550 -0.1096 -0.1208  0.1855
 7606SOL    HW134451   4.700   1.239  16.459 -2.0076  0.1465  0.8110
 7606SOL    HW234452   0.076   1.280  16.548  0.0852 -0.4960 -1.0918
 7607SOL     OW34453   1.117   0.956   9.644 -0.3794  0.3759  0.3214
 7607SOL    HW134454   1.138   0.871   9.606 -0.9805  0.7699 -0.8731
 7607SOL    HW234455   1.023   0.943   9.658 -0.2963 -1.0463 -0.5168
 7608SOL     OW34456   3.542   1.076   4.305  0.2160  0.2874  0.2094
 7608SOL    HW134457   3.488   1.080   4.226 -0.5898  0.4681  0.7688
 7608SOL    HW234458   3.634   1.097   4.287 -0.3975  1.7305 -1.2689
 7609SOL     OW34459   1.706   0.474   8.415  0.1304 -0.8812 -0.0359
 7609SOL    HW134460   1.664   0.544   8.366  1.8181 -0.4727 -0.8898
 7609SOL    HW234461   1.796   0.502   8.426 -0.3361  0.7451 -0.4654
 7610SOL     OW34462   3.073   2.702   9.890  0.1896  0.6419 -0.5067
 7610SOL    HW134463   3.050   2.713   9.982 -1.9136 -1.7404 -0.7776
 7610SOL    HW234464   2.982   2.696   9.862  0.2681  0.6544 -0.7656
 7611SOL     OW34465   2.069   1.201   2.196 -0.2731  0.3018 -0.7508
 7611SOL    HW134466   2.115   1.129   2.151 -0.3402  0.0053 -0.3487
 7611SOL    HW234467   2.151   1.240   2.227  0.5319  0.1441 -2.6967
 7612SOL     OW34468   1.335   1.310   7.855  0.5047 -0.2022  0.3109
 7612SOL    HW134469   1.346   1.370   7.780  0.3430 -0.5893 -0.0214
 7612SOL    HW234470   1.344   1.370   7.929  1.2930  1.8394 -1.4519
 7613SOL     OW34471   1.669   1.790   7.942  0.0132 -0.8011  0.0519
 7613SOL    HW134472   1.682   1.849   7.867 -2.5837  0.1458  0.3660
 7613SOL    HW234473   1.602   1.832   7.996 -2.0860 -1.4289 -2.0524
 7614SOL     OW34474   0.552   3.977   6.380 -0.1738 -0.1863 -0.1152
 7614SOL    HW134475   0.592   3.895   6.351  1.8949  0.5516  0.6069
 7614SOL    HW234476   0.465   3.954   6.348 -1.7390  1.0070  3.2366
 7615SOL     OW34477   1.347   3.461   5.716  0.4486 -0.5276 -0.1140
 7615SOL    HW134478   1.434   3.423   5.717 -0.6370 -3.0207 -1.1814
 7615SOL    HW234479   1.370   3.554   5.718 -1.0595 -0.1577  0.5398
 7616SOL     OW34480   2.538   3.021   5.351  0.0673 -0.4312  0.0381
 7616SOL    HW134481   2.533   3.090   5.417  0.4003  1.5556 -2.0369
 7616SOL    HW234482   2.553   3.064   5.267  0.5725 -0.2963  0.1990
 7617SOL     OW34483   1.857   3.939   0.022 -0.1525  0.2100 -0.3209
 7617SOL    HW134484   1.920   3.869   0.002  1.2170  0.9904  1.2707
 7617SOL    HW234485   1.890   3.965   0.108  0.0515 -2.0730  0.3094
 7618SOL     OW34486   0.695   0.744  16.238 -0.2934 -0.0507 -0.6492
 7618SOL    HW134487   0.682   0.740  16.143  0.4126 -1.1156 -0.7051
 7618SOL    HW234488   0.711   0.651  16.256 -0.7941 -0.2388 -1.1547
 7619SOL     OW34489   3.201   1.819   6.587 -0.0934 -0.4439 -0.0819
 7619SOL    HW134490   3.251   1.770   6.521 -0.5040  0.0700 -0.7681
 7619SOL    HW234491   3.133   1.853   6.530  0.3798  0.6759  0.0322
 7620SOL     OW34492   0.627   3.099   3.825  0.2489  0.1090  0.2751
 7620SOL    HW134493   0.605   3.105   3.732  2.0218  0.2197 -0.1528
 7620SOL    HW234494   0.553   3.136   3.873  0.0014 -1.0079  0.7559
 7621SOL     OW34495   1.952   0.894  17.250 -0.0060 -0.1852  0.2247
 7621SOL    HW134496   2.001   0.963  17.206 -0.0894 -0.1377  0.2069
 7621SOL    HW234497   1.879   0.872  17.191 -0.1044  1.4315 -0.2474
 7622SOL     OW34498   0.889   1.667  16.614  0.0700 -0.1152  0.2990
 7622SOL    HW134499   0.907   1.582  16.654  2.5126  0.2822  0.0169
 7622SOL    HW234500   0.878   1.721  16.693 -1.7520 -1.9252  1.2716
 7623SOL     OW34501   4.108   4.450  14.230 -0.1632 -0.3791  0.4639
 7623SOL    HW134502   4.167   4.375  14.235  0.2117 -0.1570 -0.6591
 7623SOL    HW234503   4.147   4.496  14.156 -0.9361 -1.4766 -0.6327
 7624SOL     OW34504   0.487   4.502   7.506 -0.2221 -0.3984  0.1693
 7624SOL    HW134505   0.422   4.507   7.577  0.1682  0.7859  0.4435
 7624SOL    HW234506   0.558   4.457   7.551 -0.7812 -1.9696 -0.5237
 7625SOL     OW34507   0.807   2.770   7.865  0.5460 -0.0011  0.2600
 7625SOL    HW134508   0.810   2.865   7.874  1.4715  0.0023 -0.1418
 7625SOL    HW234509   0.902   2.759   7.856  0.4511 -1.2450  0.8168
 7626SOL     OW34510   0.670   1.676   9.432  0.7290  0.4070 -0.2371
 7626SOL    HW134511   0.622   1.759   9.440 -0.7320 -0.6490  1.8410
 7626SOL    HW234512   0.757   1.697   9.398 -0.2405  0.3442 -2.8197
 7627SOL     OW34513   2.063   1.123  11.053 -0.2993 -0.2061 -0.5181
 7627SOL    HW134514   2.118   1.148  11.127 -0.4749  0.3884 -0.5864
 7627SOL    HW234515   2.092   1.178  10.981  0.7586  1.6357  1.3162
 7628SOL     OW34516   3.200   4.390   3.417 -0.1105  0.0701  0.1781
 7628SOL    HW134517   3.252   4.318   3.380  0.6473  0.5061  0.4030
 7628SOL    HW234518   3.123   4.343   3.449 -1.1469  1.6470 -0.0461
 7629SOL     OW34519   1.868   2.277   1.747 -0.1741  0.0737 -0.0623
 7629SOL    HW134520   1.879   2.369   1.724 -0.0714 -0.1886 -1.0654
 7629SOL    HW234521   1.796   2.283   1.810  0.2454  0.7781  0.3379
 7630SOL     OW34522   3.423   1.511   6.768  0.0737 -0.2850  0.7370
 7630SOL    HW134523   3.362   1.585   6.776  1.8553  1.2714  0.1418
 7630SOL    HW234524   3.459   1.525   6.680 -1.7340  1.7359  0.2988
 7631SOL     OW34525   3.034   0.495   0.322  0.1468 -0.6966  0.7678
 7631SOL    HW134526   3.060   0.537   0.404  1.1389  0.5669 -0.1817
 7631SOL    HW234527   3.039   0.566   0.258 -0.5323 -1.5260 -0.2086
 7632SOL     OW34528   3.185   1.578   1.917  0.4069  0.1247  0.0715
 7632SOL    HW134529   3.262   1.615   1.960  0.7003 -0.4398  0.0305
 7632SOL    HW234530   3.209   1.486   1.909  0.4041 -0.1287  3.1072
 7633SOL     OW34531   4.514   0.481   4.765  0.1458 -0.1728 -0.2269
 7633SOL    HW134532   4.603   0.515   4.762 -1.0101  2.9622  0.4574
 7633SOL    HW234533   4.518   0.438   4.851 -0.6743  2.1531  0.9724
 7634SOL     OW34534   3.483   4.401   3.853  0.5771 -0.2355  0.2558
 7634SOL    HW134535   3.459   4.308   3.855 -1.3937  0.2786  0.1577
 7634SOL    HW234536   3.431   4.444   3.785  2.2071  1.9091  0.3666
 7635SOL     OW34537   2.734   0.604   3.724 -0.1335  0.2870  0.4675
 7635SOL    HW134538   2.652   0.651   3.710  0.3773  2.1028  3.5761
 7635SOL    HW234539   2.736   0.550   3.645  1.0900 -1.2646  1.5514
 7636SOL     OW34540   3.859   0.632   9.514 -0.1611 -0.2796 -0.1545
 7636SOL    HW134541   3.827   0.601   9.429  1.2486  0.3580 -0.9255
 7636SOL    HW234542   3.808   0.711   9.527  0.6798  0.6317 -2.3289
 7637SOL     OW34543   1.111   3.042   5.315  0.2072 -0.6834 -0.0327
 7637SOL    HW134544   1.069   3.128   5.311  2.4541  0.4741  1.2127
 7637SOL    HW234545   1.120   3.027   5.409  3.1757  1.6803  0.0942
 7638SOL     OW34546   1.673   1.746  14.029 -0.1393  0.3865  0.3539
 7638SOL    HW134547   1.658   1.744  14.123 -2.2199 -0.3492  0.0140
 7638SOL    HW234548   1.602   1.796  13.987  1.5155 -0.3205 -3.2993
 7639SOL     OW34549   4.144   2.473  12.197  0.1203 -0.0048  0.3401
 7639SOL    HW134550   4.136   2.386  12.235  0.2817 -0.6359 -1.0607
 7639SOL    HW234551   4.204   2.513  12.260  0.9271 -1.1681  0.3169
 7640SOL     OW34552   1.628   2.867   0.980 -0.3433 -0.4819  0.3627
 7640SOL    HW134553   1.595   2.928   0.914 -0.7923 -0.8126  0.2765
 7640SOL    HW234554   1.718   2.846   0.956 -0.5299 -2.0025  0.9951
 7641SOL     OW34555   2.018   1.032  10.589 -0.1157  0.1548 -0.0648
 7641SOL    HW134556   2.025   1.118  10.549 -1.7246  0.0668 -0.5034
 7641SOL    HW234557   2.044   0.987  10.508 -0.3435 -0.0477 -0.0245
 7642SOL     OW34558   3.429   0.681   3.776  0.0941  0.3792 -0.6618
 7642SOL    HW134559   3.345   0.640   3.754 -0.9356  2.3295 -0.2955
 7642SOL    HW234560   3.434   0.655   3.868 -0.0522  0.5327 -0.6107
 7643SOL     OW34561   0.322   1.361   2.598 -0.6715  0.5112  0.9631
 7643SOL    HW134562   0.364   1.431   2.649  1.6829  0.1944 -0.5204
 7643SOL    HW234563   0.298   1.416   2.523 -2.2352  0.2352  1.2679
 7644SOL     OW34564   1.942   0.109  10.259  0.4422  0.0042 -0.2439
 7644SOL    HW134565   1.932   0.056  10.180 -3.9449  1.9534 -0.9949
 7644SOL    HW234566   1.997   0.179  10.222 -0.4319  0.3288 -0.9393
 7645SOL     OW34567   1.761   2.423   4.148  0.3446 -0.4544 -0.6675
 7645SOL    HW134568   1.784   2.489   4.084  1.5871  0.6546  0.9124
 7645SOL    HW234569   1.735   2.346   4.096  0.8262 -1.8242  1.0981
 7646SOL     OW34570   1.544   3.356   1.992  0.7750 -0.3373 -0.3062
 7646SOL    HW134571   1.487   3.309   1.931  0.9207 -1.0340  0.0950
 7646SOL    HW234572   1.521   3.331   2.082 -0.8192  1.2282 -0.2761
 7647SOL     OW34573   0.106   3.526   9.127 -0.1985  0.1682 -0.1841
 7647SOL    HW134574   0.179   3.468   9.150  0.0413  0.7442  0.4945
 7647SOL    HW234575   0.152   3.573   9.057 -1.3731  1.2900 -0.2041
 7648SOL     OW34576   2.123   2.455   5.376  0.3045  0.0518 -0.8706
 7648SOL    HW134577   2.184   2.381   5.374  0.0196 -0.1767 -1.0009
 7648SOL    HW234578   2.041   2.419   5.341 -0.8297  2.1067 -0.2851
 7649SOL     OW34579   2.622   2.053   1.487  0.5534 -0.0495 -0.1477
 7649SOL    HW134580   2.601   1.962   1.507  0.1862  0.4251  1.5876
 7649SOL    HW234581   2.683   2.077   1.556 -0.3160 -2.0601  1.3165
 7650SOL     OW34582   2.782   1.308   3.517  0.0356  0.1962 -0.9254
 7650SOL    HW134583   2.706   1.333   3.463 -0.4229  0.3409 -0.2076
 7650SOL    HW234584   2.820   1.233   3.471 -1.9319 -1.1641 -0.2860
 7651SOL     OW34585   3.210   4.447  17.710 -0.2072  0.1439 -0.0888
 7651SOL    HW134586   3.159   4.512   0.015 -2.5595 -0.8333 -1.2938
 7651SOL    HW234587   3.273   4.426   0.037 -0.1426 -1.2972 -0.5770
 7652SOL     OW34588   1.813   3.468   5.113  0.2813  0.6598 -0.1284
 7652SOL    HW134589   1.799   3.514   5.031  0.0661 -0.3597 -0.6613
 7652SOL    HW234590   1.736   3.413   5.098  0.5005  1.1731 -3.1056
 7653SOL     OW34591   1.084   2.703   2.793  0.5326  0.6694 -0.0991
 7653SOL    HW134592   1.142   2.676   2.864  0.9491  3.0003  0.4287
 7653SOL    HW234593   0.997   2.671   2.819 -0.6543  3.1942 -0.9730
 7654SOL     OW34594   3.108   3.225   5.570 -0.6595  0.6888  0.1397
 7654SOL    HW134595   3.029   3.270   5.540 -1.0583 -0.3333 -0.3219
 7654SOL    HW234596   3.062   3.163   5.625  1.1648  0.1958  1.1083
 7655SOL     OW34597   2.153   0.209   5.561  0.6235  1.1626  0.7604
 7655SOL    HW134598   2.063   0.241   5.560  0.0167 -0.5913 -2.7347
 7655SOL    HW234599   2.188   0.255   5.484  2.8266  1.9133  2.2189
 7656SOL     OW34600   4.317   4.289   6.411 -0.2649  0.0951 -0.2980
 7656SOL    HW134601   4.246   4.246   6.365  0.6093 -1.5119 -0.1507
 7656SOL    HW234602   4.389   4.241   6.370  1.1608 -0.4840  2.8388
 7657SOL     OW34603   2.137   1.209   7.592  0.0083  0.0511  0.6011
 7657SOL    HW134604   2.232   1.198   7.581  0.0118 -0.1527  0.8267
 7657SOL    HW234605   2.126   1.302   7.608 -0.4379  0.4249 -1.8736
 7658SOL     OW34606   3.402   1.759   5.898 -0.1809 -0.3931 -0.6044
 7658SOL    HW134607   3.435   1.839   5.938  1.1322 -0.9781 -0.4912
 7658SOL    HW234608   3.402   1.704   5.976 -1.0730  1.9137  0.9921
 7659SOL     OW34609   1.740   2.953   1.492  0.3860  0.3780  0.2507
 7659SOL    HW134610   1.667   3.014   1.483 -0.6058 -0.9186 -0.5668
 7659SOL    HW234611   1.749   2.922   1.401 -0.4694  2.3351 -0.4882
 7660SOL     OW34612   1.986   1.903   3.834  0.1460 -0.3488 -0.2793
 7660SOL    HW134613   1.957   1.985   3.793  1.4632  0.0255 -0.4708
 7660SOL    HW234614   1.966   1.918   3.926 -2.0848 -0.4866 -0.7402
 7661SOL     OW34615   2.346   3.230  15.827  0.1519 -0.1053  0.1925
 7661SOL    HW134616   2.416   3.282  15.867 -0.8464  0.2323  1.4886
 7661SOL    HW234617   2.277   3.296  15.816  1.2347  1.1633  1.0710
 7662SOL     OW34618   0.380   1.665   4.792  0.8034 -0.4102  0.0784
 7662SOL    HW134619   0.469   1.645   4.822 -0.1091 -1.1849  2.2820
 7662SOL    HW234620   0.379   1.759   4.776  0.3539 -0.4949 -0.3571
 7663SOL     OW34621   3.147   3.457   2.880 -0.1178 -0.0106  0.2527
 7663SOL    HW134622   3.156   3.385   2.818  0.4390  0.7081 -0.4937
 7663SOL    HW234623   3.219   3.513   2.853  0.2035  0.3918  1.9631
 7664SOL     OW34624   4.474   3.071   4.862 -0.0496 -0.0197  0.7111
 7664SOL    HW134625   4.412   3.143   4.871 -0.8217 -0.6954  0.7509
 7664SOL    HW234626   4.415   2.996   4.849 -1.6312  1.3758 -0.1495
 7665SOL     OW34627   1.183   4.735   2.714 -0.1073 -0.0578  0.1700
 7665SOL    HW134628   1.248   0.025   2.649  1.7281 -1.0718  1.5880
 7665SOL    HW234629   1.144   0.085   2.728 -1.0830 -0.5880  0.6880
 7666SOL     OW34630   3.826   1.644   1.801  1.0114  0.1755  0.1238
 7666SOL    HW134631   3.919   1.644   1.822  0.5923  1.1830  2.0224
 7666SOL    HW234632   3.803   1.571   1.858 -1.2378  0.5176 -0.3199
 7667SOL     OW34633   1.960   2.058  10.004 -0.1020  0.2658  0.5901
 7667SOL    HW134634   1.895   1.988  10.002 -0.6901  0.7753  2.0255
 7667SOL    HW234635   1.932   2.102   9.924  0.4107 -0.1146  0.2004
 7668SOL     OW34636   0.888   2.189   8.985  0.6000 -0.2211 -0.1465
 7668SOL    HW134637   0.950   2.223   8.920 -0.0326 -2.0204 -1.6947
 7668SOL    HW234638   0.840   2.123   8.936  0.9107  1.9836 -3.4418
 7669SOL     OW34639   3.887   4.040   8.989 -0.0151  0.9808  0.0017
 7669SOL    HW134640   3.890   4.023   8.895 -0.5606  0.8455  0.0087
 7669SOL    HW234641   3.883   4.136   8.982  2.6998  1.0802  0.0587
 7670SOL     OW34642   1.706   0.290   8.938 -0.3249  0.2452 -0.0011
 7670SOL    HW134643   1.789   0.260   8.900 -0.6180  0.0507 -0.4875
 7670SOL    HW234644   1.715   0.384   8.918 -0.7941  0.1579 -0.6195
 7671SOL     OW34645   0.608   2.692   4.980  0.7965  0.0210 -0.4535
 7671SOL    HW134646   0.671   2.763   4.986  1.2693 -0.4047 -0.3907
 7671SOL    HW234647   0.658   2.630   5.034 -3.0588 -1.6025  1.2566
 7672SOL     OW34648   1.735   0.210   8.472 -0.2684  0.1491 -0.1295
 7672SOL    HW134649   1.829   0.205   8.488 -0.0012  2.4393 -1.0021
 7672SOL    HW234650   1.720   0.304   8.462  1.4165  0.2148 -2.1388
 7673SOL     OW34651   2.373   4.052   3.705 -0.2727 -0.2675  0.1810
 7673SOL    HW134652   2.358   4.145   3.693  2.5965  0.1045 -0.5754
 7673SOL    HW234653   2.370   4.053   3.800 -1.8444 -1.8753  0.1374
 7674SOL     OW34654   0.031   0.802   3.929  0.5946 -0.4085  0.3973
 7674SOL    HW134655   0.037   0.707   3.939  0.0704 -0.3662  1.0552
 7674SOL    HW234656   0.038   0.833   4.019  1.1278 -1.0826  0.5925
 7675SOL     OW34657   0.632   4.100   7.523  0.1328 -0.3650  0.0192
 7675SOL    HW134658   0.726   4.115   7.525  0.3854 -2.0710  0.8213
 7675SOL    HW234659   0.622   4.028   7.585  0.6786  1.1509  1.8432
 7676SOL     OW34660   4.052   1.536   4.815 -0.1066  0.2243 -0.4133
 7676SOL    HW134661   4.100   1.542   4.732 -0.2395 -0.2560 -0.5212
 7676SOL    HW234662   4.121   1.574   4.870 -0.7052  0.5857  0.0987
 7677SOL     OW34663   3.279   2.673   0.871  0.7424 -0.5740  0.9084
 7677SOL    HW134664   3.292   2.636   0.959  1.8348 -0.5918  0.7443
 7677SOL    HW234665   3.349   2.636   0.817  1.2756 -0.1148  1.2723
 7678SOL     OW34666   2.770   4.103   4.280  0.4556  0.7573  0.0471
 7678SOL    HW134667   2.812   4.017   4.283  1.3588  1.1117 -2.5438
 7678SOL    HW234668   2.763   4.112   4.185  1.0152 -0.9490 -0.1489
 7679SOL     OW34669   3.804   0.690   8.389 -0.3520  0.0769  0.3722
 7679SOL    HW134670   3.790   0.601   8.356  0.6254 -0.2507  0.8462
 7679SOL    HW234671   3.888   0.681   8.433  0.2487  1.6025 -0.4560
 7680SOL     OW34672   4.517   3.219   3.437 -0.1455 -0.0874 -0.1652
 7680SOL    HW134673   4.443   3.278   3.447 -1.7431 -1.7490 -2.0941
 7680SOL    HW234674   4.574   3.261   3.501 -1.3928 -0.2439  1.0444
 7681SOL     OW34675   1.083   4.665   6.356 -0.3975 -0.1026 -0.6033
 7681SOL    HW134676   1.045   4.578   6.345 -1.8511  0.3099  1.1787
 7681SOL    HW234677   0.997   4.706   6.347 -0.9794 -1.4839 -1.4159
 7682SOL     OW34678   1.358   3.862   1.188  0.1453  0.0391 -0.0324
 7682SOL    HW134679   1.349   3.889   1.280 -0.4226  0.7689 -0.3053
 7682SOL    HW234680   1.424   3.922   1.155  1.9193 -0.9321  1.6942
 7683SOL     OW34681   3.541   2.791  14.947 -0.3922  0.7539 -0.3311
 7683SOL    HW134682   3.574   2.731  15.013  0.9298  0.0402 -1.6290
 7683SOL    HW234683   3.583   2.874  14.965 -0.1562 -0.2336  3.5532
 7684SOL     OW34684   1.086   0.276  14.541 -0.3418  0.5083 -0.1004
 7684SOL    HW134685   1.106   0.356  14.590 -0.2975 -0.0394  0.7512
 7684SOL    HW234686   1.111   0.216  14.610  1.7754  1.4694 -0.0160
 7685SOL     OW34687   0.259   0.279   6.883 -0.2342  0.4492  0.1296
 7685SOL    HW134688   0.190   0.337   6.851 -1.2824  0.4213  2.3900
 7685SOL    HW234689   0.304   0.262   6.800  0.0258  1.0729  0.1450
 7686SOL     OW34690   2.213   3.775   3.182  0.8486  0.4280  0.2219
 7686SOL    HW134691   2.165   3.692   3.191 -0.0147  0.6987 -1.7140
 7686SOL    HW234692   2.133   3.825   3.165  1.0095  1.0110  1.2282
 7687SOL     OW34693   0.946   3.380  12.974  0.1180 -0.4593 -0.5243
 7687SOL    HW134694   1.029   3.417  13.004  0.0203 -1.1530  0.6121
 7687SOL    HW234695   0.915   3.342  13.056  1.7224 -1.5037 -0.3942
 7688SOL     OW34696   2.364   3.402   8.762 -0.4857 -0.1783 -0.1745
 7688SOL    HW134697   2.357   3.308   8.742  2.1819 -0.0397 -1.6865
 7688SOL    HW234698   2.283   3.410   8.814  0.7238 -0.4836  1.7646
 7689SOL     OW34699   1.103   3.191  17.669 -0.3139 -0.1270  0.7609
 7689SOL    HW134700   1.024   3.138  17.661  0.1837 -0.5727 -1.1133
 7689SOL    HW234701   1.081   3.260  17.607  1.5378  0.8060  1.1593
 7690SOL     OW34702   4.017   3.690   2.135 -0.4002 -0.4079  0.0087
 7690SOL    HW134703   4.091   3.633   2.159  0.0941 -0.1092 -0.7683
 7690SOL    HW234704   3.990   3.726   2.219  0.6966 -2.4757  1.2404
 7691SOL     OW34705   3.873   2.559   6.157 -0.3576 -0.0339  0.0317
 7691SOL    HW134706   3.830   2.537   6.074  1.5217  0.4181 -1.0584
 7691SOL    HW234707   3.835   2.490   6.212  1.3818 -1.2317 -0.2855
 7692SOL     OW34708   0.299   1.374  11.137  0.2748  0.2681  0.1198
 7692SOL    HW134709   0.340   1.291  11.158 -2.6261 -1.2061 -0.0543
 7692SOL    HW234710   0.289   1.410  11.226  1.2564  0.0115  0.3324
 7693SOL     OW34711   2.486   3.664  14.418 -0.4526  0.0717  0.5996
 7693SOL    HW134712   2.415   3.615  14.378 -0.3109  0.9876 -0.7867
 7693SOL    HW234713   2.565   3.611  14.405  0.9125  1.9374  1.1554
 7694SOL     OW34714   1.610   0.085   1.059  0.3697 -0.4240 -0.4511
 7694SOL    HW134715   1.611   0.172   1.020  1.5575  0.5346  1.7295
 7694SOL    HW234716   1.703   0.062   1.054  0.7906  1.0511  0.5474
 7695SOL     OW34717   2.850   3.866   4.400  0.5927  1.0173 -0.0487
 7695SOL    HW134718   2.810   3.779   4.393 -0.3469  1.5108 -0.7701
 7695SOL    HW234719   2.799   3.904   4.471  0.5815  0.7248  0.0986
 7696SOL     OW34720   2.888   0.053   6.167  0.0456  0.0330 -0.3858
 7696SOL    HW134721   2.911   4.735   6.243  0.5077  0.5178 -0.1847
 7696SOL    HW234722   2.888   4.729   6.092 -3.5344  0.2762 -0.6161
 7697SOL     OW34723   3.141   3.046   6.209 -0.2488 -0.0032  0.2938
 7697SOL    HW134724   3.173   3.046   6.299  0.8264  0.9396 -0.0912
 7697SOL    HW234725   3.109   3.135   6.195 -0.5621  0.0302  1.2474
 7698SOL     OW34726   2.782   1.935  16.097 -0.1535  0.3025 -0.0060
 7698SOL    HW134727   2.826   1.896  16.173 -1.2476  0.0455  0.4971
 7698SOL    HW234728   2.784   1.857  16.041 -2.3715  0.2412 -0.0008
 7699SOL     OW34729   3.054   0.472   4.684 -0.1368  0.5134 -0.1192
 7699SOL    HW134730   3.149   0.472   4.698 -0.1388  1.0143 -0.0936
 7699SOL    HW234731   3.039   0.537   4.616 -1.7282 -1.0646 -1.2831
 7700SOL     OW34732   3.938   1.745   9.644  0.6374  0.0490  0.2001
 7700SOL    HW134733   3.993   1.818   9.616 -0.8496  0.9810 -0.2750
 7700SOL    HW234734   4.007   1.689   9.682 -1.3535 -2.2559  0.4304
 7701SOL     OW34735   4.048   0.764   6.240 -0.3696 -0.6447 -0.5393
 7701SOL    HW134736   4.039   0.859   6.228  2.9562 -0.2592  0.1587
 7701SOL    HW234737   4.134   0.769   6.282 -0.0036  1.8359 -1.5735
 7702SOL     OW34738   4.691   4.196  12.695  0.1842  0.3564  0.2266
 7702SOL    HW134739   4.713   4.190  12.788  1.2139 -0.9320 -0.0967
 7702SOL    HW234740   4.611   4.249  12.694 -0.0971 -0.1153 -2.1002
 7703SOL     OW34741   3.606   1.759   5.132 -0.0857 -0.1422 -0.1249
 7703SOL    HW134742   3.523   1.728   5.094 -1.2023 -1.3345  3.3062
 7703SOL    HW234743   3.666   1.692   5.098 -0.6610  0.6980 -2.7862
 7704SOL     OW34744   1.536   1.994   0.310  0.1767  0.1909 -0.4884
 7704SOL    HW134745   1.461   1.947   0.273  0.1346 -2.3627  2.9164
 7704SOL    HW234746   1.563   2.040   0.230 -0.9906  0.4371 -0.7458
 7705SOL     OW34747   1.586   2.635   9.770 -0.1060  0.2997 -0.2369
 7705SOL    HW134748   1.674   2.612   9.742  0.8560 -0.7908  3.6343
 7705SOL    HW234749   1.563   2.558   9.823  0.1580  1.3135  1.3507
 7706SOL     OW34750   4.450   3.469   1.315 -0.2068 -0.2683  0.0890
 7706SOL    HW134751   4.429   3.457   1.223  3.0932  1.8464 -0.9163
 7706SOL    HW234752   4.472   3.378   1.334 -1.8991 -0.0717  3.0673
 7707SOL     OW34753   2.062   3.370   9.529 -0.1415  0.1348 -0.0169
 7707SOL    HW134754   2.141   3.324   9.559  0.0330 -0.2419 -1.0320
 7707SOL    HW234755   2.083   3.458   9.558  0.2896  0.1556 -0.4030
 7708SOL     OW34756   0.918   1.643   6.394 -0.1960  0.4978  0.5521
 7708SOL    HW134757   0.942   1.550   6.400 -0.5191  0.3324 -0.5490
 7708SOL    HW234758   0.875   1.646   6.479 -2.2604 -0.0252 -0.4580
 7709SOL     OW34759   1.382   2.650  12.008 -0.1776 -0.0704  0.5554
 7709SOL    HW134760   1.435   2.630  12.085  0.0021 -0.0603  0.4333
 7709SOL    HW234761   1.380   2.745  12.012 -1.0600 -0.0985  0.9116
 7710SOL     OW34762   1.748   1.398   2.998  0.4325  0.4780  0.5725
 7710SOL    HW134763   1.792   1.368   2.918  1.6939 -2.4438  2.3513
 7710SOL    HW234764   1.827   1.421   3.048  1.5941 -2.6792  0.2148
 7711SOL     OW34765   3.003   0.859   4.998  0.2143  0.1302 -0.1815
 7711SOL    HW134766   3.069   0.905   4.946  0.7872 -1.4556 -0.8844
 7711SOL    HW234767   3.063   0.815   5.059 -0.9732 -1.9252 -0.4835
 7712SOL     OW34768   3.056   1.498  14.920  0.1772 -0.1053 -0.5695
 7712SOL    HW134769   3.106   1.533  14.846  0.1732 -0.1543 -0.5954
 7712SOL    HW234770   3.009   1.576  14.947  0.3179 -0.3382  0.3561
 7713SOL     OW34771   2.038   4.166   6.204 -0.6018  0.3569  0.0052
 7713SOL    HW134772   1.997   4.095   6.253  0.7170 -1.0470 -0.9455
 7713SOL    HW234773   2.093   4.203   6.272  1.2092 -0.6435 -0.8987
 7714SOL     OW34774   2.568   0.354  15.545 -0.2930  0.3280  0.5419
 7714SOL    HW134775   2.607   0.268  15.527 -0.5238  0.3376  0.0040
 7714SOL    HW234776   2.527   0.349  15.631  1.5450 -0.9929  1.3584
 7715SOL     OW34777   1.599   2.803  10.883  0.0988 -0.3436  0.2209
 7715SOL    HW134778   1.534   2.827  10.949 -1.7285 -1.2923 -1.2229
 7715SOL    HW234779   1.603   2.890  10.843  0.8936 -0.2276  0.5568
 7716SOL     OW34780   0.134   4.490   5.640  0.0276 -0.1468  0.2836
 7716SOL    HW134781   0.194   4.491   5.714 -0.1588  0.3452  0.4283
 7716SOL    HW234782   0.083   4.568   5.658  0.9982  0.8759 -1.3491
 7717SOL     OW34783   0.238   2.418   5.731 -0.3696 -0.1007 -0.5905
 7717SOL    HW134784   0.317   2.379   5.770 -1.7377 -0.2542  2.0546
 7717SOL    HW234785   0.180   2.426   5.807 -0.0164 -2.1802 -0.1079
 7718SOL     OW34786   3.605   2.306   5.930 -0.6908 -0.5547 -0.3485
 7718SOL    HW134787   3.610   2.294   6.025 -2.9729  1.4600  0.0180
 7718SOL    HW234788   3.635   2.397   5.924 -1.0561 -0.3906  0.4083
 7719SOL     OW34789   1.215   1.412   4.433  0.2856  0.8148 -0.0444
 7719SOL    HW134790   1.227   1.320   4.458 -1.3681  0.0168 -2.2077
 7719SOL    HW234791   1.142   1.402   4.372  0.5037 -0.5597 -0.0743
 7720SOL     OW34792   3.512   2.445  11.853  0.3539 -0.0928  0.5190
 7720SOL    HW134793   3.453   2.510  11.891 -0.1002 -0.0695 -0.2186
 7720SOL    HW234794   3.442   2.392  11.815  0.7002  0.2042 -0.5436
 7721SOL     OW34795   3.046   4.640   3.744 -0.0826 -0.0207  0.1644
 7721SOL    HW134796   2.999   4.557   3.746 -0.2034  0.0307 -0.9071
 7721SOL    HW234797   3.079   4.655   3.656 -1.1697 -4.5062 -0.9731
 7722SOL     OW34798   0.274   1.520  10.209 -0.3101  0.5366 -0.7173
 7722SOL    HW134799   0.317   1.604  10.193  0.0153  0.4163 -0.4877
 7722SOL    HW234800   0.180   1.533  10.221 -0.2949  1.4949 -1.7255
 7723SOL     OW34801   0.805   2.155  16.083  0.4509 -0.0047 -0.0853
 7723SOL    HW134802   0.866   2.116  16.021 -1.5000  1.4659 -2.9226
 7723SOL    HW234803   0.844   2.146  16.170  1.3778  1.9298 -0.3064
 7724SOL     OW34804   4.588   3.242   6.955 -0.1732  0.0035 -0.2393
 7724SOL    HW134805   4.560   3.316   7.010  1.9967  0.2833  0.5158
 7724SOL    HW234806   4.623   3.302   6.889 -1.4344 -0.5148 -1.3510
 7725SOL     OW34807   1.595   2.584   4.343 -0.1968  0.3161  0.3068
 7725SOL    HW134808   1.563   2.518   4.405 -1.1764 -0.1953 -0.7508
 7725SOL    HW234809   1.661   2.532   4.296  1.4873  1.5552  1.2924
 7726SOL     OW34810   0.130   0.412  11.244 -0.3546 -0.3783 -0.1419
 7726SOL    HW134811   0.109   0.495  11.286 -1.4380  0.1081 -1.6537
 7726SOL    HW234812   0.046   0.398  11.201  0.7937  0.3391 -2.6606
 7727SOL     OW34813   4.479   3.941   7.189 -0.0724 -0.5638  0.1546
 7727SOL    HW134814   4.514   4.030   7.195  1.2126 -1.1489  1.3852
 7727SOL    HW234815   4.385   3.956   7.197 -0.3740 -2.8247  0.9190
 7728SOL     OW34816   2.133   3.489   0.193 -0.8987 -0.3879  0.1176
 7728SOL    HW134817   2.164   3.545   0.264 -0.4440  0.2200 -0.5610
 7728SOL    HW234818   2.074   3.554   0.156 -0.9281  0.6437  1.9377
 7729SOL     OW34819   0.458   2.293  13.955  0.0554  0.8421  0.2973
 7729SOL    HW134820   0.470   2.212  14.005 -0.0524  0.1322 -0.7958
 7729SOL    HW234821   0.401   2.259  13.885  1.0396  3.0889 -1.5743
 7730SOL     OW34822   2.881   1.259   8.152  0.0480  0.2452 -0.3971
 7730SOL    HW134823   2.959   1.278   8.204  0.5495  1.8033 -1.7242
 7730SOL    HW234824   2.892   1.321   8.080  0.0742  0.5162 -0.1615
 7731SOL     OW34825   0.409   0.163   5.404 -0.0414 -0.5366 -0.2506
 7731SOL    HW134826   0.428   0.164   5.311  0.4221 -0.0978 -0.1485
 7731SOL    HW234827   0.415   0.070   5.427  0.9147 -0.2986  0.5025
 7732SOL     OW34828   3.488   0.045   4.121  0.4104 -0.0859 -0.1114
 7732SOL    HW134829   3.444   4.699   4.143  0.9483  0.8347  4.3647
 7732SOL    HW234830   3.421   0.111   4.101  0.0004 -0.6583 -0.6085
 7733SOL     OW34831   2.209   3.718   7.686  0.5436 -0.2683 -0.1839
 7733SOL    HW134832   2.115   3.705   7.699  0.3772  0.2491 -0.8545
 7733SOL    HW234833   2.230   3.780   7.755 -0.8192  1.2855 -1.1688
 7734SOL     OW34834   4.273   1.341   9.084 -0.1946 -0.9889 -0.3654
 7734SOL    HW134835   4.332   1.267   9.093  0.3217 -0.5546 -0.1991
 7734SOL    HW234836   4.305   1.394   9.157 -2.2455 -1.1842  0.6837
 7735SOL     OW34837   1.823   1.395  12.354 -0.0283  0.3839 -0.3488
 7735SOL    HW134838   1.776   1.417  12.435  2.2512  0.1949  1.0050
 7735SOL    HW234839   1.799   1.303  12.340  1.0767  0.2072 -1.0828
 7736SOL     OW34840   2.340   2.714   1.638 -0.1709 -1.0863  0.1496
 7736SOL    HW134841   2.329   2.643   1.575 -0.6852 -0.4306 -0.5001
 7736SOL    HW234842   2.283   2.778   1.596  1.1155 -0.4845 -0.6772
 7737SOL     OW34843   4.135   3.076   6.704 -0.2337  0.6233 -0.6636
 7737SOL    HW134844   4.081   3.155   6.699  1.1552  1.7123  1.7054
 7737SOL    HW234845   4.220   3.113   6.680 -0.8010  1.5173 -1.3410
 7738SOL     OW34846   3.596   0.675   6.585 -0.6937 -0.3269  0.5020
 7738SOL    HW134847   3.506   0.679   6.553  0.1733  1.6372 -1.7800
 7738SOL    HW234848   3.604   0.584   6.611 -1.7308 -0.6277 -0.2291
 7739SOL     OW34849   1.290   4.107   8.014 -0.4816 -0.3127 -0.5974
 7739SOL    HW134850   1.279   4.150   7.929  0.0202  1.5318  0.2581
 7739SOL    HW234851   1.237   4.027   8.017  1.1344 -1.3345  1.1524
 7740SOL     OW34852   4.511   0.755   9.066  0.1832 -0.2013  0.1088
 7740SOL    HW134853   4.478   0.790   8.983 -0.1162 -2.4291 -0.7241
 7740SOL    HW234854   4.542   0.668   9.042 -1.7623 -0.4159 -1.6687
 7741SOL     OW34855   4.027   1.477   9.163  0.3588  0.4314 -0.1672
 7741SOL    HW134856   4.106   1.455   9.114 -0.1088 -0.9489 -0.3008
 7741SOL    HW234857   4.021   1.573   9.164  2.0590  0.5633 -2.6221
 7742SOL     OW34858   2.267   3.777   2.156 -0.0467 -0.2290  0.2587
 7742SOL    HW134859   2.246   3.810   2.068  0.0092  2.0019  1.1057
 7742SOL    HW234860   2.231   3.688   2.150 -0.8157 -0.0125  1.6531
 7743SOL     OW34861   3.184   4.078   0.089  0.3080 -0.1077  0.1980
 7743SOL    HW134862   3.276   4.099   0.073 -0.0360  0.9648 -0.4493
 7743SOL    HW234863   3.137   4.114   0.014  1.5053  1.2253  0.0693
 7744SOL     OW34864   2.974   3.536  17.209  0.2421  0.0427 -0.2342
 7744SOL    HW134865   3.024   3.455  17.207  0.5713  0.3025 -2.0361
 7744SOL    HW234866   2.933   3.532  17.295 -1.7380 -0.3936 -1.1888
 7745SOL     OW34867   0.596   0.671   7.336 -0.2489 -0.1808 -0.0591
 7745SOL    HW134868   0.538   0.633   7.271  1.5360 -0.1123 -1.6741
 7745SOL    HW234869   0.589   0.762   7.307 -1.2565 -1.1189 -2.7677
 7746SOL     OW34870   0.301   0.189  12.288 -0.4063 -0.2154 -0.1878
 7746SOL    HW134871   0.360   0.133  12.338 -0.5993 -0.7966 -0.6099
 7746SOL    HW234872   0.224   0.131  12.290 -0.9125  0.4849  1.2781
 7747SOL     OW34873   0.796   0.270   6.622  0.3456 -0.2628  0.3704
 7747SOL    HW134874   0.757   0.183   6.636  1.0114 -1.1948 -3.7289
 7747SOL    HW234875   0.801   0.283   6.528 -3.3683  0.9953  0.3253
 7748SOL     OW34876   3.441   0.198  15.650  0.2235  0.3229 -0.5817
 7748SOL    HW134877   3.529   0.211  15.615  0.9232  0.5000  1.2711
 7748SOL    HW234878   3.393   0.281  15.641  3.1328  2.1092  0.4099
 7749SOL     OW34879   3.218   0.145   5.910  0.3735 -0.1920 -0.1562
 7749SOL    HW134880   3.296   0.199   5.895  1.1176 -1.0845  0.5420
 7749SOL    HW234881   3.244   0.104   5.992 -0.9519 -0.8233 -0.0554
 7750SOL     OW34882   0.920   4.498  14.814  0.4119  0.4264  0.2519
 7750SOL    HW134883   1.009   4.532  14.812  0.7390 -0.3755  1.3456
 7750SOL    HW234884   0.923   4.444  14.893  0.1083 -1.8457 -1.2743
 7751SOL     OW34885   1.808   2.091   5.605 -0.0041 -0.2733  0.4274
 7751SOL    HW134886   1.796   2.132   5.691 -1.9022  0.7366 -0.3185
 7751SOL    HW234887   1.884   2.037   5.628  1.9323  2.4527  0.4577
 7752SOL     OW34888   0.898   0.708  15.670 -0.2886 -0.3277 -0.2965
 7752SOL    HW134889   0.857   0.755  15.598 -1.6980  1.3680  1.5932
 7752SOL    HW234890   0.968   0.661  15.625  0.4782  2.7431 -2.2497
 7753SOL     OW34891   2.962   0.300   1.211  0.6032 -0.1659  0.2255
 7753SOL    HW134892   2.945   0.290   1.117  0.0039  1.3164  0.1669
 7753SOL    HW234893   3.057   0.297   1.213  0.5169 -1.8618  1.7564
 7754SOL     OW34894   3.425   4.446   5.807 -0.2782 -0.2157  0.2738
 7754SOL    HW134895   3.458   4.465   5.719 -0.5813 -1.1452 -0.0411
 7754SOL    HW234896   3.335   4.478   5.803  0.4397  1.7525 -0.0069
 7755SOL     OW34897   0.409   0.383   7.464  0.0797 -0.3582 -0.2189
 7755SOL    HW134898   0.490   0.332   7.461 -0.5708 -1.3219 -1.3657
 7755SOL    HW234899   0.381   0.362   7.375 -2.3237  0.1942  0.4145
 7756SOL     OW34900   2.700   1.873   0.969  0.2106  0.1377  0.3701
 7756SOL    HW134901   2.735   1.785   0.985 -1.6067 -0.4682  1.0812
 7756SOL    HW234902   2.610   1.859   0.998  0.9882 -0.6437  2.3901
 7757SOL     OW34903   0.457   3.671   5.928  0.0937 -0.0498 -0.2240
 7757SOL    HW134904   0.378   3.725   5.918  1.6398  2.8134  2.9615
 7757SOL    HW234905   0.446   3.633   6.016 -0.6960  0.7685  0.0297
 7758SOL     OW34906   1.488   3.007  12.795  0.1143 -0.5129 -0.4692
 7758SOL    HW134907   1.453   3.028  12.709  0.5308 -1.9085 -0.9752
 7758SOL    HW234908   1.464   3.090  12.837  0.9858 -0.7520  0.4973
 7759SOL     OW34909   2.722   2.128   3.357  0.1628  0.1287  0.5632
 7759SOL    HW134910   2.728   2.214   3.398 -0.2604  0.9541 -1.1110
 7759SOL    HW234911   2.792   2.080   3.401  1.9814  1.5091 -0.8527
 7760SOL     OW34912   2.398   4.371   6.525 -0.8760 -0.8471 -0.0079
 7760SOL    HW134913   2.433   4.392   6.612  0.7543  2.4494 -1.4757
 7760SOL    HW234914   2.480   4.371   6.475  2.0203 -1.5683  4.7013
 7761SOL     OW34915   0.290   0.387   5.727 -0.0632 -0.6812  0.0271
 7761SOL    HW134916   0.317   0.414   5.639 -2.9789 -1.2396 -1.0219
 7761SOL    HW234917   0.372   0.407   5.772  0.5211  0.9581 -1.7484
 7762SOL     OW34918   2.159   1.228   7.921  0.3789 -0.5781  0.4096
 7762SOL    HW134919   2.143   1.319   7.894 -1.3196 -1.0715 -0.2152
 7762SOL    HW234920   2.111   1.230   8.003  1.3477 -1.5495  0.9911
 7763SOL     OW34921   0.607   0.583   7.590  0.1386  0.1630  0.5853
 7763SOL    HW134922   0.598   0.617   7.500  1.0124 -2.6402 -0.5388
 7763SOL    HW234923   0.521   0.545   7.609 -1.2746  2.1733 -1.7546
 7764SOL     OW34924   0.825   0.664   2.267 -0.2796  0.0527  0.3799
 7764SOL    HW134925   0.811   0.719   2.190 -0.7148 -0.6846 -0.0665
 7764SOL    HW234926   0.831   0.573   2.240  0.8356 -0.2084  1.4868
 7765SOL     OW34927   2.930   4.456   5.175 -0.1223  0.2720 -0.3614
 7765SOL    HW134928   2.890   4.415   5.252  0.4467  1.5439  0.6073
 7765SOL    HW234929   2.950   4.546   5.201 -2.3468 -0.0125  2.4749
 7766SOL     OW34930   1.699   4.254   5.598  0.8594  0.0910  0.0046
 7766SOL    HW134931   1.670   4.305   5.673  0.7625 -0.9267  0.6569
 7766SOL    HW234932   1.745   4.322   5.548 -2.0534  0.8969 -1.6313
 7767SOL     OW34933   4.178   0.368  11.957 -0.6342  0.1302  0.0146
 7767SOL    HW134934   4.154   0.326  11.874  0.0626 -0.4191  0.0940
 7767SOL    HW234935   4.136   0.453  11.951  0.0993  0.4492 -0.6236
 7768SOL     OW34936   1.384   1.598  16.523 -0.0430 -0.8896 -0.3350
 7768SOL    HW134937   1.382   1.589  16.618  1.0584 -0.5926 -0.2838
 7768SOL    HW234938   1.294   1.622  16.500  0.0460  0.5219  0.7922
 7769SOL     OW34939   3.512   1.784  15.045 -0.3963 -0.0884 -0.4911
 7769SOL    HW134940   3.418   1.769  15.032 -0.1521 -0.3137 -2.0020
 7769SOL    HW234941   3.539   1.700  15.080  0.5340  1.3387  2.2088
 7770SOL     OW34942   3.127   1.670   4.462 -0.0486 -0.4813 -0.3280
 7770SOL    HW134943   3.108   1.761   4.484 -2.0092 -2.0242  4.4179
 7770SOL    HW234944   3.055   1.625   4.505 -0.7060  0.8157 -0.0935
 7771SOL     OW34945   0.478   0.809  12.062  0.0710  0.4681  0.0720
 7771SOL    HW134946   0.395   0.829  12.020 -0.0678 -3.0647 -1.4080
 7771SOL    HW234947   0.456   0.729  12.110 -1.3523  0.6521 -0.2846
 7772SOL     OW34948   3.020   4.244   3.733 -0.3634  0.0332  0.0760
 7772SOL    HW134949   2.953   4.306   3.763 -0.8107 -0.1116 -0.6154
 7772SOL    HW234950   3.083   4.250   3.805 -1.5055  0.2983  1.0587
 7773SOL     OW34951   1.263   2.088   1.618  0.1403 -0.0005 -0.2615
 7773SOL    HW134952   1.232   2.160   1.673  0.8757 -0.0152  0.1663
 7773SOL    HW234953   1.283   2.013   1.674  0.5917  0.1183 -0.2647
 7774SOL     OW34954   3.036   0.157   7.571  0.0580  0.7244 -0.2620
 7774SOL    HW134955   2.987   0.118   7.644  1.7520 -0.4426  0.2594
 7774SOL    HW234956   3.104   0.193   7.627 -0.2508 -0.0289  0.5949
 7775SOL     OW34957   3.886   4.166   1.386  1.2085 -0.2078  0.3901
 7775SOL    HW134958   3.837   4.088   1.413  2.1007 -1.0501 -0.4540
 7775SOL    HW234959   3.812   4.227   1.394 -1.2506 -3.1236 -0.2814
 7776SOL     OW34960   4.210   0.753   3.952  0.3685  0.4332 -0.7259
 7776SOL    HW134961   4.279   0.707   4.000 -0.7453  0.0243  0.4649
 7776SOL    HW234962   4.135   0.695   3.948 -0.2452  1.2743 -1.3338
 7777SOL     OW34963   2.635   0.571   2.618 -0.1998 -0.5779 -0.4997
 7777SOL    HW134964   2.690   0.640   2.580 -3.8635  1.7445 -1.5132
 7777SOL    HW234965   2.693   0.494   2.623 -1.1694 -1.3567 -1.2580
 7778SOL     OW34966   2.985   4.256   6.153  0.0183 -0.4820  0.0572
 7778SOL    HW134967   2.913   4.314   6.179  1.2561  1.0039  0.1360
 7778SOL    HW234968   3.004   4.203   6.230 -0.6606  2.2804  2.0926
 7779SOL     OW34969   0.154   3.958   3.036 -0.6341  0.4267  0.6822
 7779SOL    HW134970   0.106   3.982   2.957 -0.7864 -1.3007  0.2725
 7779SOL    HW234971   0.143   4.031   3.098 -1.1820 -1.6370  3.0459
 7780SOL     OW34972   1.828   2.243   7.543 -0.5693  0.0350 -0.1595
 7780SOL    HW134973   1.735   2.224   7.558 -0.4973 -1.3544 -1.4786
 7780SOL    HW234974   1.839   2.246   7.448 -1.9532  0.5334 -0.3060
 7781SOL     OW34975   0.899   1.911  16.784 -0.2481  0.4579 -0.1535
 7781SOL    HW134976   0.911   1.926  16.878  1.2890 -1.3850 -0.0774
 7781SOL    HW234977   0.990   1.899  16.759  0.5268  1.4318  2.2233
 7782SOL     OW34978   0.867   4.642   4.051  0.3356  0.0557  0.0384
 7782SOL    HW134979   0.935   4.609   3.993 -0.6418 -1.9352 -0.0069
 7782SOL    HW234980   0.848   4.567   4.108  0.7639 -2.2139 -2.7728
 7783SOL     OW34981   1.230   2.231   5.569 -0.3166 -0.6601  0.2734
 7783SOL    HW134982   1.152   2.219   5.623  0.4053 -2.0732  1.0243
 7783SOL    HW234983   1.303   2.214   5.630 -0.1390  0.0632  0.2596
 7784SOL     OW34984   4.583   1.929   4.033 -0.2174 -0.2815 -0.0704
 7784SOL    HW134985   4.565   1.952   3.942 -0.4077 -0.1814 -0.0086
 7784SOL    HW234986   4.515   1.867   4.059 -1.2133  0.9451  0.2707
 7785SOL     OW34987   0.271   2.712   7.729 -0.2702  0.0927 -0.0569
 7785SOL    HW134988   0.227   2.627   7.718  1.9160 -1.1605  0.9766
 7785SOL    HW234989   0.237   2.752   7.649  0.6781  1.3946  0.2036
 7786SOL     OW34990   2.197   0.373   5.792 -0.3562  0.3208  0.4373
 7786SOL    HW134991   2.188   0.304   5.726  2.2398  1.1463 -0.8079
 7786SOL    HW234992   2.170   0.324   5.870 -1.0318  2.1532  1.3459
 7787SOL     OW34993   3.386   3.031   1.552  0.6989 -0.6775 -0.1463
 7787SOL    HW134994   3.366   2.944   1.519  2.5761 -1.1361 -0.0529
 7787SOL    HW234995   3.461   3.016   1.609  2.9224  3.9969 -1.8429
 7788SOL     OW34996   2.972   0.964  17.678 -0.2780 -0.4144  0.2394
 7788SOL    HW134997   2.971   1.060  17.675  0.1970 -0.3960  0.6934
 7788SOL    HW234998   2.982   0.944  17.585 -1.2598  1.1748 -0.2227
 7789SOL     OW34999   0.868   2.521   2.534  0.0362  0.0856  0.6267
 7789SOL    HW135000   0.864   2.610   2.498  3.2538  0.2296  0.6019
 7789SOL    HW235001   0.812   2.538   2.609  1.5716  2.0648  1.3262
 7790SOL     OW35002   1.717   2.487   5.149  0.2822 -0.1356 -0.5061
 7790SOL    HW135003   1.757   2.557   5.200 -0.0125 -1.4886  1.5848
 7790SOL    HW235004   1.626   2.500   5.176 -0.0256 -0.5521 -1.3524
 7791SOL     OW35005   2.624   4.199   2.113  0.8610 -0.4680 -0.1962
 7791SOL    HW135006   2.689   4.178   2.046 -0.3482 -2.2506 -0.8330
 7791SOL    HW235007   2.575   4.263   2.062 -0.6948 -1.2904  0.2660
 7792SOL     OW35008   1.097   2.829   6.113 -0.4138 -0.4270  0.6619
 7792SOL    HW135009   1.091   2.877   6.196 -3.7041 -0.2453  0.3008
 7792SOL    HW235010   1.005   2.812   6.095 -0.1320 -1.0811 -0.1292
 7793SOL     OW35011   3.049   4.645  13.708  0.1148  0.2855 -0.0715
 7793SOL    HW135012   3.032   4.591  13.786  0.0293  0.1695 -0.1716
 7793SOL    HW235013   2.995   4.610  13.638 -2.0199 -1.3445  2.3930
 7794SOL     OW35014   3.703   2.894   2.194  0.2489 -0.1604  0.1184
 7794SOL    HW135015   3.750   2.933   2.120 -0.2872 -0.4081 -0.3480
 7794SOL    HW235016   3.629   2.854   2.148 -0.0843 -0.2580  0.7435
 7795SOL     OW35017   3.040   4.196   1.275 -0.6045 -0.5999  0.2056
 7795SOL    HW135018   3.072   4.127   1.335 -2.0322 -1.4074  0.0310
 7795SOL    HW235019   3.110   4.221   1.215 -1.2384 -0.9183 -0.6584
 7796SOL     OW35020   0.683   0.396  10.058 -0.0600 -0.0091  0.0962
 7796SOL    HW135021   0.764   0.379  10.106  0.5846 -2.1349 -1.7070
 7796SOL    HW235022   0.632   0.432  10.130 -2.9029 -3.3232 -0.2524
 7797SOL     OW35023   0.163   2.769   0.011 -0.6189  0.1072 -0.2770
 7797SOL    HW135024   0.137   2.695   0.066 -0.4972  0.6875  0.5649
 7797SOL    HW235025   0.180   2.835   0.078  0.6595 -0.0501 -0.4442
 7798SOL     OW35026   4.396   1.770   5.754  0.4596  0.4835 -0.2328
 7798SOL    HW135027   4.384   1.683   5.793  1.2303  1.0093  1.1889
 7798SOL    HW235028   4.460   1.755   5.684 -0.1460 -0.5159 -0.5765
 7799SOL     OW35029   0.483   0.208   1.367 -0.2474  0.1545  0.3535
 7799SOL    HW135030   0.493   0.248   1.281 -0.6759  0.0240  0.2398
 7799SOL    HW235031   0.391   0.185   1.355  0.0471 -0.7361 -0.1819
 7800SOL     OW35032   0.265   4.146   2.635 -0.0284 -0.2745 -0.2549
 7800SOL    HW135033   0.347   4.191   2.656 -1.3311  0.0706  4.1858
 7800SOL    HW235034   0.235   4.194   2.558 -0.7292 -0.7565 -0.2810
 7801SOL     OW35035   0.116   0.062   5.246 -0.3673  0.9770 -0.8285
 7801SOL    HW135036   0.109   4.722   5.305  1.0590  1.0777 -0.5231
 7801SOL    HW235037   0.042   0.112   5.281 -0.7003  0.9949 -1.5634
 7802SOL     OW35038   1.380   4.469   3.258 -0.1666 -0.2874  0.1111
 7802SOL    HW135039   1.404   4.406   3.190 -0.1753 -1.5320  1.2680
 7802SOL    HW235040   1.304   4.432   3.303  0.0598  1.3801  1.8536
 7803SOL     OW35041   0.015   4.112   1.710  0.1166 -0.0854 -0.2247
 7803SOL    HW135042   0.014   4.021   1.739  0.1437 -0.4893 -1.4885
 7803SOL    HW235043   4.670   4.111   1.660 -0.1396  0.1335  0.1842
 7804SOL     OW35044   4.259   0.844   2.523  0.4249  0.0890 -0.3838
 7804SOL    HW135045   4.354   0.838   2.533  0.5268  2.6105  0.0273
 7804SOL    HW235046   4.250   0.928   2.479 -0.7548 -0.6913 -1.6606
 7805SOL     OW35047   2.437   1.526   3.151 -0.3126  0.0047 -0.1110
 7805SOL    HW135048   2.475   1.544   3.237  0.8760  0.5358 -0.7589
 7805SOL    HW235049   2.344   1.531   3.174  0.4019 -3.4758  3.5818
 7806SOL     OW35050   2.175   2.313   7.678  0.6420 -0.2239 -0.2138
 7806SOL    HW135051   2.117   2.237   7.687 -0.8572  0.8131 -1.0614
 7806SOL    HW235052   2.191   2.326   7.585 -0.8390  0.1857 -0.4082
 7807SOL     OW35053   1.683   1.424   2.716 -0.0310  0.3491  0.8426
 7807SOL    HW135054   1.684   1.493   2.782  0.2204  2.2248 -1.1179
 7807SOL    HW235055   1.768   1.454   2.683 -1.5737  2.5660 -1.1445
 7808SOL     OW35056   1.676   1.324   2.182 -0.2138  0.2021 -0.0071
 7808SOL    HW135057   1.746   1.320   2.247 -1.1778 -0.3759  0.9899
 7808SOL    HW235058   1.603   1.282   2.227 -0.0292  0.4941  0.5667
 7809SOL     OW35059   0.761   3.723  15.742 -0.0790 -0.0880 -1.2957
 7809SOL    HW135060   0.674   3.753  15.718 -0.2565  0.4605  0.0455
 7809SOL    HW235061   0.793   3.806  15.778  1.5057 -1.1782 -0.1722
 7810SOL     OW35062   4.206   1.970   9.842 -0.2080  0.1408  0.7919
 7810SOL    HW135063   4.177   2.060   9.862 -1.1815  0.0176 -0.0538
 7810SOL    HW235064   4.177   1.963   9.751 -1.6386 -2.3182  1.4508
 7811SOL     OW35065   0.686   0.780  17.593 -0.2429 -0.0473 -1.1565
 7811SOL    HW135066   0.633   0.812  17.666 -0.6383  2.3101 -2.4770
 7811SOL    HW235067   0.658   0.824  17.513 -0.6653 -0.8350 -1.4363
 7812SOL     OW35068   0.852   0.940   4.421  0.1763 -0.3144  0.3396
 7812SOL    HW135069   0.898   0.891   4.352 -1.4678  1.2013 -1.8251
 7812SOL    HW235070   0.765   0.902   4.428 -0.5996  1.2673 -0.8172
 7813SOL     OW35071   1.526   0.433   4.885 -0.4352 -0.7291 -0.4157
 7813SOL    HW135072   1.468   0.383   4.943 -1.9091 -0.4505 -1.6653
 7813SOL    HW235073   1.613   0.411   4.919 -0.9791  0.8136  2.0066
 7814SOL     OW35074   3.668   2.468  11.514 -0.0864 -0.2193 -0.0783
 7814SOL    HW135075   3.722   2.389  11.520  1.2393  0.6551 -0.2616
 7814SOL    HW235076   3.684   2.506  11.600  0.1977 -1.5997  0.4763
 7815SOL     OW35077   3.474   0.236   5.997 -0.5164 -0.1319  0.7217
 7815SOL    HW135078   3.487   0.225   6.091 -2.1063  2.5538  1.2457
 7815SOL    HW235079   3.520   0.163   5.955 -1.0035  0.6048 -1.0962
 7816SOL     OW35080   3.758   0.986  10.343  0.1054 -0.1475  0.3437
 7816SOL    HW135081   3.843   0.987  10.387  0.4025 -0.7185 -0.2284
 7816SOL    HW235082   3.777   1.021  10.256  1.5739 -2.8387 -0.4161
 7817SOL     OW35083   3.547   2.452   7.646  0.2870 -0.6400 -0.0561
 7817SOL    HW135084   3.536   2.361   7.617  0.2998 -0.5738 -0.2647
 7817SOL    HW235085   3.469   2.468   7.699  1.3807  2.8519  0.4725
 7818SOL     OW35086   0.329   2.698   5.685 -0.1204  0.7619 -0.3920
 7818SOL    HW135087   0.318   2.693   5.590  0.8246 -2.7976 -0.3195
 7818SOL    HW235088   0.311   2.610   5.719 -0.3775  1.2222  0.6837
 7819SOL     OW35089   0.998   4.548   5.176  0.6115  0.5404  0.3107
 7819SOL    HW135090   1.018   4.589   5.092  2.1841  3.7468  2.2657
 7819SOL    HW235091   1.082   4.522   5.213  0.2909  0.3042  0.8691
 7820SOL     OW35092   1.438   1.549   0.127 -0.4764 -0.5542  0.0540
 7820SOL    HW135093   1.421   1.498   0.206 -2.9035  1.3398  0.7821
 7820SOL    HW235094   1.410   1.482   0.065  0.0948 -0.1950 -0.5907
 7821SOL     OW35095   0.114   4.443   3.295  0.3535 -0.2612  0.2256
 7821SOL    HW135096   0.122   4.496   3.374 -1.1204  1.2381 -0.6395
 7821SOL    HW235097   0.040   4.487   3.253 -1.0465 -1.5043  1.3915
 7822SOL     OW35098   4.398   2.385  11.976  0.3626  0.1538 -0.2451
 7822SOL    HW135099   4.336   2.401  11.906 -0.9548 -1.6317  0.5225
 7822SOL    HW235100   4.387   2.292  11.995  1.6856  0.3990  1.8377
 7823SOL     OW35101   1.169   1.170   3.390 -0.4063 -0.1949 -0.2262
 7823SOL    HW135102   1.105   1.232   3.425 -0.0252 -0.4519  0.9154
 7823SOL    HW235103   1.125   1.172   3.305  1.4789 -1.4156 -1.2126
 7824SOL     OW35104   1.593   3.501   4.694  0.2935  0.6036  0.0247
 7824SOL    HW135105   1.640   3.419   4.708  0.8617  0.7771 -0.9252
 7824SOL    HW235106   1.555   3.488   4.607 -0.0986  0.2543  0.2480
 7825SOL     OW35107   3.385   1.738   4.962 -0.1969 -0.3527  0.1715
 7825SOL    HW135108   3.320   1.674   4.934  1.6324 -2.9854  1.9479
 7825SOL    HW235109   3.444   1.731   4.886  0.5051  0.1660  0.6668
 7826SOL     OW35110   1.987   1.535   4.225  0.0527  0.2775 -0.1911
 7826SOL    HW135111   1.908   1.497   4.263  1.1160  0.5615  2.3587
 7826SOL    HW235112   2.056   1.469   4.235  0.8793  1.0652 -0.6604
 7827SOL     OW35113   4.502   4.506   8.082  0.4570 -0.5065 -0.2944
 7827SOL    HW135114   4.521   4.491   7.989  0.6348 -0.4445 -0.2675
 7827SOL    HW235115   4.508   4.601   8.091 -0.5622 -0.7536  2.7957
 7828SOL     OW35116   4.172   0.855   5.450 -0.4269  0.9442  0.1643
 7828SOL    HW135117   4.230   0.782   5.471  0.4513  1.5237 -0.2164
 7828SOL    HW235118   4.092   0.821   5.490 -0.7925  0.3260 -1.0639
 7829SOL     OW35119   0.026   0.915   5.195 -0.2502 -0.4069 -0.3261
 7829SOL    HW135120   0.048   0.822   5.198 -0.1971 -0.3914 -0.2399
 7829SOL    HW235121   4.695   0.934   5.261 -0.4292 -0.5200 -0.4734
 7830SOL     OW35122   2.528   4.297   0.144  0.3141 -0.0151  0.3308
 7830SOL    HW135123   2.604   4.249   0.176  0.8517  1.3058  1.0212
 7830SOL    HW235124   2.581   4.351   0.084 -0.4774  1.3117  0.8216
 7831SOL     OW35125   4.104   2.337  13.932  0.1983 -0.2775  0.4755
 7831SOL    HW135126   4.071   2.251  13.908  0.7561 -0.8248  1.6414
 7831SOL    HW235127   4.075   2.383  13.853 -2.7202 -1.2566  0.9980
 7832SOL     OW35128   1.104   2.884   4.248  0.4992 -0.7080 -0.1973
 7832SOL    HW135129   1.040   2.817   4.225  0.7753 -1.4627  1.2015
 7832SOL    HW235130   1.074   2.948   4.185 -0.2866  1.0042  1.9246
 7833SOL     OW35131   3.300   3.585  14.295 -0.3593 -0.3799 -0.0760
 7833SOL    HW135132   3.374   3.645  14.284  0.4041 -1.0539  1.3814
 7833SOL    HW235133   3.348   3.510  14.329 -1.2785 -0.6318  0.6780
 7834SOL     OW35134   4.462   3.972  14.482 -0.1452 -0.5720 -0.1934
 7834SOL    HW135135   4.529   3.983  14.415  0.1596  0.8050  0.3551
 7834SOL    HW235136   4.517   3.926  14.545 -1.9032 -1.3384  0.8000
 7835SOL     OW35137   1.886   2.662   6.412  0.1665  0.1671 -0.0629
 7835SOL    HW135138   1.878   2.684   6.319  0.3721  0.4785 -0.0052
 7835SOL    HW235139   1.964   2.606   6.408  0.9798  1.1999  1.5329
 7836SOL     OW35140   1.863   1.327   1.231  0.5676  0.1249 -0.3035
 7836SOL    HW135141   1.831   1.417   1.240 -1.4202 -0.4796 -1.3218
 7836SOL    HW235142   1.809   1.274   1.290  0.8807 -0.1031 -0.2259
 7837SOL     OW35143   3.025   0.349   6.555  0.1417 -0.2395 -0.3354
 7837SOL    HW135144   2.937   0.311   6.546  0.1768 -0.2494 -0.6143
 7837SOL    HW235145   3.076   0.269   6.565 -0.2162 -0.6235 -1.6784
 7838SOL     OW35146   4.620   0.786   7.825  0.1434 -0.8533  0.5272
 7838SOL    HW135147   4.625   0.808   7.918 -0.9076  1.3514  0.0758
 7838SOL    HW235148   4.649   0.871   7.792  0.2699 -2.0424 -2.4389
 7839SOL     OW35149   4.151   1.659   9.429  0.6666  0.1514  0.3988
 7839SOL    HW135150   4.106   1.712   9.363 -1.9898 -1.1013  1.2086
 7839SOL    HW235151   4.090   1.590   9.452  0.1840  0.4969  0.1489
 7840SOL     OW35152   0.429   1.772  16.011 -0.4493  0.4771 -0.3748
 7840SOL    HW135153   0.409   1.728  16.093  3.1161  0.3658  0.4294
 7840SOL    HW235154   0.500   1.835  16.027  0.4894 -0.1061 -2.2331
 7841SOL     OW35155   3.895   2.462   4.212  0.0163 -0.5683 -0.0415
 7841SOL    HW135156   3.817   2.407   4.204 -0.6478  0.2513  0.8699
 7841SOL    HW235157   3.945   2.420   4.281  0.3588  2.5246  1.5934
 7842SOL     OW35158   1.798   3.996  16.767 -0.2600  0.0486 -0.1530
 7842SOL    HW135159   1.877   3.942  16.773 -0.9244 -0.7615  1.2513
 7842SOL    HW235160   1.845   4.075  16.739  2.1473 -1.7692 -1.2266
 7843SOL     OW35161   1.981   4.114  10.436  0.3171  0.2571  0.1639
 7843SOL    HW135162   1.958   4.185  10.375  1.5272  1.2858  0.9079
 7843SOL    HW235163   2.038   4.161  10.496 -1.9554  2.0166  0.9346
 7844SOL     OW35164   4.728   1.893   3.782  0.4398  0.0905 -0.0789
 7844SOL    HW135165   4.649   1.840   3.793  0.1841  0.4064 -0.3913
 7844SOL    HW235166   4.699   1.967   3.728  1.6344 -0.3539 -1.3167
 7845SOL     OW35167   2.905   0.858   3.263 -0.2900 -0.5387 -0.3430
 7845SOL    HW135168   2.816   0.825   3.255 -0.8462  0.2403  2.7485
 7845SOL    HW235169   2.892   0.943   3.304  0.4181 -0.7929  0.3999
 7846SOL     OW35170   0.449   1.923   3.207  0.3307 -0.0341  0.5996
 7846SOL    HW135171   0.520   1.986   3.205  0.4610 -0.1983 -0.0085
 7846SOL    HW235172   0.376   1.972   3.245 -0.2869 -1.1977  0.9164
 7847SOL     OW35173   2.546   1.287   4.375 -0.2507  0.6912 -0.1875
 7847SOL    HW135174   2.515   1.288   4.466 -2.0256  1.4466 -0.8070
 7847SOL    HW235175   2.475   1.331   4.328 -0.4589  1.6829  1.0569
 7848SOL     OW35176   4.214   3.899   2.031  0.4732  0.2444 -0.2635
 7848SOL    HW135177   4.138   3.843   2.039  1.4850 -0.8487  1.6873
 7848SOL    HW235178   4.187   3.973   2.085 -0.4671  0.9900 -1.7665
 7849SOL     OW35179   1.452   4.031   2.839 -0.0622  0.0532  0.2044
 7849SOL    HW135180   1.460   4.079   2.756  0.5695  2.4494  1.6579
 7849SOL    HW235181   1.536   4.048   2.883 -0.2059  0.8952  0.1383
 7850SOL     OW35182   1.606   1.665   5.567 -0.5903 -0.6632  0.0972
 7850SOL    HW135183   1.536   1.618   5.613 -1.6443 -0.1483 -0.9866
 7850SOL    HW235184   1.654   1.700   5.642  1.5965 -0.6730 -1.3038
 7851SOL     OW35185   1.170   2.376  14.963  0.1713  0.1151 -0.2108
 7851SOL    HW135186   1.221   2.332  14.895 -0.6547  0.1461 -0.8538
 7851SOL    HW235187   1.208   2.464  14.957  0.9047 -0.1407  0.7367
 7852SOL     OW35188   0.594   0.501   8.788 -0.0743  0.6571  0.0356
 7852SOL    HW135189   0.522   0.545   8.743 -1.1837  1.3220  2.4579
 7852SOL    HW235190   0.597   0.418   8.740  0.2714  2.0138 -2.2927
 7853SOL     OW35191   3.198   4.696   3.495  0.2519  0.1214 -0.3037
 7853SOL    HW135192   3.126   4.656   3.446  0.5471  1.5928 -1.9767
 7853SOL    HW235193   3.194   0.043   3.446 -1.0803 -0.4170 -1.0883
 7854SOL     OW35194   1.668   3.808   3.888  0.3370 -0.4548  0.5842
 7854SOL    HW135195   1.702   3.835   3.973 -1.4418 -0.4175  1.2747
 7854SOL    HW235196   1.716   3.860   3.823 -1.6118 -1.1882 -1.4302
 7855SOL     OW35197   3.089   3.806  13.185  0.4490  0.0690  0.3977
 7855SOL    HW135198   3.138   3.735  13.227 -0.9933  0.1464  2.2190
 7855SOL    HW235199   3.066   3.857  13.263  0.4949 -0.9812  1.0935
 7856SOL     OW35200   2.365   2.479   5.733  0.3684  0.0070  0.1423
 7856SOL    HW135201   2.396   2.551   5.788  1.2232 -0.1839 -0.0867
 7856SOL    HW235202   2.438   2.483   5.671 -1.5953 -0.3219 -2.1611
 7857SOL     OW35203   2.810   0.358  17.029 -0.0214 -0.1067 -0.0824
 7857SOL    HW135204   2.857   0.437  17.057  2.3703 -1.5135 -0.1600
 7857SOL    HW235205   2.871   0.325  16.964 -0.3924  0.0646 -0.5172
 7858SOL     OW35206   1.092   3.978  10.369 -0.0225  1.0663 -0.2207
 7858SOL    HW135207   1.048   4.058  10.397 -0.0798  1.0831 -0.3588
 7858SOL    HW235208   1.058   3.959  10.282  2.3337 -2.3049 -0.4146
 7859SOL     OW35209   4.336   4.395   3.543 -0.0514  0.3314  0.5633
 7859SOL    HW135210   4.369   4.333   3.479 -1.9255  2.2635 -2.3156
 7859SOL    HW235211   4.267   4.440   3.494  0.5435  0.9971  0.3341
 7860SOL     OW35212   0.583   1.844   2.857 -0.2679  0.6864 -0.3537
 7860SOL    HW135213   0.490   1.832   2.839 -0.5987  2.0159  0.4208
 7860SOL    HW235214   0.596   1.878   2.946  0.0164  1.3321 -0.6386
 7861SOL     OW35215   1.670   4.100   4.697  0.0648  0.0837 -0.0332
 7861SOL    HW135216   1.762   4.124   4.712 -0.2192  2.9018 -2.8705
 7861SOL    HW235217   1.619   4.172   4.734 -0.1572 -0.3760  0.5469
 7862SOL     OW35218   4.678   2.753  13.576  0.0368  0.0239 -0.0242
 7862SOL    HW135219   0.029   2.763  13.537  1.3962 -0.9715  2.7050
 7862SOL    HW235220   4.699   2.778  13.666  0.2293 -0.5254  0.0831
 7863SOL     OW35221   3.811   0.357   6.027 -0.0040  0.0824  0.1344
 7863SOL    HW135222   3.774   0.371   5.940  0.5126  0.9967  0.0564
 7863SOL    HW235223   3.831   0.447   6.053  2.8498 -0.4960 -0.0644
 7864SOL     OW35224   2.173   2.307   4.001 -0.1807 -0.0773 -0.0784
 7864SOL    HW135225   2.210   2.312   3.913 -2.0267 -1.6714 -0.9397
 7864SOL    HW235226   2.089   2.349   3.982 -1.7555 -2.4883  1.4592
 7865SOL     OW35227   4.584   4.522  10.114  0.4978  0.1507  0.0166
 7865SOL    HW135228   4.549   4.435  10.094 -1.7294  0.9676  0.3760
 7865SOL    HW235229   4.505   4.576  10.105 -0.6770 -1.4051  0.8820
 7866SOL     OW35230   4.155   3.598  12.940  0.3513  0.6225 -0.0265
 7866SOL    HW135231   4.080   3.540  12.956  0.3735  0.1960 -1.4677
 7866SOL    HW235232   4.216   3.529  12.965  1.1845  1.8194  1.2675
 7867SOL     OW35233   1.746   2.126   4.074  0.3431  0.2967 -0.2206
 7867SOL    HW135234   1.833   2.091   4.058  0.6326  1.4687 -1.2361
 7867SOL    HW235235   1.737   2.106   4.167 -1.1012  0.9695 -0.2045
 7868SOL     OW35236   4.664   2.767   5.684  0.1855 -1.0504 -0.6550
 7868SOL    HW135237   4.697   2.769   5.594  0.0120 -0.6004 -0.7140
 7868SOL    HW235238   4.639   2.675   5.687  0.2604 -1.0206  0.8654
 7869SOL     OW35239   4.169   2.833   2.846  0.4289  0.1613 -0.0662
 7869SOL    HW135240   4.183   2.802   2.756  0.3852  0.4646 -0.1768
 7869SOL    HW235241   4.184   2.927   2.849 -1.4122  0.4278  0.5817
 7870SOL     OW35242   1.597   3.102  17.469  0.0922  0.5069 -0.3834
 7870SOL    HW135243   1.688   3.104  17.498  0.5023  0.7894 -1.6609
 7870SOL    HW235244   1.559   3.165  17.530 -0.4685 -0.9486  0.7687
 7871SOL     OW35245   1.219   0.932   7.040  0.3920  0.5977 -0.0359
 7871SOL    HW135246   1.133   0.973   7.032 -0.1761 -0.9094 -1.7156
 7871SOL    HW235247   1.269   0.960   6.963 -1.1439 -0.1733 -1.3105
 7872SOL     OW35248   3.683   0.880  14.788  0.8048 -0.4955 -0.4093
 7872SOL    HW135249   3.665   0.967  14.752 -0.0524 -0.2621  0.5699
 7872SOL    HW235250   3.756   0.894  14.848 -0.0995 -0.4056  0.6592
 7873SOL     OW35251   0.029   1.619   6.560 -0.6651  0.9025  0.3017
 7873SOL    HW135252   0.016   1.661   6.475  1.3734  1.5560  0.3135
 7873SOL    HW235253   4.678   1.588   6.587 -0.4556  0.5920  0.6056
 7874SOL     OW35254   1.025   1.058   1.896 -0.7267 -0.9905 -0.4603
 7874SOL    HW135255   1.004   1.006   1.819 -0.7081 -1.7350  0.0383
 7874SOL    HW235256   0.939   1.080   1.933  0.2794  3.3683 -0.7674
 7875SOL     OW35257   1.399   3.986   3.298 -0.5166 -0.1788 -0.1161
 7875SOL    HW135258   1.439   4.072   3.307  2.1674 -1.3224 -0.9508
 7875SOL    HW235259   1.313   4.003   3.259 -0.8858  0.8210  1.1633
 7876SOL     OW35260   4.426   0.284  13.754  1.0757 -0.3242 -0.1201
 7876SOL    HW135261   4.351   0.317  13.803  0.8930  1.6672 -1.7634
 7876SOL    HW235262   4.495   0.345  13.780 -1.4747  0.8689  3.9314
 7877SOL     OW35263   2.450   3.935   0.111  0.2201  0.5060  0.2619
 7877SOL    HW135264   2.537   3.916   0.076 -0.1861 -1.5013  0.3838
 7877SOL    HW235265   2.414   3.983   0.036 -0.4876 -4.3518 -2.4689
 7878SOL     OW35266   1.601   0.691  15.964 -0.4506  0.2220  0.0653
 7878SOL    HW135267   1.535   0.757  15.982  0.0251  0.8717 -0.5913
 7878SOL    HW235268   1.545   0.613  15.974 -1.3907  1.0352  1.1437
 7879SOL     OW35269   1.359   2.353   2.858 -0.3630 -0.4071  0.0152
 7879SOL    HW135270   1.385   2.427   2.804  1.8769 -1.8038 -0.8377
 7879SOL    HW235271   1.422   2.366   2.929 -1.0935 -1.1283  0.7908
 7880SOL     OW35272   2.930   2.475  10.087  0.3548  0.0937 -0.4835
 7880SOL    HW135273   2.838   2.455  10.104  0.1700  1.9068  0.7420
 7880SOL    HW235274   2.934   2.565  10.120 -0.5382 -1.0658  2.8657
 7881SOL     OW35275   4.360   0.372  16.406  0.0010 -0.2713  0.1416
 7881SOL    HW135276   4.431   0.427  16.438  0.5316  0.3013 -2.0245
 7881SOL    HW235277   4.403   0.320  16.338 -0.6435 -0.9508  0.2564
 7882SOL     OW35278   2.164   2.667   6.785 -0.0105 -0.3914 -0.1271
 7882SOL    HW135279   2.138   2.723   6.858  1.2628  0.8879 -0.6722
 7882SOL    HW235280   2.255   2.694   6.780 -0.1809 -0.0641 -1.4111
 7883SOL     OW35281   0.226   1.161   8.676  0.8998  0.0323 -0.4242
 7883SOL    HW135282   0.210   1.241   8.726 -1.0741 -1.0255  0.5977
 7883SOL    HW235283   0.219   1.096   8.745 -3.5195  0.1131 -0.8072
 7884SOL     OW35284   2.868   2.020  10.784 -0.1477 -0.0141 -0.0374
 7884SOL    HW135285   2.900   1.992  10.869 -1.3682  0.4116  0.5668
 7884SOL    HW235286   2.846   2.112  10.800  1.6726  0.5547 -0.7945
 7885SOL     OW35287   0.190   3.041   2.339 -0.0101 -0.7116 -0.4178
 7885SOL    HW135288   0.145   2.970   2.384 -0.5815  0.4255  0.7837
 7885SOL    HW235289   0.162   3.115   2.392 -2.5887  0.2789 -3.1720
 7886SOL     OW35290   2.240   4.642   3.048 -0.1207  0.0440 -0.5208
 7886SOL    HW135291   2.265   4.713   2.989  2.5077 -0.6437 -0.2500
 7886SOL    HW235292   2.174   4.694   3.093  0.3466 -0.0092  0.2255
 7887SOL     OW35293   2.837   4.305  17.599 -0.0136  0.6909 -0.4007
 7887SOL    HW135294   2.778   4.370  17.638 -2.4842 -1.4264 -0.5820
 7887SOL    HW235295   2.821   4.324  17.507  0.9633  1.0667 -0.4890
 7888SOL     OW35296   1.967   3.371  16.556  0.4001 -0.3454 -0.5278
 7888SOL    HW135297   1.878   3.348  16.529 -0.3141 -0.2028  1.7184
 7888SOL    HW235298   1.998   3.285  16.586  0.0533  0.0275  0.8930
 7889SOL     OW35299   1.340   0.553   5.903  0.0887  0.7558  0.3896
 7889SOL    HW135300   1.331   0.462   5.876  1.2224  1.4807 -2.4125
 7889SOL    HW235301   1.252   0.591   5.906  0.4034  1.3912  1.6964
 7890SOL     OW35302   4.069   1.320   5.145 -0.1589 -0.2279  0.3738
 7890SOL    HW135303   4.099   1.410   5.159  1.0460 -0.8542  1.7660
 7890SOL    HW235304   4.035   1.319   5.055 -1.0795  2.0962  0.6932
 7891SOL     OW35305   1.322   2.500   8.648  0.4698 -0.0670 -0.2216
 7891SOL    HW135306   1.386   2.477   8.714  0.9494  1.1933 -0.2605
 7891SOL    HW235307   1.286   2.418   8.614  1.3015 -0.7172  0.4844
 7892SOL     OW35308   2.923   2.714   7.533 -0.0454  0.4591 -0.0882
 7892SOL    HW135309   2.989   2.720   7.464  0.2828  1.3383  0.2943
 7892SOL    HW235310   2.973   2.703   7.614  1.4533  0.2577 -1.0460
 7893SOL     OW35311   1.890   4.403  17.019 -0.0213 -0.3273 -0.0370
 7893SOL    HW135312   1.868   4.310  17.016  0.3532 -0.3676 -1.6130
 7893SOL    HW235313   1.986   4.393  17.019  0.1136  0.8585  1.1656
 7894SOL     OW35314   2.089   0.744   1.259  0.2423  0.3432  0.5565
 7894SOL    HW135315   2.184   0.746   1.267  0.2471  1.2055  0.1948
 7894SOL    HW235316   2.080   0.706   1.172 -1.7153  0.9523  0.5013
 7895SOL     OW35317   2.011   2.818   6.146 -0.3947  0.4523  0.2501
 7895SOL    HW135318   2.005   2.859   6.059 -2.7214 -1.3703 -0.4358
 7895SOL    HW235319   2.105   2.822   6.161 -0.0397  0.1545 -1.8555
 7896SOL     OW35320   0.789   4.392   6.024  0.0282 -0.1363 -0.1831
 7896SOL    HW135321   0.871   4.437   6.003  1.0819 -1.0682  2.0129
 7896SOL    HW235322   0.818   4.323   6.083 -0.7156  0.0677  0.4280
 7897SOL     OW35323   0.804   3.876   1.669 -0.0540  0.1672  0.4260
 7897SOL    HW135324   0.760   3.808   1.719 -1.1950 -0.2405 -1.1293
 7897SOL    HW235325   0.855   3.815   1.616  0.0926 -2.6656  3.8971
 7898SOL     OW35326   2.208   4.292   6.046  0.1581 -0.1234  0.2792
 7898SOL    HW135327   2.155   4.237   6.103 -0.0294 -0.2831 -0.0499
 7898SOL    HW235328   2.207   4.380   6.085 -3.0855 -1.3488  2.8570
 7899SOL     OW35329   0.042   4.308   5.095 -0.0981  0.0258  0.0729
 7899SOL    HW135330   0.071   4.345   5.012  1.8067 -1.3124  0.1575
 7899SOL    HW235331   4.713   4.244   5.063 -2.1754  1.8724  0.5292
 7900SOL     OW35332   2.429   0.418   0.263 -0.1884  0.5949 -0.0296
 7900SOL    HW135333   2.346   0.372   0.253  0.0104  0.6119 -1.7684
 7900SOL    HW235334   2.455   0.447   0.175 -0.2407  3.2020  0.8091
 7901SOL     OW35335   0.041   3.416   2.701 -0.2589  0.3388 -0.7388
 7901SOL    HW135336   0.082   3.440   2.618 -1.3571 -0.4168 -1.5159
 7901SOL    HW235337   0.097   3.467   2.758 -1.8316 -0.4682  1.5442
 7902SOL     OW35338   1.572   2.314   9.153 -0.3656 -0.5859 -0.7151
 7902SOL    HW135339   1.542   2.241   9.207 -1.4375  2.0386  2.2717
 7902SOL    HW235340   1.515   2.388   9.175  0.0957 -0.6679  0.7549
 7903SOL     OW35341   1.969   2.872  16.621  0.6169  0.2217 -0.2090
 7903SOL    HW135342   1.940   2.829  16.702  2.3280  1.0195  0.8167
 7903SOL    HW235343   1.925   2.819  16.555 -1.8577  1.6340  0.2808
 7904SOL     OW35344   4.355   3.021  16.790 -0.1915  0.1550  0.5973
 7904SOL    HW135345   4.390   2.948  16.841 -1.4291 -0.4460  0.5899
 7904SOL    HW235346   4.317   3.060  16.869 -0.7425  0.1681  0.3265
 7905SOL     OW35347   1.478   1.431   5.946  0.3571 -0.2172  0.3045
 7905SOL    HW135348   1.535   1.357   5.923  2.4341  1.9100 -1.4908
 7905SOL    HW235349   1.415   1.387   6.003  0.3827 -0.6694 -0.0197
 7906SOL     OW35350   0.695   4.460   6.391 -0.7515 -0.5149  0.0794
 7906SOL    HW135351   0.655   4.383   6.349  0.6327 -1.0069 -0.3142
 7906SOL    HW235352   0.783   4.466   6.354 -0.2655 -1.4096  1.0887
 7907SOL     OW35353   4.236   1.154   4.599  0.0319  0.7336  0.4109
 7907SOL    HW135354   4.286   1.131   4.678 -0.2405  2.2070  1.0049
 7907SOL    HW235355   4.280   1.230   4.562  0.2323  0.1051 -0.6269
 7908SOL     OW35356   3.506   4.207   7.052  0.8619 -0.0542  0.6267
 7908SOL    HW135357   3.558   4.169   6.982 -0.5510  1.2074 -1.1008
 7908SOL    HW235358   3.505   4.300   7.029 -2.7522  0.0497  1.2237
 7909SOL     OW35359   1.834   4.493   1.438  0.3162  0.3272 -0.1922
 7909SOL    HW135360   1.850   4.409   1.481  3.7991  1.6510  1.1519
 7909SOL    HW235361   1.747   4.521   1.464  0.6228  1.7503 -0.7111
 7910SOL     OW35362   1.866   0.275   6.035  0.4694 -0.2108  0.0224
 7910SOL    HW135363   1.798   0.223   6.079 -0.4705  1.5934  0.7168
 7910SOL    HW235364   1.898   0.319   6.113  2.1199  2.0085 -1.8986
 7911SOL     OW35365   4.176   3.634   4.786  0.3041  0.8643  0.2145
 7911SOL    HW135366   4.241   3.703   4.795  1.2184  0.1897 -1.2799
 7911SOL    HW235367   4.224   3.565   4.832  1.8524  0.8896 -1.3935
 7912SOL     OW35368   1.092   4.646  16.328 -0.8154  0.2336  0.3708
 7912SOL    HW135369   1.071   4.656  16.421 -0.9519  3.6894 -0.0275
 7912SOL    HW235370   1.164   4.583  16.332 -4.1310 -3.6117 -0.2583
 7913SOL     OW35371   2.710   1.801   6.265 -0.4854  0.1884 -0.3458
 7913SOL    HW135372   2.660   1.732   6.307 -0.9952  1.7330  1.5368
 7913SOL    HW235373   2.692   1.877   6.319  3.6217 -0.5732  2.0790
 7914SOL     OW35374   1.804   4.469   2.487 -0.1348 -0.3724  0.5495
 7914SOL    HW135375   1.886   4.484   2.533  0.0121  0.3063  0.0744
 7914SOL    HW235376   1.839   4.460   2.398 -0.3094 -0.2428  0.4683
 7915SOL     OW35377   3.048   4.143  11.709 -0.3031  0.2213  0.3709
 7915SOL    HW135378   3.113   4.072  11.704 -0.3520  0.1741  0.4055
 7915SOL    HW235379   3.061   4.191  11.628  1.9453 -1.6174 -0.3717
 7916SOL     OW35380   1.848   0.913   5.841  0.2516 -0.1019  0.5112
 7916SOL    HW135381   1.759   0.929   5.810  0.1768  1.9513  1.7418
 7916SOL    HW235382   1.825   0.922   5.934 -3.4241 -2.7431 -0.1321
 7917SOL     OW35383   0.342   0.826   3.253 -0.2916  0.4823 -0.1339
 7917SOL    HW135384   0.364   0.884   3.180 -1.8800  0.9103 -0.2713
 7917SOL    HW235385   0.251   0.852   3.267 -0.9079 -2.0104  0.4282
 7918SOL     OW35386   0.894   0.318  10.188  0.6914  0.1857 -0.1718
 7918SOL    HW135387   0.979   0.361  10.177  0.0017  2.1678  2.3341
 7918SOL    HW235388   0.919   0.231  10.220  0.4742  0.6530  1.2536
 7919SOL     OW35389   0.164   4.264   3.738 -0.1185 -1.4753  0.3456
 7919SOL    HW135390   0.233   4.218   3.690 -0.6035  0.2122 -1.9788
 7919SOL    HW235391   0.145   4.211   3.815 -0.0721 -1.6300  0.2491
 7920SOL     OW35392   1.981   2.819  15.559  0.1720 -0.5872 -0.2376
 7920SOL    HW135393   1.984   2.725  15.580 -0.9657 -0.8391 -1.1943
 7920SOL    HW235394   2.013   2.857  15.641 -2.8394  1.5714 -0.0592
 7921SOL     OW35395   2.851   1.987   8.626  0.1951  0.0992 -0.1797
 7921SOL    HW135396   2.931   1.960   8.580 -0.1212 -0.0573 -0.6296
 7921SOL    HW235397   2.789   1.915   8.614  0.5199 -0.3549  0.8219
 7922SOL     OW35398   2.102   1.089  16.051  0.3764  0.2513 -0.1764
 7922SOL    HW135399   2.092   1.125  15.963 -0.5185 -2.0723 -1.0178
 7922SOL    HW235400   2.030   1.129  16.099  0.3814  1.2041 -0.9724
 7923SOL     OW35401   3.602   0.102   1.729  0.1256 -0.4503 -0.9448
 7923SOL    HW135402   3.518   0.062   1.754  1.3496 -1.2301  1.9044
 7923SOL    HW235403   3.660   0.033   1.761 -0.8518  0.3425  2.5256
 7924SOL     OW35404   0.443   0.559   7.151 -0.1515  0.1243  0.3894
 7924SOL    HW135405   0.349   0.555   7.163  0.0474  0.9027  2.1994
 7924SOL    HW235406   0.457   0.464   7.144 -0.4889  0.1459 -0.6316
 7925SOL     OW35407   4.447   0.498   8.147 -0.4867 -0.4042 -0.1251
 7925SOL    HW135408   4.381   0.526   8.211 -0.2355 -0.0580 -0.0235
 7925SOL    HW235409   4.528   0.536   8.181 -1.6328  1.2246  0.7473
 7926SOL     OW35410   0.656   1.228  16.260  0.3837  0.1648 -0.2638
 7926SOL    HW135411   0.652   1.139  16.296  0.4296  0.1600 -0.2710
 7926SOL    HW235412   0.674   1.202  16.169  4.5481  0.9952  0.3489
 7927SOL     OW35413   3.235   3.584   7.285  0.0427  0.3369  0.2408
 7927SOL    HW135414   3.193   3.521   7.344  0.5161 -0.0488  0.1693
 7927SOL    HW235415   3.189   3.667   7.293 -3.0548 -1.4255  0.8647
 7928SOL     OW35416   1.414   4.197   5.880  0.2860  0.2613 -0.0023
 7928SOL    HW135417   1.325   4.162   5.869  0.4302  0.2919 -1.2292
 7928SOL    HW235418   1.419   4.246   5.798  2.5020  0.4571  0.2606
 7929SOL     OW35419   1.866   0.589   1.374 -0.5743  0.4740  0.1517
 7929SOL    HW135420   1.927   0.649   1.332 -1.3203  2.1713  1.4924
 7929SOL    HW235421   1.818   0.653   1.426  0.2286  2.6644 -1.7918
 7930SOL     OW35422   1.994   1.583   3.932  0.3235 -0.0349 -0.2687
 7930SOL    HW135423   1.907   1.607   3.903 -0.0060 -1.8514 -0.7731
 7930SOL    HW235424   1.967   1.572   4.024  2.8142 -0.8942  0.3764
 7931SOL     OW35425   0.385   1.348   8.211  0.5156 -0.8870 -0.1928
 7931SOL    HW135426   0.391   1.435   8.251  1.8941 -0.8315 -0.5101
 7931SOL    HW235427   0.460   1.343   8.151  2.3162 -1.3325  2.0935
 7932SOL     OW35428   1.006   0.300  15.796 -0.5823  0.4504 -0.2061
 7932SOL    HW135429   1.035   0.300  15.705  1.5516  2.2311  0.4855
 7932SOL    HW235430   0.943   0.228  15.802  0.8188 -0.7161  0.4534
 7933SOL     OW35431   1.338   2.217   5.308 -0.5663 -0.1377  0.1551
 7933SOL    HW135432   1.255   2.187   5.269 -0.9328  2.9599 -1.4104
 7933SOL    HW235433   1.305   2.244   5.394  0.3650 -0.6200  0.6622
 7934SOL     OW35434   4.067   4.483   3.473  0.1609  0.3923 -0.3281
 7934SOL    HW135435   4.003   4.477   3.544 -1.4445 -1.2875 -1.8982
 7934SOL    HW235436   4.010   4.442   3.407  0.6087 -0.9165  0.1080
 7935SOL     OW35437   1.686   0.551   5.138  0.5857 -0.1373  0.0583
 7935SOL    HW135438   1.708   0.618   5.073  1.6414 -0.9299 -0.3831
 7935SOL    HW235439   1.739   0.484   5.096  0.3760 -0.5562  0.4711
 7936SOL     OW35440   1.627   2.795   1.267  0.2552 -0.1989 -0.5096
 7936SOL    HW135441   1.675   2.714   1.250  1.6661  1.0756 -2.6246
 7936SOL    HW235442   1.625   2.841   1.183  0.8750  0.3332 -0.2309
 7937SOL     OW35443   4.506   1.353  10.315  0.0199 -0.5667 -0.1534
 7937SOL    HW135444   4.586   1.347  10.264 -0.4653 -2.7222 -0.6747
 7937SOL    HW235445   4.499   1.279  10.375  2.1226 -0.7936 -0.2062
 7938SOL     OW35446   2.953   1.613   0.092  0.8828  0.1533  0.5034
 7938SOL    HW135447   2.873   1.634   0.141 -0.5831 -1.6410 -1.1207
 7938SOL    HW235448   2.908   1.582   0.013 -0.8697  2.4425  0.5872
 7939SOL     OW35449   0.277   0.445   3.187 -0.1991  0.0268  0.6427
 7939SOL    HW135450   0.196   0.491   3.208  0.6296  0.9899  1.7129
 7939SOL    HW235451   0.295   0.398   3.269  1.6634  2.1353  1.4320
 7940SOL     OW35452   3.314   0.924   2.684 -0.8889 -0.4279  0.2231
 7940SOL    HW135453   3.344   1.015   2.688 -0.5578 -0.5625  0.8469
 7940SOL    HW235454   3.309   0.904   2.590 -3.3542 -0.6821  0.3927
 7941SOL     OW35455   2.162   4.556  10.583  0.1037  0.8293  0.1851
 7941SOL    HW135456   2.095   4.609  10.627 -1.2234 -0.2816 -0.4910
 7941SOL    HW235457   2.207   4.630  10.544  1.2491 -0.2393 -0.5155
 7942SOL     OW35458   3.372   1.580   3.091 -0.1166  0.2440  0.1718
 7942SOL    HW135459   3.458   1.540   3.087  0.7146  2.2017 -1.7402
 7942SOL    HW235460   3.392   1.669   3.119  3.1607 -0.6845  0.6903
 7943SOL     OW35461   1.210   2.920   2.266 -0.3229 -0.5144  0.0153
 7943SOL    HW135462   1.216   2.854   2.197 -0.9537 -1.1716  0.5980
 7943SOL    HW235463   1.132   2.968   2.239  0.3464  1.3725  1.4402
 7944SOL     OW35464   3.562   4.610   1.100 -0.1159 -0.0418 -0.2124
 7944SOL    HW135465   3.545   4.523   1.065  1.0174 -0.5281  0.4511
 7944SOL    HW235466   3.472   4.639   1.115  0.4426  1.4104  0.2843
 7945SOL     OW35467   3.467   3.659   8.310  0.3408 -0.1414 -0.0306
 7945SOL    HW135468   3.476   3.691   8.220 -0.0275 -0.0622 -0.0425
 7945SOL    HW235469   3.553   3.675   8.347  0.8356  0.2823 -1.3578
 7946SOL     OW35470   0.702   1.051  10.849 -0.9806 -0.3337  0.5774
 7946SOL    HW135471   0.661   1.094  10.924 -1.1378  1.3368 -0.4653
 7946SOL    HW235472   0.732   0.975  10.899  1.2477 -0.6909 -1.3188
 7947SOL     OW35473   2.731   1.374   5.925  0.4235  0.5231 -0.5892
 7947SOL    HW135474   2.641   1.354   5.897  0.9279 -2.0388 -0.3570
 7947SOL    HW235475   2.786   1.333   5.858 -1.4406 -0.4110 -1.5574
 7948SOL     OW35476   0.876   1.710  11.726  0.4637 -0.3050 -0.7384
 7948SOL    HW135477   0.830   1.630  11.750  1.9901 -1.3710 -1.3539
 7948SOL    HW235478   0.963   1.671  11.733  0.3213 -0.5325 -0.2534
 7949SOL     OW35479   0.332   1.605   1.370  0.0421  0.0144  0.0308
 7949SOL    HW135480   0.421   1.632   1.395 -0.1128  0.3374  0.2488
 7949SOL    HW235481   0.314   1.527   1.422 -0.7590 -0.3134 -0.7380
 7950SOL     OW35482   3.912   0.393   1.691 -0.0654 -0.1580 -0.7492
 7950SOL    HW135483   3.917   0.346   1.608  0.7869  0.2236 -0.9126
 7950SOL    HW235484   3.852   0.339   1.743 -0.3904 -0.2066 -1.1808
 7951SOL     OW35485   2.666   1.816   8.505 -0.3653 -0.1433 -0.6872
 7951SOL    HW135486   2.618   1.887   8.463  0.1742 -0.9639 -2.6787
 7951SOL    HW235487   2.707   1.775   8.429 -1.5395  0.1655 -1.4811
 7952SOL     OW35488   3.901   3.047   5.349 -0.1063 -0.0986  0.3244
 7952SOL    HW135489   3.838   3.050   5.421 -0.3828  1.3850  0.0104
 7952SOL    HW235490   3.913   3.139   5.328 -3.2379  0.0366 -1.0394
 7953SOL     OW35491   0.038   2.616  10.894 -0.0940  0.3942 -0.2109
 7953SOL    HW135492   0.018   2.710  10.886  0.8474  0.6707  0.6922
 7953SOL    HW235493   0.086   2.605  10.812 -0.6337 -0.4662 -0.4065
 7954SOL     OW35494   2.652   0.025   4.681 -0.0731  0.3563 -0.7644
 7954SOL    HW135495   2.622   0.115   4.670 -1.2928 -0.0658 -0.8636
 7954SOL    HW235496   2.636   0.022   4.775 -0.4325 -0.9133 -0.8659
 7955SOL     OW35497   0.636   1.727   6.908  0.2100 -0.0630  0.3358
 7955SOL    HW135498   0.642   1.692   6.997  0.1487  1.3724  0.9126
 7955SOL    HW235499   0.543   1.704   6.897  0.4220 -0.6880 -0.1175
 7956SOL     OW35500   0.709   2.827   9.768  0.4125 -0.1905 -0.2804
 7956SOL    HW135501   0.652   2.820   9.845  0.1341  1.4632 -0.3452
 7956SOL    HW235502   0.777   2.764   9.795 -1.8248 -0.9131  3.7416
 7957SOL     OW35503   4.145   4.700   3.641  0.1621  0.0195  0.1495
 7957SOL    HW135504   4.126   4.617   3.597  0.0731  0.1900 -0.1368
 7957SOL    HW235505   4.147   4.676   3.734 -1.7465  0.6376  0.3480
 7958SOL     OW35506   2.542   2.658  15.056  0.1525  0.1747  0.2015
 7958SOL    HW135507   2.472   2.722  15.068 -2.1550 -2.2135 -0.6113
 7958SOL    HW235508   2.530   2.593  15.126  0.6452  0.2505  0.3628
 7959SOL     OW35509   2.991   2.740  10.153  0.0052 -0.1100 -0.6596
 7959SOL    HW135510   2.921   2.758  10.215 -0.5296 -0.7860 -1.0586
 7959SOL    HW235511   3.067   2.787  10.189  0.5708 -0.5554 -1.2627
 7960SOL     OW35512   2.621   0.652   7.408  0.7218  0.5061 -0.4163
 7960SOL    HW135513   2.666   0.567   7.402  1.9549  1.2694 -1.8750
 7960SOL    HW235514   2.529   0.634   7.423  0.4915  1.5852 -0.5549
 7961SOL     OW35515   4.477   1.642  12.300  0.0930 -0.2494  0.0378
 7961SOL    HW135516   4.409   1.653  12.233 -0.3531 -1.0927  0.3423
 7961SOL    HW235517   4.527   1.570  12.261 -1.7279 -0.4827 -1.8620
 7962SOL     OW35518   1.993   0.822  16.902  0.6901 -0.3201  0.1254
 7962SOL    HW135519   1.931   0.844  16.972 -0.6491  2.2234 -1.8908
 7962SOL    HW235520   2.071   0.808  16.957  1.0115  0.1531 -0.2127
 7963SOL     OW35521   2.129   2.580   1.945 -0.1418 -0.1463 -0.2440
 7963SOL    HW135522   2.179   2.615   1.871 -1.8191 -2.5783 -2.5223
 7963SOL    HW235523   2.182   2.612   2.018 -1.4758  0.3454  0.5119
 7964SOL     OW35524   1.285   2.952   9.461  0.6058 -0.5708 -0.0324
 7964SOL    HW135525   1.283   2.886   9.531  2.6409  1.5552  2.0458
 7964SOL    HW235526   1.331   3.018   9.514 -0.9750 -0.8339  1.6561
 7965SOL     OW35527   2.605   4.149   4.499 -0.0941 -0.1837 -0.1422
 7965SOL    HW135528   2.678   4.139   4.560  0.1869  1.5420 -0.2208
 7965SOL    HW235529   2.659   4.165   4.422  0.0016  3.1865  0.6562
 7966SOL     OW35530   1.142   1.443  12.124 -0.0489 -0.1080  0.5354
 7966SOL    HW135531   1.051   1.473  12.125  0.1825  0.5836  0.5141
 7966SOL    HW235532   1.124   1.349  12.125  1.1466 -0.3120  2.7679
 7967SOL     OW35533   0.760   0.050   7.946 -0.4355  0.7337  0.1522
 7967SOL    HW135534   0.745   0.008   7.862 -0.1704  2.4368 -0.7445
 7967SOL    HW235535   0.823   0.117   7.919  1.1883 -1.3209 -1.1508
 7968SOL     OW35536   1.610   2.465  16.940 -1.3800  0.0838 -0.2060
 7968SOL    HW135537   1.655   2.395  16.988 -0.7620 -0.4318 -1.5508
 7968SOL    HW235538   1.587   2.423  16.857 -0.2109  0.4567 -0.7201
 7969SOL     OW35539   2.402   4.377   0.806 -0.0046 -0.3702 -0.0677
 7969SOL    HW135540   2.315   4.417   0.796 -0.5583 -1.7784 -0.9704
 7969SOL    HW235541   2.399   4.299   0.751  1.7789 -0.4320 -0.0602
 7970SOL     OW35542   3.442   0.085  12.591 -0.6541 -0.8120  0.8065
 7970SOL    HW135543   3.425   0.150  12.522 -2.6612 -1.9751  0.2330
 7970SOL    HW235544   3.535   0.104  12.605 -0.1853 -2.0288 -0.5762
 7971SOL     OW35545   0.592   2.735   2.291  0.4353 -0.3605 -0.3451
 7971SOL    HW135546   0.687   2.745   2.285  0.3097  2.2338  2.4282
 7971SOL    HW235547   0.558   2.821   2.315 -0.6418 -0.2067 -2.4477
 7972SOL     OW35548   1.035   3.588   6.680 -1.0727 -0.2332  0.1334
 7972SOL    HW135549   0.958   3.613   6.629 -1.3127 -0.6218  0.3055
 7972SOL    HW235550   1.102   3.643   6.639 -0.7117 -0.3205  0.5987
 7973SOL     OW35551   0.535   4.066   5.003 -0.1397  0.3736  0.7220
 7973SOL    HW135552   0.537   4.059   5.099 -2.7419  1.9962  0.8848
 7973SOL    HW235553   0.520   3.972   4.987 -0.4251  0.5604 -0.0681
 7974SOL     OW35554   0.022   0.619   9.489 -0.1176  0.5549  0.0616
 7974SOL    HW135555   0.085   0.686   9.515  0.5133  0.3815 -1.0064
 7974SOL    HW235556   0.083   0.556   9.451  0.7598  0.0868  2.2250
 7975SOL     OW35557   4.305   0.200  10.099  0.4189  0.4834  0.6811
 7975SOL    HW135558   4.218   0.165  10.081  0.6673  0.0924  0.2429
 7975SOL    HW235559   4.281   0.232  10.186 -0.2013  1.3630  0.1870
 7976SOL     OW35560   1.112   4.056  17.132  0.5077 -0.2811 -0.2719
 7976SOL    HW135561   1.186   4.099  17.088 -0.3971  2.3430  0.7399
 7976SOL    HW235562   1.061   4.024  17.059 -0.7820 -1.4395  1.1439
 7977SOL     OW35563   4.191   2.101   3.487  0.2623 -0.3371  0.1961
 7977SOL    HW135564   4.189   2.154   3.407 -0.4816 -1.7926 -0.7515
 7977SOL    HW235565   4.151   2.161   3.551 -1.5077 -1.0496 -0.2227
 7978SOL     OW35566   0.141   4.384   1.488  0.2100 -0.0723 -0.1614
 7978SOL    HW135567   0.226   4.387   1.446 -0.5391 -1.2142 -1.7584
 7978SOL    HW235568   0.104   4.472   1.486  2.4827  0.8857  0.0035
 7979SOL     OW35569   4.684   0.157   7.625  0.6314 -0.7433 -0.6101
 7979SOL    HW135570   0.022   0.218   7.622  0.9592 -0.9718  2.8906
 7979SOL    HW235571   4.630   0.209   7.566  1.1210 -3.2302 -3.2372
 7980SOL     OW35572   0.149   2.950   4.851  0.1512  0.3662  0.2077
 7980SOL    HW135573   0.063   2.931   4.890  0.6602  1.7667  2.0219
 7980SOL    HW235574   0.201   2.874   4.878  1.2401  1.2823  0.6963
 7981SOL     OW35575   2.476   1.657  11.572 -0.2783 -0.5114 -0.5990
 7981SOL    HW135576   2.384   1.631  11.563  0.6000 -3.2164 -1.8184
 7981SOL    HW235577   2.471   1.680  11.665  0.0052 -0.6899 -0.5375
 7982SOL     OW35578   2.855   0.290   4.009 -0.1446 -0.5167  0.4106
 7982SOL    HW135579   2.764   0.311   4.031  0.0679  0.8876 -0.0148
 7982SOL    HW235580   2.885   0.204   4.039 -1.6392 -1.1416  0.1033
 7983SOL     OW35581   1.113   0.875  13.628 -0.1743  0.3694  0.2758
 7983SOL    HW135582   1.071   0.948  13.674  0.2290  0.1699  0.9677
 7983SOL    HW235583   1.094   0.911  13.541  1.2300  2.7059  0.9340
 7984SOL     OW35584   2.463   2.583   7.350  0.0231 -0.3172 -0.4561
 7984SOL    HW135585   2.381   2.632   7.358  1.1383  1.6252 -0.8336
 7984SOL    HW235586   2.529   2.651   7.362  0.7550 -1.0191 -0.5197
 7985SOL     OW35587   3.962   3.649  14.143  0.3545 -0.4126 -0.0129
 7985SOL    HW135588   3.969   3.657  14.048  0.9348  1.4091  0.1819
 7985SOL    HW235589   4.044   3.608  14.172 -0.9259 -1.6494  1.8191
 7986SOL     OW35590   0.452   1.996   6.962 -0.3510 -0.4071  0.0221
 7986SOL    HW135591   0.475   2.035   7.046 -1.7287  1.7640 -0.6180
 7986SOL    HW235592   0.357   1.987   6.970 -0.2769 -0.7067  0.6454
 7987SOL     OW35593   3.888   0.973   6.055 -0.1013  0.9087 -0.0357
 7987SOL    HW135594   3.818   0.918   6.021 -0.3733  0.5064  1.2055
 7987SOL    HW235595   3.955   0.941   5.994 -0.6044 -0.4785  0.1414
 7988SOL     OW35596   3.432   4.037   0.372  0.1663  0.5455 -0.8143
 7988SOL    HW135597   3.523   4.061   0.387  0.0485  1.1405 -1.0447
 7988SOL    HW235598   3.447   3.982   0.295 -0.2406 -1.7775  0.7455
 7989SOL     OW35599   4.612   3.671  17.404 -0.3310  0.5866 -0.1417
 7989SOL    HW135600   4.638   3.585  17.435 -0.1666  1.4451  2.0847
 7989SOL    HW235601   4.700   3.698  17.378 -0.8521  1.6408 -0.8351
 7990SOL     OW35602   3.543   3.671   0.472 -0.4058 -0.5601 -0.1631
 7990SOL    HW135603   3.521   3.596   0.416  1.0558 -0.0768 -1.4064
 7990SOL    HW235604   3.455   3.707   0.478 -0.3720 -0.5782  0.3899
 7991SOL     OW35605   2.122   1.230  12.232  1.1203 -0.0367 -0.7393
 7991SOL    HW135606   2.141   1.251  12.323 -3.4859  0.4562  0.1290
 7991SOL    HW235607   2.168   1.147  12.221  1.8788  0.3990 -0.8386
 7992SOL     OW35608   1.179   1.096  10.296  0.4709 -0.2465 -0.5248
 7992SOL    HW135609   1.121   1.120  10.368  1.6600  0.3507  0.2331
 7992SOL    HW235610   1.164   1.153  10.221 -0.0926 -1.0335 -1.0133
 7993SOL     OW35611   1.096   2.032   4.148 -0.1073 -0.6581  0.1623
 7993SOL    HW135612   1.150   2.001   4.076 -1.6280 -0.9476 -0.8635
 7993SOL    HW235613   1.029   1.964   4.156  1.3058 -2.0513  0.0931
 7994SOL     OW35614   0.809   2.863   2.750 -0.1931  0.4698  0.4694
 7994SOL    HW135615   0.761   2.871   2.832 -0.2830 -0.1839  0.4802
 7994SOL    HW235616   0.747   2.808   2.702 -0.5691  0.6396  0.7697
 7995SOL     OW35617   2.353   1.518   1.888  0.3810  0.1747 -0.1128
 7995SOL    HW135618   2.409   1.443   1.869 -1.7656 -1.6464  0.8579
 7995SOL    HW235619   2.360   1.538   1.982  1.7224 -1.6322  0.1819
 7996SOL     OW35620   0.714   0.907  14.040 -0.2508 -0.1840 -0.2012
 7996SOL    HW135621   0.737   0.829  14.091  0.0166  0.8750  1.2914
 7996SOL    HW235622   0.731   0.871  13.953 -0.5809  3.4224 -1.7836
 7997SOL     OW35623   3.977   3.269   2.010  0.3027 -0.2132 -0.4024
 7997SOL    HW135624   3.934   3.325   2.075  3.4369  1.4051  0.2743
 7997SOL    HW235625   4.012   3.206   2.073  1.0699 -0.7397 -1.3485
 7998SOL     OW35626   0.094   4.211   7.409 -0.1665  0.0267  0.0946
 7998SOL    HW135627   0.006   4.209   7.448 -0.5492  3.8623 -0.5876
 7998SOL    HW235628   0.100   4.117   7.392 -1.0153 -0.2690  1.4718
 7999SOL     OW35629   3.609   1.652  13.604  0.2896  0.1845  0.9792
 7999SOL    HW135630   3.538   1.707  13.571  1.2477  0.6859 -0.2945
 7999SOL    HW235631   3.681   1.689  13.553 -0.2748 -0.2617 -0.1362
 8000SOL     OW35632   2.118   2.495   2.605 -0.0483  0.2977  0.1603
 8000SOL    HW135633   2.131   2.410   2.646  0.4895  0.4281  0.2572
 8000SOL    HW235634   2.132   2.471   2.514 -1.7530  2.6551 -0.7319
 8001SOL     OW35635   1.431   3.130   9.606 -0.2869 -0.1185  0.3000
 8001SOL    HW135636   1.439   3.077   9.685  2.3852  0.5862  0.5035
 8001SOL    HW235637   1.522   3.130   9.576 -1.5830 -1.5727 -3.6074
 8002SOL     OW35638   4.355   2.584   3.732 -0.2164  0.3662 -0.1866
 8002SOL    HW135639   4.343   2.675   3.758 -0.3236 -0.2091  1.8033
 8002SOL    HW235640   4.449   2.567   3.719 -0.4398 -1.6931  0.9995
 8003SOL     OW35641   0.101   3.900   4.663 -0.0305  0.6021  0.4226
 8003SOL    HW135642   0.056   3.913   4.747 -0.6642  0.9829  0.0316
 8003SOL    HW235643   0.020   3.922   4.615 -0.7827  0.9698  1.8573
 8004SOL     OW35644   4.007   2.605   8.517  0.1062 -0.1165  0.1440
 8004SOL    HW135645   3.963   2.590   8.434 -1.0889 -1.4382  1.0117
 8004SOL    HW235646   4.045   2.691   8.497 -4.3716  1.2480 -2.3183
 8005SOL     OW35647   1.609   0.866   1.413 -0.0348  0.3009 -0.1784
 8005SOL    HW135648   1.600   0.825   1.499 -1.1169  2.5708  0.7861
 8005SOL    HW235649   1.695   0.907   1.425 -0.2438  0.9834 -1.0042
 8006SOL     OW35650   4.362   4.381   0.200 -0.2735 -0.9268 -0.5324
 8006SOL    HW135651   4.414   4.316   0.248  0.7175  0.4520  0.2693
 8006SOL    HW235652   4.405   4.398   0.117  3.2795 -2.5547  0.9597
 8007SOL     OW35653   0.981   2.491   0.166  0.1845 -0.0210 -0.2678
 8007SOL    HW135654   1.040   2.565   0.153  1.0102 -0.9786 -2.0792
 8007SOL    HW235655   0.948   2.508   0.254  1.4204 -3.1763  0.8277
 8008SOL     OW35656   1.241   2.438   8.024 -0.2760 -0.1241 -0.2304
 8008SOL    HW135657   1.257   2.373   8.092  0.9856 -0.7120 -1.0974
 8008SOL    HW235658   1.240   2.382   7.946 -2.1228 -2.8660  1.7645
 8009SOL     OW35659   3.599   3.841  16.701 -0.3972 -0.3504  0.5286
 8009SOL    HW135660   3.641   3.901  16.639 -1.2866 -0.5284 -0.2366
 8009SOL    HW235661   3.537   3.901  16.742  1.1342  1.0240  0.8853
 8010SOL     OW35662   3.567   3.980   3.655 -0.2008  0.2285 -0.7811
 8010SOL    HW135663   3.509   4.053   3.678  0.2265  0.3097  0.0309
 8010SOL    HW235664   3.500   3.930   3.608 -2.1224  0.1236  2.0264
 8011SOL     OW35665   1.708   4.177   1.697  0.0421 -0.0371 -0.0600
 8011SOL    HW135666   1.740   4.121   1.626  0.8507  0.5514 -0.1591
 8011SOL    HW235667   1.778   4.241   1.685 -0.0778 -0.2659 -2.0030
 8012SOL     OW35668   4.676   2.031   5.273 -0.0642  0.4283 -0.1584
 8012SOL    HW135669   4.676   2.060   5.182  0.5261  0.0691 -0.2701
 8012SOL    HW235670   4.721   1.947   5.271 -1.0765 -0.1269  0.5413
 8013SOL     OW35671   2.969   0.904   0.877 -0.1301  0.5001 -0.4041
 8013SOL    HW135672   2.997   0.855   0.800 -0.4875 -0.3701  0.0194
 8013SOL    HW235673   2.920   0.979   0.843  1.1934  1.1270 -0.9387
 8014SOL     OW35674   0.690   0.025   6.642  1.0093  0.0794 -0.1818
 8014SOL    HW135675   0.631   4.703   6.592  0.1258  0.5465  0.3132
 8014SOL    HW235676   0.771   4.717   6.617  2.0826  1.5766  0.6603
 8015SOL     OW35677   3.455   0.793  14.351  0.5626  0.2775 -0.5849
 8015SOL    HW135678   3.391   0.761  14.415 -0.1181 -2.9019 -2.8633
 8015SOL    HW235679   3.530   0.795  14.410  1.4766 -0.4144 -1.7198
 8016SOL     OW35680   2.780   1.450  15.496 -0.0147  0.1754  0.6302
 8016SOL    HW135681   2.746   1.484  15.413  0.8149 -2.1746 -0.6673
 8016SOL    HW235682   2.869   1.431  15.465 -0.4120  2.4772 -1.9078
 8017SOL     OW35683   0.360   0.793  17.702  0.0567 -0.5335  0.1960
 8017SOL    HW135684   0.416   0.848   0.015  0.4907 -0.4509 -0.3373
 8017SOL    HW235685   0.274   0.785   0.003 -0.6862  0.7012 -1.1088
 8018SOL     OW35686   1.803   2.009   1.965  0.6922  0.1678  0.5222
 8018SOL    HW135687   1.851   2.031   2.045  1.5219 -2.1337  0.6689
 8018SOL    HW235688   1.852   2.061   1.901 -0.3786  2.0063  1.2178
 8019SOL     OW35689   0.702   0.727   8.516 -0.4411  0.3003  0.3167
 8019SOL    HW135690   0.739   0.813   8.494  0.3066  0.3072  1.5850
 8019SOL    HW235691   0.783   0.714   8.566 -0.9282 -2.1055  0.4869
 8020SOL     OW35692   3.661   0.967   4.035 -0.3508 -0.3920 -0.3107
 8020SOL    HW135693   3.630   0.881   4.065 -1.6650  2.0834  5.2998
 8020SOL    HW235694   3.739   0.942   3.985 -0.1778  0.4705 -0.4672
 8021SOL     OW35695   3.750   2.578  11.757  0.0581  0.0927  0.2101
 8021SOL    HW135696   3.677   2.545  11.809 -2.2396  3.6247 -0.7363
 8021SOL    HW235697   3.732   2.672  11.759 -0.5739 -0.0413  0.7597
 8022SOL     OW35698   3.443   1.457   4.133  0.0605  0.0214 -0.1697
 8022SOL    HW135699   3.537   1.458   4.117  0.6231 -2.0207  3.0752
 8022SOL    HW235700   3.417   1.547   4.114  0.9259 -0.3923 -3.2571
 8023SOL     OW35701   4.332   2.862   5.987  0.3891  0.6831 -0.2064
 8023SOL    HW135702   4.320   2.781   5.938  1.4425  0.1606  0.3976
 8023SOL    HW235703   4.424   2.840   5.998  0.3561 -0.0399 -1.4551
 8024SOL     OW35704   4.324   3.680   3.765  0.8382 -0.2929  0.2828
 8024SOL    HW135705   4.323   3.600   3.817  0.3982  0.1294  0.9304
 8024SOL    HW235706   4.274   3.741   3.819  0.2225 -0.3688 -0.1928
 8025SOL     OW35707   1.326   3.111   2.658  0.4512 -0.4222 -0.6562
 8025SOL    HW135708   1.242   3.068   2.672 -0.5390  1.7974  0.2508
 8025SOL    HW235709   1.362   3.053   2.591  0.4269  0.1250 -1.1553
 8026SOL     OW35710   4.320   0.443   9.485  0.1361  0.1823 -0.4757
 8026SOL    HW135711   4.276   0.528   9.493  1.9790  1.1919 -1.1846
 8026SOL    HW235712   4.277   0.397   9.413 -0.6049  0.2670 -0.0970
 8027SOL     OW35713   2.431   0.617   9.042 -0.4803  0.0382  0.0269
 8027SOL    HW135714   2.377   0.671   8.983  1.8420 -0.0144 -2.1530
 8027SOL    HW235715   2.370   0.573   9.101 -0.6300  1.2748  0.7900
 8028SOL     OW35716   1.799   1.274   5.250 -0.0874  0.3024 -0.0107
 8028SOL    HW135717   1.835   1.207   5.308 -0.7824  1.8056  2.1415
 8028SOL    HW235718   1.764   1.332   5.317 -1.9462 -0.7024 -0.0922
 8029SOL     OW35719   3.600   0.036  17.467 -0.0948 -0.1368  0.0533
 8029SOL    HW135720   3.573   4.730  17.385  1.9870  0.6118 -0.9982
 8029SOL    HW235721   3.518   0.040  17.516 -1.1657  1.1924 -1.8510
 8030SOL     OW35722   4.202   1.274   7.556  0.0572 -0.4013 -0.2230
 8030SOL    HW135723   4.276   1.282   7.615 -0.5333 -0.5945  0.5419
 8030SOL    HW235724   4.128   1.270   7.616  0.4881  1.0176  0.3906
 8031SOL     OW35725   1.050   0.089   1.935 -0.0008 -0.5549  0.6092
 8031SOL    HW135726   1.103   0.010   1.935  2.5386  1.1515  0.2523
 8031SOL    HW235727   0.987   0.076   2.005 -1.9426 -0.6212 -1.1480
 8032SOL     OW35728   0.290   3.454   3.987  0.0114  0.4368  0.3017
 8032SOL    HW135729   0.235   3.431   4.062 -0.8304  2.5860  0.3665
 8032SOL    HW235730   0.330   3.537   4.014 -0.4668  0.3472  1.2772
 8033SOL     OW35731   1.413   4.501   5.851  0.2023 -0.5158 -0.3514
 8033SOL    HW135732   1.390   4.472   5.939  1.4002 -0.4844 -0.0280
 8033SOL    HW235733   1.322   4.493   5.823  0.2625  1.5313 -1.1718
 8034SOL     OW35734   2.134   2.490  15.374 -0.3594  0.9794 -0.6869
 8034SOL    HW135735   2.195   2.455  15.439 -0.2858  1.5973 -0.4296
 8034SOL    HW235736   2.164   2.580  15.374  2.3369  0.0724 -0.5678
 8035SOL     OW35737   0.387   1.256   6.573  0.1058 -0.2372  0.6239
 8035SOL    HW135738   0.366   1.162   6.575 -1.1077  0.0370  0.5925
 8035SOL    HW235739   0.297   1.289   6.575  0.0839 -0.2194 -0.6361
 8036SOL     OW35740   3.863   0.034  16.795 -0.2349 -0.2358 -0.2737
 8036SOL    HW135741   3.936   4.712  16.775  0.2849  0.9141 -1.6698
 8036SOL    HW235742   3.795   4.717  16.754  0.6741 -2.1504  0.6534
 8037SOL     OW35743   3.171   1.389   8.603  0.1898 -0.0390  0.3343
 8037SOL    HW135744   3.138   1.313   8.651 -1.0837 -0.7273 -1.6455
 8037SOL    HW235745   3.228   1.439   8.662  0.4645 -0.7500  0.6667
 8038SOL     OW35746   3.863   3.012  13.503 -0.7269 -0.3636  0.2279
 8038SOL    HW135747   3.943   2.972  13.467  0.3896  2.5333 -0.4618
 8038SOL    HW235748   3.869   3.098  13.461  0.7854  0.4068  2.0460
 8039SOL     OW35749   4.421   1.736   2.486  0.2968 -1.0042  0.3583
 8039SOL    HW135750   4.449   1.756   2.397 -0.4314  3.2959  1.1241
 8039SOL    HW235751   4.329   1.759   2.481  0.7134  0.7069  0.5925
 8040SOL     OW35752   3.529   2.714   3.893 -0.8818  0.1536  0.1881
 8040SOL    HW135753   3.566   2.791   3.934  0.3770 -0.0386 -0.5788
 8040SOL    HW235754   3.593   2.703   3.822  0.9185 -1.0655  2.0145
 8041SOL     OW35755   4.176   1.308   6.777 -0.1146 -1.1206 -0.1800
 8041SOL    HW135756   4.167   1.213   6.776 -1.0946 -1.0632  3.2629
 8041SOL    HW235757   4.190   1.328   6.870  0.1518  1.3147 -0.7494
 8042SOL     OW35758   0.779   1.869   0.275 -0.5910  0.3391 -0.3041
 8042SOL    HW135759   0.775   1.952   0.228  1.0803  1.1684  1.0313
 8042SOL    HW235760   0.747   1.888   0.364 -0.9649 -1.1421 -0.1059
 8043SOL     OW35761   2.484   1.806  13.541 -0.0163  0.2114  0.2121
 8043SOL    HW135762   2.516   1.716  13.532  1.2606  0.8322 -1.4692
 8043SOL    HW235763   2.531   1.848  13.469 -1.7935  0.9700 -0.4936
 8044SOL     OW35764   3.181   0.877   9.459 -0.1854 -0.2267  0.3358
 8044SOL    HW135765   3.146   0.907   9.543 -1.0631 -0.6399  0.1175
 8044SOL    HW235766   3.148   0.948   9.403 -0.4159  0.2940  1.1318
 8045SOL     OW35767   4.638   4.323   5.351 -0.3205  0.4710 -0.2291
 8045SOL    HW135768   4.696   4.349   5.279  0.6757 -1.0075  0.0368
 8045SOL    HW235769   4.550   4.333   5.316 -0.4207 -0.6456 -0.2971
 8046SOL     OW35770   2.026   2.903  13.696  0.0681 -0.0046  0.4994
 8046SOL    HW135771   2.094   2.838  13.675  0.3618  0.6405 -0.5731
 8046SOL    HW235772   2.059   2.939  13.778  1.5988 -1.1362  0.3817
 8047SOL     OW35773   1.814   2.261   2.649 -0.0200 -0.4174 -0.1802
 8047SOL    HW135774   1.737   2.204   2.656  0.0201 -0.6956 -1.8973
 8047SOL    HW235775   1.869   2.199   2.602  0.4641  0.6859 -1.0697
 8048SOL     OW35776   0.946   2.231   8.043  0.1329 -0.2273  0.0564
 8048SOL    HW135777   0.901   2.156   8.003 -0.2974 -0.1562  0.4096
 8048SOL    HW235778   1.035   2.196   8.052  0.1296  0.6702  3.2192
 8049SOL     OW35779   4.337   3.107   7.112  0.5935  0.0400 -0.0051
 8049SOL    HW135780   4.404   3.170   7.083  2.1509 -0.3739  2.7148
 8049SOL    HW235781   4.260   3.163   7.124  1.4816  1.7772 -2.4259
 8050SOL     OW35782   1.138   4.579   2.969  0.0255  0.1473 -0.2651
 8050SOL    HW135783   1.134   4.484   2.962 -0.7245  0.2008 -0.5653
 8050SOL    HW235784   1.181   4.599   2.886 -1.8858  1.5227 -0.9149
 8051SOL     OW35785   1.275   1.225  14.681  0.0838 -1.1681 -0.7362
 8051SOL    HW135786   1.310   1.212  14.769  2.0455 -1.3603 -1.5541
 8051SOL    HW235787   1.351   1.248  14.628 -0.8738 -3.8402 -3.2585
 8052SOL     OW35788   1.868   2.093   7.288  0.2623 -0.2965 -0.1691
 8052SOL    HW135789   1.882   2.186   7.270 -1.6411  0.7948  3.9015
 8052SOL    HW235790   1.957   2.061   7.274  0.8525  0.3609  2.1171
 8053SOL     OW35791   1.924   3.482  17.672  0.0269 -0.2167 -0.0800
 8053SOL    HW135792   1.919   3.536   0.009 -2.2636  1.8209 -1.6300
 8053SOL    HW235793   1.916   3.546  17.601 -1.3402  0.7571  0.9516
 8054SOL     OW35794   4.697   2.020  11.048  0.4299 -0.0067  0.1996
 8054SOL    HW135795   0.042   1.998  11.001  1.1944 -0.5845  1.7544
 8054SOL    HW235796   4.644   1.940  11.043 -1.3044  1.2486 -1.0806
 8055SOL     OW35797   4.024   3.165   7.211 -0.7360  0.1933 -0.2814
 8055SOL    HW135798   4.004   3.127   7.125 -2.1870  1.6800 -0.6035
 8055SOL    HW235799   4.068   3.249   7.199  0.9063 -0.5333  0.5558
 8056SOL     OW35800   3.778   2.745  15.643  0.4272  0.1979 -0.7108
 8056SOL    HW135801   3.707   2.809  15.644  0.8785  0.7053 -1.8375
 8056SOL    HW235802   3.816   2.774  15.560  0.7640  1.9188  0.0383
 8057SOL     OW35803   0.014   4.399   2.927  0.4567 -0.2832 -0.4515
 8057SOL    HW135804   0.067   4.435   2.856  1.3472  0.2960  0.4911
 8057SOL    HW235805   4.678   4.460   2.943 -0.1360 -1.6903  2.2761
 8058SOL     OW35806   2.690   2.177   4.420  0.1584  0.7344 -0.6275
 8058SOL    HW135807   2.637   2.147   4.346  0.9105 -3.3208  0.4806
 8058SOL    HW235808   2.618   2.222   4.463 -2.1900 -1.8062 -1.8899
 8059SOL     OW35809   2.365   0.426  14.594  0.2109 -0.4658  0.4653
 8059SOL    HW135810   2.452   0.421  14.556 -0.6127 -1.9633 -1.2665
 8059SOL    HW235811   2.318   0.505  14.568  2.3164  0.8026  0.6098
 8060SOL     OW35812   2.114   0.243  14.877 -0.3490 -0.5590  0.5150
 8060SOL    HW135813   2.083   0.273  14.963  0.2292  0.5219  0.3530
 8060SOL    HW235814   2.070   0.158  14.873 -2.6542  0.6865 -0.5873
 8061SOL     OW35815   1.808   3.056   0.849 -0.0414  0.2096  0.0753
 8061SOL    HW135816   1.855   3.133   0.882 -0.2003  0.8420 -1.1999
 8061SOL    HW235817   1.866   2.987   0.882  1.4015  1.3104 -0.1487
 8062SOL     OW35818   3.226   1.142   8.258 -0.1546  0.0459  0.0018
 8062SOL    HW135819   3.218   1.048   8.241 -2.2770 -0.0399  1.3712
 8062SOL    HW235820   3.303   1.135   8.314 -0.2191 -0.0993  0.0756
 8063SOL     OW35821   1.641   2.638   7.997  0.5397 -0.6177  0.1202
 8063SOL    HW135822   1.630   2.679   8.082 -0.4219 -0.5454 -0.0459
 8063SOL    HW235823   1.719   2.680   7.959  0.2003  0.2759  0.4183
 8064SOL     OW35824   0.469   0.604   2.391  0.0443 -0.4891  0.6505
 8064SOL    HW135825   0.453   0.645   2.306 -0.6016  1.2150  1.5918
 8064SOL    HW235826   0.447   0.514   2.368 -1.3553  0.0388 -0.1013
 8065SOL     OW35827   2.173   4.070  11.715  0.2182 -0.2008 -0.1252
 8065SOL    HW135828   2.222   4.153  11.718 -1.4362  0.7216  1.5390
 8065SOL    HW235829   2.166   4.046  11.808 -2.6661 -0.4627 -0.4236
 8066SOL     OW35830   1.298   3.838   5.312  0.2818  0.1807  0.1927
 8066SOL    HW135831   1.261   3.882   5.388  0.4751  2.2681 -0.9251
 8066SOL    HW235832   1.392   3.851   5.324  0.0385  0.9505  1.2456
 8067SOL     OW35833   4.522   0.688   7.568  0.4861  0.1663 -0.4348
 8067SOL    HW135834   4.442   0.639   7.586  0.9657 -0.9277 -1.2411
 8067SOL    HW235835   4.543   0.703   7.660  1.7618  1.7644 -0.9917
 8068SOL     OW35836   0.241   3.632   8.921  0.0716 -0.7924  0.0191
 8068SOL    HW135837   0.299   3.660   8.991 -1.4275 -1.5915  1.5812
 8068SOL    HW235838   0.260   3.695   8.852  1.4760 -1.2056  0.0448
 8069SOL     OW35839   0.164   2.677   9.303 -0.2242  0.6489 -0.4484
 8069SOL    HW135840   0.241   2.717   9.343 -1.3302  1.6670  0.6657
 8069SOL    HW235841   0.175   2.587   9.335 -2.3210  1.3259  2.2077
 8070SOL     OW35842   2.604   4.051   0.848  0.2605  0.9465  0.0006
 8070SOL    HW135843   2.645   3.969   0.874 -0.7559  0.4305 -0.0015
 8070SOL    HW235844   2.681   4.106   0.835  0.1110  1.2098  0.2254
 8071SOL     OW35845   2.978   1.753   1.941 -0.4843  0.1937 -0.1407
 8071SOL    HW135846   3.045   1.685   1.929 -0.1268  0.3856  0.8377
 8071SOL    HW235847   2.965   1.778   1.849  0.5206 -1.0541 -0.6288
 8072SOL     OW35848   3.698   0.835   6.261  0.1093 -0.4359  0.1101
 8072SOL    HW135849   3.667   0.926   6.263 -0.8032 -0.7391 -0.4896
 8072SOL    HW235850   3.615   0.793   6.285 -0.5669  1.0317  0.3382
 8073SOL     OW35851   0.213   0.140   1.443 -0.4872  0.0197  0.5462
 8073SOL    HW135852   0.157   0.066   1.467  0.3893 -0.6565  0.5149
 8073SOL    HW235853   0.171   0.175   1.364 -1.0460 -1.3975  0.2021
 8074SOL     OW35854   3.457   0.511   4.017 -0.3085 -0.1856  0.1189
 8074SOL    HW135855   3.436   0.508   4.111  1.0083 -2.6001  0.3398
 8074SOL    HW235856   3.418   0.426   3.995  1.5220 -0.9645 -0.1281
 8075SOL     OW35857   4.620   2.986  12.722 -0.0908 -0.1868  0.1571
 8075SOL    HW135858   4.598   2.956  12.634  1.3332 -2.3490  0.5326
 8075SOL    HW235859   4.713   2.981  12.698 -0.1389  1.9467 -0.5098
 8076SOL     OW35860   3.311   3.563  11.693  0.1900  0.0732 -0.7469
 8076SOL    HW135861   3.386   3.582  11.749 -0.1885  1.0423 -0.5785
 8076SOL    HW235862   3.302   3.640  11.638  2.2604 -0.1582 -1.4241
 8077SOL     OW35863   2.363   1.338   9.439  0.1165  0.1735 -0.3081
 8077SOL    HW135864   2.327   1.337   9.527 -1.0117  0.7501 -0.7552
 8077SOL    HW235865   2.337   1.249   9.417 -1.3195  0.6238 -0.4453
 8078SOL     OW35866   0.804   3.554   9.542  0.3506 -0.3511  0.0748
 8078SOL    HW135867   0.751   3.475   9.556  0.2713 -0.0677  1.4005
 8078SOL    HW235868   0.737   3.622   9.552  0.9608  0.4425 -1.2494
 8079SOL     OW35869   3.389   3.462   6.479 -0.0877  0.4269 -1.1634
 8079SOL    HW135870   3.334   3.478   6.555  0.5406  1.4685 -0.9166
 8079SOL    HW235871   3.370   3.369   6.469 -0.4726  0.6382 -2.4887
 8080SOL     OW35872   4.437   3.303   8.953 -0.1646 -0.5356  0.4775
 8080SOL    HW135873   4.439   3.364   9.026  0.1605 -2.7594  2.3050
 8080SOL    HW235874   4.529   3.276   8.952 -1.1252 -3.8800  1.2838
 8081SOL     OW35875   3.489   2.937   7.248  0.0837  0.1202 -0.2306
 8081SOL    HW135876   3.499   2.956   7.341  1.2486  1.6934 -0.6779
 8081SOL    HW235877   3.582   2.926   7.229 -0.2110 -1.5949 -0.7272
 8082SOL     OW35878   0.636   2.883  17.632 -0.1813 -0.1764 -0.0165
 8082SOL    HW135879   0.679   2.798  17.637  0.8302  0.2366 -1.8971
 8082SOL    HW235880   0.705   2.949  17.640  0.3818 -0.4968 -2.3693
 8083SOL     OW35881   4.142   2.365   4.860  0.2051  0.0626  0.0392
 8083SOL    HW135882   4.137   2.294   4.796 -0.1585 -0.4841  0.6833
 8083SOL    HW235883   4.114   2.435   4.801 -0.3602 -1.9548 -2.1058
 8084SOL     OW35884   1.413   1.614   4.956 -0.0069 -0.2883 -0.6252
 8084SOL    HW135885   1.365   1.687   4.996  3.6656  0.7437  1.8955
 8084SOL    HW235886   1.346   1.547   4.967 -0.3136  0.2009  0.5229
 8085SOL     OW35887   1.389   3.272   7.999  0.7361  0.6081 -0.5002
 8085SOL    HW135888   1.430   3.331   8.062 -0.4192  1.9369 -0.9798
 8085SOL    HW235889   1.355   3.205   8.058 -0.9432 -0.5062 -2.7141
 8086SOL     OW35890   2.698   2.519   1.878 -0.8309  0.0829 -0.1243
 8086SOL    HW135891   2.606   2.542   1.881 -0.6797  0.6467  0.1158
 8086SOL    HW235892   2.748   2.564   1.947 -2.7834 -0.5776  1.7089
 8087SOL     OW35893   1.994   4.156  15.049 -0.3589  0.0569 -0.0166
 8087SOL    HW135894   1.909   4.158  15.005 -0.8609  2.5331  1.0534
 8087SOL    HW235895   1.997   4.236  15.102 -0.3452 -0.7082  1.1291
 8088SOL     OW35896   3.982   4.181  15.584 -0.3141  0.3811 -0.4160
 8088SOL    HW135897   3.917   4.124  15.623 -0.5403 -0.6758 -2.3112
 8088SOL    HW235898   4.034   4.202  15.661 -0.2796 -2.1720  0.2567
 8089SOL     OW35899   3.925   4.152   1.099  0.3178 -1.1219  0.7846
 8089SOL    HW135900   3.956   4.068   1.066  2.2410 -0.1922  0.1848
 8089SOL    HW235901   3.926   4.142   1.194 -3.0088  0.6455  1.0016
 8090SOL     OW35902   1.882   3.126   1.651  0.2193  0.1843 -0.4047
 8090SOL    HW135903   1.838   3.057   1.601  2.0348 -0.9819 -0.4080
 8090SOL    HW235904   1.812   3.165   1.703 -0.5108  0.9918 -2.0042
 8091SOL     OW35905   4.687   4.279   3.552 -0.1036  0.4249 -0.0127
 8091SOL    HW135906   4.629   4.324   3.612 -0.9066 -0.3309 -0.2305
 8091SOL    HW235907   0.038   4.278   3.593  0.7933 -0.3683 -1.9132
 8092SOL     OW35908   1.201   2.458   6.878  0.6093  0.4495  0.3128
 8092SOL    HW135909   1.214   2.546   6.913 -1.2332  1.0690 -0.5563
 8092SOL    HW235910   1.151   2.412   6.947  0.4404  0.1740  0.0074
 8093SOL     OW35911   0.552   4.080  17.295 -0.2982 -0.2440 -0.4849
 8093SOL    HW135912   0.640   4.104  17.323 -0.3333 -0.8900  0.1802
 8093SOL    HW235913   0.579   4.068  17.204 -2.4364  1.3987 -1.3329
 8094SOL     OW35914   0.497   4.637   6.467  0.1364 -0.4352  0.5238
 8094SOL    HW135915   0.484   4.714   6.412  2.1051 -0.7220 -0.3569
 8094SOL    HW235916   0.563   4.586   6.420 -0.2913 -1.3350  0.9171
 8095SOL     OW35917   2.124   3.931  15.149 -0.6893  0.5904 -0.0726
 8095SOL    HW135918   2.134   3.887  15.064  0.5346  2.1982 -0.7798
 8095SOL    HW235919   2.082   4.016  15.135 -1.0322  0.2517 -1.0927
 8096SOL     OW35920   2.302   4.683   4.442 -0.7754 -0.3159  0.0726
 8096SOL    HW135921   2.364   4.651   4.377 -0.1995  1.5132 -0.2570
 8096SOL    HW235922   2.314   4.614   4.507 -1.9050  0.1003  0.7323
 8097SOL     OW35923   2.933   0.364   3.469 -0.0891  0.0563  0.2657
 8097SOL    HW135924   2.843   0.385   3.446  0.3872  0.6706 -1.1023
 8097SOL    HW235925   2.928   0.324   3.556 -0.6876  0.2843  0.3378
 8098SOL     OW35926   2.015   2.768  11.487 -0.0624 -0.4684  0.8735
 8098SOL    HW135927   2.095   2.740  11.531  1.0552  0.9404 -0.2380
 8098SOL    HW235928   2.049   2.776  11.398 -0.6959  2.1069  0.8466
 8099SOL     OW35929   3.686   3.227  15.355 -0.1143  0.0611  0.4172
 8099SOL    HW135930   3.722   3.225  15.266 -3.1440 -0.7166 -0.7832
 8099SOL    HW235931   3.693   3.320  15.380  0.2567  0.3569 -0.7781
 8100SOL     OW35932   1.964   0.629   8.415  0.4612 -0.5974  0.2729
 8100SOL    HW135933   1.990   0.623   8.323  3.0914 -0.2512  0.9909
 8100SOL    HW235934   1.950   0.723   8.426 -1.0266 -0.5615 -1.9567
 8101SOL     OW35935   1.776   2.254   8.752  0.0899 -0.6582 -0.0254
 8101SOL    HW135936   1.849   2.247   8.690  0.3866  0.9490  0.1357
 8101SOL    HW235937   1.782   2.348   8.769 -0.9982 -0.9700  2.0455
 8102SOL     OW35938   4.054   4.006   0.696 -0.6273  0.3523  0.4810
 8102SOL    HW135939   4.115   4.079   0.692  0.7704 -0.9617 -1.9833
 8102SOL    HW235940   4.074   3.988   0.789  1.3271  0.5488  0.1001
 8103SOL     OW35941   3.428   3.195   6.069 -0.3051  0.0713 -0.4627
 8103SOL    HW135942   3.366   3.264   6.093 -1.7079 -0.7018 -1.8373
 8103SOL    HW235943   3.463   3.242   5.993  0.5856  2.0366  1.1701
 8104SOL     OW35944   2.033   4.559  11.605 -0.0034  0.2179 -0.6239
 8104SOL    HW135945   2.117   4.519  11.583 -0.9147 -1.8649 -0.2892
 8104SOL    HW235946   1.985   4.576  11.524 -1.3037 -1.0258 -0.1328
 8105SOL     OW35947   2.426   1.440   6.859  0.3806 -0.0601  0.6174
 8105SOL    HW135948   2.355   1.487   6.817  2.2752  0.8760 -1.5053
 8105SOL    HW235949   2.367   1.405   6.926 -2.2772 -0.5391 -2.0070
 8106SOL     OW35950   2.116   3.937  12.543  0.2112  0.1814 -0.5620
 8106SOL    HW135951   2.034   3.974  12.510 -0.7650 -2.5920 -1.1944
 8106SOL    HW235952   2.163   4.020  12.547 -0.1822  0.2558  2.5246
 8107SOL     OW35953   2.343   3.093   4.129 -0.1154  0.2463 -0.2806
 8107SOL    HW135954   2.394   3.164   4.168  0.8246  0.5307 -2.0352
 8107SOL    HW235955   2.377   3.107   4.041 -0.4405  2.4681 -0.0505
 8108SOL     OW35956   2.411   2.249   7.210 -0.4416  0.0667 -0.1397
 8108SOL    HW135957   2.419   2.232   7.116 -1.1942  0.6722 -0.3134
 8108SOL    HW235958   2.496   2.221   7.244  1.0823  1.2127 -3.0196
 8109SOL     OW35959   3.835   0.099   7.024  0.6007  0.0047  0.1619
 8109SOL    HW135960   3.751   0.054   7.028 -0.3765  1.7935 -0.2164
 8109SOL    HW235961   3.851   0.128   7.114  1.6936 -3.0219  0.9580
 8110SOL     OW35962   4.330   0.055  13.645 -0.6514 -0.2325 -0.1425
 8110SOL    HW135963   4.326   0.138  13.693  2.1167 -0.1812  0.0050
 8110SOL    HW235964   4.417   0.027  13.673 -1.0945 -3.2766 -1.8282
 8111SOL     OW35965   4.183   3.161   3.425  0.2196 -0.1574 -0.0834
 8111SOL    HW135966   4.141   3.232   3.474 -0.0141  0.3676 -1.0441
 8111SOL    HW235967   4.160   3.083   3.475  0.1007  0.8557  1.4620
 8112SOL     OW35968   2.926   3.784   9.965  0.4618  0.1781 -0.0766
 8112SOL    HW135969   2.926   3.872  10.002 -1.0320 -0.8398  2.3171
 8112SOL    HW235970   2.952   3.730  10.039  0.2783  2.0696  1.3580
 8113SOL     OW35971   3.398   4.471   2.242 -0.4803 -0.2020 -0.6898
 8113SOL    HW135972   3.322   4.445   2.189 -0.3138 -0.9496 -0.5521
 8113SOL    HW235973   3.379   4.563   2.263  0.1311 -0.1518 -0.3844
 8114SOL     OW35974   3.057   0.255  13.636  0.1599 -0.2811 -0.7473
 8114SOL    HW135975   2.977   0.228  13.590  0.0659 -0.9338 -0.2127
 8114SOL    HW235976   3.083   0.177  13.685 -1.7684 -1.0647 -0.9571
 8115SOL     OW35977   1.436   2.318   8.248 -0.3768 -0.2482  0.3789
 8115SOL    HW135978   1.520   2.283   8.278  0.0871  0.5791  0.0278
 8115SOL    HW235979   1.454   2.410   8.229 -0.6528 -0.4574 -0.9263
 8116SOL     OW35980   3.556   2.534   2.816  0.4092 -0.2216  0.0408
 8116SOL    HW135981   3.583   2.446   2.790  0.2558 -0.5442  1.0000
 8116SOL    HW235982   3.635   2.563   2.861  1.2378  0.8871 -2.1086
 8117SOL     OW35983   3.835   1.938   5.159 -0.1060 -0.1365  0.3599
 8117SOL    HW135984   3.767   1.878   5.188 -1.6996  1.9625  0.8941
 8117SOL    HW235985   3.846   1.912   5.067 -2.4349  0.4136 -0.0647
 8118SOL     OW35986   3.896   3.326   7.613 -0.3252 -0.0478  0.2908
 8118SOL    HW135987   3.931   3.362   7.695 -0.3042 -2.3806  1.3083
 8118SOL    HW235988   3.818   3.380   7.605  0.3879  0.8449 -0.6400
 8119SOL     OW35989   0.141   1.524  12.787 -0.0332  0.0040 -0.3276
 8119SOL    HW135990   0.054   1.523  12.749 -0.3430 -1.7096  0.4225
 8119SOL    HW235991   0.125   1.542  12.879 -1.1700  1.6044 -0.8314
 8120SOL     OW35992   3.374   3.247   5.515 -0.3708 -0.5872  0.5208
 8120SOL    HW135993   3.282   3.235   5.539 -0.5635  1.2202  0.7148
 8120SOL    HW235994   3.416   3.288   5.590  1.7498  1.0622 -1.5581
 8121SOL     OW35995   1.395   2.981   2.455 -0.0114  0.2485 -0.5947
 8121SOL    HW135996   1.329   2.958   2.389 -0.7941  1.4966 -0.2466
 8121SOL    HW235997   1.431   2.897   2.484  1.6004  1.7479  1.6740
 8122SOL     OW35998   3.318   4.230   1.198  0.0791  0.0443  0.6408
 8122SOL    HW135999   3.365   4.294   1.251 -0.4758  0.1975  0.9477
 8122SOL    HW236000   3.388   4.173   1.166 -0.8136 -0.8924  0.3267
 8123SOL     OW36001   2.531   0.204   7.054  0.0171 -0.0504 -0.6041
 8123SOL    HW136002   2.559   0.295   7.057  0.4693 -0.2128  0.2724
 8123SOL    HW236003   2.441   0.207   7.021  0.6040 -4.0632 -2.6253
 8124SOL     OW36004   1.262   3.696   9.167 -0.2224  0.1289  0.2864
 8124SOL    HW136005   1.289   3.728   9.081  1.3858  0.1679  0.7922
 8124SOL    HW236006   1.329   3.628   9.171 -0.0389  0.2754 -0.2788
 8125SOL     OW36007   1.084   4.399  10.669  0.3453  0.2366  0.2000
 8125SOL    HW136008   1.176   4.418  10.653  0.5638 -1.8015 -0.9431
 8125SOL    HW236009   1.060   4.487  10.699 -1.1872 -0.3420  0.6822
 8126SOL     OW36010   2.345   2.463   3.467 -0.3345  0.0505  0.0722
 8126SOL    HW136011   2.273   2.503   3.516 -0.2030 -0.1329  0.4167
 8126SOL    HW236012   2.409   2.455   3.538 -1.2891  2.4512  1.2121
 8127SOL     OW36013   2.364   0.710   1.256 -0.3533 -0.6453  0.5335
 8127SOL    HW136014   2.386   0.622   1.228  0.1115 -0.0197 -1.0863
 8127SOL    HW236015   2.451   0.749   1.260  0.0077 -1.2305 -1.4701
 8128SOL     OW36016   3.423   4.274   0.599 -0.2268  0.1842 -0.3500
 8128SOL    HW136017   3.516   4.267   0.575 -0.0342  1.3041  0.0691
 8128SOL    HW236018   3.412   4.206   0.665 -0.1263  0.5372  0.0257
 8129SOL     OW36019   2.444   2.004   2.797 -0.6577  0.1033 -0.5021
 8129SOL    HW136020   2.441   2.080   2.854 -4.3688 -1.3359  1.1676
 8129SOL    HW236021   2.498   2.026   2.720 -0.9184  0.1939 -0.6586
 8130SOL     OW36022   1.414   2.591   3.261  0.3071 -0.5351 -0.3557
 8130SOL    HW136023   1.504   2.616   3.276  0.2358 -1.7581  2.0550
 8130SOL    HW236024   1.434   2.524   3.196 -1.6454 -1.8093  0.3288
 8131SOL     OW36025   1.148   3.351  14.470 -0.1609  0.0676 -0.2823
 8131SOL    HW136026   1.123   3.430  14.421 -0.0041  0.6781  0.6353
 8131SOL    HW236027   1.243   3.358  14.478  0.0305 -1.7879 -0.7120
 8132SOL     OW36028   1.281   3.208   4.411 -0.2024  0.1955  0.1970
 8132SOL    HW136029   1.342   3.136   4.427 -0.0144  0.5701  1.1803
 8132SOL    HW236030   1.195   3.166   4.423  0.4040 -0.8082  1.0239
 8133SOL     OW36031   4.159   3.012   5.211 -0.3784 -0.1090  0.1886
 8133SOL    HW136032   4.096   3.015   5.283 -0.3757  0.1305  0.1823
 8133SOL    HW236033   4.224   3.075   5.243 -0.3766  0.0883 -0.2085
 8134SOL     OW36034   2.419   3.121   7.447 -0.6358  0.0415 -0.1587
 8134SOL    HW136035   2.349   3.170   7.404 -1.0326 -1.1966 -0.9324
 8134SOL    HW236036   2.488   3.119   7.381 -1.7150 -0.3433 -1.2719
 8135SOL     OW36037   4.616   3.567   5.933 -0.3143  0.3496 -0.2928
 8135SOL    HW136038   4.590   3.577   5.841  2.3619 -0.2610 -1.1071
 8135SOL    HW236039   4.584   3.478   5.948 -1.0174  0.5016 -0.8594
 8136SOL     OW36040   0.500   2.606   4.743 -0.4945  0.9449 -0.1364
 8136SOL    HW136041   0.575   2.655   4.709  1.6613 -3.2788 -1.5037
 8136SOL    HW236042   0.529   2.623   4.833  0.6204  0.2896 -0.3662
 8137SOL     OW36043   4.482   2.807   7.981 -0.4237  0.6517 -0.2708
 8137SOL    HW136044   4.389   2.797   8.001 -0.3321  0.7644  0.1963
 8137SOL    HW236045   4.526   2.782   8.062  1.1568 -1.1764 -1.6931
 8138SOL     OW36046   2.594   3.793   6.202 -0.2184 -0.1014 -0.1301
 8138SOL    HW136047   2.613   3.700   6.219 -2.6129 -0.6361 -0.4535
 8138SOL    HW236048   2.502   3.788   6.178 -0.4012 -0.2669  0.5962
 8139SOL     OW36049   2.597   2.468   5.246  0.2962  0.9648 -0.5266
 8139SOL    HW136050   2.670   2.406   5.237 -1.3384 -0.9671 -0.4104
 8139SOL    HW236051   2.655   2.544   5.237  2.8036 -0.9251 -0.3153
 8140SOL     OW36052   0.692   4.712  12.006 -0.2230  0.0964 -0.7973
 8140SOL    HW136053   0.782   4.726  11.977  0.1871  2.2592  1.5505
 8140SOL    HW236054   0.640   0.011  11.933 -1.9370  1.2296  0.9626
 8141SOL     OW36055   0.423   1.118   7.987 -0.5785 -0.4846 -0.0682
 8141SOL    HW136056   0.469   1.165   8.057 -2.6846  0.2025  0.8367
 8141SOL    HW236057   0.498   1.067   7.956  0.8488  1.3799  0.2857
 8142SOL     OW36058   1.278   1.997   8.463 -1.0613  0.7184 -1.0382
 8142SOL    HW136059   1.318   2.068   8.513 -2.2105  2.0927 -2.0710
 8142SOL    HW236060   1.317   2.018   8.378  0.9179  0.9367 -0.0726
 8143SOL     OW36061   3.399   3.989  15.445  0.1185 -0.0605 -0.1946
 8143SOL    HW136062   3.492   4.008  15.442 -0.5322  3.2067 -0.2032
 8143SOL    HW236063   3.384   3.922  15.379  0.1300 -1.5778  1.3455
 8144SOL     OW36064   1.850   3.697   2.538 -0.0380 -0.0818  0.1203
 8144SOL    HW136065   1.870   3.741   2.455 -1.2682  1.8598  0.8481
 8144SOL    HW236066   1.881   3.607   2.529  0.0392  0.1755 -2.4178
 8145SOL     OW36067   2.744   2.084   0.024 -0.0264  0.2925  0.6905
 8145SOL    HW136068   2.825   2.066  17.717  0.0527  2.1102  0.1628
 8145SOL    HW236069   2.697   2.002   0.008 -2.3471  1.5290  1.2194
 8146SOL     OW36070   2.870   4.250  15.920  0.3352 -0.1399 -0.0696
 8146SOL    HW136071   2.812   4.262  15.995  0.4675 -1.8304  0.3117
 8146SOL    HW236072   2.953   4.285  15.952 -0.2600 -0.4765  1.7911
 8147SOL     OW36073   2.563   0.978  13.363 -0.3331 -0.5944 -0.4215
 8147SOL    HW136074   2.532   1.047  13.305  0.2496 -0.5103 -0.6416
 8147SOL    HW236075   2.603   1.026  13.435  0.2568 -2.7008  0.6587
 8148SOL     OW36076   0.373   3.672  15.856  0.3382  0.0378 -0.1412
 8148SOL    HW136077   0.348   3.749  15.908 -1.6837 -0.9015  0.2498
 8148SOL    HW236078   0.335   3.607  15.915 -3.9359  2.6731 -0.0102
 8149SOL     OW36079   0.364   2.332   5.363 -0.0131 -0.1495 -0.2463
 8149SOL    HW136080   0.386   2.271   5.434 -1.4529  2.7729  2.6959
 8149SOL    HW236081   0.274   2.350   5.391 -0.1982 -1.8247  0.2296
 8150SOL     OW36082   2.505   3.315   2.808  0.1771 -0.2439  0.6769
 8150SOL    HW136083   2.412   3.294   2.801  0.3801 -0.9010 -0.0232
 8150SOL    HW236084   2.531   3.296   2.718 -3.5039  2.1133 -0.9005
 8151SOL     OW36085   4.023   2.385   9.227 -1.1905 -0.0443 -0.7306
 8151SOL    HW136086   3.982   2.463   9.264 -0.0277  1.1663 -1.9959
 8151SOL    HW236087   3.975   2.381   9.145  0.5451 -3.4186 -1.5883
 8152SOL     OW36088   0.767   2.917   5.655 -0.0934 -0.4020  0.7930
 8152SOL    HW136089   0.750   2.968   5.575 -2.2024 -0.8780  0.9455
 8152SOL    HW236090   0.713   2.962   5.720 -2.2587 -1.8958  0.0243
 8153SOL     OW36091   2.748   2.788  11.252  0.2536 -0.0259 -0.3140
 8153SOL    HW136092   2.728   2.881  11.268 -0.5782  0.0027 -1.5839
 8153SOL    HW236093   2.844   2.781  11.259  0.2679 -0.2424 -0.7538
 8154SOL     OW36094   3.229   1.345   3.981 -0.1560 -0.3271  0.0953
 8154SOL    HW136095   3.173   1.421   3.967  0.1958 -0.5944 -2.6671
 8154SOL    HW236096   3.303   1.382   4.030 -3.1956  1.0835  3.6463
 8155SOL     OW36097   0.398   2.861   3.890 -0.4628  0.1156  0.0935
 8155SOL    HW136098   0.413   2.950   3.923 -0.2529  0.7515 -1.7323
 8155SOL    HW236099   0.481   2.816   3.905 -1.1947 -1.1971  0.2076
 8156SOL     OW36100   1.407   4.677  15.764 -0.0863  0.3686  0.0013
 8156SOL    HW136101   1.433   0.030  15.736 -0.0270 -0.3233 -2.1371
 8156SOL    HW236102   1.317   4.693  15.792 -0.4023 -1.5224  0.0224
 8157SOL     OW36103   0.500   2.256  16.799  0.1180 -0.1894 -0.5602
 8157SOL    HW136104   0.562   2.203  16.849 -1.0265  0.8537  1.9632
 8157SOL    HW236105   0.473   2.186  16.740  0.1434  0.2871 -1.1256
 8158SOL     OW36106   0.970   1.005   2.663 -0.3558  0.3597  0.2103
 8158SOL    HW136107   0.924   0.972   2.587 -2.0278 -1.9473  2.2177
 8158SOL    HW236108   1.057   0.965   2.671  0.2481  1.7928  0.9553
 8159SOL     OW36109   2.100   4.156   2.803 -0.4680  0.4165  0.1110
 8159SOL    HW136110   2.119   4.248   2.818 -0.9859  0.9081 -2.1218
 8159SOL    HW236111   2.041   4.160   2.727 -1.2729 -2.7858  0.5714
 8160SOL     OW36112   4.449   0.292   1.198 -0.1307  0.0038 -0.1583
 8160SOL    HW136113   4.451   0.314   1.105  2.6017 -0.1233 -0.1293
 8160SOL    HW236114   4.366   0.324   1.233  0.1684 -0.5054  1.0345
 8161SOL     OW36115   2.094   0.696   7.016 -0.3265 -0.2061  0.1863
 8161SOL    HW136116   2.038   0.661   7.086 -0.9639  1.3376  0.4674
 8161SOL    HW236117   2.099   0.787   7.045  1.0826 -0.3773  0.4688
 8162SOL     OW36118   0.855   0.060   2.121  0.2038  0.0584  0.0336
 8162SOL    HW136119   0.857   0.003   2.199 -0.7038 -0.3295 -0.2289
 8162SOL    HW236120   0.792   0.018   2.063 -0.5417  2.7224 -1.0773
 8163SOL     OW36121   1.617   3.586   5.610  0.0865  0.3379  0.3934
 8163SOL    HW136122   1.588   3.648   5.677 -2.2348 -0.8796  0.5064
 8163SOL    HW236123   1.687   3.535   5.651 -0.4674 -0.8865 -0.1813
 8164SOL     OW36124   3.252   0.986   0.037  0.1464 -0.5099 -0.4615
 8164SOL    HW136125   3.218   0.898   0.019  0.0988 -0.5291 -0.2807
 8164SOL    HW236126   3.334   0.954   0.073  0.2672  0.3355  0.0116
 8165SOL     OW36127   4.417   2.980   3.561 -0.3614  0.7132 -0.1177
 8165SOL    HW136128   4.333   2.958   3.523  0.3947  1.0837 -2.0014
 8165SOL    HW236129   4.441   3.056   3.508  0.2757  0.6662  0.1021
 8166SOL     OW36130   2.384   3.588   4.301  0.5533 -0.7049 -0.1219
 8166SOL    HW136131   2.400   3.678   4.331 -0.9098 -0.0648 -1.2980
 8166SOL    HW236132   2.320   3.556   4.365 -2.4954  2.8845 -1.3520
 8167SOL     OW36133   2.763   1.981   7.625 -0.0062 -0.5122 -0.8238
 8167SOL    HW136134   2.754   2.063   7.576  0.3646 -0.2644 -0.4681
 8167SOL    HW236135   2.754   2.012   7.715 -1.5703 -1.6129 -0.5986
 8168SOL     OW36136   3.256   4.734   7.885 -0.2198  0.0024 -0.1277
 8168SOL    HW136137   3.272   0.034   7.973 -1.1169  1.8175 -0.6910
 8168SOL    HW236138   3.310   4.656   7.897 -0.5790 -0.3154 -0.5795
 8169SOL     OW36139   1.347   3.551  13.230  0.3321  0.1512 -0.0405
 8169SOL    HW136140   1.288   3.501  13.286  0.8872  1.3653  1.6100
 8169SOL    HW236141   1.291   3.604  13.173  1.6548 -0.8754 -2.3217
 8170SOL     OW36142   0.492   2.972   7.710 -0.7839  0.4648 -0.5803
 8170SOL    HW136143   0.399   2.992   7.699 -0.7088  0.8999 -0.4384
 8170SOL    HW236144   0.507   3.043   7.773  2.0774 -0.3102 -0.3561
 8171SOL     OW36145   3.940   1.366   8.771 -0.0397 -0.6162  0.4570
 8171SOL    HW136146   3.995   1.293   8.801 -0.1238 -0.8139  0.1422
 8171SOL    HW236147   3.994   1.444   8.761  0.3737 -1.1989 -1.9539
 8172SOL     OW36148   2.755   2.749   6.455 -0.9753 -0.0429  0.4656
 8172SOL    HW136149   2.769   2.834   6.498 -3.4980  0.6335 -0.0067
 8172SOL    HW236150   2.793   2.769   6.369  2.4985  0.9570  2.2372
 8173SOL     OW36151   1.749   0.569  10.932  0.0756  0.0851 -0.1395
 8173SOL    HW136152   1.749   0.495  10.992  0.9484 -0.4772 -0.8380
 8173SOL    HW236153   1.683   0.548  10.867  0.5329  2.1708 -1.2903
 8174SOL     OW36154   3.232   0.997   9.098 -0.1550  0.3702  0.1649
 8174SOL    HW136155   3.190   1.077   9.066  0.6973 -0.1111 -2.1788
 8174SOL    HW236156   3.204   1.004   9.189  0.7602  0.9965  0.4007
 8175SOL     OW36157   4.576   1.797   9.297 -0.0590  0.0278  0.5144
 8175SOL    HW136158   4.593   1.736   9.370  1.1593  1.1782  1.2009
 8175SOL    HW236159   4.665   1.814   9.264 -0.9813  0.8485 -1.5400
 8176SOL     OW36160   0.596   1.698   1.460  0.0275  0.3027 -0.0109
 8176SOL    HW136161   0.647   1.623   1.489  3.0925  2.6985  0.7438
 8176SOL    HW236162   0.656   1.748   1.404 -1.0830  0.1260 -1.3710
 8177SOL     OW36163   0.259   0.008   8.517 -0.4640  0.2588  0.1275
 8177SOL    HW136164   0.310   0.084   8.489 -2.2171  1.4816  0.2424
 8177SOL    HW236165   0.186   4.719   8.461 -0.8897  1.0141  0.3468
 8178SOL     OW36166   4.628   3.571   8.302 -0.1431 -0.6148 -0.0378
 8178SOL    HW136167   4.702   3.625   8.274 -1.2655  2.2102  2.3909
 8178SOL    HW236168   4.622   3.606   8.391 -1.5710 -0.1350 -0.3217
 8179SOL     OW36169   0.766   1.969   2.044  0.4372 -0.5048 -0.6445
 8179SOL    HW136170   0.692   1.953   2.102  1.4479  2.1782  1.3945
 8179SOL    HW236171   0.780   2.058   2.078  2.0342 -1.3907  1.0216
 8180SOL     OW36172   3.104   0.159  11.008 -0.3555  0.2775  0.1230
 8180SOL    HW136173   3.146   0.224  11.065 -1.1442  1.8995 -1.1632
 8180SOL    HW236174   3.169   0.153  10.938  1.6236 -3.5780  2.3295
 8181SOL     OW36175   3.187   2.084   0.995  0.7416  0.3650 -0.4667
 8181SOL    HW136176   3.263   2.026   0.996 -1.5262 -2.5671  2.2110
 8181SOL    HW236177   3.128   2.030   1.048  0.1132  1.9111  0.3973
 8182SOL     OW36178   2.037   4.185   1.299 -0.1036  0.0572 -0.4807
 8182SOL    HW136179   2.081   4.269   1.290 -0.1113 -0.0184 -1.1934
 8182SOL    HW236180   2.103   4.129   1.340  0.7316  0.3534 -1.4395
 8183SOL     OW36181   0.842   4.461   2.170 -0.5431 -0.0226  0.0730
 8183SOL    HW136182   0.833   4.375   2.131 -2.3555 -0.8761  2.3883
 8183SOL    HW236183   0.807   4.510   2.095 -0.7339 -1.4812 -0.7778
 8184SOL     OW36184   4.524   2.491   2.667  0.3133 -0.4688  0.2041
 8184SOL    HW136185   4.513   2.403   2.629  1.4746 -0.7420  0.5222
 8184SOL    HW236186   4.551   2.480   2.758 -1.0889  1.1680  0.8096
 8185SOL     OW36187   0.250   2.109   3.776  0.1582  0.2960  0.3434
 8185SOL    HW136188   0.294   2.082   3.696 -0.8519  0.9208 -0.4164
 8185SOL    HW236189   0.160   2.106   3.745  0.1461 -0.5674  0.4517
 8186SOL     OW36190   2.013   4.505   9.886 -0.1923  0.2851 -0.2001
 8186SOL    HW136191   2.000   4.424   9.935  2.1544 -1.3945 -2.3391
 8186SOL    HW236192   2.095   4.483   9.842 -0.6260 -0.1513 -0.7966
 8187SOL     OW36193   2.376   2.368   4.182  0.3633 -0.1203 -0.2150
 8187SOL    HW136194   2.317   2.347   4.110 -0.0943  2.8130 -0.6904
 8187SOL    HW236195   2.413   2.447   4.144  0.2722  1.3082  2.6711
 8188SOL     OW36196   3.705   3.745   7.752 -0.2630  0.2645 -0.3391
 8188SOL    HW136197   3.646   3.806   7.796  1.4306  1.2748  0.5296
 8188SOL    HW236198   3.752   3.799   7.690  0.5600 -1.0709 -0.8722
 8189SOL     OW36199   3.771   1.038   7.991  0.2774  0.0181 -0.7210
 8189SOL    HW136200   3.806   1.016   7.905 -0.8875 -0.4320 -1.0741
 8189SOL    HW236201   3.838   1.009   8.053 -1.3484 -2.2963 -0.0659
 8190SOL     OW36202   4.061   4.348  15.801 -0.3351 -0.5652 -0.1580
 8190SOL    HW136203   4.079   4.279  15.865  2.0821 -0.9562 -1.2784
 8190SOL    HW236204   3.982   4.376  15.847 -0.0244 -0.5952  0.3953
 8191SOL     OW36205   3.546   1.524   1.854 -0.3953 -0.2469  0.3616
 8191SOL    HW136206   3.607   1.461   1.892 -0.5188 -0.5844  0.0009
 8191SOL    HW236207   3.471   1.464   1.861 -0.1217 -0.6167  0.0777
 8192SOL     OW36208   1.941   1.765   8.014 -0.0270  0.3067 -0.2091
 8192SOL    HW136209   1.861   1.811   7.990 -0.9077 -0.5057  1.1802
 8192SOL    HW236210   1.989   1.830   8.065  3.8842 -2.6279 -0.1126
 8193SOL     OW36211   1.800   4.024   5.442  0.0614  0.4508  0.7315
 8193SOL    HW136212   1.763   4.094   5.497 -1.4865  0.3874 -0.2377
 8193SOL    HW236213   1.881   4.064   5.411 -0.5120  0.2778 -0.9998
 8194SOL     OW36214   0.069   0.818   6.126  0.2712  0.1362 -0.2293
 8194SOL    HW136215   0.141   0.878   6.147  0.9470 -0.1978 -1.5965
 8194SOL    HW236216   0.035   0.812   6.215 -1.0411 -4.4521 -1.0589
 8195SOL     OW36217   3.095   1.584  15.690  0.1707  0.3576  0.2227
 8195SOL    HW136218   3.114   1.636  15.612 -0.4046  2.5038  1.4881
 8195SOL    HW236219   3.052   1.640  15.756  1.0696  0.2546  0.8916
 8196SOL     OW36220   1.780   1.842  11.046 -0.6869 -0.5570  0.4705
 8196SOL    HW136221   1.765   1.936  11.037 -3.0178 -0.6561  3.3003
 8196SOL    HW236222   1.803   1.829  11.138  0.0774  1.4662  0.5623
 8197SOL     OW36223   0.745   0.599   4.247 -0.0911 -0.2139 -0.2439
 8197SOL    HW136224   0.678   0.665   4.265  0.2386  0.5213 -1.7129
 8197SOL    HW236225   0.759   0.553   4.330 -0.6681 -0.8232 -0.4822
 8198SOL     OW36226   1.544   0.627   7.430  0.2435 -0.2722  0.5519
 8198SOL    HW136227   1.526   0.718   7.453  0.8647  0.0042 -0.0793
 8198SOL    HW236228   1.508   0.618   7.342 -2.5975 -0.3130  1.7045
 8199SOL     OW36229   1.358   1.361   6.659 -0.6562 -0.2853  0.5159
 8199SOL    HW136230   1.376   1.454   6.669 -1.9051 -0.1909  1.8291
 8199SOL    HW236231   1.267   1.363   6.629 -1.3817  1.9484  2.8911
 8200SOL     OW36232   0.593   1.493   4.688 -1.0061  0.3874 -0.3514
 8200SOL    HW136233   0.539   1.424   4.651 -0.5238  1.0990 -2.3911
 8200SOL    HW236234   0.590   1.566   4.627  1.2803 -0.7315 -1.8060
 8201SOL     OW36235   3.073   1.449  12.122 -0.8043 -0.1426  0.1140
 8201SOL    HW136236   3.153   1.453  12.175 -0.3172  0.4703 -0.6717
 8201SOL    HW236237   3.039   1.364  12.148  0.8217 -0.7062  0.3657
 8202SOL     OW36238   1.025   3.630   8.650 -0.2458 -0.0943 -0.9696
 8202SOL    HW136239   1.107   3.590   8.679  0.8109  1.1584 -2.2338
 8202SOL    HW236240   1.048   3.720   8.627  1.7924 -0.0057  1.3418
 8203SOL     OW36241   4.102   1.290  13.090  0.0211 -0.2015 -0.1553
 8203SOL    HW136242   4.106   1.347  13.014 -1.2997  1.2959  0.8947
 8203SOL    HW236243   4.106   1.351  13.164 -1.6152  1.6802 -1.6208
 8204SOL     OW36244   0.387   3.142  13.664 -0.0476 -0.4706 -0.3488
 8204SOL    HW136245   0.308   3.182  13.626  0.8818 -1.2444 -3.0368
 8204SOL    HW236246   0.432   3.218  13.700  0.0024 -1.0765  0.8878
 8205SOL     OW36247   4.293   4.695   7.511 -0.5732  0.2321 -0.0165
 8205SOL    HW136248   4.369   0.014   7.491 -0.4027  0.1877  0.5287
 8205SOL    HW236249   4.262   4.686   7.421 -0.3468 -1.9202  0.1321
 8206SOL     OW36250   0.466   3.670   3.957 -0.0975 -0.5885 -0.0960
 8206SOL    HW136251   0.508   3.647   4.041 -3.3053  1.1819  1.9726
 8206SOL    HW236252   0.533   3.727   3.918  1.7349 -0.8609  2.6356
 8207SOL     OW36253   0.667   4.320   3.169  0.3037  0.5648  0.1257
 8207SOL    HW136254   0.681   4.338   3.076 -2.0518 -2.3789 -0.7926
 8207SOL    HW236255   0.658   4.408   3.205  1.3738  0.8941 -0.4377
 8208SOL     OW36256   0.332   3.282   8.366  0.3854  0.0583 -0.5321
 8208SOL    HW136257   0.356   3.360   8.317  2.5583 -0.6484 -0.5828
 8208SOL    HW236258   0.241   3.270   8.337  0.5448  0.8445 -1.3336
 8209SOL     OW36259   2.767   4.375  17.336  0.0845  0.0087  0.3564
 8209SOL    HW136260   2.678   4.409  17.327 -0.1013 -0.6809 -0.3969
 8209SOL    HW236261   2.807   4.448  17.290  0.6090 -1.4710 -1.5394
 8210SOL     OW36262   1.869   0.923   8.453  0.6056  0.6752  0.1517
 8210SOL    HW136263   1.927   0.982   8.501  0.2522  0.5097  0.7853
 8210SOL    HW236264   1.785   0.957   8.483 -1.2232 -3.1913 -0.6394
 8211SOL     OW36265   1.520   1.475   4.455 -0.2812 -0.4259 -0.0775
 8211SOL    HW136266   1.462   1.444   4.386 -0.3646  1.0712 -0.6792
 8211SOL    HW236267   1.477   1.438   4.532  0.6871 -1.0933  0.1482
 8212SOL     OW36268   0.550   1.881   2.198  0.1296 -0.0109  0.2239
 8212SOL    HW136269   0.611   1.821   2.241  1.4864  0.7376 -0.6568
 8212SOL    HW236270   0.494   1.908   2.271 -2.6611  0.7876 -2.2134
 8213SOL     OW36271   0.007   1.244   5.781 -0.1965 -0.2037  0.1009
 8213SOL    HW136272   0.035   1.189   5.708  1.6717  0.7559  0.1077
 8213SOL    HW236273   0.009   1.328   5.735  1.3307 -1.0885 -1.4129
 8214SOL     OW36274   1.482   2.241   4.236  0.2616  0.0580 -0.2726
 8214SOL    HW136275   1.533   2.163   4.253 -1.7543 -1.2410 -0.1797
 8214SOL    HW236276   1.481   2.278   4.324 -0.2194  0.2436 -0.3519
 8215SOL     OW36277   2.448   0.204   4.260 -0.5337 -0.2365 -0.0769
 8215SOL    HW136278   2.418   0.115   4.242  1.2772 -0.6654 -1.0322
 8215SOL    HW236279   2.516   0.194   4.327 -1.1376 -1.8309  0.2816
 8216SOL     OW36280   1.219   1.448   4.996  0.3373 -0.5716 -0.2666
 8216SOL    HW136281   1.190   1.445   4.904 -0.5318  1.9280 -0.0758
 8216SOL    HW236282   1.132   1.475   5.024  2.0744  1.7150  2.9085
 8217SOL     OW36283   2.462   0.828   8.099 -0.5966  0.4187 -0.0035
 8217SOL    HW136284   2.407   0.813   8.022  0.4330 -0.1530 -0.6303
 8217SOL    HW236285   2.552   0.808   8.072 -0.8311 -0.7680  0.1027
 8218SOL     OW36286   2.944   1.343  16.973 -0.4776  0.5315  0.0027
 8218SOL    HW136287   3.039   1.334  16.980 -0.2608  2.2131 -0.8223
 8218SOL    HW236288   2.935   1.387  16.888  0.8083  1.7032  0.4735
 8219SOL     OW36289   1.251   0.011   3.169 -0.7741  0.3767 -0.7252
 8219SOL    HW136290   1.193   4.707   3.103  0.5364  0.6105 -2.0209
 8219SOL    HW236291   1.314   4.677   3.187 -1.1689  0.7591  2.1413
 8220SOL     OW36292   4.385   3.199  11.641  0.5527  0.2170  0.1652
 8220SOL    HW136293   4.374   3.288  11.609 -1.0888  0.1049  0.4012
 8220SOL    HW236294   4.471   3.219  11.678  1.0079  0.3102 -0.9690
 8221SOL     OW36295   0.486   3.935   2.469 -0.4808  0.4502 -0.0320
 8221SOL    HW136296   0.412   3.881   2.441 -1.1860  0.5857  1.5971
 8221SOL    HW236297   0.461   3.968   2.555  1.0619 -1.1315  1.0317
 8222SOL     OW36298   3.554   2.375   5.645  0.6551 -0.2016 -0.0525
 8222SOL    HW136299   3.562   2.373   5.740  0.9250 -0.8787 -0.0860
 8222SOL    HW236300   3.462   2.347   5.642  0.6866  0.0859 -3.6499
 8223SOL     OW36301   2.138   3.556  11.026 -0.5600 -0.0333  0.1103
 8223SOL    HW136302   2.153   3.649  11.039  1.3192 -0.3551  0.3396
 8223SOL    HW236303   2.182   3.551  10.941 -1.5023  0.0289 -0.3773
 8224SOL     OW36304   0.802   1.517   4.334 -0.4151 -0.4587 -0.1796
 8224SOL    HW136305   0.739   1.582   4.366  0.8044  0.4317  0.3768
 8224SOL    HW236306   0.782   1.440   4.388  0.2468 -0.8084 -0.4309
 8225SOL     OW36307   3.472   4.511   6.091  0.6564  0.2335  0.1239
 8225SOL    HW136308   3.496   4.424   6.122  1.7354  0.3383 -0.4411
 8225SOL    HW236309   3.479   4.505   5.996 -2.7663  0.7463 -0.1724
 8226SOL     OW36310   1.733   3.662  15.591  0.5759  0.0586  0.4311
 8226SOL    HW136311   1.741   3.720  15.515 -0.3735 -1.0500 -0.4956
 8226SOL    HW236312   1.820   3.624  15.600  0.1207 -1.1703 -0.4794
 8227SOL     OW36313   0.987   1.108   5.708 -0.3064  0.1510 -0.4837
 8227SOL    HW136314   0.918   1.045   5.685 -0.9938  0.2877  1.1767
 8227SOL    HW236315   0.964   1.188   5.661  1.2072 -0.2200 -1.8390
 8228SOL     OW36316   0.439   2.942  14.271  0.1546 -0.7584  0.2528
 8228SOL    HW136317   0.447   3.035  14.250  0.5318 -0.7521  0.4229
 8228SOL    HW236318   0.360   2.940  14.326 -0.5279 -1.2964 -0.7537
 8229SOL     OW36319   3.282   0.520   7.435  0.2066  0.6543  0.2054
 8229SOL    HW136320   3.204   0.528   7.491  0.4720 -1.4719  0.9045
 8229SOL    HW236321   3.271   0.433   7.396 -1.5308  1.0096 -0.0845
 8230SOL     OW36322   3.489   3.777   5.146 -0.0280 -0.1154 -0.5717
 8230SOL    HW136323   3.481   3.852   5.087  0.9573 -0.3975 -1.0475
 8230SOL    HW236324   3.516   3.816   5.229  0.6321 -1.9622  0.0703
 8231SOL     OW36325   3.245   2.348   1.614  0.1752  0.2410  0.1970
 8231SOL    HW136326   3.233   2.255   1.596 -2.7696  0.7792 -0.7641
 8231SOL    HW236327   3.338   2.356   1.592  0.8238 -2.7471  1.9435
 8232SOL     OW36328   4.175   0.818   2.033  0.5586 -0.1661  0.2089
 8232SOL    HW136329   4.138   0.762   2.101  0.4581 -1.8435 -1.2521
 8232SOL    HW236330   4.269   0.818   2.052  0.4798 -0.8659  0.5812
 8233SOL     OW36331   3.035   1.037  16.522  0.1220 -0.8181  0.1570
 8233SOL    HW136332   3.031   1.032  16.426 -1.1846 -0.4114  0.1935
 8233SOL    HW236333   3.090   0.959  16.531  0.2270 -0.9700 -1.7378
 8234SOL     OW36334   3.153   4.047  10.487 -0.2474  0.3757 -0.5033
 8234SOL    HW136335   3.225   3.990  10.459  0.2383  1.0557 -0.6527
 8234SOL    HW236336   3.156   4.035  10.582 -3.3322  2.8649 -0.1109
 8235SOL     OW36337   4.718   3.172   3.880 -0.1473 -0.1816 -0.8034
 8235SOL    HW136338   4.680   3.144   3.796 -0.7494  0.7965 -0.8563
 8235SOL    HW236339   4.699   3.091   3.927  0.9157 -1.3827 -2.4239
 8236SOL     OW36340   2.159   1.912   1.860 -0.5109  0.1497  0.4189
 8236SOL    HW136341   2.106   1.953   1.792 -0.5023  0.6289  0.7046
 8236SOL    HW236342   2.243   1.919   1.815 -0.6776 -0.4295  0.0127
 8237SOL     OW36343   3.112   0.308  15.053 -0.1807  0.4690 -0.4666
 8237SOL    HW136344   3.027   0.338  15.021 -0.9075  0.9705  1.9110
 8237SOL    HW236345   3.085   0.258  15.129  2.3284 -0.3090 -0.0719
 8238SOL     OW36346   3.160   3.920   1.166  0.9358  0.1347  0.1444
 8238SOL    HW136347   3.208   3.889   1.089 -1.0440  0.6034 -1.2550
 8238SOL    HW236348   3.106   3.984   1.119  1.7668 -1.6015 -3.1735
 8239SOL     OW36349   0.336   0.737   5.692 -0.4991  0.6377 -0.0537
 8239SOL    HW136350   0.418   0.730   5.741  0.0443 -0.9844 -1.1894
 8239SOL    HW236351   0.271   0.711   5.757 -0.2333  0.4286  0.1266
 8240SOL     OW36352   4.037   2.317   8.293 -0.3592 -0.2792  0.1018
 8240SOL    HW136353   4.038   2.239   8.238 -0.7059  0.5285 -1.0304
 8240SOL    HW236354   4.021   2.281   8.381  0.1042 -0.5807  0.0589
 8241SOL     OW36355   2.686   0.537   2.095  0.3678  0.4890  0.3824
 8241SOL    HW136356   2.616   0.565   2.037  1.0892  0.0775 -0.6870
 8241SOL    HW236357   2.756   0.511   2.035 -0.8254  0.1974 -0.8837
 8242SOL     OW36358   1.109   2.658   9.318  0.5020 -0.1161 -0.5029
 8242SOL    HW136359   1.107   2.666   9.413 -0.1591  2.7057 -0.7671
 8242SOL    HW236360   1.151   2.739   9.292 -0.4665  1.2263  2.1993
 8243SOL     OW36361   2.798   4.006  17.488 -0.0736  0.2060 -0.4407
 8243SOL    HW136362   2.839   4.091  17.473 -0.8220  0.9220  1.6377
 8243SOL    HW236363   2.864   3.947  17.451 -2.8031 -2.4383 -1.1026
 8244SOL     OW36364   4.105   3.593   7.283  0.2158  0.0084 -1.0542
 8244SOL    HW136365   4.012   3.574   7.300  0.2205 -0.8249 -1.9957
 8244SOL    HW236366   4.104   3.689   7.284 -2.6598 -0.0290 -0.8949
 8245SOL     OW36367   0.256   0.471  11.832 -0.6020  0.4750 -0.0021
 8245SOL    HW136368   0.180   0.501  11.882 -1.2887  0.7493 -1.2150
 8245SOL    HW236369   0.266   0.380  11.861  3.3739  1.1363  0.7235
 8246SOL     OW36370   0.448   3.910  14.030 -0.5871 -0.2683  0.1637
 8246SOL    HW136371   0.483   3.871  13.950 -1.9089 -0.7958 -0.1510
 8246SOL    HW236372   0.524   3.933  14.083  1.7301 -2.9928 -2.0200
 8247SOL     OW36373   3.699   3.134  16.844 -0.0851  0.1346  0.1331
 8247SOL    HW136374   3.625   3.193  16.839  0.1573  0.4302  0.0372
 8247SOL    HW236375   3.722   3.125  16.752  0.9283 -1.7960  0.5680
 8248SOL     OW36376   0.942   1.092   7.445 -0.8059 -0.5513 -0.0968
 8248SOL    HW136377   0.869   1.080   7.507 -2.4917 -0.2269 -2.0269
 8248SOL    HW236378   1.013   1.066   7.504  1.9098 -1.4107 -3.7449
 8249SOL     OW36379   4.480   0.554   2.661 -0.8432  0.1407 -0.5668
 8249SOL    HW136380   4.571   0.542   2.686 -0.5918  2.5380 -0.3032
 8249SOL    HW236381   4.430   0.494   2.715 -1.6543 -0.0513 -1.5130
 8250SOL     OW36382   3.380   1.961   4.397 -0.5282  0.2089 -0.1870
 8250SOL    HW136383   3.334   2.044   4.411  1.1263  1.1816 -0.5404
 8250SOL    HW236384   3.461   1.973   4.447 -0.1245 -1.4097 -0.4596
 8251SOL     OW36385   1.284   3.560   3.737  0.1606  0.4397 -0.0887
 8251SOL    HW136386   1.372   3.525   3.748  0.0099  0.3973  0.9777
 8251SOL    HW236387   1.302   3.625   3.669  3.3291 -0.4801 -0.1282
 8252SOL     OW36388   0.455   0.569   4.109  0.2235  0.0405 -0.1518
 8252SOL    HW136389   0.537   0.604   4.075  0.1938  0.3641  0.1110
 8252SOL    HW236390   0.449   0.492   4.053 -0.4527  1.1824 -1.6450
 8253SOL     OW36391   3.486   1.141   2.224  0.4139  0.4498 -0.0243
 8253SOL    HW136392   3.416   1.188   2.268  0.7651 -0.2690  1.3071
 8253SOL    HW236393   3.552   1.210   2.231 -0.5693  1.2938  0.7864
 8254SOL     OW36394   3.692   2.833   8.100  0.2105 -0.9903  0.0159
 8254SOL    HW136395   3.741   2.915   8.102  1.3827 -1.7110  0.6423
 8254SOL    HW236396   3.621   2.833   8.164 -1.3439  0.7570 -1.6946
 8255SOL     OW36397   2.804   4.129   1.530 -0.0753 -0.2504  0.3475
 8255SOL    HW136398   2.840   4.045   1.500  0.3219  0.0325  0.0449
 8255SOL    HW236399   2.709   4.112   1.530  0.1498 -1.4965  0.8569
 8256SOL     OW36400   2.360   0.318   3.938 -0.6789 -0.3349 -0.5018
 8256SOL    HW136401   2.318   0.371   3.870  1.3116 -0.3803 -1.7558
 8256SOL    HW236402   2.293   0.324   4.006  0.3139  2.1107  0.2667
 8257SOL     OW36403   2.639   4.685   4.968 -0.2260  0.0434  0.3386
 8257SOL    HW136404   2.689   4.627   5.026  0.3891  1.2680  1.0204
 8257SOL    HW236405   2.573   4.726   5.023 -0.8253 -1.0752  0.4637
 8258SOL     OW36406   1.023   1.109  13.772  0.1619 -0.1409  0.5140
 8258SOL    HW136407   0.932   1.117  13.799 -0.1483  0.8762 -0.8396
 8258SOL    HW236408   1.048   1.047  13.841  1.9918  0.0586  0.0273
 8259SOL     OW36409   4.449   0.584   0.425  0.5004 -0.0811  0.0030
 8259SOL    HW136410   4.461   0.660   0.482  1.4825  0.8097 -1.3899
 8259SOL    HW236411   4.402   0.527   0.486  0.4689  0.0825  0.1305
 8260SOL     OW36412   4.023   3.776   3.451  0.0293  0.0030 -0.2024
 8260SOL    HW136413   4.030   3.857   3.501 -1.4267 -0.1715  0.2841
 8260SOL    HW236414   3.930   3.753   3.447  0.0796 -0.3717  0.7741
 8261SOL     OW36415   1.352   3.137  17.351  0.2551 -0.4613 -0.2041
 8261SOL    HW136416   1.325   3.191  17.426 -1.5932 -1.3358 -0.2196
 8261SOL    HW236417   1.443   3.129  17.377  0.1994 -1.3847 -0.2887
 8262SOL     OW36418   2.920   3.791   4.740 -0.3256  0.1269  0.1184
 8262SOL    HW136419   2.955   3.854   4.676  1.7940  0.0792  1.2244
 8262SOL    HW236420   2.826   3.806   4.749  0.0020  0.8633  2.3812
 8263SOL     OW36421   1.057   1.716   2.417  0.0200  0.0648  0.8197
 8263SOL    HW136422   1.146   1.689   2.394 -0.2209  0.7103 -0.9290
 8263SOL    HW236423   1.024   1.744   2.331 -0.1446  0.0934  0.8917
 8264SOL     OW36424   3.668   0.685   3.991  0.5161  0.5246 -0.1861
 8264SOL    HW136425   3.734   0.629   4.031 -1.2968 -1.2102  0.3499
 8264SOL    HW236426   3.602   0.615   3.986  0.5729  0.4721 -0.1941
 8265SOL     OW36427   1.958   2.622   9.220 -0.2972  0.1301  0.5002
 8265SOL    HW136428   1.901   2.572   9.162 -0.1157 -0.0632  0.4880
 8265SOL    HW236429   1.900   2.625   9.296  1.7688  0.5984  2.0881
 8266SOL     OW36430   3.374   3.440   8.559 -0.2336 -0.4313 -0.3777
 8266SOL    HW136431   3.301   3.393   8.518 -0.7067 -0.0078 -0.0241
 8266SOL    HW236432   3.330   3.462   8.641  2.6009 -1.9777  1.5574
 8267SOL     OW36433   2.555   4.572   3.924  0.1993 -0.8756 -0.3725
 8267SOL    HW136434   2.517   4.660   3.918  3.2009  0.2311 -3.0595
 8267SOL    HW236435   2.645   4.604   3.918 -0.4560  0.6609 -2.0369
 8268SOL     OW36436   2.717   4.084   8.171  0.2662  0.3044 -0.1966
 8268SOL    HW136437   2.651   4.109   8.235 -2.0350  0.9530 -2.7891
 8268SOL    HW236438   2.733   4.174   8.142 -0.7315  0.5361 -0.0492
 8269SOL     OW36439   4.564   2.258   6.502 -0.8698  0.3076 -0.1098
 8269SOL    HW136440   4.525   2.345   6.498 -0.3668  0.5470  0.2258
 8269SOL    HW236441   4.655   2.277   6.480 -1.7732  4.5311 -0.1699
 8270SOL     OW36442   1.611   0.929   6.590  0.2582  0.1018 -0.8715
 8270SOL    HW136443   1.650   0.965   6.670  0.5789  1.4903 -1.6656
 8270SOL    HW236444   1.648   0.842   6.601  0.6612  0.4581  0.6061
 8271SOL     OW36445   1.420   0.087   4.818 -0.3750  0.1541  0.4158
 8271SOL    HW136446   1.418   0.000   4.859 -0.6862  0.0036  0.0860
 8271SOL    HW236447   1.403   0.152   4.886  0.4424  1.6110 -0.7779
 8272SOL     OW36448   2.730   1.415  10.120 -0.5649 -0.5066  0.4333
 8272SOL    HW136449   2.676   1.339  10.096 -0.0962 -1.0469  1.0759
 8272SOL    HW236450   2.702   1.443  10.206 -1.5558  3.0244 -1.0566
 8273SOL     OW36451   1.412   1.312   5.408 -0.2802 -0.0557  0.2359
 8273SOL    HW136452   1.317   1.327   5.405 -0.4125 -0.4184  2.3744
 8273SOL    HW236453   1.426   1.257   5.331  0.5985 -0.7042  0.8670
 8274SOL     OW36454   4.516   0.011   8.997 -0.2740 -0.0361 -0.2681
 8274SOL    HW136455   4.602   0.006   9.039 -0.5623  1.6233  0.5533
 8274SOL    HW236456   4.455   0.013   9.070  0.9688 -0.7507  0.7913
 8275SOL     OW36457   1.348   2.359   7.430 -0.2667 -0.5837 -0.7446
 8275SOL    HW136458   1.276   2.405   7.387  0.7167  0.2498 -1.5157
 8275SOL    HW236459   1.368   2.296   7.361  1.1385  0.2979 -1.1388
 8276SOL     OW36460   3.673   0.515  15.232 -0.2125 -0.3252  0.1291
 8276SOL    HW136461   3.767   0.497  15.235 -0.2138 -0.3024  0.3290
 8276SOL    HW236462   3.662   0.565  15.312  2.7738 -0.6133  0.7078
 8277SOL     OW36463   4.132   0.086   9.068  0.1884 -0.1905  0.1275
 8277SOL    HW136464   4.185   0.165   9.052 -1.4347  0.9821  0.5883
 8277SOL    HW236465   4.143   0.026   8.995  1.8461  0.7247 -0.3921
 8278SOL     OW36466   0.476   2.318   5.831  0.0333  0.2250  0.2667
 8278SOL    HW136467   0.483   2.304   5.737  0.6215  0.3131  0.2963
 8278SOL    HW236468   0.569   2.336   5.847  0.1888 -0.0427 -0.3358
 8279SOL     OW36469   1.791   2.458   2.217  0.1811 -0.9245  0.1178
 8279SOL    HW136470   1.865   2.442   2.158  0.2688 -2.1964  0.5875
 8279SOL    HW236471   1.733   2.387   2.190 -3.4094  2.1393 -0.2773
 8280SOL     OW36472   3.084   1.914   9.706 -0.0556  0.6137  0.4659
 8280SOL    HW136473   3.033   1.907   9.787 -1.8238 -2.4572 -0.9031
 8280SOL    HW236474   3.139   1.836   9.699 -0.8749  0.0282  0.5072
 8281SOL     OW36475   3.447   3.936   3.130 -0.1025 -0.0289  0.0148
 8281SOL    HW136476   3.434   3.869   3.196  0.2028 -1.7980 -1.7196
 8281SOL    HW236477   3.355   3.937   3.103 -0.2007  0.4695  0.3594
 8282SOL     OW36478   1.711   1.936  11.873  0.3988 -0.1581  0.1691
 8282SOL    HW136479   1.622   1.903  11.874  0.3035  0.1702  2.4772
 8282SOL    HW236480   1.757   1.857  11.903 -0.0292 -0.0265  1.1815
 8283SOL     OW36481   1.698   2.604   3.331  0.6169 -0.0929 -0.5991
 8283SOL    HW136482   1.732   2.669   3.270 -0.8762  2.4005  1.2143
 8283SOL    HW236483   1.780   2.560   3.353  0.3730  0.4806  1.5222
 8284SOL     OW36484   0.007   2.363   4.643  0.3127 -0.1103 -0.4153
 8284SOL    HW136485   4.715   2.432   4.583  0.4654  1.6214  1.5286
 8284SOL    HW236486   4.680   2.295   4.617 -1.4785  1.1179  0.7136
 8285SOL     OW36487   0.857   0.567   5.286 -0.9268  0.0168  0.4010
 8285SOL    HW136488   0.878   0.578   5.193  0.3588  0.4171  0.7509
 8285SOL    HW236489   0.762   0.558   5.275 -0.6694 -1.4217 -0.6987
 8286SOL     OW36490   2.050   2.488  15.930 -0.1429  0.2566  0.6989
 8286SOL    HW136491   1.977   2.426  15.926 -1.1155  1.4744 -0.1411
 8286SOL    HW236492   2.107   2.434  15.985  0.0995  0.0189  0.2221
 8287SOL     OW36493   0.217   1.029  13.067  0.4733 -0.4527  0.1282
 8287SOL    HW136494   0.268   1.109  13.053 -0.0282  0.1943  1.9683
 8287SOL    HW236495   0.126   1.055  13.051  0.2236 -1.6263 -0.3185
 8288SOL     OW36496   0.826   3.589  15.516  0.8421  0.1288 -0.1161
 8288SOL    HW136497   0.815   3.629  15.603 -2.8722 -2.5202  0.6421
 8288SOL    HW236498   0.821   3.672  15.469  0.7233  0.5357  0.6054
 8289SOL     OW36499   4.692   4.047   5.772 -0.5511  1.2175  1.2916
 8289SOL    HW136500   4.685   4.118   5.708  1.3103 -0.1619 -0.4528
 8289SOL    HW236501   0.052   4.039   5.774 -0.5288  1.1367 -0.1165
 8290SOL     OW36502   2.582   0.095  15.791 -0.8694 -0.1151 -0.3941
 8290SOL    HW136503   2.590   0.091  15.696  0.8825 -3.4928 -0.0856
 8290SOL    HW236504   2.542   0.181  15.806  0.0093  0.3621 -0.7627
 8291SOL     OW36505   1.035   3.066   6.735 -0.1851 -0.1329 -0.0807
 8291SOL    HW136506   0.940   3.070   6.721 -0.0573 -0.1877 -1.0030
 8291SOL    HW236507   1.058   3.072   6.642  2.7265 -0.0842  0.6533
 8292SOL     OW36508   0.646   3.315   1.033 -0.2867 -1.1086 -0.0050
 8292SOL    HW136509   0.692   3.358   1.105 -0.8150 -1.9363  0.8189
 8292SOL    HW236510   0.659   3.221   1.041  2.5982 -0.6516  0.7499
 8293SOL     OW36511   1.146   3.972  15.142 -0.7891  0.2430 -0.5951
 8293SOL    HW136512   1.212   4.027  15.184 -1.4244 -0.8078  1.8281
 8293SOL    HW236513   1.139   3.902  15.207  0.7099  1.2890  0.6794
 8294SOL     OW36514   1.414   3.233   4.090  0.3927 -1.0439  0.4306
 8294SOL    HW136515   1.366   3.316   4.081  1.4961 -0.6070 -1.3019
 8294SOL    HW236516   1.354   3.174   4.136 -0.7338  0.8713  1.4363
 8295SOL     OW36517   2.431   4.456   4.566 -0.0187  0.0219  0.0736
 8295SOL    HW136518   2.455   4.427   4.654 -1.3429 -1.2015  0.0290
 8295SOL    HW236519   2.349   4.408   4.552 -1.8917  3.6107 -1.2459
 8296SOL     OW36520   1.530   0.698  11.582 -0.4722  0.0476  0.3393
 8296SOL    HW136521   1.490   0.687  11.496 -1.0357  3.0531  0.2221
 8296SOL    HW236522   1.569   0.784  11.571  0.8704 -0.6268 -0.1243
 8297SOL     OW36523   0.168   2.527   1.280 -0.1748 -0.0509 -0.0132
 8297SOL    HW136524   0.200   2.557   1.195 -1.1037 -2.0376 -1.0423
 8297SOL    HW236525   0.076   2.511   1.262 -0.0175 -1.5380  0.5746
 8298SOL     OW36526   0.621   2.362   5.146  0.2185  0.1491  0.1197
 8298SOL    HW136527   0.556   2.379   5.078  0.3178 -2.6158 -0.6592
 8298SOL    HW236528   0.699   2.391   5.100 -0.1930 -1.2262 -1.4308
 8299SOL     OW36529   4.031   3.454  15.782  0.3539 -0.6314 -0.4790
 8299SOL    HW136530   4.015   3.408  15.864  2.5321 -2.3465 -0.9976
 8299SOL    HW236531   4.118   3.422  15.756  0.6520  0.2414 -0.5623
 8300SOL     OW36532   1.760   3.233   1.887 -0.0649 -0.1219 -0.2452
 8300SOL    HW136533   1.692   3.265   1.947  1.0732  0.2897  0.8313
 8300SOL    HW236534   1.827   3.300   1.899  0.5557 -1.0955  1.7250
 8301SOL     OW36535   0.845   1.842   6.783  1.0220 -0.7220 -0.3565
 8301SOL    HW136536   0.774   1.801   6.833  0.0660  0.7522 -0.4913
 8301SOL    HW236537   0.854   1.932   6.815 -1.5962 -0.3616 -0.6060
 8302SOL     OW36538   0.586   3.103  10.091  0.0087 -0.3107  0.0409
 8302SOL    HW136539   0.643   3.130  10.020 -1.2740  1.9669 -0.1190
 8302SOL    HW236540   0.537   3.029  10.053 -2.6458  1.5914 -0.2563
 8303SOL     OW36541   0.329   0.767   2.589  0.0415  0.7708 -0.3751
 8303SOL    HW136542   0.391   0.837   2.567  0.2956  0.4105 -0.8076
 8303SOL    HW236543   0.369   0.692   2.545 -1.6487 -0.8948  0.9540
 8304SOL     OW36544   4.211   0.418   5.583  0.2489 -0.6067  0.5898
 8304SOL    HW136545   4.116   0.407   5.582  0.0682  0.9018 -0.3485
 8304SOL    HW236546   4.221   0.397   5.676  2.3969 -1.8055  0.0798
 8305SOL     OW36547   4.047   0.962   4.194  0.2987  0.0120 -0.3991
 8305SOL    HW136548   3.975   0.909   4.228 -0.1950  1.2215  0.4269
 8305SOL    HW236549   4.046   1.030   4.262 -2.8766  0.5681 -1.0498
 8306SOL     OW36550   4.285   0.185  14.806  0.2053 -0.6898  0.1707
 8306SOL    HW136551   4.207   0.202  14.860  0.1365 -1.9910  0.4929
 8306SOL    HW236552   4.340   0.141  14.871 -0.1158  0.5594  1.2837
 8307SOL     OW36553   0.494   0.288   3.944  0.0811  0.0475 -0.1947
 8307SOL    HW136554   0.414   0.245   3.975  0.8877 -1.3089 -0.0015
 8307SOL    HW236555   0.487   0.287   3.849 -0.2409  1.1616 -0.1842
 8308SOL     OW36556   2.091   2.813   3.963 -0.8499  0.4768 -0.2331
 8308SOL    HW136557   2.072   2.868   4.039 -3.1729 -2.5738  1.3773
 8308SOL    HW236558   2.019   2.837   3.905 -1.8781 -3.4581 -0.5960
 8309SOL     OW36559   1.461   1.325   0.819 -0.8330  0.1823  0.4824
 8309SOL    HW136560   1.445   1.339   0.726  2.4810  3.3110  0.3697
 8309SOL    HW236561   1.545   1.278   0.818 -0.3831  0.9689  1.5542
 8310SOL     OW36562   4.145   2.617   3.553 -0.7410  0.9156  0.1572
 8310SOL    HW136563   4.065   2.610   3.605  0.6987 -0.1130  2.2269
 8310SOL    HW236564   4.214   2.610   3.619  0.9686  1.4737 -1.5571
 8311SOL     OW36565   3.653   2.260  16.834  0.5458 -0.3152 -0.4685
 8311SOL    HW136566   3.703   2.181  16.814  0.2689 -0.3338 -1.0698
 8311SOL    HW236567   3.571   2.210  16.833  0.5705 -0.3126 -2.9070
 8312SOL     OW36568   3.609   2.009   7.068 -0.2461 -0.1632 -0.3713
 8312SOL    HW136569   3.568   1.925   7.049 -0.7098  0.3322 -1.5318
 8312SOL    HW236570   3.551   2.055   7.129 -0.0927 -0.2597 -0.1503
 8313SOL     OW36571   3.687   0.926   8.446 -0.1850 -0.0513 -0.3004
 8313SOL    HW136572   3.710   0.833   8.445  1.3850  0.3288  0.0984
 8313SOL    HW236573   3.599   0.917   8.484 -0.9576  1.6392 -1.6838
 8314SOL     OW36574   4.424   1.343   8.771  0.0258  0.3380  0.2822
 8314SOL    HW136575   4.511   1.315   8.799 -0.5274 -1.9365 -0.2823
 8314SOL    HW236576   4.421   1.298   8.687  0.9428 -0.7756  0.8381
 8315SOL     OW36577   4.558   0.307   9.264 -0.5781 -0.0552 -0.1942
 8315SOL    HW136578   4.548   0.370   9.336  1.0721  0.3164 -0.2830
 8315SOL    HW236579   4.556   0.223   9.310  1.3030 -0.3520 -0.6453
 8316SOL     OW36580   1.360   2.091  11.864  0.4562  0.4366  0.1770
 8316SOL    HW136581   1.388   2.006  11.896  3.0857 -0.0099 -3.3153
 8316SOL    HW236582   1.401   2.089  11.778 -1.5532  0.4478 -0.7885
 8317SOL     OW36583   4.405   3.427   5.496 -0.4963 -0.4892  0.2192
 8317SOL    HW136584   4.415   3.428   5.401 -0.9656 -0.1154  0.1772
 8317SOL    HW236585   4.481   3.466   5.540  0.1983 -1.1899 -0.3539
 8318SOL     OW36586   2.764   0.943   6.557  0.3352  0.1727 -0.3087
 8318SOL    HW136587   2.736   1.010   6.495 -1.9466 -0.9094 -0.4205
 8318SOL    HW236588   2.752   0.991   6.639  0.6664 -0.4515  0.1102
 8319SOL     OW36589   0.785   3.377   9.128 -0.7130  0.1504 -0.2504
 8319SOL    HW136590   0.869   3.416   9.105 -0.1623  0.0949  1.7161
 8319SOL    HW236591   0.763   3.349   9.039 -1.2060  0.2781 -0.1711
 8320SOL     OW36592   3.821   2.214   3.693 -0.1634 -0.2366 -0.2674
 8320SOL    HW136593   3.798   2.290   3.746  0.9878 -0.7466  0.9723
 8320SOL    HW236594   3.764   2.231   3.618  0.8142 -0.6294 -1.1082
 8321SOL     OW36595   3.646   1.321   5.897  0.0622 -0.4724 -0.0745
 8321SOL    HW136596   3.669   1.313   5.804 -0.2925  2.7815 -0.4579
 8321SOL    HW236597   3.730   1.352   5.931 -0.6309  2.9844 -1.4460
 8322SOL     OW36598   2.231   0.641  14.531  0.0693  0.6513 -0.1751
 8322SOL    HW136599   2.222   0.692  14.451 -0.9781  2.2423  0.9637
 8322SOL    HW236600   2.288   0.704  14.576  2.7272  0.2049 -2.8858
 8323SOL     OW36601   2.264   2.823   6.231 -0.2567 -0.0572 -0.1297
 8323SOL    HW136602   2.255   2.738   6.187  1.8235  0.2365 -1.0917
 8323SOL    HW236603   2.261   2.779   6.317  0.4636 -1.9226 -1.0501
 8324SOL     OW36604   3.409   2.257   3.959  0.0601  0.3515 -0.3692
 8324SOL    HW136605   3.453   2.172   3.954 -0.0230  0.2090  1.2156
 8324SOL    HW236606   3.476   2.296   4.014  1.4308  0.1384 -1.9038
 8325SOL     OW36607   1.655   0.578   2.590 -0.3652 -0.1976  0.6316
 8325SOL    HW136608   1.690   0.630   2.663 -0.9484  1.3312 -0.1841
 8325SOL    HW236609   1.734   0.577   2.535 -1.1484  1.7118 -0.5217
 8326SOL     OW36610   0.705   3.903   8.324  0.7365  0.4071 -1.2679
 8326SOL    HW136611   0.635   3.957   8.360  0.9934  1.2173 -1.9562
 8326SOL    HW236612   0.742   3.861   8.402  1.3428  0.3570 -1.5782
 8327SOL     OW36613   1.698   3.291   5.415 -0.1364  0.2027 -0.4783
 8327SOL    HW136614   1.662   3.225   5.355 -0.2407  0.1887 -0.3998
 8327SOL    HW236615   1.790   3.304   5.391  0.3721 -1.3532  0.6409
 8328SOL     OW36616   0.758   2.386  16.895 -0.1032 -0.3972 -0.2649
 8328SOL    HW136617   0.710   2.429  16.824 -0.8018 -1.4166 -0.4089
 8328SOL    HW236618   0.747   2.295  16.870  1.0466  0.3767 -3.6233
 8329SOL     OW36619   3.976   2.683   3.755  0.2436 -0.5853  0.3197
 8329SOL    HW136620   4.000   2.774   3.736 -1.3428  0.1622  1.8803
 8329SOL    HW236621   3.979   2.692   3.850  0.9872  0.7824  0.1627
 8330SOL     OW36622   3.878   2.510  13.884  0.5034 -0.9725 -0.8824
 8330SOL    HW136623   3.892   2.510  13.979  1.3654  0.8503 -1.0012
 8330SOL    HW236624   3.945   2.566  13.844 -2.2888  2.3245 -0.9615
 8331SOL     OW36625   3.227   0.295   7.292  0.2593  0.1354  0.1044
 8331SOL    HW136626   3.235   0.202   7.310  0.7084 -0.0774 -1.2274
 8331SOL    HW236627   3.134   0.297   7.268  0.3714  1.5964 -0.2602
 8332SOL     OW36628   2.114   4.679   0.867  0.1031 -0.2803 -0.2293
 8332SOL    HW136629   2.141   4.735   0.940  1.3284 -0.5913 -0.4414
 8332SOL    HW236630   2.036   4.636   0.903 -3.0262  2.6324 -3.4576
 8333SOL     OW36631   2.586   1.713   2.210 -0.1646 -0.7415 -0.6018
 8333SOL    HW136632   2.593   1.808   2.208 -2.4606 -0.5223  1.9159
 8333SOL    HW236633   2.675   1.688   2.233  0.4025  1.5834 -0.2273
 8334SOL     OW36634   0.671   1.819   0.544 -0.3155 -0.8829 -0.6187
 8334SOL    HW136635   0.699   1.736   0.582  1.2249 -0.5678 -1.0256
 8334SOL    HW236636   0.576   1.818   0.548 -0.2991  0.5287  0.2418
 8335SOL     OW36637   4.338   3.139   9.842  0.1754  0.9199 -0.7225
 8335SOL    HW136638   4.348   3.210   9.906 -0.2242 -0.7452  1.1638
 8335SOL    HW236639   4.278   3.181   9.779  1.5252  1.0144 -1.9461
 8336SOL     OW36640   4.327   1.594  12.076 -0.4694  0.7648 -0.5645
 8336SOL    HW136641   4.308   1.597  11.982  0.6793 -1.5784 -0.8582
 8336SOL    HW236642   4.373   1.510  12.077 -1.7505  0.0553 -0.5581
 8337SOL     OW36643   4.566   0.826  12.334 -0.4036 -0.1108  0.3387
 8337SOL    HW136644   4.544   0.735  12.315 -0.7977  0.0860 -0.1607
 8337SOL    HW236645   4.555   0.821  12.429 -3.3474  0.9255  0.0541
 8338SOL     OW36646   3.226   0.734   5.681 -0.3649  0.2160 -0.4406
 8338SOL    HW136647   3.254   0.778   5.761 -0.4212 -3.1658  1.4355
 8338SOL    HW236648   3.141   0.703   5.713  0.0771 -2.9826 -2.3768
 8339SOL     OW36649   0.064   4.074  12.115  1.0150 -0.6133 -0.7844
 8339SOL    HW136650   0.079   3.994  12.064 -0.3250 -1.0053 -0.5775
 8339SOL    HW236651   4.718   4.047  12.158  0.2634  0.6035 -1.4429
 8340SOL     OW36652   3.954   1.643  14.362  0.1203 -0.0893  0.0647
 8340SOL    HW136653   3.957   1.580  14.434  1.9552  1.2711  1.1867
 8340SOL    HW236654   4.045   1.661  14.340  0.6479 -1.4919  1.0744
 8341SOL     OW36655   4.630   2.885   8.467  0.3540 -0.1809  0.3727
 8341SOL    HW136656   4.567   2.891   8.539 -0.3547  1.0898 -0.3566
 8341SOL    HW236657   4.641   2.980   8.465  1.4430 -0.3232 -0.5319
 8342SOL     OW36658   4.614   2.489   7.385 -0.1800 -0.4654 -0.1637
 8342SOL    HW136659   4.524   2.488   7.416 -0.0129 -0.6310  0.3236
 8342SOL    HW236660   4.602   2.512   7.293 -0.6337 -1.6928 -0.4083
 8343SOL     OW36661   3.780   1.366   5.269  0.0884 -0.2301  0.5571
 8343SOL    HW136662   3.789   1.414   5.186  2.0951 -1.6755 -0.0418
 8343SOL    HW236663   3.687   1.348   5.251  0.0643  0.6685 -0.2322
 8344SOL     OW36664   1.687   2.670  10.232 -0.9971 -0.0816  0.9800
 8344SOL    HW136665   1.772   2.642  10.268 -0.2410  0.1829 -0.6390
 8344SOL    HW236666   1.699   2.763  10.214  0.2909 -0.3720  0.3678
 8345SOL     OW36667   1.483   2.056  16.266  0.1553  0.5157  0.4875
 8345SOL    HW136668   1.530   1.983  16.305  2.4207  0.9201 -1.4802
 8345SOL    HW236669   1.453   2.022  16.181 -0.5177  0.1219  0.8802
 8346SOL     OW36670   4.007   0.921   2.316  0.0850 -0.7928 -0.1127
 8346SOL    HW136671   3.943   0.990   2.299  0.0830 -0.6422  0.5307
 8346SOL    HW236672   4.014   0.923   2.411 -0.4576  0.2239 -0.1040
 8347SOL     OW36673   1.027   1.874   8.818 -0.0223 -0.3318 -0.2057
 8347SOL    HW136674   1.061   1.880   8.729  0.6952 -0.9869  0.0192
 8347SOL    HW236675   0.941   1.914   8.810 -0.5784 -1.2724  1.0415
 8348SOL     OW36676   4.453   3.875   0.730  0.7087 -0.3844 -0.0357
 8348SOL    HW136677   4.544   3.882   0.701  0.0124  0.2341 -2.0570
 8348SOL    HW236678   4.410   3.918   0.657 -2.7942 -3.6951  0.0923
 8349SOL     OW36679   4.385   2.786   6.634  0.0891  0.1466 -0.0345
 8349SOL    HW136680   4.327   2.750   6.701 -0.7957  1.6595  0.0206
 8349SOL    HW236681   4.421   2.856   6.688 -2.0516 -1.1226  3.0255
 8350SOL     OW36682   0.424   3.160   2.691 -0.1147  0.2427 -0.2247
 8350SOL    HW136683   0.485   3.223   2.652 -1.5613  1.4104 -0.5992
 8350SOL    HW236684   0.360   3.213   2.738  2.1007  1.0409  1.8702
 8351SOL     OW36685   1.598   1.931   5.472 -0.4487 -0.3442  0.5605
 8351SOL    HW136686   1.668   1.968   5.526  0.6018 -0.3175 -0.7881
 8351SOL    HW236687   1.589   1.843   5.508  0.2208 -0.7036 -0.1456
 8352SOL     OW36688   1.249   2.695   8.124 -0.1123 -0.3224  0.2765
 8352SOL    HW136689   1.267   2.607   8.093  0.6434  0.6623 -2.0665
 8352SOL    HW236690   1.330   2.705   8.174 -0.5977 -1.5126  1.3055
 8353SOL     OW36691   4.565   1.057   8.229  0.0734  0.1102 -0.1854
 8353SOL    HW136692   4.490   1.106   8.196  0.8414  0.4766 -1.3458
 8353SOL    HW236693   4.628   1.087   8.164  0.7931  1.5325  1.1465
 8354SOL     OW36694   3.937   3.648   5.358  0.2375 -0.3804  0.6218
 8354SOL    HW136695   3.905   3.661   5.448  0.2932 -0.2687  0.6248
 8354SOL    HW236696   3.878   3.699   5.302  1.3172 -0.2174 -0.3522
 8355SOL     OW36697   3.507   1.735   2.014 -0.2511 -0.0361 -0.1513
 8355SOL    HW136698   3.482   1.804   1.952  0.9728  1.3839  0.9265
 8355SOL    HW236699   3.547   1.676   1.951 -0.1977  0.0369 -0.1858
 8356SOL     OW36700   3.813   4.611   2.479 -0.4769  0.2605  0.2910
 8356SOL    HW136701   3.815   4.540   2.543  0.2419 -0.4346 -0.5069
 8356SOL    HW236702   3.729   4.648   2.506  0.3554  1.8605  0.6818
 8357SOL     OW36703   0.555   0.100  10.097 -0.5929  0.0958 -0.0900
 8357SOL    HW136704   0.471   0.094  10.143 -0.2003 -0.7439  0.5133
 8357SOL    HW236705   0.593   0.174  10.144 -1.1015 -0.2579  0.8750
 8358SOL     OW36706   1.062   3.701   3.766 -0.2822  0.1682  0.0054
 8358SOL    HW136707   1.122   3.626   3.765 -0.9141 -0.3583  2.0497
 8358SOL    HW236708   1.092   3.752   3.841 -1.0966 -0.8221  1.0210
 8359SOL     OW36709   3.800   1.519   4.681 -0.8827 -0.0393  0.4743
 8359SOL    HW136710   3.833   1.435   4.648  0.8498 -0.5892  3.6001
 8359SOL    HW236711   3.882   1.556   4.713 -1.8711  1.7217  0.9980
 8360SOL     OW36712   4.364   1.033   6.186 -0.2913  0.0841  0.0784
 8360SOL    HW136713   4.344   1.099   6.252  1.8249  0.3566  0.4402
 8360SOL    HW236714   4.424   1.076   6.126 -0.0287  0.5032  0.6430
 8361SOL     OW36715   1.561   2.140  12.191 -0.6359 -0.2763  0.4757
 8361SOL    HW136716   1.629   2.149  12.258 -2.4155  3.5652  1.7428
 8361SOL    HW236717   1.596   2.081  12.124 -1.5785  0.1730 -0.4042
 8362SOL     OW36718   1.959   3.583   8.742  0.1012 -0.1055 -0.1264
 8362SOL    HW136719   2.007   3.533   8.676  0.1502  1.6689 -1.4081
 8362SOL    HW236720   1.886   3.615   8.691 -0.6271  2.3002  2.4193
 8363SOL     OW36721   0.584   3.839   3.533 -0.5190  0.5386 -0.4108
 8363SOL    HW136722   0.646   3.896   3.489  0.1801  0.2924  0.2495
 8363SOL    HW236723   0.506   3.849   3.478 -0.4693  0.5974 -0.4699
 8364SOL     OW36724   0.848   2.919  16.957  0.1018  0.8906 -0.3236
 8364SOL    HW136725   0.853   2.835  17.003 -0.6282  1.0623  0.0604
 8364SOL    HW236726   0.883   2.902  16.869  0.3274  2.8040 -0.5913
 8365SOL     OW36727   1.079   1.740   7.245 -0.2667 -0.2986 -0.7583
 8365SOL    HW136728   1.046   1.652   7.260 -0.1850  0.2396  2.5948
 8365SOL    HW236729   1.154   1.720   7.189 -0.1692 -0.7685 -0.4587
 8366SOL     OW36730   0.081   2.330  14.990 -0.1080  0.0162  0.0690
 8366SOL    HW136731   0.132   2.306  15.068 -2.1819 -0.2824  1.3377
 8366SOL    HW236732   4.727   2.337  15.022 -0.5250 -3.7008 -0.2941
 8367SOL     OW36733   4.246   1.511   7.049  0.1579  0.2713 -0.3243
 8367SOL    HW136734   4.153   1.491   7.059 -0.3168  2.2480 -0.6683
 8367SOL    HW236735   4.285   1.448   7.110 -1.6507 -0.4638  0.0736
 8368SOL     OW36736   3.691   1.190   6.522  0.4012 -0.4743 -0.5941
 8368SOL    HW136737   3.658   1.270   6.481 -1.2558  0.3040  2.2277
 8368SOL    HW236738   3.693   1.122   6.455  0.1668  2.3233 -3.4469
 8369SOL     OW36739   1.098   4.149   2.760  0.0163 -0.0715 -0.6270
 8369SOL    HW136740   1.151   4.182   2.687  0.9717  2.8602  1.4035
 8369SOL    HW236741   1.009   4.179   2.740 -0.7256 -1.7563  0.1112
 8370SOL     OW36742   3.437   4.352   0.967 -0.3949 -0.4512 -0.2799
 8370SOL    HW136743   3.366   4.306   1.013 -1.9459  1.5119 -0.6899
 8370SOL    HW236744   3.384   4.415   0.918 -0.1236  0.9794  1.2713
 8371SOL     OW36745   2.247   0.563   0.771 -0.5287  0.4584 -0.2311
 8371SOL    HW136746   2.198   0.642   0.747  1.0479  2.2116  2.2087
 8371SOL    HW236747   2.186   0.533   0.838 -2.7411  1.5544 -1.7796
 8372SOL     OW36748   0.741   2.074   6.940 -0.0163 -0.1530 -0.5097
 8372SOL    HW136749   0.646   2.084   6.942 -0.0211 -0.0271 -1.4269
 8372SOL    HW236750   0.754   2.133   6.866 -0.2096  1.1717  0.5105
 8373SOL     OW36751   0.800   3.088   8.690  0.5382 -0.2835  0.1511
 8373SOL    HW136752   0.884   3.046   8.675  1.2910  1.1161  0.4027
 8373SOL    HW236753   0.747   3.011   8.711 -0.1464 -0.3012 -1.6073
 8374SOL     OW36754   3.860   1.488   2.675  0.4998  0.2850  0.3581
 8374SOL    HW136755   3.879   1.420   2.611 -0.3411 -0.9698  1.4283
 8374SOL    HW236756   3.872   1.564   2.618  0.9975 -0.9915 -1.2271
 8375SOL     OW36757   2.166   3.719   5.124  0.0777 -0.8620  0.2506
 8375SOL    HW136758   2.089   3.761   5.162 -0.8570 -1.6077 -0.8134
 8375SOL    HW236759   2.144   3.723   5.031  1.4993 -1.1724 -0.0990
 8376SOL     OW36760   3.786   3.948   0.694  0.0040  0.0170  0.1584
 8376SOL    HW136761   3.768   3.856   0.675  0.8911  0.2103 -1.6385
 8376SOL    HW236762   3.879   3.947   0.719  0.2489  0.7005 -0.7055
 8377SOL     OW36763   3.019   0.520  14.865  0.0822 -0.0497  0.0876
 8377SOL    HW136764   3.023   0.510  14.960 -2.0399  3.3229  0.5177
 8377SOL    HW236765   3.087   0.586  14.854 -0.9421  1.2183  1.3501
 8378SOL     OW36766   3.448   3.818  11.484 -0.5989 -0.5426  0.1130
 8378SOL    HW136767   3.531   3.780  11.513  0.6295  2.0943  0.0744
 8378SOL    HW236768   3.484   3.900  11.450 -0.9259 -0.2053  0.5839
 8379SOL     OW36769   2.457   0.651   8.621  0.6812  0.7200  0.3688
 8379SOL    HW136770   2.364   0.671   8.611  0.3555 -0.8379  0.2149
 8379SOL    HW236771   2.494   0.713   8.559 -2.5400  2.3465  0.0390
 8380SOL     OW36772   4.284   2.845  13.270 -0.6256  0.2403  0.2798
 8380SOL    HW136773   4.354   2.838  13.334 -0.2230 -0.8721 -0.2687
 8380SOL    HW236774   4.311   2.781  13.204  1.9844  1.7017 -0.0578
 8381SOL     OW36775   3.928   1.572  12.967  0.0079  0.0191  0.2504
 8381SOL    HW136776   3.940   1.540  13.056 -2.2490  0.3972  0.6866
 8381SOL    HW236777   3.986   1.648  12.965  1.5953 -1.1529  1.8582
 8382SOL     OW36778   1.572   0.049   8.904 -0.7641 -0.1240 -0.0644
 8382SOL    HW136779   1.619   0.124   8.941  2.3770 -0.4654 -3.2960
 8382SOL    HW236780   1.606   4.721   8.967 -0.7965 -1.0838 -1.0147
 8383SOL     OW36781   2.206   2.135  10.154  0.2887  0.0423 -0.1747
 8383SOL    HW136782   2.165   2.083  10.086 -0.9413 -0.0389  0.6225
 8383SOL    HW236783   2.275   2.184  10.108  0.3270 -1.2540 -1.4776
 8384SOL     OW36784   3.450   4.228  10.867  0.5805 -0.1042 -0.6202
 8384SOL    HW136785   3.433   4.250  10.959  1.6538 -2.3943  0.1446
 8384SOL    HW236786   3.492   4.303  10.826  3.5924 -2.1211 -1.2686
 8385SOL     OW36787   1.911   0.197   4.460  0.5831  0.2427  0.5526
 8385SOL    HW136788   1.940   0.184   4.369  1.1570 -1.0900  0.9215
 8385SOL    HW236789   1.864   0.114   4.470  0.2121  0.3291 -0.4801
 8386SOL     OW36790   4.271   0.802   6.417 -0.4392  0.2096 -0.6614
 8386SOL    HW136791   4.308   0.871   6.473 -2.8477  0.0011  1.1936
 8386SOL    HW236792   4.351   0.790   6.366  0.2151 -1.0345  0.6552
 8387SOL     OW36793   1.309   2.874   4.671 -0.3352  0.0525  0.5785
 8387SOL    HW136794   1.363   2.922   4.609 -2.0875 -0.9385 -1.7024
 8387SOL    HW236795   1.228   2.907   4.634 -0.7554 -0.3394  1.1335
 8388SOL     OW36796   4.193   0.904   3.720  0.2946  0.1553 -0.0177
 8388SOL    HW136797   4.182   0.834   3.656 -1.3350  1.2854 -0.9703
 8388SOL    HW236798   4.199   0.850   3.799 -2.7700  0.3527  0.3750
 8389SOL     OW36799   1.591   4.338   9.125 -0.7710  0.2352 -0.5371
 8389SOL    HW136800   1.665   4.286   9.154 -0.8100  0.5193  0.0685
 8389SOL    HW236801   1.524   4.317   9.190 -3.3082  0.8077 -2.9419
 8390SOL     OW36802   0.492   4.130   7.247  0.5202  0.1190 -0.2725
 8390SOL    HW136803   0.505   4.224   7.256 -2.9718  0.6831 -1.0655
 8390SOL    HW236804   0.559   4.100   7.309 -0.2276 -0.5465  0.2290
 8391SOL     OW36805   2.344   0.220   6.331 -0.3836  0.2206  0.4091
 8391SOL    HW136806   2.345   0.307   6.370 -0.3066 -0.3468  1.6610
 8391SOL    HW236807   2.437   0.204   6.312 -0.7186 -0.6557 -0.5054
 8392SOL     OW36808   2.942   1.424   6.094 -0.2043  0.1645  0.4310
 8392SOL    HW136809   2.865   1.399   6.043  1.7751 -4.2122 -0.4331
 8392SOL    HW236810   2.947   1.351   6.157 -1.2266 -0.2453  0.0331
 8393SOL     OW36811   4.329   2.817   3.813  0.1039 -0.2764  0.3902
 8393SOL    HW136812   4.370   2.901   3.792  1.5567 -0.7846  1.1301
 8393SOL    HW236813   4.236   2.837   3.804 -0.0228 -0.8286  0.4992
 8394SOL     OW36814   3.281   3.899   6.115  0.3495 -1.2004 -0.8552
 8394SOL    HW136815   3.342   3.852   6.058  1.2726  1.4155 -2.0352
 8394SOL    HW236816   3.247   3.956   6.046 -0.8655 -0.1883  0.5895
 8395SOL     OW36817   2.413   1.737   2.424 -0.3201 -0.5255  0.6953
 8395SOL    HW136818   2.482   1.714   2.361  2.0441 -0.1904  3.1781
 8395SOL    HW236819   2.457   1.727   2.508 -2.2016  0.2191  1.7844
 8396SOL     OW36820   2.603   3.917   5.629  0.1747  0.0723  0.4881
 8396SOL    HW136821   2.673   3.957   5.679 -0.1684 -1.2369  2.0158
 8396SOL    HW236822   2.565   3.847   5.683  0.5292  0.0873  0.7489
 8397SOL     OW36823   2.678   3.153   6.144 -0.1825  0.1684  0.1330
 8397SOL    HW136824   2.746   3.180   6.205  0.9264 -0.6597 -0.7268
 8397SOL    HW236825   2.607   3.215   6.162  0.1934  0.5535  0.2992
 8398SOL     OW36826   1.799   2.059   2.330 -0.0007 -0.3307 -0.0176
 8398SOL    HW136827   1.846   1.977   2.347  1.2645  0.7704  1.7788
 8398SOL    HW236828   1.833   2.112   2.402 -0.3749  0.7238 -0.6251
 8399SOL     OW36829   2.263   1.793   7.679  0.3142  0.1389 -0.2078
 8399SOL    HW136830   2.167   1.792   7.686  0.4939 -1.7506  2.4052
 8399SOL    HW236831   2.289   1.848   7.753 -1.7360  2.9080 -1.5550
 8400SOL     OW36832   3.589   2.990  13.451  0.9262 -0.2770  0.9966
 8400SOL    HW136833   3.580   2.912  13.396 -3.1434 -0.2047  1.5746
 8400SOL    HW236834   3.684   2.996  13.459  0.9523  0.0649  0.4576
 8401SOL     OW36835   0.027   1.734   6.317  0.3768 -0.0809 -0.2378
 8401SOL    HW136836   0.079   1.814   6.314  1.0773 -0.5677 -0.8887
 8401SOL    HW236837   4.689   1.761   6.262  1.8765  1.8029 -1.3035
 8402SOL     OW36838   4.037   0.846  15.888  0.1405 -0.2033 -0.4168
 8402SOL    HW136839   3.978   0.910  15.847  0.3365 -0.1408 -0.6066
 8402SOL    HW236840   3.983   0.811  15.958  1.4888 -0.4560  0.4949
 8403SOL     OW36841   0.739   1.207   3.183  0.4869 -0.4054 -0.1577
 8403SOL    HW136842   0.714   1.136   3.123 -2.8359  1.0934 -0.5443
 8403SOL    HW236843   0.659   1.211   3.236 -0.9208  2.1153 -2.3952
 8404SOL     OW36844   3.201   0.753  14.797  0.3750  0.1162 -0.2583
 8404SOL    HW136845   3.143   0.827  14.780 -0.7453 -0.8546 -0.6765
 8404SOL    HW236846   3.245   0.733  14.714 -1.4087  1.2668 -1.4910
 8405SOL     OW36847   2.533   2.848  10.324 -0.8289 -0.4726  0.0807
 8405SOL    HW136848   2.471   2.900  10.375 -1.2100 -1.3034  0.4795
 8405SOL    HW236849   2.470   2.778  10.305 -1.0517 -0.5351  1.0511
 8406SOL     OW36850   1.266   2.540  13.358 -0.2685 -0.3030  0.4426
 8406SOL    HW136851   1.229   2.482  13.291 -0.2482 -0.7038  0.7757
 8406SOL    HW236852   1.227   2.504  13.438  1.3480 -1.8816  0.5153
 8407SOL     OW36853   0.216   1.450   3.041 -0.0917 -0.1592  0.1325
 8407SOL    HW136854   0.238   1.371   3.092 -0.6312 -1.0316 -1.0027
 8407SOL    HW236855   0.242   1.513   3.109 -3.3005  1.8750 -0.5776
 8408SOL     OW36856   3.966   3.766   8.119 -0.1475 -0.2566 -0.4767
 8408SOL    HW136857   3.959   3.686   8.066  0.8462 -0.2332 -0.6259
 8408SOL    HW236858   3.874   3.790   8.130 -0.5515 -1.2037 -1.7636
 8409SOL     OW36859   3.606   3.514   4.568  0.1033  0.2682 -0.0102
 8409SOL    HW136860   3.599   3.481   4.479  1.6390 -0.8548  0.2775
 8409SOL    HW236861   3.552   3.450   4.613  1.1104 -1.1459 -0.8280
 8410SOL     OW36862   3.081   2.593   5.096  0.6574  0.0919  0.2593
 8410SOL    HW136863   3.124   2.520   5.141  0.7561  0.5225  0.8676
 8410SOL    HW236864   3.163   2.633   5.067  0.9811  0.0813  1.1518
 8411SOL     OW36865   0.588   0.919   8.706 -0.1471  0.0683  0.3879
 8411SOL    HW136866   0.595   0.847   8.643  1.6090  1.2058 -0.7502
 8411SOL    HW236867   0.609   0.988   8.643 -0.8245 -0.8483 -0.8415
 8412SOL     OW36868   2.228   4.364  11.509  0.2090 -0.2888  0.3358
 8412SOL    HW136869   2.232   4.449  11.465 -3.1671 -0.3998 -0.1916
 8412SOL    HW236870   2.212   4.321  11.425  0.0189 -1.1194  0.8052
 8413SOL     OW36871   0.661   1.609  16.992 -0.7485 -0.0483 -0.7293
 8413SOL    HW136872   0.670   1.516  17.014  1.5548  0.1081 -0.9469
 8413SOL    HW236873   0.692   1.648  17.073  2.9697 -1.5987 -1.3736
 8414SOL     OW36874   1.008   1.104   7.032 -0.0685 -0.1362 -0.2367
 8414SOL    HW136875   1.022   1.168   6.963  3.6485 -0.9127 -0.1997
 8414SOL    HW236876   0.913   1.089   7.029 -0.2536  1.2000 -0.9240
 8415SOL     OW36877   1.492   0.103  12.187  0.1676 -0.1257  0.0372
 8415SOL    HW136878   1.495   0.183  12.135 -1.2287  0.2895  0.6168
 8415SOL    HW236879   1.418   0.059  12.146  0.0607 -0.7260  0.8743
 8416SOL     OW36880   0.067   1.830   3.154 -0.1551 -0.3662 -0.3529
 8416SOL    HW136881   0.052   1.870   3.240  0.7101 -0.8190  0.0101
 8416SOL    HW236882   4.716   1.825   3.114 -0.5993  3.6455  0.0285
 8417SOL     OW36883   0.253   0.451   8.970  0.1078  0.1034  0.4742
 8417SOL    HW136884   0.209   0.474   8.888 -0.1131  0.1436  0.6032
 8417SOL    HW236885   0.193   0.505   9.022 -1.5795 -1.6882  0.3715
 8418SOL     OW36886   3.658   4.246   0.139 -1.0589  0.1784  0.3515
 8418SOL    HW136887   3.713   4.173   0.168  0.1574  1.1758  0.5467
 8418SOL    HW236888   3.710   4.304   0.084 -2.3415  0.7407 -0.2609
 8419SOL     OW36889   0.824   3.668   6.548  0.9843  0.2552  0.0053
 8419SOL    HW136890   0.763   3.594   6.545  0.2154  0.8372  1.2177
 8419SOL    HW236891   0.774   3.724   6.608  1.2884  0.4607  0.0639
 8420SOL     OW36892   2.442   0.297   7.370  0.0475  0.5421 -0.0050
 8420SOL    HW136893   2.452   0.204   7.351  2.0367  0.8419 -0.4453
 8420SOL    HW236894   2.532   0.328   7.355  0.8105 -0.5586  2.4142
 8421SOL     OW36895   3.202   3.517   6.717  0.2238 -0.4616 -0.1941
 8421SOL    HW136896   3.185   3.576   6.644  2.7419 -1.9723 -2.0250
 8421SOL    HW236897   3.154   3.563   6.785  0.7515  1.3619 -1.0523
 8422SOL     OW36898   0.588   2.135   5.313  0.1671  0.6310 -0.5177
 8422SOL    HW136899   0.664   2.127   5.371 -0.9306 -0.5332  0.7488
 8422SOL    HW236900   0.620   2.204   5.256 -1.8007  0.8841 -1.3249
 8423SOL     OW36901   4.376   2.844  12.404  0.6329  0.1706 -0.5537
 8423SOL    HW136902   4.459   2.891  12.402  0.4360  0.5609  0.3258
 8423SOL    HW236903   4.412   2.761  12.374 -2.1094 -2.0085  2.2230
 8424SOL     OW36904   0.985   2.150   6.722 -0.1784  0.1585 -0.3385
 8424SOL    HW136905   1.080   2.159   6.723 -0.2574  1.2970 -2.1096
 8424SOL    HW236906   0.963   2.100   6.800  0.7882 -1.5957 -1.1818
 8425SOL     OW36907   3.255   2.888   8.851  0.0058  0.0913 -0.0712
 8425SOL    HW136908   3.269   2.797   8.879  0.0178  0.4119  0.9728
 8425SOL    HW236909   3.345   2.921   8.861  1.0859 -2.5476 -1.0883
 8426SOL     OW36910   4.596   1.809  11.401  0.4965  0.0685 -0.3126
 8426SOL    HW136911   4.507   1.821  11.370  0.7153 -0.3509 -1.1025
 8426SOL    HW236912   4.640   1.752  11.338  0.3960  1.1912 -1.4017
 8427SOL     OW36913   3.415   3.251   8.113  0.1112 -0.0609 -0.7784
 8427SOL    HW136914   3.385   3.162   8.128  1.4326 -0.4544 -0.4831
 8427SOL    HW236915   3.404   3.288   8.200  0.4033  1.1951 -1.2760
 8428SOL     OW36916   3.034   0.521   5.002  0.1573  0.6565  0.0953
 8428SOL    HW136917   3.111   0.522   4.945 -0.6830  1.2827 -1.0256
 8428SOL    HW236918   3.064   0.592   5.059 -0.6060 -0.5472  1.9939
 8429SOL     OW36919   1.657   4.385   5.844 -0.4957  0.2433  0.4652
 8429SOL    HW136920   1.575   4.432   5.825  0.4087  1.1397 -1.2880
 8429SOL    HW236921   1.684   4.432   5.923  0.4717  0.4342  0.0251
 8430SOL     OW36922   4.400   2.615  12.214 -0.2192 -0.0733  0.0611
 8430SOL    HW136923   4.425   2.667  12.138 -1.3082 -1.6392 -1.3594
 8430SOL    HW236924   4.352   2.545  12.170 -0.7209  0.0332  0.4434
 8431SOL     OW36925   1.045   2.294   2.733 -0.2864 -0.2887  0.3751
 8431SOL    HW136926   0.984   2.264   2.799 -1.1851 -0.8339 -0.6998
 8431SOL    HW236927   1.049   2.388   2.755  0.1998 -0.4801  1.0983
 8432SOL     OW36928   0.754   3.321  12.799 -0.4385 -0.2676  0.3483
 8432SOL    HW136929   0.825   3.343  12.858  1.1019 -2.8977 -0.4985
 8432SOL    HW236930   0.683   3.300  12.859  0.4053 -1.6231  0.8809
 8433SOL     OW36931   3.124   3.518   9.530 -0.4072  1.0856  0.3663
 8433SOL    HW136932   3.087   3.461   9.462 -0.8043  0.8413  0.7846
 8433SOL    HW236933   3.130   3.463   9.608  2.4264  1.8591  0.6979
 8434SOL     OW36934   4.587   0.501  16.420  0.4352 -0.0961 -0.7270
 8434SOL    HW136935   4.656   0.438  16.440 -0.7150 -1.9446 -2.5178
 8434SOL    HW236936   4.630   0.585  16.433  1.9293 -0.8996 -0.5294
 8435SOL     OW36937   0.225   3.865   6.387 -1.0497  0.3658 -0.9037
 8435SOL    HW136938   0.200   3.871   6.295  0.2318  0.0579 -1.2742
 8435SOL    HW236939   0.219   3.956   6.416 -0.9754 -1.1613  3.8153
 8436SOL     OW36940   3.019   4.442   7.602  0.1767  0.3066  0.1550
 8436SOL    HW136941   3.100   4.427   7.650  0.6398  2.8201  0.1468
 8436SOL    HW236942   2.954   4.403   7.661  2.4636 -1.9200  1.1689
 8437SOL     OW36943   2.191   3.984   5.360  0.4663  0.0386 -0.2636
 8437SOL    HW136944   2.171   3.981   5.453 -0.3423  2.0846 -0.3734
 8437SOL    HW236945   2.110   3.953   5.320 -1.2128  3.2834  0.6020
 8438SOL     OW36946   2.900   0.086   4.826 -0.0131  0.2220  0.8045
 8438SOL    HW136947   2.864   0.167   4.790 -1.6517 -1.5002 -1.4738
 8438SOL    HW236948   2.845   0.021   4.780  0.1963  0.6570 -0.0560
 8439SOL     OW36949   4.018   1.953   2.293  0.6254 -0.3407 -0.0525
 8439SOL    HW136950   4.060   2.038   2.292  0.5270 -0.2870  0.3185
 8439SOL    HW236951   3.930   1.984   2.269  1.6855  3.8657  1.5502
 8440SOL     OW36952   4.445   3.886   2.434  0.1991  0.1536  0.0135
 8440SOL    HW136953   4.492   3.847   2.359 -0.8277 -0.4099 -0.3414
 8440SOL    HW236954   4.470   3.976   2.413 -0.7965  0.2716 -0.6760
 8441SOL     OW36955   4.671   3.897   9.234  0.1006  0.2808 -0.4404
 8441SOL    HW136956   4.640   3.950   9.307  0.3007 -0.5344  0.2238
 8441SOL    HW236957   4.636   3.812   9.257 -0.0720  0.1260 -1.2658
 8442SOL     OW36958   1.346   4.582   4.966  0.0723 -0.6452  0.9622
 8442SOL    HW136959   1.345   4.487   4.981 -1.3743 -1.4412 -4.1965
 8442SOL    HW236960   1.289   4.589   4.889  2.5253  0.7000 -0.7259
 8443SOL     OW36961   2.502   1.244  10.100 -0.0977 -0.8240  0.3255
 8443SOL    HW136962   2.489   1.247  10.195  0.8041  2.8376  0.3507
 8443SOL    HW236963   2.559   1.168  10.093  1.5722  0.5172 -0.5998
 8444SOL     OW36964   3.517   2.100   7.859 -0.4755  0.3717 -0.3534
 8444SOL    HW136965   3.529   2.121   7.951 -1.1017 -1.8155  0.2101
 8444SOL    HW236966   3.488   2.009   7.867  2.3653 -0.7312 -2.3634
 8445SOL     OW36967   1.016   4.230   6.144 -0.2870  0.2286 -0.1601
 8445SOL    HW136968   1.111   4.240   6.148 -0.1382 -1.0872 -0.3845
 8445SOL    HW236969   1.005   4.140   6.177  1.0439 -0.0596 -0.4879
 8446SOL     OW36970   2.055   2.100   5.168  0.0551 -0.5368 -0.2001
 8446SOL    HW136971   2.093   2.149   5.095 -0.1181 -2.1009 -1.3538
 8446SOL    HW236972   1.976   2.153   5.179  0.5461  0.5143 -1.7379
 8447SOL     OW36973   0.451   3.363   5.876  0.4547  0.1011 -0.0990
 8447SOL    HW136974   0.368   3.377   5.922  0.8773 -1.2844  1.0708
 8447SOL    HW236975   0.438   3.414   5.796  1.5346  0.2347 -0.1795
 8448SOL     OW36976   3.122   3.743   1.573 -0.9638  0.4564 -0.5378
 8448SOL    HW136977   3.056   3.675   1.561 -0.0436 -0.4722 -0.3858
 8448SOL    HW236978   3.203   3.702   1.544 -1.1412 -0.0580 -0.3165
 8449SOL     OW36979   0.051   2.478   6.197 -0.1359 -0.4863  0.4442
 8449SOL    HW136980   4.701   2.464   6.158 -0.0016  1.8075 -0.6809
 8449SOL    HW236981   0.076   2.566   6.168  1.3504 -1.0922 -0.1371
 8450SOL     OW36982   0.186   0.013  11.342 -0.2509  0.1768 -0.4342
 8450SOL    HW136983   0.198   0.015  11.247 -0.5022 -0.0786 -0.4740
 8450SOL    HW236984   0.262   0.066  11.365  2.2962 -2.8259 -1.8163
 8451SOL     OW36985   4.187   2.530  14.125 -0.3180  0.2106 -0.6438
 8451SOL    HW136986   4.104   2.566  14.156  0.7989  1.1410  1.2727
 8451SOL    HW236987   4.147   2.471  14.062 -3.5834 -0.0135  1.6346
 8452SOL     OW36988   3.887   0.846   2.033  0.1621  0.1939 -0.3313
 8452SOL    HW136989   3.870   0.753   2.017  0.2108  0.1955 -0.3920
 8452SOL    HW236990   3.953   0.849   2.102 -1.0609  0.2383  0.8372
 8453SOL     OW36991   0.124   1.251   7.603 -0.2976 -0.2952 -0.2145
 8453SOL    HW136992   0.157   1.255   7.513  0.4462 -1.1412  0.0228
 8453SOL    HW236993   0.124   1.342   7.634 -0.6270 -0.0515 -0.9267
 8454SOL     OW36994   1.889   3.662   8.448  0.2696  0.3969  0.4687
 8454SOL    HW136995   1.971   3.711   8.441  0.4476  0.3919  2.6235
 8454SOL    HW236996   1.830   3.728   8.483 -0.8367  0.8554 -2.2141
 8455SOL     OW36997   1.596   3.195   2.713 -0.3495  0.1921 -0.1218
 8455SOL    HW136998   1.563   3.269   2.763 -0.6252 -0.3170  0.4425
 8455SOL    HW236999   1.512   3.153   2.694  0.9851 -3.0137  1.0687
 8456SOL     OW37000   3.392   2.434  16.928  0.7459 -0.3639 -0.1180
 8456SOL    HW137001   3.439   2.425  16.845  1.4855 -2.5882  0.5242
 8456SOL    HW237002   3.300   2.431  16.904  0.4646  0.1601  0.9464
 8457SOL     OW37003   3.222   2.451  14.662 -0.1978  0.1212 -0.5124
 8457SOL    HW137004   3.220   2.519  14.729 -1.0695 -0.9089  0.5101
 8457SOL    HW237005   3.274   2.385  14.709 -0.6036 -0.0617 -0.3166
 8458SOL     OW37006   3.219   3.303   5.879 -0.3008 -0.3320  0.3076
 8458SOL    HW137007   3.173   3.237   5.828 -0.4598  1.0165 -1.3062
 8458SOL    HW237008   3.304   3.311   5.837 -1.0538 -1.4263 -1.4401
 8459SOL     OW37009   3.161   4.300   5.071  0.1316  0.4100 -0.0150
 8459SOL    HW137010   3.079   4.343   5.093  0.4591  2.2269 -2.4887
 8459SOL    HW237011   3.206   4.370   5.025  1.4473  1.0421  2.2029
 8460SOL     OW37012   2.275   2.377   7.425  0.0378 -0.2050 -0.1673
 8460SOL    HW137013   2.303   2.307   7.366  2.1593 -1.2980  2.1816
 8460SOL    HW237014   2.349   2.433   7.402 -1.1487  1.6734  0.5899
 8461SOL     OW37015   2.504   4.703  16.878  0.3618  0.2956 -0.1991
 8461SOL    HW137016   2.551   4.692  16.960  0.6174 -1.5987 -0.6067
 8461SOL    HW237017   2.522   0.059  16.856  1.1886 -0.0684 -1.0586
 8462SOL     OW37018   2.402   1.630   8.368  0.0595 -0.3797  0.1153
 8462SOL    HW137019   2.322   1.579   8.380 -0.4384  0.4057  0.1581
 8462SOL    HW237020   2.463   1.567   8.331 -0.9240 -0.5348 -1.2330
 8463SOL     OW37021   4.472   4.044  14.829  0.5825 -0.4433 -0.5257
 8463SOL    HW137022   4.487   3.957  14.794  0.8188 -0.6978  0.2133
 8463SOL    HW237023   4.382   4.061  14.800  0.1153 -0.7727  0.7253
 8464SOL     OW37024   1.655   3.113  14.882  0.0392 -0.5787  0.0646
 8464SOL    HW137025   1.596   3.099  14.956  0.4849  0.6707  0.6702
 8464SOL    HW237026   1.618   3.039  14.835 -3.0303  0.2754  1.1834
 8465SOL     OW37027   0.937   4.154   5.673 -0.0021 -0.8661 -0.2695
 8465SOL    HW137028   0.902   4.093   5.608 -3.3575 -2.0222  2.6012
 8465SOL    HW237029   0.880   4.134   5.748 -0.4457 -1.0054 -0.6441
 8466SOL     OW37030   2.335   2.201  11.352  0.0313  0.8463  0.1843
 8466SOL    HW137031   2.415   2.202  11.298  0.2817 -1.0965  0.5138
 8466SOL    HW237032   2.268   2.164  11.294 -0.3389 -1.3331  2.0293
 8467SOL     OW37033   3.097   2.434   8.455 -0.5794  0.3636 -0.1316
 8467SOL    HW137034   3.178   2.482   8.437 -0.9512  1.1566  0.2883
 8467SOL    HW237035   3.112   2.345   8.423  1.7945  1.6363 -2.5960
 8468SOL     OW37036   1.725   4.104   6.125 -0.0262  0.2134  0.3336
 8468SOL    HW137037   1.725   4.111   6.030  0.2631  0.3634  0.3465
 8468SOL    HW237038   1.759   4.016   6.138  2.1325  1.0003  0.0176
 8469SOL     OW37039   3.106   3.139   4.976  0.3512  0.0426  0.0220
 8469SOL    HW137040   3.067   3.181   5.053  1.6244  1.8878 -0.3218
 8469SOL    HW237041   3.029   3.098   4.937  0.8429 -0.5587 -0.3214
 8470SOL     OW37042   0.931   4.306   3.265  0.0379  0.3203 -0.1565
 8470SOL    HW137043   0.837   4.318   3.260 -0.0510 -0.2739  0.0645
 8470SOL    HW237044   0.944   4.280   3.174 -1.0284 -2.6532  0.5361
 8471SOL     OW37045   1.599   3.743  15.814  0.6370 -0.3984 -0.3937
 8471SOL    HW137046   1.562   3.663  15.851  0.6830 -0.6119 -0.8059
 8471SOL    HW237047   1.643   3.701  15.739 -1.4249 -0.9471 -1.2838
 8472SOL     OW37048   1.374   1.794   0.182 -0.1525 -0.0797  0.0277
 8472SOL    HW137049   1.419   1.711   0.167  0.0167 -0.0068  0.1373
 8472SOL    HW237050   1.334   1.801   0.095 -0.0007  0.9662  0.0426
 8473SOL     OW37051   3.714   2.253   4.248 -0.0522 -0.3478 -0.6715
 8473SOL    HW137052   3.772   2.192   4.293  2.5517  1.4811 -1.4790
 8473SOL    HW237053   3.633   2.239   4.296  0.6880 -0.8986  0.4114
 8474SOL     OW37054   2.047   2.692  12.902  0.5270 -0.0744  0.2168
 8474SOL    HW137055   1.982   2.657  12.842 -1.0080  1.9465  0.6930
 8474SOL    HW237056   2.039   2.787  12.896  0.1707 -0.2006 -1.1629
 8475SOL     OW37057   3.067   1.345   2.044 -0.1248 -0.0861 -0.3383
 8475SOL    HW137058   3.030   1.308   1.964 -1.2326 -0.5423  0.3982
 8475SOL    HW237059   2.997   1.398   2.082 -0.1253 -0.5923  0.3634
 8476SOL     OW37060   2.463   3.935   9.135  0.1011 -0.2459  0.2731
 8476SOL    HW137061   2.531   3.898   9.191  0.9512 -2.0137 -1.9250
 8476SOL    HW237062   2.504   4.013   9.096  1.3235 -0.7559  0.5352
 8477SOL     OW37063   2.799   0.433   1.866 -0.4852  0.2633 -0.6101
 8477SOL    HW137064   2.759   0.349   1.885 -1.2724  0.7114 -0.2889
 8477SOL    HW237065   2.749   0.464   1.790 -3.2823  0.3871  1.2980
 8478SOL     OW37066   0.718   3.030   1.073 -0.1978 -0.3980 -0.0675
 8478SOL    HW137067   0.724   2.971   1.148  0.3284 -2.0597 -1.4301
 8478SOL    HW237068   0.773   2.976   1.016  1.4693  1.7488 -0.4912
 8479SOL     OW37069   1.154   1.832  17.713 -0.7427 -0.5605 -0.4304
 8479SOL    HW137070   1.240   1.855  17.677 -0.7270  1.3362  0.8365
 8479SOL    HW237071   1.104   1.820  17.633 -0.7417 -0.3657 -0.4592
 8480SOL     OW37072   2.391   1.162   7.776  0.2245  0.3267  0.2408
 8480SOL    HW137073   2.305   1.170   7.818 -0.0336  0.4308 -0.3121
 8480SOL    HW237074   2.444   1.214   7.836  0.2487  0.7017 -0.1063
 8481SOL     OW37075   3.954   3.308   5.564  0.0181 -0.2856 -0.2139
 8481SOL    HW137076   4.049   3.304   5.567 -0.0647 -0.9197  1.7508
 8481SOL    HW237077   3.930   3.325   5.473 -2.0584  1.4707  0.6292
 8482SOL     OW37078   3.636   3.554   4.142  0.3227 -0.4017  0.2451
 8482SOL    HW137079   3.719   3.508   4.132  0.0485 -0.2662 -2.6527
 8482SOL    HW237080   3.656   3.640   4.106  0.8392 -0.2290  0.9495
 8483SOL     OW37081   2.807   3.609  10.735  0.0023  0.2805 -0.0467
 8483SOL    HW137082   2.847   3.624  10.821 -1.0299 -0.0489  0.4930
 8483SOL    HW237083   2.845   3.681  10.685 -1.2660 -0.6287 -2.2723
 8484SOL     OW37084   1.304   0.479   4.550 -0.4305  0.4058 -0.0809
 8484SOL    HW137085   1.296   0.541   4.622 -3.2049  1.0910 -0.9437
 8484SOL    HW237086   1.376   0.428   4.585  0.6736  1.8361 -0.2872
 8485SOL     OW37087   0.880   1.010  16.392 -0.5507  0.1564  0.1339
 8485SOL    HW137088   0.791   0.987  16.418 -0.3487 -0.5655  0.1925
 8485SOL    HW237089   0.883   0.957  16.312  3.2130  2.4104 -1.2202
 8486SOL     OW37090   0.301   0.774   4.277 -0.7110  0.1025  0.2449
 8486SOL    HW137091   0.266   0.694   4.316 -0.5437  0.2367  0.6714
 8486SOL    HW237092   0.365   0.743   4.213 -0.1409  0.9544  0.4073
 8487SOL     OW37093   2.652   3.505   6.257  0.2307  0.0432 -0.3645
 8487SOL    HW137094   2.702   3.478   6.180  0.9863 -0.4902  0.3185
 8487SOL    HW237095   2.572   3.460   6.231 -0.5944  1.0881  0.3505
 8488SOL     OW37096   3.294   4.531   0.552 -0.0878 -0.1214 -0.1646
 8488SOL    HW137097   3.361   4.466   0.528  0.0542 -0.8096  2.0440
 8488SOL    HW237098   3.225   4.469   0.575  0.0859  0.9532  3.3894
 8489SOL     OW37099   1.801   1.160   4.423  0.3617  0.2676 -0.5074
 8489SOL    HW137100   1.785   1.101   4.349  0.4318 -0.0448 -0.2723
 8489SOL    HW237101   1.785   1.112   4.505 -1.1853 -0.1445 -1.0375
 8490SOL     OW37102   3.040   4.136   5.726  0.3024 -0.1369  0.0231
 8490SOL    HW137103   3.060   4.151   5.634 -2.1647  0.9502 -0.3657
 8490SOL    HW237104   3.007   4.223   5.752 -0.0896  0.0393 -1.0638
 8491SOL     OW37105   4.394   4.681  10.140  0.2922 -0.0079 -0.1772
 8491SOL    HW137106   4.339   4.663  10.217  0.6677 -0.3086  0.0169
 8491SOL    HW237107   4.362   0.034  10.123 -0.2494  0.1099  1.3832
 8492SOL     OW37108   0.493   1.175   0.838 -0.5765  0.1413  0.6819
 8492SOL    HW137109   0.471   1.134   0.754  2.2178  2.2997 -1.0828
 8492SOL    HW237110   0.437   1.252   0.844  0.9599  1.3405 -0.4064
 8493SOL     OW37111   1.973   0.754   5.169  0.2676  0.2145 -0.1192
 8493SOL    HW137112   1.938   0.750   5.258  1.1973  1.9398  0.3239
 8493SOL    HW237113   2.048   0.697   5.187 -1.2180 -1.4640  0.7456
 8494SOL     OW37114   2.329   3.131   8.638  0.3441 -0.3712  0.1114
 8494SOL    HW137115   2.289   3.065   8.582  1.3099 -1.4210  0.6704
 8494SOL    HW237116   2.256   3.193   8.638 -0.0785 -0.8549  2.2281
 8495SOL     OW37117   1.753   0.280   7.635  0.1841 -0.1911 -0.0289
 8495SOL    HW137118   1.663   0.292   7.604  0.2057  0.3249  0.1063
 8495SOL    HW237119   1.791   0.367   7.619 -0.7294 -0.1502 -2.0854
 8496SOL     OW37120   1.946   0.425   3.161  0.5699 -0.0879  0.4878
 8496SOL    HW137121   1.961   0.419   3.066 -0.5937  0.5117  0.2681
 8496SOL    HW237122   1.871   0.484   3.169  2.3541  2.2000  0.1320
 8497SOL     OW37123   2.223   1.769   6.311 -0.0602  0.6642  0.3388
 8497SOL    HW137124   2.229   1.695   6.250  0.2256 -0.2330  1.4608
 8497SOL    HW237125   2.313   1.796   6.296 -0.2042  0.7417 -0.3986
 8498SOL     OW37126   4.089   4.438   3.901  0.0648  0.2185 -0.2760
 8498SOL    HW137127   4.066   4.502   3.969 -1.0917  1.5663 -1.9413
 8498SOL    HW237128   4.080   4.353   3.943  0.6100 -0.9575 -2.5505
 8499SOL     OW37129   4.368   2.151  12.310 -0.0086 -0.6162  0.7581
 8499SOL    HW137130   4.336   2.199  12.386  0.3148 -1.5059  1.4519
 8499SOL    HW237131   4.362   2.064  12.350  0.2771 -0.4647  1.1339
 8500SOL     OW37132   1.763   0.813  17.098 -0.0666  0.1383  0.0883
 8500SOL    HW137133   1.673   0.845  17.086  0.3768  0.8771 -1.2846
 8500SOL    HW237134   1.735   0.724  17.080 -0.3467  0.3216 -0.3867
 8501SOL     OW37135   4.538   4.211   2.881 -0.3604 -0.0500 -0.2228
 8501SOL    HW137136   4.503   4.300   2.869  1.2796  0.7819  1.3412
 8501SOL    HW237137   4.616   4.235   2.931 -0.2741 -0.9861  0.0945
 8502SOL     OW37138   3.077   4.680   1.196  0.2818 -0.0923 -0.0309
 8502SOL    HW137139   2.994   4.670   1.149 -0.7953 -0.1413  1.8758
 8502SOL    HW237140   3.035   4.684   1.283  2.7002  0.0174  1.1205
 8503SOL     OW37141   0.209   2.025   3.343  0.0158 -0.4653  0.0734
 8503SOL    HW137142   0.183   2.114   3.320 -1.7290 -1.3820 -1.4619
 8503SOL    HW237143   0.124   1.988   3.365 -0.2412  0.2333  0.2775
 8504SOL     OW37144   0.758   3.883   5.590  0.8328  0.1813  0.7278
 8504SOL    HW137145   0.765   3.852   5.680 -1.5758  0.7441  1.0859
 8504SOL    HW237146   0.728   3.803   5.548 -1.0721  0.5804  1.3664
 8505SOL     OW37147   1.460   1.349   3.370  0.4638 -0.0947 -0.0226
 8505SOL    HW137148   1.515   1.316   3.299 -1.1293 -2.1901 -0.2717
 8505SOL    HW237149   1.387   1.372   3.312 -0.5165  0.1183  1.2904
 8506SOL     OW37150   3.193   3.505   1.841 -0.4859  0.2925 -0.4251
 8506SOL    HW137151   3.241   3.453   1.777  0.7049  0.4543  0.3496
 8506SOL    HW237152   3.249   3.576   1.872  0.5095 -0.0520 -1.4039
 8507SOL     OW37153   3.481   0.343   3.773 -0.1453  0.0328 -0.5360
 8507SOL    HW137154   3.444   0.426   3.746 -2.7785 -1.3135 -1.0758
 8507SOL    HW237155   3.414   0.288   3.732  1.4984 -2.5079  0.1319
 8508SOL     OW37156   2.624   4.082   6.176  0.3943  0.3167  0.1595
 8508SOL    HW137157   2.643   3.988   6.179 -1.0104  0.0043 -0.5208
 8508SOL    HW237158   2.543   4.065   6.127  0.5903 -1.1489  0.3406
 8509SOL     OW37159   0.981   3.251   5.392 -0.6316  0.1077  0.7771
 8509SOL    HW137160   0.943   3.275   5.477  0.1994 -1.5581  1.6133
 8509SOL    HW237161   0.908   3.195   5.364 -0.0897 -0.3665  0.3186
 8510SOL     OW37162   1.859   2.610   9.505 -0.2738 -0.2433  0.0515
 8510SOL    HW137163   1.862   2.631   9.598  2.9699  0.1407 -0.1355
 8510SOL    HW237164   1.771   2.641   9.487  1.0246  2.8097 -1.0659
 8511SOL     OW37165   3.567   2.732   6.088 -0.2096  0.8418  0.3475
 8511SOL    HW137166   3.521   2.746   6.171 -2.0082 -1.8844 -0.1621
 8511SOL    HW237167   3.554   2.812   6.038  1.9078  1.3527  0.6401
 8512SOL     OW37168   3.173   4.263  11.501  0.2704  0.4827  0.2787
 8512SOL    HW137169   3.186   4.252  11.407  0.5160 -2.1369  0.6379
 8512SOL    HW237170   3.105   4.331  11.501  1.2559  1.4774 -1.0940
 8513SOL     OW37171   1.792   1.661  11.880  0.5494 -0.0171 -0.3684
 8513SOL    HW137172   1.824   1.589  11.934  0.7683  2.1813  2.3878
 8513SOL    HW237173   1.854   1.667  11.806 -0.5268  0.2627 -1.2484
 8514SOL     OW37174   1.001   4.580  11.114 -0.5617  0.2999 -0.1263
 8514SOL    HW137175   1.017   4.633  11.193 -0.2176 -0.6658  0.4523
 8514SOL    HW237176   1.075   4.597  11.056 -1.0337  2.9397  0.0308
 8515SOL     OW37177   0.509   1.536   2.059  0.8436  0.1390  0.7368
 8515SOL    HW137178   0.597   1.514   2.027 -0.3895  0.4647 -2.8726
 8515SOL    HW237179   0.487   1.594   1.986 -0.4168  0.2685  1.2338
 8516SOL     OW37180   0.732   1.464   2.454 -0.4891 -0.9147 -0.0489
 8516SOL    HW137181   0.752   1.454   2.547  0.5595 -1.1612 -0.3022
 8516SOL    HW237182   0.677   1.388   2.436 -0.3840 -1.0853  0.3520
 8517SOL     OW37183   3.192   3.555   4.282 -0.0321 -0.3082  0.4434
 8517SOL    HW137184   3.172   3.648   4.286  0.6168 -0.0632 -1.8322
 8517SOL    HW237185   3.134   3.528   4.210  0.5012 -0.2526 -0.0096
 8518SOL     OW37186   4.459   4.702   4.380  0.1404  0.3636  0.7901
 8518SOL    HW137187   4.444   4.628   4.320 -1.1624  1.3630 -0.1151
 8518SOL    HW237188   4.441   4.651   4.459  0.3471  0.5860  0.9770
 8519SOL     OW37189   2.366   2.005   4.026  0.1521  0.1300  0.2493
 8519SOL    HW137190   2.313   1.945   3.973  0.2509 -1.4487  1.9134
 8519SOL    HW237191   2.349   2.090   3.986  0.4865  0.3018  0.4760
 8520SOL     OW37192   2.290   0.152   2.954  0.2212 -0.2020  0.0478
 8520SOL    HW137193   2.380   0.183   2.948 -0.1124  0.7562  0.0214
 8520SOL    HW237194   2.275   0.211   3.028  1.8410 -0.2374  0.4105
 8521SOL     OW37195   0.266   4.538  12.101 -0.1884 -0.1539 -0.5601
 8521SOL    HW137196   0.212   4.608  12.137 -0.3748 -0.7817  0.3830
 8521SOL    HW237197   0.345   4.547  12.154 -0.3290  0.4011 -0.4478
 8522SOL     OW37198   2.456   1.758   1.120  0.4610 -0.5288 -0.2789
 8522SOL    HW137199   2.371   1.716   1.107 -0.5271  1.4104 -0.1266
 8522SOL    HW237200   2.491   1.705   1.192  1.2451 -2.7708 -2.3109
 8523SOL     OW37201   2.301   3.805  17.468  0.2810  0.3881  0.1019
 8523SOL    HW137202   2.389   3.803  17.430  1.0699 -0.3731  2.0092
 8523SOL    HW237203   2.244   3.772  17.398  1.6953  4.4204 -2.9775
 8524SOL     OW37204   2.792   1.807  17.246 -0.5921  0.3245 -0.4227
 8524SOL    HW137205   2.752   1.758  17.175 -0.6684  0.4719 -0.4820
 8524SOL    HW237206   2.869   1.843  17.202  0.2139  0.5602  1.1854
 8525SOL     OW37207   3.307   3.679   5.477 -0.1179  0.0979 -0.3177
 8525SOL    HW137208   3.300   3.773   5.495 -0.1350  0.1380 -0.5261
 8525SOL    HW237209   3.263   3.647   5.555  2.1789 -1.3521  0.3688
 8526SOL     OW37210   4.349   3.523   0.779  0.0753  0.2908 -0.2123
 8526SOL    HW137211   4.408   3.448   0.778  0.4332  0.5586  1.4191
 8526SOL    HW237212   4.266   3.488   0.810  0.7014 -0.5490  0.4885
 8527SOL     OW37213   1.094   1.469   6.928 -0.2525 -0.1694  0.0539
 8527SOL    HW137214   1.024   1.461   6.993 -2.0081  0.6980 -1.7274
 8527SOL    HW237215   1.054   1.450   6.844 -2.2333  1.0677  0.7138
 8528SOL     OW37216   4.034   4.055  16.896  0.7708  0.2840  0.4677
 8528SOL    HW137217   3.980   3.988  16.853 -1.6790  2.6934 -0.2161
 8528SOL    HW237218   3.994   4.137  16.870  2.4857  0.9948  0.0864
 8529SOL     OW37219   0.775   2.636   0.004  0.6584  0.2183  0.4705
 8529SOL    HW137220   0.805   2.587  17.669  0.0571  0.2406  0.2171
 8529SOL    HW237221   0.814   2.577   0.069  0.4613  1.2557  1.5287
 8530SOL     OW37222   0.305   4.256  14.615  0.3266  0.5900 -0.1698
 8530SOL    HW137223   0.391   4.217  14.630 -0.8299 -1.7975  0.2414
 8530SOL    HW237224   0.288   4.223  14.527 -3.0405  0.9871  0.2975
 8531SOL     OW37225   1.041   2.322   8.554  0.0174  0.5113  0.2974
 8531SOL    HW137226   0.967   2.306   8.496 -0.5933  0.7132  1.0182
 8531SOL    HW237227   1.117   2.327   8.496 -1.2814  0.5495 -1.3954
 8532SOL     OW37228   4.356   0.474   3.559  0.4973 -0.4955 -0.4547
 8532SOL    HW137229   4.333   0.431   3.641 -1.6863  0.5307 -0.5114
 8532SOL    HW237230   4.289   0.543   3.556 -1.4793 -2.4388 -0.9194
 8533SOL     OW37231   2.404   1.126   3.268 -0.0130  0.0453 -0.2337
 8533SOL    HW137232   2.380   1.034   3.255 -0.5836  0.3213 -1.1327
 8533SOL    HW237233   2.331   1.161   3.217  0.4583  1.2867 -0.0466
 8534SOL     OW37234   3.384   2.791   8.533 -0.8423  0.1325  0.2175
 8534SOL    HW137235   3.433   2.780   8.614 -2.8902 -2.3021  1.1172
 8534SOL    HW237236   3.368   2.698   8.515 -1.9498  0.4494 -0.4588
 8535SOL     OW37237   0.315   1.203   9.636 -0.0253 -0.0850 -0.4471
 8535SOL    HW137238   0.263   1.282   9.647 -2.5185 -1.7991  0.1780
 8535SOL    HW237239   0.394   1.234   9.680  0.1832 -0.5518 -0.4878
 8536SOL     OW37240   0.380   4.188   4.841 -0.6092  0.1780 -0.2030
 8536SOL    HW137241   0.444   4.153   4.903 -0.4841  0.2105 -0.3117
 8536SOL    HW237242   0.431   4.267   4.822  0.8819 -0.6266  0.4148
 8537SOL     OW37243   1.648   2.608   1.528 -0.5881  0.3637 -0.5982
 8537SOL    HW137244   1.636   2.662   1.449 -0.4912 -0.5912 -1.2671
 8537SOL    HW237245   1.597   2.533   1.498 -0.6663 -0.8935  2.7023
 8538SOL     OW37246   4.356   3.229   8.591 -0.0115  0.1441 -0.3775
 8538SOL    HW137247   4.421   3.251   8.524  0.6715  0.9801  0.5582
 8538SOL    HW237248   4.319   3.315   8.607  0.4978  0.0295  1.4565
 8539SOL     OW37249   3.023   4.468  13.079 -0.3239  0.1653  0.1889
 8539SOL    HW137250   3.116   4.456  13.101 -1.0359 -1.9329  2.0483
 8539SOL    HW237251   2.987   4.512  13.156 -1.5952 -2.6336  1.1838
 8540SOL     OW37252   0.152   0.803   4.599  0.1845 -0.3179  0.4683
 8540SOL    HW137253   0.151   0.866   4.527 -0.7139 -2.3218 -1.2683
 8540SOL    HW237254   0.077   0.747   4.582  0.3606 -0.0275 -1.3223
 8541SOL     OW37255   2.299   2.432  15.596  0.0996 -0.0082 -0.2406
 8541SOL    HW137256   2.324   2.436  15.688  0.1916 -1.9344 -0.1647
 8541SOL    HW237257   2.386   2.438  15.557  0.3578 -1.9409  0.0107
 8542SOL     OW37258   0.954   1.934  16.263 -0.1208 -0.2945  0.5676
 8542SOL    HW137259   1.014   2.007  16.273 -0.1520 -0.2528  0.4548
 8542SOL    HW237260   1.023   1.874  16.234  0.0552 -0.3752  1.1729
 8543SOL     OW37261   4.196   2.307   5.973  0.5262 -0.1120  0.0666
 8543SOL    HW137262   4.188   2.326   6.067  0.7097 -0.3460  0.1289
 8543SOL    HW237263   4.114   2.266   5.949  0.6172 -1.0433  1.3120
 8544SOL     OW37264   1.210   0.096   8.058  0.3729 -0.0890 -0.0842
 8544SOL    HW137265   1.122   0.058   8.062  0.0160  0.5535 -1.8861
 8544SOL    HW237266   1.207   0.170   8.119  2.4374  0.6039 -0.8464
 8545SOL     OW37267   1.188   2.285   8.322  0.2544 -0.3616 -0.3956
 8545SOL    HW137268   1.282   2.298   8.313 -0.0181  1.5453 -0.4635
 8545SOL    HW237269   1.175   2.224   8.248 -0.0482 -0.2852 -0.4072
 8546SOL     OW37270   2.494   4.054  16.871 -0.7345  0.2763 -0.2562
 8546SOL    HW137271   2.521   4.047  16.780 -3.2066  0.5626 -1.0302
 8546SOL    HW237272   2.548   4.130  16.891  0.4824 -1.9001  4.6625
 8547SOL     OW37273   3.464   4.225  17.146  0.0633  0.3525  0.1401
 8547SOL    HW137274   3.430   4.298  17.095  2.6387  3.1849  2.4357
 8547SOL    HW237275   3.558   4.239  17.159 -0.1089  1.8760 -0.2286
 8548SOL     OW37276   0.627   4.629   8.747  0.2259 -0.1438  0.0936
 8548SOL    HW137277   0.714   4.658   8.720 -1.6168  1.4694 -4.2057
 8548SOL    HW237278   0.645   4.569   8.820 -0.7342 -1.3550 -0.6610
 8549SOL     OW37279   2.277   0.321   5.351 -0.3936  0.0973 -0.0754
 8549SOL    HW137280   2.284   0.402   5.299  0.5154 -1.0357 -1.7127
 8549SOL    HW237281   2.258   0.263   5.278 -0.5191  0.8592 -0.6542
 8550SOL     OW37282   1.195   4.584  11.867 -0.4105 -0.4011 -0.1714
 8550SOL    HW137283   1.240   4.502  11.890 -0.5870 -0.3300  0.4109
 8550SOL    HW237284   1.153   4.601  11.951  2.8547  0.4202  1.2945
 8551SOL     OW37285   2.073   2.065   7.839  0.0663 -0.1337 -0.0678
 8551SOL    HW137286   2.159   2.067   7.798  1.7129  0.7584  3.4438
 8551SOL    HW237287   2.093   2.008   7.913  0.0991  0.9300  0.7527
 8552SOL     OW37288   1.251   0.991  14.425  0.7527 -0.5353 -0.3087
 8552SOL    HW137289   1.212   0.913  14.387  1.1778 -0.5842 -0.6552
 8552SOL    HW237290   1.212   1.061  14.372  2.7160  1.6907  1.1677
 8553SOL     OW37291   0.008   1.867   5.766  0.2558 -0.0757  0.3982
 8553SOL    HW137292   4.660   1.910   5.781  0.3393 -0.5489  2.2700
 8553SOL    HW237293   0.066   1.923   5.818  0.9921 -0.1497 -0.3480
 8554SOL     OW37294   3.211   2.454   3.745 -0.0886  0.0454  0.3950
 8554SOL    HW137295   3.166   2.405   3.814 -0.3476  1.1945  1.0401
 8554SOL    HW237296   3.295   2.407   3.740 -0.7656 -1.0106 -0.9404
 8555SOL     OW37297   3.917   2.937   7.798 -0.7710  0.6031 -0.1955
 8555SOL    HW137298   3.962   2.941   7.714  0.6721  0.2920  0.5650
 8555SOL    HW237299   3.835   2.900   7.765  0.0835 -2.2583  0.8857
 8556SOL     OW37300   0.074   3.306   4.472  0.4429  0.3662 -0.0773
 8556SOL    HW137301   0.040   3.395   4.485  0.1214  0.1311  0.7056
 8556SOL    HW237302   0.043   3.262   4.551  2.8312 -0.4172  0.4169
 8557SOL     OW37303   0.525   3.313   7.577 -0.0955  0.0817  0.2951
 8557SOL    HW137304   0.575   3.387   7.542 -1.3691  0.2386 -1.1906
 8557SOL    HW237305   0.596   3.250   7.591 -1.3026 -1.4205 -0.3764
 8558SOL     OW37306   2.273   0.945   2.255  0.1239 -0.1490 -0.1684
 8558SOL    HW137307   2.310   0.859   2.236  0.1711  0.1028 -1.1815
 8558SOL    HW237308   2.281   1.004   2.180  1.3128 -1.5096 -1.1075
 8559SOL     OW37309   2.440   2.163  16.015 -0.2567 -0.0157  0.2508
 8559SOL    HW137310   2.434   2.237  15.955 -0.2090  0.9049  1.3945
 8559SOL    HW237311   2.358   2.152  16.062 -0.8656  1.9152 -0.3781
 8560SOL     OW37312   1.167   1.633  10.975 -0.8831  0.7473 -0.1544
 8560SOL    HW137313   1.129   1.618  10.888 -1.2823  0.5628  0.0486
 8560SOL    HW237314   1.258   1.658  10.961 -0.2969 -0.8136  0.8352
 8561SOL     OW37315   3.465   2.355   3.667 -0.5979 -0.2575 -0.0457
 8561SOL    HW137316   3.493   2.303   3.591 -0.5189  1.8664 -1.4635
 8561SOL    HW237317   3.524   2.331   3.739 -3.2204  1.3323  2.6311
 8562SOL     OW37318   0.480   2.391   3.261 -0.3259 -0.0746  0.3436
 8562SOL    HW137319   0.440   2.420   3.179  0.8780 -1.8436 -0.8783
 8562SOL    HW237320   0.406   2.389   3.322 -1.9865  2.0096 -1.6086
 8563SOL     OW37321   3.864   1.335   6.261 -0.5106 -0.3436  0.1053
 8563SOL    HW137322   3.918   1.360   6.186 -1.0215  0.0502 -0.1333
 8563SOL    HW237323   3.906   1.392   6.325 -2.1648  1.1371 -0.1212
 8564SOL     OW37324   0.431   2.702   7.950 -0.5081  0.4127 -0.2284
 8564SOL    HW137325   0.379   2.704   7.870  0.9159  0.5091 -1.1470
 8564SOL    HW237326   0.408   2.787   7.989  1.3175  0.6336  0.3408
 8565SOL     OW37327   4.337   2.705  15.207 -0.0420  0.1013 -0.3741
 8565SOL    HW137328   4.316   2.779  15.149  3.8680  0.0490 -1.8481
 8565SOL    HW237329   4.427   2.700  15.175  0.6279  1.1942  1.3472
 8566SOL     OW37330   1.120   2.155  13.411 -0.1712  0.6481 -0.0153
 8566SOL    HW137331   1.039   2.107  13.428  1.0721 -1.0044  1.2593
 8566SOL    HW237332   1.137   2.149  13.317 -0.5206 -3.0375  0.1564
 8567SOL     OW37333   3.877   0.009   8.859 -0.5800  0.3069  0.0659
 8567SOL    HW137334   3.865   0.103   8.870  1.2511  0.6432 -0.7341
 8567SOL    HW237335   3.793   4.708   8.832 -0.3155  0.3051 -0.7466
 8568SOL     OW37336   0.192   1.691   8.853  0.1497 -0.3726 -0.0531
 8568SOL    HW137337   0.111   1.734   8.828  0.0089 -1.5518 -1.6138
 8568SOL    HW237338   0.190   1.703   8.948  0.9028 -2.5507  0.2460
 8569SOL     OW37339   0.562   0.700   6.934  0.2104 -0.4060 -0.5093
 8569SOL    HW137340   0.598   0.621   6.893  0.6016 -0.0223 -0.9101
 8569SOL    HW237341   0.538   0.683   7.025 -3.6668  2.1645 -1.0610
 8570SOL     OW37342   3.692   1.436   3.929  0.4832 -0.2353  0.0493
 8570SOL    HW137343   3.695   1.514   3.873  1.4449  0.3642  0.9355
 8570SOL    HW237344   3.601   1.412   3.912  0.0529  1.6379 -0.2346
 8571SOL     OW37345   2.326   3.144  12.462 -0.0844  0.0247  0.2100
 8571SOL    HW137346   2.397   3.184  12.512 -1.5296  2.5283  0.2860
 8571SOL    HW237347   2.309   3.212  12.396 -3.2207 -0.3022  0.6703
 8572SOL     OW37348   3.903   4.618   7.187  0.1209  0.1113  0.7444
 8572SOL    HW137349   3.933   4.692   7.240 -0.2297  1.5354 -1.0400
 8572SOL    HW237350   3.951   4.620   7.104 -1.9453  0.1573 -0.4697
 8573SOL     OW37351   1.094   1.419   5.884  0.0172  0.0856  0.5109
 8573SOL    HW137352   1.008   1.453   5.908 -0.1859 -0.4035  0.4539
 8573SOL    HW237353   1.149   1.498   5.877  1.4432 -1.0592 -1.0623
 8574SOL     OW37354   2.614   1.085  14.358  0.1419 -0.2681 -0.1173
 8574SOL    HW137355   2.693   1.128  14.325 -1.1338  1.6669 -0.6942
 8574SOL    HW237356   2.601   1.020  14.288 -0.7104 -0.1693 -0.0538
 8575SOL     OW37357   3.247   2.841   5.313 -0.2282  0.5268 -0.1247
 8575SOL    HW137358   3.213   2.875   5.396  2.2879  1.5666  0.4723
 8575SOL    HW237359   3.262   2.753   5.348  0.9385  0.6469 -0.3269
 8576SOL     OW37360   1.925   2.988  11.758  0.1383  0.9309 -0.0732
 8576SOL    HW137361   2.015   3.017  11.769  0.4998 -0.4369  0.5647
 8576SOL    HW237362   1.895   3.006  11.847 -0.1907 -0.7015  0.1366
 8577SOL     OW37363   3.222   1.799  17.013 -0.1250  0.0690  0.1728
 8577SOL    HW137364   3.302   1.806  17.065 -0.0420  0.1041  0.0407
 8577SOL    HW237365   3.242   1.835  16.927  1.4304 -1.6418 -0.1947
 8578SOL     OW37366   2.361   4.364  17.638  0.0613  0.2750  0.3760
 8578SOL    HW137367   2.361   4.412  17.721 -0.9334  1.1397 -0.1244
 8578SOL    HW237368   2.375   4.438  17.578  1.3398  1.3273  1.9631
 8579SOL     OW37369   2.473   2.072   8.592 -0.7030 -0.4639 -0.2374
 8579SOL    HW137370   2.480   2.048   8.684  1.6172  2.0633  0.2323
 8579SOL    HW237371   2.378   2.087   8.596 -0.8382 -1.3047 -0.4323
 8580SOL     OW37372   0.484   2.462   8.027  0.0562  0.3852 -0.0451
 8580SOL    HW137373   0.413   2.400   8.046  0.7183 -0.5416 -0.5672
 8580SOL    HW237374   0.435   2.539   7.998  2.1739  2.1706  1.1140
 8581SOL     OW37375   0.973   1.961  14.239  0.2085 -0.2037  0.3235
 8581SOL    HW137376   0.909   1.903  14.197  0.3428 -0.8152  0.9568
 8581SOL    HW237377   0.936   1.969  14.327 -1.0886  1.9064 -0.4170
 8582SOL     OW37378   0.494   3.913   7.675 -0.1546  0.7119  0.4309
 8582SOL    HW137379   0.431   3.868   7.731 -1.5889 -0.2434 -1.9460
 8582SOL    HW237380   0.440   3.921   7.596 -1.5813 -1.5108  1.1661
 8583SOL     OW37381   4.223   1.696   4.366  0.1519 -0.6431 -0.0977
 8583SOL    HW137382   4.166   1.620   4.374  1.7405 -2.0059 -1.6050
 8583SOL    HW237383   4.286   1.668   4.432  0.7186  1.2099  0.1389
 8584SOL     OW37384   0.533   0.555   4.622 -0.7600  0.1717  1.0353
 8584SOL    HW137385   0.467   0.573   4.689 -1.6080  0.0512  0.2450
 8584SOL    HW237386   0.593   0.499   4.671  1.5536  1.2056 -0.6162
 8585SOL     OW37387   1.179   0.266  17.683  0.2526 -1.0595 -0.4469
 8585SOL    HW137388   1.258   0.223  17.650  0.8405  1.1513 -1.9528
 8585SOL    HW237389   1.216   0.342  17.727 -0.1263 -0.9985 -0.2392
 8586SOL     OW37390   4.615   3.656   9.001  0.4526 -0.1251 -0.3668
 8586SOL    HW137391   4.696   3.628   9.043  0.0634  1.2405  1.2825
 8586SOL    HW237392   4.633   3.632   8.910  2.9755 -1.6427  0.5526
 8587SOL     OW37393   2.345   3.090  15.597 -0.3464  0.0843 -0.0471
 8587SOL    HW137394   2.377   3.001  15.617 -2.3553 -0.6031  0.1363
 8587SOL    HW237395   2.362   3.146  15.673 -0.9131  1.4142 -0.9136
 8588SOL     OW37396   0.908   1.557   9.022 -0.1081 -0.1884 -0.2891
 8588SOL    HW137397   0.905   1.614   9.099 -1.7828  1.1157 -1.3140
 8588SOL    HW237398   0.882   1.623   8.958  0.7702  0.0381 -0.4206
 8589SOL     OW37399   1.264   0.526   2.385  0.0063  0.3895 -0.3293
 8589SOL    HW137400   1.244   0.588   2.455  1.1116  2.5602 -1.9588
 8589SOL    HW237401   1.208   0.456   2.418 -0.3872  0.2981 -1.2007
 8590SOL     OW37402   1.580   0.382  13.112 -0.5005 -0.0150 -0.6537
 8590SOL    HW137403   1.642   0.317  13.143 -1.0104  0.0027  0.4179
 8590SOL    HW237404   1.579   0.439  13.189 -0.8921 -0.1818 -0.5335
 8591SOL     OW37405   2.894   1.709  14.971  0.0361 -0.6097 -0.2287
 8591SOL    HW137406   2.831   1.764  15.017  0.0278 -0.5758 -0.2807
 8591SOL    HW237407   2.913   1.767  14.897 -1.2778  1.4920  1.1100
 8592SOL     OW37408   4.514   4.555  12.554  0.8830 -0.4654  0.1759
 8592SOL    HW137409   4.604   4.527  12.539  0.3327 -1.8292 -0.5758
 8592SOL    HW237410   4.526   4.556  12.649  1.1707  0.7782  0.1288
 8593SOL     OW37411   3.622   0.493   8.304  0.1566 -0.1531 -0.4106
 8593SOL    HW137412   3.555   0.545   8.348 -1.0256 -1.9015 -0.1596
 8593SOL    HW237413   3.593   0.482   8.214 -0.4726 -1.6185 -0.0259
 8594SOL     OW37414   0.384   2.883   2.687 -0.7470  0.3454  0.3443
 8594SOL    HW137415   0.297   2.863   2.651 -1.2175  0.1276  1.6062
 8594SOL    HW237416   0.378   2.977   2.702 -0.3412  0.1534  1.6428
 8595SOL     OW37417   2.282   2.596  10.569  0.2297 -0.0700 -0.5357
 8595SOL    HW137418   2.319   2.622  10.485  2.9982  1.3598  1.1413
 8595SOL    HW237419   2.342   2.638  10.631  0.9196 -0.5964 -0.8371
 8596SOL     OW37420   0.063   3.523  11.876 -0.0504 -0.5474 -0.4639
 8596SOL    HW137421   0.031   3.597  11.928  1.0398 -0.5751  0.2567
 8596SOL    HW237422   0.145   3.510  11.924 -0.5666 -0.2224  0.5067
 8597SOL     OW37423   0.797   0.290   2.512  0.5138  0.2354  0.4774
 8597SOL    HW137424   0.772   0.382   2.509  1.6163  0.5159  0.2642
 8597SOL    HW237425   0.804   0.288   2.416  1.1949  0.4200  0.5284
 8598SOL     OW37426   2.374   3.451   5.537 -0.5277 -0.1713 -0.4902
 8598SOL    HW137427   2.373   3.479   5.445  4.2481  3.2699  0.4723
 8598SOL    HW237428   2.355   3.537   5.576  0.5990 -0.6948  1.2133
 8599SOL     OW37429   0.734   4.207   7.031 -0.0503  0.1933 -0.1594
 8599SOL    HW137430   0.683   4.286   7.050  0.3744  0.2826  0.6216
 8599SOL    HW237431   0.792   4.198   7.107  0.1420 -0.6759 -0.4142
 8600SOL     OW37432   0.254   2.450   9.421  0.3238 -0.2979  0.5330
 8600SOL    HW137433   0.328   2.409   9.376 -0.1984  2.0699 -2.4509
 8600SOL    HW237434   0.226   2.365   9.454 -0.3807 -0.7195 -1.1507
 8601SOL     OW37435   1.906   1.315   1.986  0.5472 -0.4580 -0.1972
 8601SOL    HW137436   1.982   1.299   2.041  1.3690  1.7863 -0.7035
 8601SOL    HW237437   1.834   1.284   2.040  0.3964 -1.3382 -0.8925
 8602SOL     OW37438   1.422   3.975   5.638  0.0750 -0.2137 -0.3134
 8602SOL    HW137439   1.470   3.931   5.568 -1.8543 -0.8521 -1.2547
 8602SOL    HW237440   1.494   4.009   5.691  0.6660 -1.6562 -0.1869
 8603SOL     OW37441   4.252   1.737   3.225  0.4789  0.0866 -0.2045
 8603SOL    HW137442   4.209   1.751   3.141 -1.0336  1.2857  0.7632
 8603SOL    HW237443   4.327   1.683   3.200  0.7598  0.7346 -0.7510
 8604SOL     OW37444   2.844   1.205  14.256 -0.1271 -0.4704  0.1005
 8604SOL    HW137445   2.845   1.279  14.316  2.2476 -0.0353 -0.4670
 8604SOL    HW237446   2.925   1.230  14.213 -0.8157  0.6600 -0.5304
 8605SOL     OW37447   3.097   3.087   5.816  0.2311 -0.1835 -0.1848
 8605SOL    HW137448   3.115   3.015   5.877 -0.3002 -1.6116 -1.7118
 8605SOL    HW237449   3.006   3.066   5.793 -0.1592 -0.7280  1.7888
 8606SOL     OW37450   4.300   2.922  15.033  0.0600 -0.1747 -0.1151
 8606SOL    HW137451   4.301   2.868  14.954  1.2785 -1.6818  0.9188
 8606SOL    HW237452   4.370   2.984  15.014  1.1844 -1.7467 -1.0944
 8607SOL     OW37453   4.422   4.681   7.911  0.2764 -0.2491 -0.0567
 8607SOL    HW137454   4.509   4.675   7.872 -0.6615 -0.0255 -2.1704
 8607SOL    HW237455   4.432   0.022   7.966  0.5811 -0.2008 -0.1811
 8608SOL     OW37456   4.554   1.883   2.662  0.4800  0.1119  0.0711
 8608SOL    HW137457   4.514   1.845   2.584  0.9493 -1.0236  0.3871
 8608SOL    HW237458   4.494   1.849   2.727  0.0417 -0.8363 -0.8331
 8609SOL     OW37459   2.582   3.818   4.528  0.1869 -0.1129  0.0858
 8609SOL    HW137460   2.514   3.837   4.463  0.4339  0.2355 -0.0675
 8609SOL    HW237461   2.537   3.749   4.577  0.4103 -1.5556 -1.7410
 8610SOL     OW37462   2.526   0.130   6.584  0.3723 -0.1803  0.7230
 8610SOL    HW137463   2.450   0.155   6.530  0.9136 -1.5681 -0.6776
 8610SOL    HW237464   2.482   0.102   6.664  1.5717 -0.3211  1.3235
 8611SOL     OW37465   3.717   3.804   3.805 -0.1949  0.4918 -0.2459
 8611SOL    HW137466   3.662   3.875   3.773 -0.2239  1.7294  2.5248
 8611SOL    HW237467   3.692   3.734   3.745 -0.1958 -0.2310  0.5837
 8612SOL     OW37468   0.215   1.517  17.177 -0.4754 -0.1775  0.0325
 8612SOL    HW137469   0.277   1.555  17.115 -0.2677 -1.8058 -0.7652
 8612SOL    HW237470   0.187   1.587  17.236 -1.3058 -1.5415  1.2778
 8613SOL     OW37471   3.162   3.455   0.140  0.0621 -0.5130 -0.3468
 8613SOL    HW137472   3.133   3.372   0.103  1.8379 -0.3262 -2.1670
 8613SOL    HW237473   3.156   3.506   0.060 -0.0928  1.3948  0.8842
 8614SOL     OW37474   0.951   2.382   4.441 -0.2217  0.0713 -0.2780
 8614SOL    HW137475   0.948   2.393   4.346 -1.8285  0.1992 -0.2179
 8614SOL    HW237476   1.023   2.319   4.448 -1.7107 -1.7014 -0.7562
 8615SOL     OW37477   2.821   4.509   7.057  0.2587  0.4471  0.0053
 8615SOL    HW137478   2.833   4.440   7.122 -2.4701  0.0833  0.1447
 8615SOL    HW237479   2.780   4.458   6.988  2.8454 -0.3004 -0.9650
 8616SOL     OW37480   3.861   0.774   4.337 -0.3397  0.2424  0.4471
 8616SOL    HW137481   3.918   0.777   4.414  1.5872 -0.1157 -0.9656
 8616SOL    HW237482   3.775   0.796   4.371 -1.3503 -1.7366 -0.8138
 8617SOL     OW37483   4.594   0.833   8.100 -0.1217  0.6530  0.0907
 8617SOL    HW137484   4.565   0.765   8.161 -0.3168 -0.0570 -0.7835
 8617SOL    HW237485   4.585   0.906   8.161  1.1681  2.0828 -1.4079
 8618SOL     OW37486   1.230   4.046  11.264 -0.0141 -0.1226  0.3798
 8618SOL    HW137487   1.266   3.978  11.208 -1.2473 -0.5854  0.1509
 8618SOL    HW237488   1.199   4.100  11.191  0.0706 -0.6674 -0.0578
 8619SOL     OW37489   2.841   1.127  15.252 -0.5410  0.2934  0.3531
 8619SOL    HW137490   2.860   1.193  15.186 -1.8817  1.4016  1.0605
 8619SOL    HW237491   2.766   1.172  15.291  0.7968  1.8987  1.0476
 8620SOL     OW37492   4.716   3.037  13.731 -1.4789 -0.4774  0.0390
 8620SOL    HW137493   0.076   3.026  13.735 -1.2482  0.8848 -1.7596
 8620SOL    HW237494   4.700   3.009  13.821  3.2526  1.7636  1.6051
 8621SOL     OW37495   0.083   1.211  14.534 -0.1224  0.2921 -0.3797
 8621SOL    HW137496   0.042   1.187  14.450 -0.7068 -4.6158  1.2957
 8621SOL    HW237497   0.039   1.148  14.591 -0.6451 -2.6635 -3.9716
 8622SOL     OW37498   1.425   0.479  16.254 -0.2793 -0.2139  0.1148
 8622SOL    HW137499   1.495   0.539  16.280 -0.1712 -0.9071  1.4325
 8622SOL    HW237500   1.365   0.489  16.329 -0.3871  1.2415 -0.1658
 8623SOL     OW37501   3.256   0.261   3.649 -1.1329 -0.1954 -0.7099
 8623SOL    HW137502   3.256   0.188   3.710  0.7309  0.3590 -0.0352
 8623SOL    HW237503   3.202   0.220   3.582 -0.6549  0.8661 -1.7613
 8624SOL     OW37504   3.595   1.705   4.779 -0.2133  0.4346 -0.3361
 8624SOL    HW137505   3.528   1.711   4.711 -2.2431 -2.2549  1.4409
 8624SOL    HW237506   3.658   1.642   4.745 -0.9538 -0.8706  0.7317
 8625SOL     OW37507   1.815   0.008   8.043 -0.3449 -0.1090  0.1116
 8625SOL    HW137508   1.836   4.651   8.046  0.3752  0.0720  0.8008
 8625SOL    HW237509   1.758   0.029   8.117  1.6986  0.0213  1.6399
 8626SOL     OW37510   1.334   1.400   7.094  0.3309 -0.3571  0.3640
 8626SOL    HW137511   1.292   1.325   7.137 -2.1532 -0.3239 -1.9861
 8626SOL    HW237512   1.251   1.437   7.062 -0.3017 -2.6400 -0.6142
 8627SOL     OW37513   4.059   2.891   4.290  0.0725 -0.3832 -0.0814
 8627SOL    HW137514   4.122   2.839   4.239 -0.8200 -1.8833  0.3306
 8627SOL    HW237515   4.053   2.834   4.367 -1.0842 -0.6221 -0.3456
 8628SOL     OW37516   3.518   1.117   6.043 -0.4356 -0.1485 -0.3721
 8628SOL    HW137517   3.589   1.128   6.106  0.4928  1.2792 -1.6577
 8628SOL    HW237518   3.555   1.167   5.970  3.8206 -0.9695  1.2417
 8629SOL     OW37519   3.644   4.482   3.303  0.4520 -1.1896  0.4213
 8629SOL    HW137520   3.696   4.562   3.305 -0.4357 -0.6045 -0.3990
 8629SOL    HW237521   3.586   4.500   3.377 -0.8265 -1.4933 -0.5100
 8630SOL     OW37522   3.020   0.053   4.113  0.1530 -0.3211  0.3808
 8630SOL    HW137523   3.104   0.098   4.110 -0.9753  1.8259  0.6445
 8630SOL    HW237524   3.045   4.708   4.157 -0.6541 -1.6684 -1.6453
 8631SOL     OW37525   2.417   3.595   2.516  0.0819 -0.2855 -0.1010
 8631SOL    HW137526   2.340   3.539   2.515 -0.2722  0.1632  2.2776
 8631SOL    HW237527   2.383   3.669   2.566 -2.6746  0.2092 -2.7516
 8632SOL     OW37528   0.702   3.326   4.448 -0.3153 -0.0492  0.2924
 8632SOL    HW137529   0.718   3.333   4.542 -0.5504  2.4921  0.1580
 8632SOL    HW237530   0.622   3.273   4.446  0.4699 -1.1936 -0.6036
 8633SOL     OW37531   1.655   2.648   5.537 -0.4013  0.3171  0.2434
 8633SOL    HW137532   1.743   2.652   5.575 -1.3016  3.5381  2.0410
 8633SOL    HW237533   1.606   2.596   5.601  0.1429  1.8578  1.9025
 8634SOL     OW37534   2.846   0.628   4.195  0.1712 -0.4957  0.0098
 8634SOL    HW137535   2.857   0.699   4.258  1.2992 -1.3299  0.7644
 8634SOL    HW237536   2.922   0.652   4.142  0.9664  1.6413  2.1444
 8635SOL     OW37537   3.745   0.568   4.979 -0.5498 -0.4265  0.2945
 8635SOL    HW137538   3.834   0.599   4.996  0.1473 -1.4991 -1.3761
 8635SOL    HW237539   3.700   0.613   5.050 -0.4740 -1.8636  1.2592
 8636SOL     OW37540   1.252   1.373  12.468 -0.9589 -0.0512 -0.0938
 8636SOL    HW137541   1.348   1.368  12.465 -0.9433  1.1384 -1.7282
 8636SOL    HW237542   1.245   1.461  12.432 -0.8693 -1.1840 -2.9114
 8637SOL     OW37543   2.409   1.934  10.811  0.4891  0.0816  0.5357
 8637SOL    HW137544   2.466   1.903  10.740  0.6194  2.3889 -0.4032
 8637SOL    HW237545   2.465   2.007  10.839  0.0579 -1.6845  5.9610
 8638SOL     OW37546   4.262   3.721  10.502 -0.5823  0.1457  0.2805
 8638SOL    HW137547   4.303   3.731  10.588  0.3643 -0.3329 -0.1139
 8638SOL    HW237548   4.229   3.632  10.512  0.5583 -0.4587 -1.3828
 8639SOL     OW37549   2.817   4.706   7.252 -0.2138 -0.5549  0.1131
 8639SOL    HW137550   2.834   4.661   7.169  0.6999 -0.3151  0.1720
 8639SOL    HW237551   2.883   4.663   7.306  1.0672 -1.2775 -1.9869
 8640SOL     OW37552   4.428   3.396   1.054 -0.5823 -1.0416 -0.0402
 8640SOL    HW137553   4.454   3.335   0.985  0.6899  2.5486 -2.7158
 8640SOL    HW237554   4.496   3.460   1.032 -0.7987 -0.9662 -0.4649
 8641SOL     OW37555   2.007   3.886   4.499  0.1100  0.3833  0.0728
 8641SOL    HW137556   2.021   3.876   4.405 -1.2442 -1.0270  0.0217
 8641SOL    HW237557   1.923   3.932   4.498 -1.4789 -2.4901  0.1194
 8642SOL     OW37558   4.470   1.636  12.569  0.4808  0.1394 -0.8869
 8642SOL    HW137559   4.491   1.726  12.596  1.6999 -0.2483 -0.5600
 8642SOL    HW237560   4.487   1.642  12.475  1.1053 -0.0688 -0.7835
 8643SOL     OW37561   2.724   1.198   0.207 -0.0113 -0.2208 -0.6624
 8643SOL    HW137562   2.650   1.180   0.265  1.0058 -1.7960  0.1509
 8643SOL    HW237563   2.697   1.278   0.162 -0.7252  0.1947  0.5004
 8644SOL     OW37564   4.342   1.683   6.205  0.1326  0.4046 -0.2522
 8644SOL    HW137565   4.376   1.597   6.232  1.5091 -0.1181 -3.6927
 8644SOL    HW237566   4.323   1.728   6.287 -1.0413  1.9250 -1.3471
 8645SOL     OW37567   1.524   0.880   4.560 -0.7175  0.2814 -0.2904
 8645SOL    HW137568   1.523   0.953   4.499  0.3086  0.8218  0.3440
 8645SOL    HW237569   1.508   0.928   4.641 -1.4967 -1.4591  0.5970
 8646SOL     OW37570   3.498   1.978   6.034 -0.3904  0.1223  0.5194
 8646SOL    HW137571   3.573   1.930   6.069  0.2805  0.8062  0.0265
 8646SOL    HW237572   3.542   2.030   5.966  1.3007  0.0517  1.5787
 8647SOL     OW37573   3.980   3.387   2.563 -0.1398  0.6186  0.2840
 8647SOL    HW137574   3.940   3.309   2.602  0.4655  0.2008  0.0755
 8647SOL    HW237575   3.927   3.396   2.484 -1.4004 -3.2379  0.7059
 8648SOL     OW37576   2.626   2.439   2.805 -0.5880  0.1934  0.3128
 8648SOL    HW137577   2.682   2.516   2.820  0.5164 -0.3616 -0.8951
 8648SOL    HW237578   2.537   2.472   2.816  0.0755  1.4668  1.8404
 8649SOL     OW37579   2.341   2.307   9.961 -0.9140 -0.7127  0.1039
 8649SOL    HW137580   2.419   2.356   9.934 -0.4450 -2.7163 -2.2317
 8649SOL    HW237581   2.272   2.373   9.966 -0.7622 -0.3448 -2.7745
 8650SOL     OW37582   2.572   1.375   0.069 -0.0403  0.5671 -0.4154
 8650SOL    HW137583   2.637   1.435   0.032 -0.9618  1.9327  0.2022
 8650SOL    HW237584   2.525   1.344  17.733 -1.0329  1.0025  0.0171
 8651SOL     OW37585   4.621   1.246   5.027 -0.0606  0.0411  0.3495
 8651SOL    HW137586   4.563   1.299   5.081 -0.3881  1.8764 -1.7905
 8651SOL    HW237587   4.643   1.308   4.958  0.5904 -0.3039  0.2478
 8652SOL     OW37588   3.113   2.816   3.170  0.4884 -0.4236  0.3375
 8652SOL    HW137589   3.150   2.776   3.248  0.2530 -2.3263 -0.5051
 8652SOL    HW237590   3.026   2.837   3.205  1.1220  1.0708  0.9913
 8653SOL     OW37591   0.590   2.466   2.538 -0.3126 -0.5928  0.0476
 8653SOL    HW137592   0.527   2.395   2.549 -1.6319  0.5143 -0.4208
 8653SOL    HW237593   0.659   2.426   2.485 -0.1878 -1.2192  0.6718
 8654SOL     OW37594   2.189   2.679   9.047  0.1559  0.1103  0.2273
 8654SOL    HW137595   2.122   2.664   9.114 -0.7380  0.5402 -0.5769
 8654SOL    HW237596   2.165   2.770   9.033  1.5476 -0.1041 -3.4371
 8655SOL     OW37597   0.953   4.666   5.572  0.3172  0.2775 -0.4023
 8655SOL    HW137598   0.983   0.017   5.546  1.8892  0.7586  2.9457
 8655SOL    HW237599   0.983   4.616   5.497  1.2925  1.6575 -0.9284
 8656SOL     OW37600   3.134   3.477  14.581 -0.1073 -0.1081 -0.1128
 8656SOL    HW137601   3.156   3.570  14.576 -0.5983  0.0022 -0.2734
 8656SOL    HW237602   3.205   3.448  14.638  0.0369 -2.5965 -1.5708
 8657SOL     OW37603   1.848   0.747   2.431  0.5947  0.1529  0.3323
 8657SOL    HW137604   1.896   0.709   2.504 -1.7640 -1.2341  1.1360
 8657SOL    HW237605   1.862   0.841   2.442  0.7002 -0.0283  1.6747
 8658SOL     OW37606   1.897   0.343  12.753  0.3712  0.4217 -0.0047
 8658SOL    HW137607   1.839   0.409  12.792  1.2267  1.8629 -1.1802
 8658SOL    HW237608   1.953   0.395  12.695 -0.9374  1.1425 -0.6276
 8659SOL     OW37609   1.554   4.263   9.746  0.6526 -0.2592 -0.1441
 8659SOL    HW137610   1.554   4.244   9.653  0.8672 -1.8991  0.1988
 8659SOL    HW237611   1.575   4.357   9.748  0.7348 -0.2450 -2.2247
 8660SOL     OW37612   2.370   1.510   3.570 -0.2149 -0.1448 -0.0970
 8660SOL    HW137613   2.388   1.594   3.612  2.1462 -0.8558  0.2961
 8660SOL    HW237614   2.294   1.492   3.625  1.1970 -0.4945  1.7147
 8661SOL     OW37615   2.544   4.026   8.490 -0.2121 -0.9438  0.3961
 8661SOL    HW137616   2.480   4.096   8.478  0.4404 -0.5455 -0.7928
 8661SOL    HW237617   2.627   4.072   8.500 -1.9783  1.9064  1.9122
 8662SOL     OW37618   2.801   0.749   8.158  0.4707 -1.0272  0.4326
 8662SOL    HW137619   2.797   0.730   8.252  1.5735  2.0616  1.0958
 8662SOL    HW237620   2.882   0.713   8.123  1.3679  0.3096  1.1383
 8663SOL     OW37621   2.487   3.726   5.820 -0.1060  0.1823  0.0856
 8663SOL    HW137622   2.503   3.757   5.909 -0.8427  1.8831 -0.3746
 8663SOL    HW237623   2.493   3.632   5.838  2.3162  0.6862  2.0151
 8664SOL     OW37624   4.709   1.331  10.156  0.0120 -0.2273 -0.4472
 8664SOL    HW137625   4.679   1.267  10.091  0.6745  1.2844 -2.2366
 8664SOL    HW237626   0.040   1.368  10.099 -1.6365  0.5023 -1.8818
 8665SOL     OW37627   0.214   1.485   7.025 -0.1489  0.1153  0.0047
 8665SOL    HW137628   0.122   1.464   7.041 -0.3042  0.7743  0.0127
 8665SOL    HW237629   0.230   1.535   7.105  2.6706  0.5830 -0.8461
 8666SOL     OW37630   0.302   2.877   3.621  0.0755  0.5017 -0.2674
 8666SOL    HW137631   0.329   2.897   3.710 -2.8558  0.1493  0.7056
 8666SOL    HW237632   0.207   2.874   3.636 -0.0048  1.5352 -0.5974
 8667SOL     OW37633   3.261   2.602   1.137  0.0791 -0.5354 -0.8965
 8667SOL    HW137634   3.166   2.592   1.135 -0.0146  0.0961  0.3083
 8667SOL    HW237635   3.282   2.528   1.193 -0.3807 -2.1431 -2.8441
 8668SOL     OW37636   1.252   3.718   4.166  0.0063 -0.0783 -0.1589
 8668SOL    HW137637   1.225   3.743   4.078 -1.6237 -0.8574  0.1282
 8668SOL    HW237638   1.322   3.782   4.176  1.7478 -1.5870 -2.6325
 8669SOL     OW37639   3.130   3.317  16.957  0.9264 -0.0599 -0.3031
 8669SOL    HW137640   3.058   3.370  16.922  0.2149  0.7919  2.4348
 8669SOL    HW237641   3.075   3.254  17.004  1.2741  0.8511  1.3076
 8670SOL     OW37642   1.393   1.107   8.020 -0.5756  0.4145  0.2085
 8670SOL    HW137643   1.379   1.174   7.952  0.2153 -0.2964 -0.6519
 8670SOL    HW237644   1.381   1.031   7.963 -1.4304 -0.8085  2.0068
 8671SOL     OW37645   0.254   1.508   4.343 -0.3942 -0.1883 -0.7476
 8671SOL    HW137646   0.248   1.578   4.408  1.0216 -0.5229 -0.2627
 8671SOL    HW237647   0.262   1.558   4.261  1.1394 -1.3557 -1.3186
 8672SOL     OW37648   3.359   4.479  11.823 -0.2112 -0.2247  0.4961
 8672SOL    HW137649   3.355   4.441  11.911 -0.2741 -0.5025  0.3751
 8672SOL    HW237650   3.310   4.413  11.773  0.8418 -0.5129 -0.1779
 8673SOL     OW37651   2.274   2.981   9.889  0.1011  0.2865  0.1165
 8673SOL    HW137652   2.315   3.046   9.946 -0.8500 -0.9148  2.1745
 8673SOL    HW237653   2.344   2.966   9.825  1.2294  0.8226  1.2003
 8674SOL     OW37654   0.668   2.260   7.961 -0.1401  0.6633  0.4175
 8674SOL    HW137655   0.734   2.294   8.022 -0.8098  1.3523  0.7640
 8674SOL    HW237656   0.598   2.315   7.995  0.3223  1.9556 -0.7236
 8675SOL     OW37657   2.055   0.495   6.444  0.1509 -0.1008 -0.1729
 8675SOL    HW137658   2.143   0.521   6.468  0.3470 -1.6012  0.7326
 8675SOL    HW237659   2.005   0.521   6.521  0.3513 -1.7569  0.5177
 8676SOL     OW37660   3.867   3.289   2.346 -0.6120  0.2888  0.0851
 8676SOL    HW137661   3.846   3.198   2.367  0.3594 -0.4096 -1.9282
 8676SOL    HW237662   3.807   3.319   2.278 -0.0944 -2.0465 -1.4289
 8677SOL     OW37663   4.021   4.415   6.142  0.3520  0.3757  0.2795
 8677SOL    HW137664   4.072   4.335   6.159  2.3734  1.3271 -1.2772
 8677SOL    HW237665   4.086   4.472   6.100  3.0714 -0.8028  2.8907
 8678SOL     OW37666   2.243   0.248   4.588  0.3579 -0.5540 -0.8564
 8678SOL    HW137667   2.253   0.309   4.515  2.0447 -0.5226 -0.5987
 8678SOL    HW237668   2.285   0.171   4.547 -0.4878 -0.5979 -1.6405
 8679SOL     OW37669   0.986   3.100   4.110  0.0188  0.4231 -0.1509
 8679SOL    HW137670   1.046   3.166   4.073  0.5724 -0.2404 -0.4368
 8679SOL    HW237671   0.942   3.137   4.186 -1.4755 -1.1145 -0.2898
 8680SOL     OW37672   4.654   2.026   6.211 -0.1376 -0.5219  0.5818
 8680SOL    HW137673   4.616   2.070   6.135  0.2063 -1.0022  0.1354
 8680SOL    HW237674   0.004   2.065   6.195 -0.8130 -0.3425 -2.6014
 8681SOL     OW37675   4.297   3.883   7.533 -0.0872  0.3574  0.0558
 8681SOL    HW137676   4.280   3.965   7.486 -0.0946  0.7781  0.7931
 8681SOL    HW237677   4.221   3.873   7.591 -0.4477 -2.0331 -0.8560
 8682SOL     OW37678   3.083   0.675   4.073  0.5234  0.0722  0.1037
 8682SOL    HW137679   3.164   0.711   4.109 -0.5501  2.2244  0.3981
 8682SOL    HW237680   3.075   0.745   4.008 -1.4440  0.5394  0.8439
 8683SOL     OW37681   2.653   0.954  15.560 -0.2788 -0.2508  0.4291
 8683SOL    HW137682   2.588   1.024  15.568  0.9709  0.6427  2.4909
 8683SOL    HW237683   2.647   0.919  15.649  0.9373 -1.1734  0.1421
 8684SOL     OW37684   0.654   1.074   4.869  0.3667 -0.0474  0.3792
 8684SOL    HW137685   0.662   1.161   4.830 -0.2647  0.0408  0.4422
 8684SOL    HW237686   0.559   1.064   4.870  0.3204  0.2932 -0.4593
 8685SOL     OW37687   0.103   3.553  11.606 -0.2738  0.0272 -0.2776
 8685SOL    HW137688   0.117   3.525  11.696 -0.0452 -1.9787 -0.9332
 8685SOL    HW237689   0.012   3.580  11.608 -0.5056 -0.7527 -0.3666
 8686SOL     OW37690   3.949   4.188  17.178 -0.0108  0.4217  0.2231
 8686SOL    HW137691   3.986   4.115  17.129 -1.7217 -1.8631  2.3635
 8686SOL    HW237692   4.029   4.238  17.190  0.3567  0.1849 -1.2017
 8687SOL     OW37693   3.722   3.816  11.581  0.3562  0.4263 -0.2419
 8687SOL    HW137694   3.766   3.744  11.536 -1.0422  0.3845 -1.5351
 8687SOL    HW237695   3.705   3.794  11.672  1.7081 -0.8609 -0.3172
 8688SOL     OW37696   0.218   3.441   3.152  0.7254  0.4515  0.0865
 8688SOL    HW137697   0.182   3.386   3.083  2.7473 -2.5320  1.3807
 8688SOL    HW237698   0.179   3.525   3.128  0.8945  0.6408  0.4706
 8689SOL     OW37699   1.357   1.973   6.691 -0.0888 -0.3962  0.4514
 8689SOL    HW137700   1.305   1.903   6.729 -1.7264 -0.2143 -1.4669
 8689SOL    HW237701   1.341   2.044   6.752 -1.5727  2.0999 -2.8272
 8690SOL     OW37702   2.764   2.170   7.429  0.0850  0.2094  0.1921
 8690SOL    HW137703   2.770   2.259   7.394 -1.3399  0.9139  1.7353
 8690SOL    HW237704   2.740   2.127   7.347 -1.5431 -1.1069  1.3671
 8691SOL     OW37705   2.019   0.312  16.387 -0.3466 -0.1730  0.1602
 8691SOL    HW137706   2.097   0.277  16.342  1.3779  0.2617  2.8295
 8691SOL    HW237707   2.065   0.379  16.437 -1.4944  0.3337  0.5350
 8692SOL     OW37708   3.805   1.126   3.231 -0.2256  0.2469 -0.4787
 8692SOL    HW137709   3.864   1.168   3.168  0.1444  1.5140  0.6952
 8692SOL    HW237710   3.850   1.144   3.314  0.7690  0.4256 -1.0557
 8693SOL     OW37711   0.360   1.041   4.854 -0.0084 -0.2137 -0.1033
 8693SOL    HW137712   0.339   1.131   4.830 -0.2475 -0.2636 -0.0858
 8693SOL    HW237713   0.299   1.027   4.926  1.7998 -0.4214  1.3801
 8694SOL     OW37714   3.149   3.201   7.917  0.0133  0.2396 -0.4061
 8694SOL    HW137715   3.123   3.110   7.931 -0.4548  0.6380  1.4579
 8694SOL    HW237716   3.068   3.245   7.894 -1.8474 -2.1173  1.5854
 8695SOL     OW37717   0.791   0.314   5.757 -0.6111  1.0001  0.6067
 8695SOL    HW137718   0.765   0.290   5.668 -0.5235 -1.1168  1.1430
 8695SOL    HW237719   0.882   0.329   5.733  0.1270 -0.7698  2.2606
 8696SOL     OW37720   0.382   1.304   9.385 -0.1697 -0.1543  0.1803
 8696SOL    HW137721   0.460   1.352   9.412 -1.2563  2.8495 -2.1104
 8696SOL    HW237722   0.362   1.272   9.474 -2.2872 -2.6000 -1.1748
 8697SOL     OW37723   0.761   0.712  14.214  0.1179 -0.1678 -0.2225
 8697SOL    HW137724   0.844   0.667  14.229 -0.2763 -0.5753  0.7274
 8697SOL    HW237725   0.715   0.685  14.293  1.9399 -0.9459  0.5744
 8698SOL     OW37726   3.007   0.545   2.451  0.2685  0.3714 -0.4908
 8698SOL    HW137727   3.099   0.531   2.475  0.4117  1.2198 -0.5629
 8698SOL    HW237728   3.001   0.614   2.385 -0.7575  0.3670 -0.3952
 8699SOL     OW37729   2.299   3.029   8.221 -0.1974  0.0867  0.8219
 8699SOL    HW137730   2.338   2.941   8.224  0.2176  0.3014  1.6230
 8699SOL    HW237731   2.332   3.055   8.135 -0.5674 -3.0171 -0.2682
 8700SOL     OW37732   3.859   2.665   2.294 -0.5516 -0.2656  0.0635
 8700SOL    HW137733   3.788   2.633   2.349  0.2891  1.3380  2.0488
 8700SOL    HW237734   3.814   2.729   2.239 -3.2654 -1.1267  1.3156
 8701SOL     OW37735   2.660   3.595   0.401  0.2252  0.2542  0.2605
 8701SOL    HW137736   2.588   3.657   0.394  0.5304  0.4757 -0.9032
 8701SOL    HW237737   2.728   3.654   0.433  1.7867 -0.9855 -0.7793
 8702SOL     OW37738   2.235   3.062   5.256  0.6675 -0.2062  0.4388
 8702SOL    HW137739   2.246   3.136   5.196 -0.1997 -2.2678 -2.2181
 8702SOL    HW237740   2.178   3.002   5.208  0.3798  0.3712  0.0578
 8703SOL     OW37741   2.133   2.819   4.534 -0.1992  0.3356  0.2933
 8703SOL    HW137742   2.064   2.813   4.599 -1.8347  3.6388 -1.1364
 8703SOL    HW237743   2.130   2.734   4.490 -2.3170 -0.0565  1.1981
 8704SOL     OW37744   4.681   3.269   5.645 -0.8090 -0.0478 -0.1861
 8704SOL    HW137745   4.653   3.357   5.619  1.0704  0.8016  0.6117
 8704SOL    HW237746   4.697   3.279   5.739  1.2463  1.6712 -0.7109
 8705SOL     OW37747   0.335   3.336   9.194  0.4444  0.0797 -0.2535
 8705SOL    HW137748   0.419   3.352   9.236  1.5461 -1.3389 -1.9731
 8705SOL    HW237749   0.356   3.300   9.108  0.5905  0.0551 -0.2071
 8706SOL     OW37750   0.311   3.626   5.001  0.0775  0.1971  0.0602
 8706SOL    HW137751   0.247   3.686   5.038  0.0241  0.2581 -0.1324
 8706SOL    HW237752   0.360   3.673   4.933  1.0633 -1.9352 -0.7032
 8707SOL     OW37753   4.460   3.576   4.090 -0.1327 -0.5237  0.5312
 8707SOL    HW137754   4.426   3.489   4.067 -2.0234 -0.4038  2.8527
 8707SOL    HW237755   4.490   3.605   4.004 -0.5310  0.6244  0.7855
 8708SOL     OW37756   3.798   0.598  11.599  0.3001 -0.1903 -0.4585
 8708SOL    HW137757   3.862   0.668  11.610  0.6124 -0.5553  0.0377
 8708SOL    HW237758   3.834   0.548  11.672 -1.0263 -0.5821 -0.0776
 8709SOL     OW37759   3.645   1.671   8.458 -0.1246  0.4868 -0.2953
 8709SOL    HW137760   3.632   1.577   8.453  0.0833  0.4054  0.6764
 8709SOL    HW237761   3.641   1.696   8.366 -0.2703 -1.1971 -0.7411
 8710SOL     OW37762   3.234   0.395   8.092 -0.0863  0.5051 -0.0818
 8710SOL    HW137763   3.294   0.322   8.074 -0.4549 -0.5931  3.0188
 8710SOL    HW237764   3.295   0.465   8.112  1.2340 -0.4079 -0.9045
 8711SOL     OW37765   1.057   2.927   4.524 -0.3155 -0.1387 -0.7719
 8711SOL    HW137766   0.971   2.886   4.533  0.3298 -1.1434  0.7576
 8711SOL    HW237767   1.051   2.918   4.428 -2.2772 -1.0894 -0.5673
 8712SOL     OW37768   1.564   4.160   6.355  0.0230  0.4895 -0.0987
 8712SOL    HW137769   1.623   4.138   6.283  0.0946 -0.6660  0.3018
 8712SOL    HW237770   1.503   4.089   6.333  0.3079  0.3656 -0.5047
 8713SOL     OW37771   1.245   2.121   1.996  0.4837 -0.3217  0.3136
 8713SOL    HW137772   1.222   2.174   2.072  0.7219  0.7554 -0.3701
 8713SOL    HW237773   1.190   2.174   1.939  0.9342 -0.1539  0.0353
 8714SOL     OW37774   3.504   4.542  16.971 -0.0583 -0.3433 -0.4093
 8714SOL    HW137775   3.485   4.631  16.939  0.8035  0.2190  0.6111
 8714SOL    HW237776   3.422   4.507  17.005 -0.7991  2.1662  0.4314
 8715SOL     OW37777   2.199   3.333   6.607 -0.0207  0.1890  0.8908
 8715SOL    HW137778   2.214   3.246   6.644 -0.3134 -0.0987  0.3336
 8715SOL    HW237779   2.267   3.379   6.657  1.1259  0.7423 -1.1491
 8716SOL     OW37780   2.953   1.160   7.496  0.1211 -0.6242  0.0666
 8716SOL    HW137781   2.899   1.116   7.561 -1.0029 -0.3174 -0.6639
 8716SOL    HW237782   3.000   1.222   7.553  0.6622 -1.1519  0.1966
 8717SOL     OW37783   2.950   3.735   0.805 -0.1940  0.2325  0.3297
 8717SOL    HW137784   2.967   3.733   0.900  0.0117 -1.0687  0.2727
 8717SOL    HW237785   3.012   3.668   0.777 -0.3616  0.8660 -1.5284
 8718SOL     OW37786   0.994   3.963  14.913  0.6245  0.0235 -0.3650
 8718SOL    HW137787   1.069   4.013  14.880 -0.5772  1.8885 -0.2827
 8718SOL    HW237788   1.033   3.945  14.998 -1.3236 -1.5665  0.1935
 8719SOL     OW37789   2.140   0.817   5.518 -0.5508 -0.2088  0.1914
 8719SOL    HW137790   2.174   0.875   5.450 -0.9461  0.2686  0.4074
 8719SOL    HW237791   2.227   0.779   5.535 -0.3008  0.5935  0.6969
 8720SOL     OW37792   0.640   3.566   8.290 -0.3107  0.3797  0.2521
 8720SOL    HW137793   0.551   3.550   8.260  0.3725 -1.1764 -0.9624
 8720SOL    HW237794   0.677   3.617   8.217  0.4479  0.1621  0.4807
 8721SOL     OW37795   3.929   1.779  10.381 -0.0854  0.1331  0.1151
 8721SOL    HW137796   3.913   1.711  10.315 -2.0947  0.0348  0.7031
 8721SOL    HW237797   4.012   1.758  10.425 -0.4295 -1.4292  0.0444
 8722SOL     OW37798   3.802   3.899  12.079  0.4137  0.0536  0.1449
 8722SOL    HW137799   3.878   3.894  12.138 -0.1065  0.4589  0.8531
 8722SOL    HW237800   3.753   3.961  12.134 -2.3145 -1.1933 -0.8864
 8723SOL     OW37801   1.615   2.000   7.295  0.6048  0.4440  0.2235
 8723SOL    HW137802   1.697   2.046   7.317  0.1299  1.3396  0.1199
 8723SOL    HW237803   1.638   1.908   7.290 -0.6076  0.1332  0.5150
 8724SOL     OW37804   2.786   1.556   4.400  0.4412 -0.6246 -0.1176
 8724SOL    HW137805   2.838   1.545   4.480 -0.2059  0.5631  0.4603
 8724SOL    HW237806   2.753   1.470   4.375 -0.0914 -0.5592  0.3471
 8725SOL     OW37807   3.803   4.535   3.987  0.0090 -0.2006  1.0439
 8725SOL    HW137808   3.860   4.549   4.062  0.7114 -0.9590  0.6604
 8725SOL    HW237809   3.761   4.452   4.010  1.8163 -1.1245  1.0736
 8726SOL     OW37810   1.778   2.349   6.564 -1.0308  0.4727 -0.1706
 8726SOL    HW137811   1.820   2.347   6.650 -0.9892  2.3121 -0.1654
 8726SOL    HW237812   1.782   2.442   6.542 -2.5543  0.0314 -2.3728
 8727SOL     OW37813   2.814   0.332   4.733 -0.2448 -0.5213  0.0476
 8727SOL    HW137814   2.756   0.385   4.678  1.4538 -0.5022 -1.7523
 8727SOL    HW237815   2.892   0.388   4.729 -1.1732  0.9639  2.8400
 8728SOL     OW37816   0.435   0.967   9.605 -0.5727 -0.3612 -0.5506
 8728SOL    HW137817   0.380   1.044   9.591  0.0313 -0.0731 -1.3887
 8728SOL    HW237818   0.491   0.997   9.676 -1.3475 -0.4180  0.0794
 8729SOL     OW37819   4.098   2.123   4.680  0.6185  0.2270  0.1161
 8729SOL    HW137820   4.075   2.043   4.632  1.4867 -0.6202  1.1154
 8729SOL    HW237821   4.149   2.164   4.611 -0.3159  0.3221 -0.5259
 8730SOL     OW37822   0.167   2.871  11.634 -0.5202 -0.1090 -0.3569
 8730SOL    HW137823   0.111   2.931  11.684  2.2609  0.8296  1.6396
 8730SOL    HW237824   0.250   2.914  11.653 -1.5632  1.2890  1.1373
 8731SOL     OW37825   0.022   2.243   2.874  0.4145 -0.6191  0.2621
 8731SOL    HW137826   0.105   2.266   2.833  0.7501 -2.3702 -0.0430
 8731SOL    HW237827   0.044   2.225   2.965 -1.0659 -0.5858  0.6334
 8732SOL     OW37828   0.985   3.494   9.347 -0.0400  0.5752 -0.0303
 8732SOL    HW137829   0.980   3.421   9.408 -0.6697  0.2902 -0.4189
 8732SOL    HW237830   0.922   3.556   9.383 -0.4569  0.2893 -0.2611
 8733SOL     OW37831   0.430   3.067  12.791 -0.3959 -0.3296 -0.3216
 8733SOL    HW137832   0.353   3.099  12.839  2.2359  1.5307  2.6973
 8733SOL    HW237833   0.483   3.037  12.865  1.0990  4.9137  0.7123
 8734SOL     OW37834   3.826   4.328   5.257  0.3064  0.8880  0.0962
 8734SOL    HW137835   3.851   4.386   5.186  0.9541 -0.0066 -0.4063
 8734SOL    HW237836   3.838   4.391   5.328 -1.8442 -0.1575  1.3961
 8735SOL     OW37837   0.016   1.986   6.778  0.0337 -0.0416 -0.6405
 8735SOL    HW137838   4.717   1.977   6.689  3.1811 -1.2288 -1.7559
 8735SOL    HW237839   0.007   2.081   6.779  0.0469 -0.0385 -0.8164
 8736SOL     OW37840   3.495   3.858   7.112  0.3243 -0.0725  1.0620
 8736SOL    HW137841   3.433   3.844   7.040 -0.5401 -0.3295  1.8563
 8736SOL    HW237842   3.571   3.818   7.070  0.7349  1.0209  0.7745
 8737SOL     OW37843   4.549   3.133   8.336 -0.0547 -0.4974  0.4197
 8737SOL    HW137844   4.498   3.077   8.277  0.2585  0.1329 -0.4617
 8737SOL    HW237845   4.504   3.218   8.339  0.6133 -0.0929 -1.2111
 8738SOL     OW37846   0.944   1.411   8.094 -0.2912  0.2812 -0.0708
 8738SOL    HW137847   1.021   1.354   8.096  1.8785  3.2705  0.8880
 8738SOL    HW237848   0.942   1.430   8.187 -0.9380  0.1515 -0.0589
 8739SOL     OW37849   1.167   0.493  14.921  0.2476 -0.0974  0.2681
 8739SOL    HW137850   1.182   0.453  15.006 -0.2302  1.1381  0.9247
 8739SOL    HW237851   1.085   0.449  14.896  0.1498 -0.4819  1.2818
 8740SOL     OW37852   4.514   4.157   6.257  0.4128 -0.6640 -0.0585
 8740SOL    HW137853   4.465   4.143   6.176 -0.4026  0.0482  0.3144
 8740SOL    HW237854   4.603   4.130   6.233  1.3106  2.2248 -0.0008
 8741SOL     OW37855   3.746   0.115   6.149  0.2122 -0.3783  0.0309
 8741SOL    HW137856   3.714   0.180   6.211 -0.6859  0.0388 -0.8686
 8741SOL    HW237857   3.793   0.178   6.094 -2.0874  0.2062 -1.2742
 8742SOL     OW37858   1.771   1.065  11.788 -0.2859  0.1797  0.1644
 8742SOL    HW137859   1.692   1.085  11.839 -2.6451 -0.5834 -3.1525
 8742SOL    HW237860   1.829   1.133  11.822  1.1886 -0.6089 -0.7802
 8743SOL     OW37861   4.389   4.112   3.628 -0.0769  0.5587 -0.5836
 8743SOL    HW137862   4.381   4.157   3.544  0.2886  0.1082 -0.8575
 8743SOL    HW237863   4.484   4.114   3.631 -0.1126  1.7307 -0.0263
 8744SOL     OW37864   3.969   4.508   6.743  0.4425 -0.5499 -0.3534
 8744SOL    HW137865   3.954   4.602   6.746  0.8668 -0.4546 -1.3379
 8744SOL    HW237866   3.991   4.497   6.651  2.0420 -0.3655  0.0114
 8745SOL     OW37867   0.893   0.726   6.758 -0.0471  0.2000  0.1938
 8745SOL    HW137868   0.985   0.747   6.740 -0.8849  1.8342 -2.1755
 8745SOL    HW237869   0.872   0.788   6.828  0.3424 -0.6684  1.0648
 8746SOL     OW37870   0.886   2.142   0.958  0.0974  0.4460 -0.5517
 8746SOL    HW137871   0.808   2.087   0.967  0.3569  0.0817 -0.5276
 8746SOL    HW237872   0.935   2.105   1.032 -0.7152  1.4587  0.4966
 8747SOL     OW37873   1.839   4.704   6.759 -0.2594  0.5814  0.2337
 8747SOL    HW137874   1.861   4.724   6.850  1.0928  1.8930 -0.3727
 8747SOL    HW237875   1.776   0.036   6.734  0.1872  0.7665 -0.4101
 8748SOL     OW37876   1.035   4.420   8.401 -0.6692  0.2346  0.1095
 8748SOL    HW137877   1.118   4.429   8.449 -0.6198 -0.9357  0.2627
 8748SOL    HW237878   0.992   4.493   8.444  0.9363  1.6116 -0.6360
 8749SOL     OW37879   2.463   4.478   2.048  0.2967 -0.5926 -0.0566
 8749SOL    HW137880   2.424   4.550   1.998  2.4674  0.9225  0.4283
 8749SOL    HW237881   2.440   4.506   2.137 -0.2062 -0.4131 -0.2408
 8750SOL     OW37882   4.083   1.029   0.063  0.0453  0.7503 -0.1209
 8750SOL    HW137883   4.122   1.006  17.720  0.6242  0.4601  0.2253
 8750SOL    HW237884   4.029   0.951   0.076 -1.1760  1.3146 -1.8757
 8751SOL     OW37885   3.059   3.577   4.664 -0.4901  0.0092  0.1284
 8751SOL    HW137886   2.982   3.612   4.708 -0.5719 -0.3569  0.2746
 8751SOL    HW237887   3.046   3.483   4.680  1.3763 -0.8072 -3.2705
 8752SOL     OW37888   1.234   0.276   4.047 -0.3160  0.5437 -0.5609
 8752SOL    HW137889   1.245   0.195   4.098 -0.7062  0.3585 -0.7681
 8752SOL    HW237890   1.276   0.341   4.104 -1.0815 -1.2250  2.0550
 8753SOL     OW37891   2.935   3.721   3.406  0.0903  0.3045  0.3685
 8753SOL    HW137892   2.931   3.816   3.404  0.7198  0.3067 -1.6018
 8753SOL    HW237893   3.001   3.705   3.474 -0.6833  0.8008  1.2295
 8754SOL     OW37894   3.039   0.320   5.173 -0.3988 -0.6896 -0.4007
 8754SOL    HW137895   3.133   0.327   5.191 -0.0417 -0.2031 -2.4369
 8754SOL    HW237896   3.030   0.399   5.120  2.4921 -0.4040 -0.4810
 8755SOL     OW37897   2.361   3.546   8.125  0.2945 -0.1390  0.4054
 8755SOL    HW137898   2.362   3.451   8.140 -2.6469  0.0617  2.0156
 8755SOL    HW237899   2.451   3.578   8.131 -0.4225  1.6346  1.7868
 8756SOL     OW37900   2.013   0.547  11.686 -0.5280 -0.0091  0.0657
 8756SOL    HW137901   2.049   0.609  11.622  1.5404  0.6502  1.8886
 8756SOL    HW237902   1.930   0.518  11.648 -1.2812  0.3151  1.4703
 8757SOL     OW37903   1.723   0.938   3.818 -0.1224  0.3787 -0.4310
 8757SOL    HW137904   1.770   1.021   3.812  0.2754  0.1433 -0.5660
 8757SOL    HW237905   1.635   0.962   3.847  0.7808 -0.0485  2.6255
 8758SOL     OW37906   2.432   0.863  10.361 -0.2550  0.1032 -0.1552
 8758SOL    HW137907   2.340   0.888  10.367 -0.8456 -1.3905 -3.0113
 8758SOL    HW237908   2.453   0.862  10.455 -1.2016 -1.0013  0.0373
 8759SOL     OW37909   2.928   4.045  10.064  0.3878 -0.1473  0.3349
 8759SOL    HW137910   2.909   4.098  10.142  0.1840  0.2186  0.0382
 8759SOL    HW237911   2.990   4.108  10.026  1.1307 -0.4238  1.0802
 8760SOL     OW37912   1.736   3.770   6.385  0.4272 -0.2942  0.1518
 8760SOL    HW137913   1.754   3.679   6.362  0.4455 -0.3020  0.1984
 8760SOL    HW237914   1.740   3.749   6.478  0.9511  1.0078  0.4177
 8761SOL     OW37915   3.907   0.512   5.757 -0.3145  0.3351  0.2949
 8761SOL    HW137916   3.827   0.513   5.809 -1.4222  0.4375 -1.4307
 8761SOL    HW237917   3.886   0.438   5.700  1.4614 -1.1354  1.5580
 8762SOL     OW37918   4.507   0.539  13.320  0.4740 -0.6431 -0.3030
 8762SOL    HW137919   4.562   0.598  13.268 -0.1765  0.1882 -0.0401
 8762SOL    HW237920   4.464   0.486  13.253  0.0616 -1.2550  0.4421
 8763SOL     OW37921   0.561   0.231   8.030  0.0842 -0.2242  0.4643
 8763SOL    HW137922   0.640   0.201   7.987 -0.2951 -1.8042  0.8707
 8763SOL    HW237923   0.584   0.319   8.060  0.9108 -0.9533  1.9371
 8764SOL     OW37924   1.131   0.909   0.147  0.2535 -0.2241 -0.1131
 8764SOL    HW137925   1.101   0.961   0.072 -0.6791  1.2852  1.3149
 8764SOL    HW237926   1.138   0.820   0.112  0.2134 -0.3958  0.3252
 8765SOL     OW37927   0.364   0.480   7.879 -0.1379  0.0793  0.4226
 8765SOL    HW137928   0.443   0.436   7.849 -0.2877 -0.2594  0.5352
 8765SOL    HW237929   0.411   0.507   7.957 -1.6302 -0.1591  1.4037
 8766SOL     OW37930   2.454   3.075   2.974  0.2168 -0.2505  0.4238
 8766SOL    HW137931   2.415   3.029   2.900  1.1039 -2.2462  1.1874
 8766SOL    HW237932   2.494   3.146   2.923 -1.3452  0.3038 -0.0184
 8767SOL     OW37933   2.281   2.683   3.848  0.5788 -0.1734 -0.5605
 8767SOL    HW137934   2.234   2.611   3.804  1.5015 -1.2771  0.2664
 8767SOL    HW237935   2.209   2.728   3.892 -0.6778 -1.5084 -1.2278
 8768SOL     OW37936   4.276   0.004   2.654 -0.3318  0.1867 -0.2063
 8768SOL    HW137937   4.198   0.057   2.669  1.3805  2.0369  2.1445
 8768SOL    HW237938   4.319   0.053   2.584  1.4727  0.1547  0.8710
 8769SOL     OW37939   3.896   2.262   8.527  0.1423  0.6981 -0.1261
 8769SOL    HW137940   3.815   2.214   8.546  0.0803  1.2516  1.0000
 8769SOL    HW237941   3.935   2.278   8.613 -0.2454  2.1940 -0.2307
 8770SOL     OW37942   4.604   0.091   6.246  0.1137 -0.1867  0.6454
 8770SOL    HW137943   4.608   0.176   6.290 -2.3346  0.2321  0.0613
 8770SOL    HW237944   4.568   0.029   6.308  0.5792  0.3114  1.4110
 8771SOL     OW37945   0.924   1.676   9.259 -0.1305 -0.1699 -0.9401
 8771SOL    HW137946   0.994   1.645   9.316  1.8026  0.5425 -2.9660
 8771SOL    HW237947   0.933   1.770   9.275 -0.6916 -0.3841  0.6539
 8772SOL     OW37948   1.087   1.009  17.649 -0.4417  0.1228  0.0548
 8772SOL    HW137949   1.067   0.932  17.595  0.9669 -0.0408 -0.2174
 8772SOL    HW237950   1.166   1.045  17.609  0.9551 -2.0916  0.8445
 8773SOL     OW37951   1.496   1.818   6.958  0.0992  0.5799  0.0480
 8773SOL    HW137952   1.547   1.892   6.925 -1.3726  1.4340 -0.3275
 8773SOL    HW237953   1.562   1.751   6.978 -1.4673 -0.2414  2.4878
 8774SOL     OW37954   4.618   3.318  11.774  0.7424  0.1449  0.2306
 8774SOL    HW137955   4.659   3.379  11.712  2.0509  0.3481  1.3039
 8774SOL    HW237956   4.646   3.352  11.859 -0.6229 -1.0724  1.1729
 8775SOL     OW37957   0.616   2.677  17.002  0.0195 -0.2858 -0.1965
 8775SOL    HW137958   0.658   2.696  16.919  0.4298  0.0868  0.1039
 8775SOL    HW237959   0.692   2.665  17.059  0.0304  0.4687 -0.0559
 8776SOL     OW37960   4.181   2.634   1.786  0.0759  0.5877 -0.0797
 8776SOL    HW137961   4.194   2.573   1.713 -2.1339 -0.1462  0.1530
 8776SOL    HW237962   4.223   2.712   1.750  0.8142 -0.2588 -1.0456
 8777SOL     OW37963   2.526   2.751   8.505  0.1416 -0.2914  0.4602
 8777SOL    HW137964   2.560   2.805   8.576  2.0737 -1.2092  0.2564
 8777SOL    HW237965   2.567   2.668   8.532  1.1138 -0.9309 -2.9993
 8778SOL     OW37966   1.115   4.728  11.286  1.0560  0.1684  0.0336
 8778SOL    HW137967   1.137   4.702  11.376 -2.3677  2.3599  1.4846
 8778SOL    HW237968   1.134   0.086  11.284 -0.3770  0.4343 -0.7275
 8779SOL     OW37969   0.091   4.598  10.089  0.6236  0.2435  0.2435
 8779SOL    HW137970   0.076   4.675  10.034 -2.7203 -0.0600  0.7246
 8779SOL    HW237971   0.003   4.560  10.090  0.4120  0.7544  0.9058
 8780SOL     OW37972   0.549   2.406   1.867  0.1942 -0.3683  0.0402
 8780SOL    HW137973   0.505   2.402   1.782  1.2582  0.6787 -0.5564
 8780SOL    HW237974   0.532   2.316   1.894  1.7494 -0.3375  1.0965
 8781SOL     OW37975   4.356   1.481   5.764 -0.1238 -0.5361 -0.0203
 8781SOL    HW137976   4.283   1.458   5.706  0.6116  0.2055 -1.2437
 8781SOL    HW237977   4.418   1.429   5.713  1.3282 -0.6080  1.8079
 8782SOL     OW37978   2.197   2.926   5.524 -0.3654  0.5457 -0.9015
 8782SOL    HW137979   2.201   3.022   5.528  2.3908  0.3669  0.6557
 8782SOL    HW237980   2.240   2.904   5.441 -0.4425  0.1469 -0.8335
 8783SOL     OW37981   4.033   4.079  15.328  0.1103  0.2800  0.0427
 8783SOL    HW137982   3.961   4.118  15.279  2.0188  2.9836 -0.6062
 8783SOL    HW237983   4.002   4.122  15.408  2.3909 -0.8606  1.5623
 8784SOL     OW37984   0.420   2.602   5.227 -0.1302 -0.0133 -0.4720
 8784SOL    HW137985   0.514   2.619   5.225  0.0908 -1.1874 -0.4563
 8784SOL    HW237986   0.417   2.514   5.265 -0.2647  0.8112  1.4235
 8785SOL     OW37987   0.867   0.186  14.171 -0.1104  0.3916  0.2414
 8785SOL    HW137988   0.861   0.246  14.246 -1.8104  0.5865 -0.0715
 8785SOL    HW237989   0.806   0.117  14.196  1.4763 -1.7322 -1.7092
 8786SOL     OW37990   0.034   4.614   8.388 -0.1634  0.6961 -0.1555
 8786SOL    HW137991   4.719   4.556   8.445  2.0521 -1.6671 -0.5666
 8786SOL    HW237992   0.048   4.564   8.307  0.0523 -0.7432  0.7715
 8787SOL     OW37993   3.301   2.627   8.874 -0.0211  0.0619 -0.3025
 8787SOL    HW137994   3.336   2.624   8.963  3.7026 -1.3430 -1.8254
 8787SOL    HW237995   3.373   2.661   8.821 -0.5177  1.5237 -0.0466
 8788SOL     OW37996   3.177   2.136  14.511 -0.3683 -0.1772 -0.4916
 8788SOL    HW137997   3.113   2.199  14.480 -0.2980 -0.7476 -1.8054
 8788SOL    HW237998   3.251   2.151  14.452 -0.0308 -1.8609 -0.5225
 8789SOL     OW37999   2.882   0.495  12.009 -0.4255 -0.0151  0.0014
 8789SOL    HW138000   2.851   0.404  12.000 -0.5437 -0.1689  2.0223
 8789SOL    HW238001   2.804   0.544  11.984  0.2212  0.3621 -1.2650
 8790SOL     OW38002   4.151   0.038   3.963 -0.0482  0.5351  0.3089
 8790SOL    HW138003   4.088   4.719   4.010 -1.1539  1.7484  0.2343
 8790SOL    HW238004   4.140   0.125   4.000  2.4126  0.3328  1.5256
 8791SOL     OW38005   4.334   3.324  16.867  0.1578 -0.3811  0.1015
 8791SOL    HW138006   4.327   3.384  16.942 -0.6751 -0.9066  0.4374
 8791SOL    HW238007   4.308   3.248  16.919 -2.8771 -0.6230 -1.7797
 8792SOL     OW38008   3.730   1.274   2.320 -0.6759  0.0020  0.1088
 8792SOL    HW138009   3.778   1.219   2.259  0.8543  1.0429  0.3825
 8792SOL    HW238010   3.731   1.230   2.405  0.0088  1.0538  0.6455
 8793SOL     OW38011   2.990   2.163   0.391  0.3481  0.8334  0.2859
 8793SOL    HW138012   3.082   2.143   0.406  0.2315  1.3818  1.7936
 8793SOL    HW238013   2.954   2.078   0.367  3.0475 -0.2395  0.1247
 8794SOL     OW38014   4.024   4.515  17.402 -0.1995  0.0187  0.3449
 8794SOL    HW138015   3.981   4.533  17.318 -0.3630  0.2078  0.4696
 8794SOL    HW238016   4.112   4.483  17.381  1.0370  1.9032  2.7105
 8795SOL     OW38017   3.919   4.601   0.234 -0.6381  0.3267  0.3513
 8795SOL    HW138018   3.955   4.617   0.146 -2.6321  2.0055 -0.1775
 8795SOL    HW238019   3.892   4.509   0.237 -0.4281  0.2110 -1.1776
 8796SOL     OW38020   2.889   1.409   7.928 -0.1137 -0.4872  0.2812
 8796SOL    HW138021   2.915   1.501   7.935 -1.7140 -0.0384  0.2388
 8796SOL    HW238022   2.807   1.415   7.880  0.1759 -1.0479 -0.2820
 8797SOL     OW38023   1.312   4.232   0.500 -0.1023  0.0329 -0.3174
 8797SOL    HW138024   1.367   4.230   0.421  1.3267 -2.4092  0.7397
 8797SOL    HW238025   1.373   4.179   0.551  0.3749 -0.3773 -1.3115
 8798SOL     OW38026   3.967   0.535   4.349  1.0696 -0.7572  0.4964
 8798SOL    HW138027   3.927   0.497   4.428  0.0470 -0.4640  0.1178
 8798SOL    HW238028   3.943   0.627   4.341  1.4599 -0.4831  2.3300
 8799SOL     OW38029   2.879   3.051   4.877  0.3096 -0.3105 -0.4927
 8799SOL    HW138030   2.853   2.978   4.821 -0.5703 -0.6752  0.3855
 8799SOL    HW238031   2.809   3.114   4.857  0.9942  0.8794  0.8856
 8800SOL     OW38032   0.392   2.823   9.382  0.0481  0.7223 -0.0556
 8800SOL    HW138033   0.449   2.850   9.454  0.8026  0.1595 -0.4354
 8800SOL    HW238034   0.368   2.909   9.348 -1.9815 -0.4099 -1.4772
 8801SOL     OW38035   1.017   4.204  13.728 -0.1729  0.1763  0.3223
 8801SOL    HW138036   0.952   4.180  13.662 -0.3119 -0.8990  0.8548
 8801SOL    HW238037   1.023   4.298  13.714  0.9510 -0.0621 -0.7761
 8802SOL     OW38038   0.961   3.163   9.087 -0.5876 -0.4813  0.0409
 8802SOL    HW138039   1.004   3.150   9.172 -0.9648  1.1120  0.4910
 8802SOL    HW238040   0.875   3.199   9.108  0.1994  1.8563 -0.7556
 8803SOL     OW38041   4.371   1.948   4.442  0.1447 -0.0269  0.2000
 8803SOL    HW138042   4.422   1.993   4.509 -0.0779  0.2825  0.1624
 8803SOL    HW238043   4.390   1.857   4.467 -1.2224  0.0769  1.6024
 8804SOL     OW38044   1.086   3.931   0.431  0.4452 -0.3564 -0.4746
 8804SOL    HW138045   1.081   4.025   0.447  1.8123  0.0725 -2.5843
 8804SOL    HW238046   1.121   3.929   0.341  0.5074  0.1292 -0.4627
 8805SOL     OW38047   2.471   3.236   1.324 -0.2896 -0.2674  0.3522
 8805SOL    HW138048   2.431   3.311   1.279  0.2582 -0.9501 -1.2804
 8805SOL    HW238049   2.559   3.237   1.288 -0.3306  1.0529  0.2564
 8806SOL     OW38050   3.603   1.263  13.764  0.1318  0.0620 -0.5419
 8806SOL    HW138051   3.644   1.257  13.677 -1.9814  0.1357 -1.5356
 8806SOL    HW238052   3.669   1.318  13.807 -1.0548  1.1260 -0.0962
 8807SOL     OW38053   2.803   0.165   1.469 -0.0485 -0.3376  0.0502
 8807SOL    HW138054   2.875   0.193   1.412  0.1294 -0.2888  0.2982
 8807SOL    HW238055   2.723   0.170   1.417  0.7936  2.7239 -0.9879
 8808SOL     OW38056   2.564   2.814   7.955  0.8032 -0.3199  0.1305
 8808SOL    HW138057   2.484   2.858   7.985  0.0455 -1.1472 -0.6973
 8808SOL    HW238058   2.589   2.773   8.038 -0.3719  2.2602  1.7571
 8809SOL     OW38059   0.996   4.712   7.638  0.0695 -0.6206  0.0519
 8809SOL    HW138060   1.069   0.037   7.635 -0.5990  0.2111  0.8125
 8809SOL    HW238061   0.993   4.674   7.550 -1.9297 -0.0461 -0.1286
 8810SOL     OW38062   3.789   4.465   1.398 -0.6379 -0.3767 -0.1214
 8810SOL    HW138063   3.767   4.425   1.313  0.5406 -0.0826 -0.5622
 8810SOL    HW238064   3.703   4.475   1.439 -0.7488  2.7234 -1.1131
 8811SOL     OW38065   2.072   2.082   7.522 -0.3507 -0.0008 -0.0239
 8811SOL    HW138066   1.991   2.132   7.512 -0.3379 -0.7362 -3.7298
 8811SOL    HW238067   2.042   2.015   7.582 -0.2446 -0.7514 -0.8084
 8812SOL     OW38068   3.692   3.225   4.720 -0.0742  0.1604  0.1275
 8812SOL    HW138069   3.744   3.228   4.800  0.3887  3.9525 -0.3494
 8812SOL    HW238070   3.613   3.274   4.743 -0.7507 -0.4124 -1.0163
 8813SOL     OW38071   3.866   0.232   6.558  0.0441  1.0015 -0.0603
 8813SOL    HW138072   3.812   0.265   6.486  0.5053 -0.1841 -0.9582
 8813SOL    HW238073   3.956   0.254   6.534 -0.5856  1.7113 -1.8227
 8814SOL     OW38074   0.471   3.895   0.015  0.0885  0.1236 -0.0191
 8814SOL    HW138075   0.451   3.809  17.720  1.3513 -0.4063  0.5282
 8814SOL    HW238076   0.538   3.928  17.696 -0.6898  0.0805 -0.8957
 8815SOL     OW38077   3.620   3.932   2.517 -0.3784  0.0023  0.4615
 8815SOL    HW138078   3.623   3.979   2.433 -0.4765  0.6263  0.8101
 8815SOL    HW238079   3.694   3.969   2.564  0.8942 -0.1628 -1.4277
 8816SOL     OW38080   0.907   0.632   5.009  0.3678  0.4475  0.2285
 8816SOL    HW138081   0.857   0.674   4.938 -0.4701  2.1468  1.8169
 8816SOL    HW238082   0.982   0.594   4.964 -0.4935  1.5918 -2.1662
 8817SOL     OW38083   1.926   0.968  11.594  0.5900 -0.4306 -0.1226
 8817SOL    HW138084   1.856   0.997  11.653  0.5406 -0.9047  0.0522
 8817SOL    HW238085   1.877   0.896  11.554 -1.6330  1.4303 -0.7690
 8818SOL     OW38086   0.215   1.192   1.088  0.2578  0.6629  0.2072
 8818SOL    HW138087   0.193   1.114   1.037 -0.8381  0.5805  0.7972
 8818SOL    HW238088   0.288   1.229   1.038  1.1623  0.9288  1.6987
 8819SOL     OW38089   4.424   4.211   3.339 -0.0423  0.2395  0.3212
 8819SOL    HW138090   4.405   4.138   3.280 -0.9382  0.2979  0.5479
 8819SOL    HW238091   4.424   4.291   3.286 -1.8642  0.0323  0.0077
 8820SOL     OW38092   1.171   4.461   8.613 -0.3704  0.3275  0.1558
 8820SOL    HW138093   1.204   4.375   8.637 -1.6528 -0.2479 -0.1338
 8820SOL    HW238094   1.248   4.513   8.635  0.5163 -1.0543  0.2958
 8821SOL     OW38095   0.541   4.323   5.566 -0.3287  0.4942  0.2296
 8821SOL    HW138096   0.593   4.397   5.599  1.1039 -0.0853 -0.7117
 8821SOL    HW238097   0.573   4.251   5.621 -0.1890 -0.6598 -1.3812
 8822SOL     OW38098   2.376   1.512   2.185  0.3169 -0.2548 -0.2179
 8822SOL    HW138099   2.392   1.420   2.203  2.7274 -0.0607 -1.3787
 8822SOL    HW238100   2.451   1.553   2.227  1.4780 -1.5782 -1.0211
 8823SOL     OW38101   2.295   1.579   5.323  0.1678 -0.0287 -0.2831
 8823SOL    HW138102   2.256   1.583   5.410  0.2066 -0.7920 -0.2318
 8823SOL    HW238103   2.342   1.662   5.316  0.1968  0.1348  1.9915
 8824SOL     OW38104   0.472   1.896   5.939  0.0645 -0.4715 -0.2505
 8824SOL    HW138105   0.431   1.957   6.001  2.2473 -0.0927  0.8003
 8824SOL    HW238106   0.554   1.869   5.980 -0.2000 -0.7133  0.1238
 8825SOL     OW38107   1.349   3.980   3.735  0.0099  0.6161 -0.3286
 8825SOL    HW138108   1.373   4.073   3.735  1.5142  0.2604  3.8010
 8825SOL    HW238109   1.300   3.977   3.653  1.2288 -0.0351 -1.0340
 8826SOL     OW38110   2.032   0.208   8.438  0.1659 -0.3469  0.6372
 8826SOL    HW138111   2.115   0.164   8.420  0.4684  0.5977 -0.2622
 8826SOL    HW238112   2.014   0.228   8.346  0.5850  0.6954  0.7849
 8827SOL     OW38113   0.261   1.016   0.273  0.8458 -0.4794  0.1034
 8827SOL    HW138114   0.345   1.002   0.318  0.7486 -2.0406 -0.1873
 8827SOL    HW238115   0.220   0.931   0.287 -1.2373  0.5529  0.1524
 8828SOL     OW38116   2.151   3.646   8.293 -0.4603 -0.5605  0.4482
 8828SOL    HW138117   2.162   3.598   8.375 -1.4973  0.2673  1.0846
 8828SOL    HW238118   2.222   3.609   8.242  0.1427  1.2986 -0.0567
 8829SOL     OW38119   2.008   3.475   4.788  0.3132  0.7758 -0.5163
 8829SOL    HW138120   1.960   3.408   4.740  0.5674  1.5253 -1.8097
 8829SOL    HW238121   1.942   3.507   4.850  1.2117  0.5250  0.5789
 8830SOL     OW38122   1.118   0.928   2.145 -0.0560  0.0473 -0.1337
 8830SOL    HW138123   1.106   0.962   2.056 -1.0940  0.5054  0.1857
 8830SOL    HW238124   1.163   0.846   2.128  0.5617  0.0780  1.3522
 8831SOL     OW38125   4.210   0.149   4.888  0.1438 -0.6437  0.4201
 8831SOL    HW138126   4.193   0.074   4.944 -0.3296 -0.3296  0.6978
 8831SOL    HW238127   4.135   0.134   4.831  1.2571  0.1725 -1.2618
 8832SOL     OW38128   0.431   0.181   1.079  0.0949  0.3987  0.2175
 8832SOL    HW138129   0.338   0.186   1.103 -0.3132 -0.5772 -1.1494
 8832SOL    HW238130   0.432   0.085   1.078 -0.9518  0.3950 -0.4743
 8833SOL     OW38131   1.964   2.932   8.378 -0.0934  0.3943 -0.8420
 8833SOL    HW138132   1.885   2.985   8.390 -0.4911 -0.5079  0.5396
 8833SOL    HW238133   1.939   2.844   8.407  3.0717 -0.9920 -2.3657
 8834SOL     OW38134   1.313   1.853   4.332  0.2126 -0.5711  0.0411
 8834SOL    HW138135   1.272   1.929   4.374 -1.6854 -1.4582 -0.2368
 8834SOL    HW238136   1.327   1.871   4.240 -0.2169 -1.2296 -0.1507
 8835SOL     OW38137   4.715   0.624   4.432  0.2158  0.4382 -0.2229
 8835SOL    HW138138   0.041   0.556   4.459 -0.0369 -0.7148 -2.5304
 8835SOL    HW238139   4.631   0.583   4.452  0.1000  0.3288 -0.9199
 8836SOL     OW38140   2.228   0.056   4.140  0.1192 -0.3248 -0.1750
 8836SOL    HW138141   2.273   0.137   4.165 -1.1942  0.5214 -0.5662
 8836SOL    HW238142   2.198   0.034   4.228 -0.5355 -0.9091 -0.5436
 8837SOL     OW38143   1.112   1.729   5.726 -0.1346 -0.0180 -0.5719
 8837SOL    HW138144   1.193   1.752   5.679  0.4518 -1.3283 -0.1872
 8837SOL    HW238145   1.149   1.708   5.811 -0.8902  2.4307  0.3636
 8838SOL     OW38146   1.787   1.564   1.336 -0.0370 -0.1787  0.7546
 8838SOL    HW138147   1.775   1.512   1.416 -0.8559  1.7503  1.8896
 8838SOL    HW238148   1.715   1.624   1.353  0.3546  0.3009  0.7227
 8839SOL     OW38149   2.129   3.534   1.743  0.1397 -0.1226 -0.2849
 8839SOL    HW138150   2.066   3.583   1.690  0.2131  0.1680 -0.1071
 8839SOL    HW238151   2.210   3.581   1.721 -0.9844  1.3326 -1.3679
 8840SOL     OW38152   1.908   2.571   1.781 -0.1652  0.2311 -0.0917
 8840SOL    HW138153   1.992   2.529   1.799 -0.9666 -1.5896 -0.5486
 8840SOL    HW238154   1.931   2.664   1.780 -0.9837  0.4306 -0.5756
 8841SOL     OW38155   3.263   2.214   3.262 -0.1060 -0.5173 -0.4666
 8841SOL    HW138156   3.244   2.172   3.346  0.5543  0.5446  0.2050
 8841SOL    HW238157   3.222   2.299   3.278  0.5110  0.0556 -1.9761
 8842SOL     OW38158   0.631   1.438  11.226  0.6093  0.6269 -0.3599
 8842SOL    HW138159   0.613   1.523  11.188 -0.6150  1.4284  1.9993
 8842SOL    HW238160   0.701   1.459  11.287 -0.8477  1.1987  1.1283
 8843SOL     OW38161   1.896   2.551   4.929  0.1174  0.6479  0.2190
 8843SOL    HW138162   1.866   2.480   4.872 -0.3815  1.7092 -0.8272
 8843SOL    HW238163   1.827   2.548   4.996  1.1681  0.2703  1.2957
 8844SOL     OW38164   2.858   0.954   0.169  0.4285 -0.4746 -0.0530
 8844SOL    HW138165   2.808   1.035   0.164  0.8412 -0.1768  0.6611
 8844SOL    HW238166   2.907   0.963   0.087  0.4156 -2.3995 -0.2763
 8845SOL     OW38167   2.932   2.937  16.969  0.1159  0.5645  0.3324
 8845SOL    HW138168   2.954   2.993  16.894  0.9127  0.4497  0.4798
 8845SOL    HW238169   2.966   2.997  17.035  0.5691  0.2113  0.4184
 8846SOL     OW38170   2.226   1.274   1.436 -0.0542 -0.1919 -0.2485
 8846SOL    HW138171   2.188   1.271   1.348 -1.0104 -0.6363  0.1719
 8846SOL    HW238172   2.172   1.346   1.468  0.0518 -0.9616  1.6648
 8847SOL     OW38173   2.071   4.698   4.558 -0.1418  0.3297  0.5979
 8847SOL    HW138174   2.155   4.708   4.513  0.0086  1.1375  1.0671
 8847SOL    HW238175   2.056   0.053   4.583 -0.2833  1.4451 -3.5456
 8848SOL     OW38176   2.414   3.835   5.330 -0.0462 -0.4257  0.0876
 8848SOL    HW138177   2.465   3.914   5.311  0.5815 -0.7771  0.3212
 8848SOL    HW238178   2.330   3.876   5.353 -0.6817 -1.3414 -0.6115
 8849SOL     OW38179   2.684   3.017   0.691 -0.0763  0.2149  0.5729
 8849SOL    HW138180   2.649   3.015   0.780 -1.1240 -0.0340  0.1646
 8849SOL    HW238181   2.612   2.987   0.634  0.7286 -0.7970  0.0975
 8850SOL     OW38182   1.971   4.157   3.484 -0.2986 -0.1536 -0.6830
 8850SOL    HW138183   1.988   4.182   3.394 -2.6930 -0.0185 -1.0775
 8850SOL    HW238184   2.061   4.126   3.499 -0.6542 -1.2012 -0.7153
 8851SOL     OW38185   2.196   4.398  16.216 -0.0876 -0.1031  0.3293
 8851SOL    HW138186   2.200   4.474  16.274 -0.6811 -0.2266  0.5353
 8851SOL    HW238187   2.151   4.335  16.272  1.5419 -2.9126 -1.5140
 8852SOL     OW38188   0.144   3.345   4.173 -0.0325 -0.0405  0.4392
 8852SOL    HW138189   0.115   3.255   4.157 -1.0438  0.6401 -1.5875
 8852SOL    HW238190   0.169   3.349   4.265  1.4764  0.7007 -0.0139
 8853SOL     OW38191   4.148   1.687   0.914  0.1172 -0.6447 -0.0024
 8853SOL    HW138192   4.201   1.741   0.973 -2.4393  2.4714 -0.4949
 8853SOL    HW238193   4.092   1.754   0.875  0.3288  0.4237  1.5222
 8854SOL     OW38194   4.295   3.618   8.333 -0.1612  0.8540  0.0851
 8854SOL    HW138195   4.327   3.652   8.249 -0.5422 -1.1227 -0.8710
 8854SOL    HW238196   4.326   3.675   8.403  1.5040  0.2834 -0.1802
 8855SOL     OW38197   1.982   1.210   9.570  0.5064 -0.6800 -0.8816
 8855SOL    HW138198   1.949   1.171   9.489 -1.5663 -1.9673  0.5768
 8855SOL    HW238199   1.976   1.137   9.632  1.9714 -0.7521 -0.8398
 8856SOL     OW38200   4.238   2.440  13.463 -0.2839  0.1810  0.2057
 8856SOL    HW138201   4.211   2.475  13.378  2.8146  1.5990 -0.1842
 8856SOL    HW238202   4.332   2.456  13.463 -0.5335  1.7030 -0.7104
 8857SOL     OW38203   1.620   4.225   3.746 -0.4249 -0.1198 -0.4801
 8857SOL    HW138204   1.557   4.236   3.817 -0.8999  2.8184 -1.3701
 8857SOL    HW238205   1.684   4.170   3.793 -1.7805 -0.5994  0.8136
 8858SOL     OW38206   4.175   1.265   3.253  0.1333 -0.5905 -0.5646
 8858SOL    HW138207   4.181   1.212   3.333  0.5269  0.5729  0.1826
 8858SOL    HW238208   4.100   1.322   3.269  2.7776  2.6244  0.2510
 8859SOL     OW38209   2.800   3.018  13.341  0.4584  0.0212 -0.7995
 8859SOL    HW138210   2.849   2.938  13.356  0.8735  0.1757 -1.3095
 8859SOL    HW238211   2.721   3.000  13.391  1.7120 -2.4814  0.2686
 8860SOL     OW38212   0.504   0.215   2.894 -0.4513 -0.1217  0.2472
 8860SOL    HW138213   0.412   0.222   2.919  0.0012 -0.6393  2.0729
 8860SOL    HW238214   0.532   0.296   2.936 -2.9609  0.1851  1.2876
 8861SOL     OW38215   4.675   1.201  16.287  0.7157  0.7654  0.5110
 8861SOL    HW138216   4.626   1.119  16.287 -0.3057  1.3717  0.5091
 8861SOL    HW238217   0.003   1.198  16.216  0.5073 -0.1917  0.3657
 8862SOL     OW38218   4.383   2.830   4.544  0.0453 -0.1508 -0.1703
 8862SOL    HW138219   4.316   2.861   4.605  0.8207  2.3212 -0.5658
 8862SOL    HW238220   4.422   2.756   4.591  1.3792 -0.4874 -1.7946
 8863SOL     OW38221   1.623   4.271   6.774 -0.6229  0.7524 -0.3539
 8863SOL    HW138222   1.577   4.221   6.706 -0.1834 -1.0618  0.6886
 8863SOL    HW238223   1.691   4.321   6.730 -0.4505  0.1992 -0.7151
 8864SOL     OW38224   3.028   4.309   8.123 -0.0863  0.3907 -0.0360
 8864SOL    HW138225   3.069   4.395   8.134  0.1412  0.3707 -0.6641
 8864SOL    HW238226   2.937   4.332   8.104 -0.3000  0.5983  1.3106
 8865SOL     OW38227   3.672   3.165   0.587  0.3532  0.2246  0.2675
 8865SOL    HW138228   3.668   3.161   0.491  2.1377 -0.2065  0.2186
 8865SOL    HW238229   3.752   3.215   0.604 -0.5771  1.7206  0.3249
 8866SOL     OW38230   2.360   3.774   1.214 -0.3856  0.2643  0.0203
 8866SOL    HW138231   2.423   3.834   1.173  0.0731  0.9868  1.7811
 8866SOL    HW238232   2.389   3.784   1.305  1.0047 -1.8063 -0.1831
 8867SOL     OW38233   3.020   0.911  14.229  0.4320 -0.0190 -0.6087
 8867SOL    HW138234   2.960   0.914  14.155 -1.1309 -1.2087  0.5944
 8867SOL    HW238235   3.021   0.816  14.220 -0.7698 -0.1492  0.4873
 8868SOL     OW38236   3.437   3.983   7.455 -0.5157 -0.1298 -0.5526
 8868SOL    HW138237   3.471   3.894   7.464 -1.8669 -0.7823 -1.9167
 8868SOL    HW238238   3.404   4.019   7.538 -1.0684 -0.4212 -0.6452
 8869SOL     OW38239   3.808   1.319  14.971  0.2842  0.4062 -0.1177
 8869SOL    HW138240   3.864   1.345  14.899  0.5904  1.9045  0.6690
 8869SOL    HW238241   3.801   1.401  15.021 -0.2004  0.1361  0.2639
 8870SOL     OW38242   4.599   2.176   5.995  0.3251  0.2185  0.2331
 8870SOL    HW138243   4.560   2.262   5.977  2.9371  1.6215  1.2341
 8870SOL    HW238244   4.589   2.137   5.908  2.2980  2.5797 -1.0921
 8871SOL     OW38245   0.567   3.756   6.959 -0.0451  0.0356 -0.0161
 8871SOL    HW138246   0.597   3.677   7.003 -0.0188  0.3176  0.4755
 8871SOL    HW238247   0.539   3.799   7.040 -1.2894  0.3626 -0.6273
 8872SOL     OW38248   4.732   1.137   9.534 -0.0949 -0.5942 -0.4764
 8872SOL    HW138249   0.004   1.079   9.609  3.4919  1.4642  0.7613
 8872SOL    HW238250   0.058   1.098   9.472  0.3193  1.0059 -1.0962
 8873SOL     OW38251   3.832   4.029  15.716  0.1798 -0.2456 -0.4620
 8873SOL    HW138252   3.761   4.077  15.758 -1.3327 -0.9939 -2.1622
 8873SOL    HW238253   3.794   3.942  15.700  0.8101 -0.3672 -1.3111
 8874SOL     OW38254   2.173   1.839   2.477 -0.3539 -0.1886 -0.1362
 8874SOL    HW138255   2.246   1.783   2.503 -0.2264  0.3653  0.6772
 8874SOL    HW238256   2.198   1.873   2.391  0.6635  0.6281  0.4859
 8875SOL     OW38257   3.401   3.085   2.688  0.4829 -0.2502 -0.6922
 8875SOL    HW138258   3.488   3.120   2.666  2.2611 -2.3489  3.0979
 8875SOL    HW238259   3.416   3.024   2.760 -0.0465 -0.0455 -0.4083
 8876SOL     OW38260   2.739   4.251   6.894 -0.3182 -0.3403 -0.8408
 8876SOL    HW138261   2.830   4.230   6.914  1.1730  4.0841 -2.9763
 8876SOL    HW238262   2.737   4.196   6.815 -0.5712 -0.2008 -0.9316
 8877SOL     OW38263   3.793   0.467   4.138 -0.4556 -0.1965  0.2183
 8877SOL    HW138264   3.803   0.371   4.143 -1.4364 -0.4090 -1.7789
 8877SOL    HW238265   3.824   0.488   4.226  0.3216 -0.6836  0.0605
 8878SOL     OW38266   4.470   1.878   5.429 -0.3704 -0.3119  0.1160
 8878SOL    HW138267   4.539   1.931   5.388  0.0190 -0.2960  0.7923
 8878SOL    HW238268   4.522   1.820   5.485  1.6790  2.4507  1.0719
 8879SOL     OW38269   0.230   0.367   6.243 -0.3967  0.8302  0.0451
 8879SOL    HW138270   0.205   0.276   6.257  2.2940  0.3195  1.4806
 8879SOL    HW238271   0.154   0.410   6.282  0.3454  1.4263  0.8508
 8880SOL     OW38272   4.622   2.958   0.249  0.3314 -0.4843  0.6400
 8880SOL    HW138273   4.667   3.040   0.226 -2.4318  0.6406 -0.7255
 8880SOL    HW238274   4.700   2.911   0.279  1.7727  1.9218  0.6697
 8881SOL     OW38275   4.329   0.716   3.055  0.4664 -0.0028 -0.5809
 8881SOL    HW138276   4.237   0.690   3.060  0.8313 -1.4547 -1.3147
 8881SOL    HW238277   4.340   0.806   3.084 -0.8527 -0.0972  0.2105
 8882SOL     OW38278   4.251   1.488  12.612  0.4590 -0.7395 -0.1674
 8882SOL    HW138279   4.257   1.408  12.561  1.5674 -0.7755  0.0206
 8882SOL    HW238280   4.339   1.527  12.607 -0.9219  2.3700 -0.1901
 8883SOL     OW38281   2.601   3.390   3.804 -0.1237 -0.3328 -0.7320
 8883SOL    HW138282   2.521   3.341   3.784 -0.8515 -0.4766  2.4194
 8883SOL    HW238283   2.623   3.336   3.880  0.0275  1.9340  0.8592
 8884SOL     OW38284   1.363   1.192  14.944  0.8361 -0.3767  0.2887
 8884SOL    HW138285   1.269   1.194  14.963  0.9884  0.9555  0.8495
 8884SOL    HW238286   1.395   1.132  15.013  1.3226 -0.7754 -0.2809
 8885SOL     OW38287   1.507   1.320  12.441  0.0383  0.0304 -0.5364
 8885SOL    HW138288   1.565   1.348  12.512 -2.2072  2.2182  0.4257
 8885SOL    HW238289   1.558   1.246  12.407  0.4900 -0.1643  0.5601
 8886SOL     OW38290   0.282   4.290   7.190  0.1629  1.2953  0.5108
 8886SOL    HW138291   0.340   4.213   7.194  0.2991  1.4326  1.1396
 8886SOL    HW238292   0.222   4.271   7.261 -0.4723  0.4954 -0.2394
 8887SOL     OW38293   0.796   3.794   7.623  0.0269  0.1107  0.0331
 8887SOL    HW138294   0.884   3.826   7.641 -0.9154  2.4639  0.4444
 8887SOL    HW238295   0.760   3.830   7.704  0.3222  0.8512 -0.1646
 8888SOL     OW38296   2.491   4.552   9.831 -0.2550  0.3905 -0.1219
 8888SOL    HW138297   2.472   4.486   9.764 -1.6861  1.5448 -0.8729
 8888SOL    HW238298   2.495   4.491   9.904  2.3341  0.4693 -0.1902
 8889SOL     OW38299   1.248   0.895  11.534 -0.7125 -0.3014  0.1647
 8889SOL    HW138300   1.266   0.814  11.486 -0.0747  0.2724 -0.5656
 8889SOL    HW238301   1.241   0.952  11.458 -2.2877 -0.8681 -0.1101
 8890SOL     OW38302   4.106   2.678   2.357  0.2392  0.5877 -0.1635
 8890SOL    HW138303   4.014   2.683   2.332 -0.0124 -0.5804  0.5140
 8890SOL    HW238304   4.089   2.740   2.428  0.8431  4.0683 -3.1063
 8891SOL     OW38305   1.869   0.207   5.741  0.6003  0.9628 -0.3946
 8891SOL    HW138306   1.846   0.114   5.728 -0.2545  0.9997  0.8538
 8891SOL    HW238307   1.871   0.213   5.836 -2.5903 -1.0154 -0.2070
 8892SOL     OW38308   2.161   3.887  13.575 -0.7783 -0.1266  0.1997
 8892SOL    HW138309   2.242   3.937  13.580 -0.8020  0.1169 -2.1331
 8892SOL    HW238310   2.122   3.912  13.492 -1.1302  0.3197  0.5013
 8893SOL     OW38311   2.842   1.577   7.591 -0.1158  0.4505 -0.1838
 8893SOL    HW138312   2.900   1.642   7.553  0.1643  1.0622  1.3013
 8893SOL    HW238313   2.762   1.575   7.538  1.0254 -1.8821 -1.8478
 8894SOL     OW38314   3.285   0.011   1.759  0.4314 -0.5416  0.3288
 8894SOL    HW138315   3.207   0.025   1.812 -1.3673 -0.2432 -2.4015
 8894SOL    HW238316   3.269   0.093   1.712  0.7016 -0.6628  0.0270
 8895SOL     OW38317   2.775   3.849   1.544  0.0602 -0.4787 -0.5422
 8895SOL    HW138318   2.821   3.766   1.533 -0.1141 -1.0529  3.1025
 8895SOL    HW238319   2.767   3.844   1.639  1.3652  0.2344 -0.3930
 8896SOL     OW38320   1.898   3.777   5.521  0.0124 -0.1983  0.7311
 8896SOL    HW138321   1.846   3.740   5.593 -0.6158 -0.7125  0.0156
 8896SOL    HW238322   1.857   3.862   5.507 -1.8182 -0.8485  2.0178
 8897SOL     OW38323   1.918   2.257  15.855  0.3309  0.1600 -0.3071
 8897SOL    HW138324   1.848   2.198  15.884 -0.1583  0.5265 -0.7471
 8897SOL    HW238325   1.939   2.224  15.767  0.3783  2.1020 -1.0183
 8898SOL     OW38326   0.507   3.297   3.255 -0.0768  0.1131  0.1688
 8898SOL    HW138327   0.496   3.320   3.162 -0.1409 -1.9123 -0.3368
 8898SOL    HW238328   0.515   3.201   3.248 -1.7630 -0.1679  2.2140
 8899SOL     OW38329   2.917   2.766   6.201  0.1620  0.0557 -0.3108
 8899SOL    HW138330   2.986   2.830   6.217  0.4610 -0.5762  0.8713
 8899SOL    HW238331   2.962   2.682   6.197  1.7401  0.9013 -0.3552
 8900SOL     OW38332   0.377   1.589  16.953  0.1379 -0.4987 -0.2527
 8900SOL    HW138333   0.454   1.546  16.917  1.0774  0.5130  0.5588
 8900SOL    HW238334   0.388   1.681  16.932  2.8639 -0.9057 -0.6488
 8901SOL     OW38335   3.105   1.844   7.931 -0.4731 -0.4078 -0.1471
 8901SOL    HW138336   3.024   1.801   7.957 -1.8813  2.1271 -0.3631
 8901SOL    HW238337   3.143   1.786   7.865 -2.0646 -1.2473 -0.3170
 8902SOL     OW38338   1.589   4.199  13.156 -0.2967  0.5635  0.1843
 8902SOL    HW138339   1.596   4.291  13.132  2.0936 -0.1006 -1.5912
 8902SOL    HW238340   1.674   4.181  13.195  0.1493 -1.2089 -1.6214
 8903SOL     OW38341   3.251   4.633  17.256 -0.1501 -0.3593  0.0110
 8903SOL    HW138342   3.342   4.606  17.248  0.6222  2.7486 -1.7396
 8903SOL    HW238343   3.208   4.592  17.331  2.0213  0.2097  1.5582
 8904SOL     OW38344   3.944   0.301  11.005 -0.3397  0.1927 -0.5968
 8904SOL    HW138345   3.895   0.237  11.055 -1.0628  1.4734  0.3290
 8904SOL    HW238346   3.912   0.381  11.046  1.1435  1.1275 -1.2673
 8905SOL     OW38347   3.823   0.176   3.701  0.2373 -0.2226  0.2745
 8905SOL    HW138348   3.784   0.208   3.782 -1.1528 -2.0191  0.3137
 8905SOL    HW238349   3.827   0.084   3.726 -2.4899 -0.0585  1.3125
 8906SOL     OW38350   1.215   2.484   5.474  0.3358 -0.9467 -0.0792
 8906SOL    HW138351   1.234   2.398   5.513  0.0674 -0.6258  0.7499
 8906SOL    HW238352   1.146   2.465   5.411  1.6034  0.4044 -1.8635
 8907SOL     OW38353   2.216   4.159  17.111 -0.2097  0.5196  0.1751
 8907SOL    HW138354   2.172   4.232  17.067  1.3968  0.9743 -0.6444
 8907SOL    HW238355   2.200   4.084  17.053  1.9099 -0.1027  0.4240
 8908SOL     OW38356   0.616   0.414  12.993  0.7823 -0.1232  0.0138
 8908SOL    HW138357   0.594   0.507  13.002 -2.1669 -0.8419 -0.0459
 8908SOL    HW238358   0.695   0.422  12.940  0.6882 -0.3458 -0.1561
 8909SOL     OW38359   1.664   1.598  15.374 -0.0174 -0.6045 -0.1536
 8909SOL    HW138360   1.583   1.647  15.392  0.5295 -0.1431  1.0475
 8909SOL    HW238361   1.737   1.659  15.373 -1.2023  0.8668  3.1612
 8910SOL     OW38362   3.822   3.666   5.868  0.2744  0.1482  0.1633
 8910SOL    HW138363   3.807   3.601   5.799 -1.4769  0.5137  0.2028
 8910SOL    HW238364   3.879   3.728   5.824 -0.8475 -0.0470 -1.5337
 8911SOL     OW38365   4.345   1.109   2.891  0.2947 -0.1405  0.0289
 8911SOL    HW138366   4.342   1.183   2.830  0.9602 -1.6749 -1.8497
 8911SOL    HW238367   4.428   1.076   2.856  0.2187  0.3971 -0.6765
 8912SOL     OW38368   1.743   3.699   1.726  0.3272  0.0745 -0.5358
 8912SOL    HW138369   1.755   3.761   1.798  0.3510 -0.6536  0.0854
 8912SOL    HW238370   1.798   3.736   1.657 -1.7233 -1.4333 -3.0009
 8913SOL     OW38371   4.563   2.723   3.542 -0.1680 -0.4953  0.4946
 8913SOL    HW138372   4.515   2.805   3.544  1.8918  0.7340  0.0341
 8913SOL    HW238373   4.537   2.689   3.457 -1.0538 -1.9449  1.3542
 8914SOL     OW38374   4.343   4.226   1.727  0.7287 -0.2326 -0.2913
 8914SOL    HW138375   4.334   4.275   1.809 -0.0204 -1.0149  0.0996
 8914SOL    HW238376   4.303   4.139   1.735  0.5673 -0.0617  0.6720
 8915SOL     OW38377   2.894   0.219  14.902 -0.0087  0.4619  0.3015
 8915SOL    HW138378   2.836   0.261  14.966 -2.3222 -0.6298 -1.0554
 8915SOL    HW238379   2.847   0.135  14.905  1.2740 -0.1640  2.9316
 8916SOL     OW38380   4.235   1.729   6.452 -0.6564 -0.1372  0.0590
 8916SOL    HW138381   4.231   1.687   6.538 -0.6197 -1.5469 -0.6170
 8916SOL    HW238382   4.149   1.770   6.457 -1.0712 -0.9374 -0.4161
 8917SOL     OW38383   4.729   2.239  17.182  0.3262  0.4259  0.0959
 8917SOL    HW138384   0.059   2.299  17.147  0.0040 -0.1667 -1.5422
 8917SOL    HW238385   4.673   2.222  17.106  2.8374 -0.4790 -1.5783
 8918SOL     OW38386   2.999   2.749   0.981 -0.0848 -0.2810  0.1545
 8918SOL    HW138387   2.947   2.814   0.934  2.3513  1.9417  0.5270
 8918SOL    HW238388   3.075   2.736   0.924  1.1992 -0.6477  1.9779
 8919SOL     OW38389   1.470   3.011   4.488  0.3005  0.1767 -0.2277
 8919SOL    HW138390   1.551   2.960   4.492  1.6380  2.2510 -0.6295
 8919SOL    HW238391   1.451   3.003   4.395  2.0742 -1.9909 -0.3914
 8920SOL     OW38392   1.215   3.618   2.030  0.0461 -0.1032 -0.7870
 8920SOL    HW138393   1.302   3.611   1.991  0.7449  0.5157  0.7056
 8920SOL    HW238394   1.177   3.677   1.965 -0.8340 -0.4756 -0.6159
 8921SOL     OW38395   2.718   1.025   5.626  0.0598  0.1869 -0.5432
 8921SOL    HW138396   2.777   0.951   5.618  1.2137  0.9626  1.0111
 8921SOL    HW238397   2.779   1.096   5.646 -0.1268  0.7931 -2.1263
 8922SOL     OW38398   0.207   2.172   4.348 -0.1466 -0.0993  0.7661
 8922SOL    HW138399   0.155   2.179   4.428 -2.0059  1.4898 -0.5742
 8922SOL    HW238400   0.235   2.263   4.339 -1.1684  0.1592  0.2066
 8923SOL     OW38401   1.572   1.908   3.310  0.4289  0.3466  0.0472
 8923SOL    HW138402   1.542   1.843   3.246  1.3734 -2.4775  2.5038
 8923SOL    HW238403   1.634   1.862   3.367 -2.1216 -1.9884  0.9210
 8924SOL     OW38404   3.669   0.345   9.199 -0.5288  0.5739  0.7385
 8924SOL    HW138405   3.625   0.355   9.115  1.1595 -0.5425 -0.2677
 8924SOL    HW238406   3.694   0.434   9.224  1.3127  0.4653 -0.7545
 8925SOL     OW38407   3.860   0.636   6.077 -0.2018  0.6163 -0.4128
 8925SOL    HW138408   3.904   0.703   6.129 -1.7904 -0.2392  2.0263
 8925SOL    HW238409   3.791   0.683   6.031 -0.8647  0.9249  0.8943
 8926SOL     OW38410   2.703   3.197   9.176 -0.5149  0.0127  0.2084
 8926SOL    HW138411   2.686   3.222   9.085  1.8272 -0.1677 -0.2641
 8926SOL    HW238412   2.745   3.112   9.170 -0.0816  0.3275 -1.1622
 8927SOL     OW38413   2.927   3.353   5.758 -0.4496 -0.1955  0.4612
 8927SOL    HW138414   2.845   3.393   5.729  0.2636  0.6014 -0.4780
 8927SOL    HW238415   2.883   3.268   5.756  0.4647 -0.7007  1.7282
 8928SOL     OW38416   1.286   3.564   8.099  0.3359  0.6536 -0.0727
 8928SOL    HW138417   1.348   3.632   8.072  0.1636  1.1336  0.7474
 8928SOL    HW238418   1.344   3.503   8.143  0.6764  0.3801 -0.8958
 8929SOL     OW38419   2.764   2.656   2.312  0.4989 -0.0566 -0.3643
 8929SOL    HW138420   2.758   2.724   2.380  1.4547 -1.1963  0.8746
 8929SOL    HW238421   2.746   2.586   2.375 -1.0482  1.1380  0.5212
 8930SOL     OW38422   1.763   1.560   7.635 -0.0610 -0.4178 -0.3528
 8930SOL    HW138423   1.823   1.633   7.647  0.4583 -1.0189  0.7352
 8930SOL    HW238424   1.758   1.519   7.722  1.2019  0.8089  0.2994
 8931SOL     OW38425   4.371   0.886   6.719  0.2095  0.6821 -0.2703
 8931SOL    HW138426   4.292   0.926   6.754  0.9390 -0.4145  2.6149
 8931SOL    HW238427   4.387   0.807   6.770 -0.4844  0.1952 -0.8164
 8932SOL     OW38428   0.083   1.077   4.112 -0.0275  0.4188 -0.0966
 8932SOL    HW138429   0.004   1.086   4.166 -1.7164 -0.8158 -2.3898
 8932SOL    HW238430   0.110   1.168   4.125 -1.1525  1.0571 -2.2765
 8933SOL     OW38431   3.560   0.802   2.733 -0.0212 -0.6944 -0.4712
 8933SOL    HW138432   3.487   0.748   2.766 -0.4530 -0.1149 -0.4713
 8933SOL    HW238433   3.516   0.887   2.722  2.0378  0.4195 -0.1140
 8934SOL     OW38434   0.609   0.891   8.072  0.1448 -0.7308  0.5200
 8934SOL    HW138435   0.639   0.950   8.141 -0.2454  0.6181 -0.4546
 8934SOL    HW238436   0.618   0.807   8.116 -1.7648 -0.9076  0.5763
 8935SOL     OW38437   1.400   3.281  17.593  0.0550  0.2140  0.2714
 8935SOL    HW138438   1.445   3.253  17.672 -2.2217  0.7536  1.7576
 8935SOL    HW238439   1.310   3.309  17.611  0.2870  2.5159 -2.0893
 8936SOL     OW38440   3.424   0.067   0.675  0.1450 -0.0043  0.1415
 8936SOL    HW138441   3.514   0.036   0.679  0.5083  0.9943 -0.1715
 8936SOL    HW238442   3.415   0.085   0.581  1.5157 -0.3552 -0.0442
 8937SOL     OW38443   0.506   1.439   4.993  0.0406 -0.0172 -0.5963
 8937SOL    HW138444   0.452   1.428   5.071  0.2754  0.6577 -0.3409
 8937SOL    HW238445   0.494   1.533   4.978 -0.7282 -0.1372 -0.7819
 8938SOL     OW38446   1.334   3.252  16.776 -0.2774  0.2932 -0.3953
 8938SOL    HW138447   1.405   3.229  16.716 -1.6008 -2.2877 -0.9835
 8938SOL    HW238448   1.264   3.190  16.757 -0.1748  0.0401  0.0447
 8939SOL     OW38449   1.447   4.305   8.118 -0.0175 -0.1891  0.1687
 8939SOL    HW138450   1.379   4.238   8.106  0.0663 -0.4843  1.3818
 8939SOL    HW238451   1.448   4.328   8.025  2.8668 -1.2820 -0.0742
 8940SOL     OW38452   0.233   3.562   1.727 -0.3927 -0.6291 -0.5438
 8940SOL    HW138453   0.261   3.650   1.703 -4.5974  0.6617 -0.7060
 8940SOL    HW238454   0.310   3.525   1.770  0.6127  1.8942 -0.1864
 8941SOL     OW38455   0.679   2.183  10.734 -0.0533  0.0860 -0.1182
 8941SOL    HW138456   0.610   2.120  10.754 -1.2719  0.3256 -3.5600
 8941SOL    HW238457   0.705   2.209  10.822  0.2400 -0.9705  0.1056
 8942SOL     OW38458   4.703   1.997   4.980 -0.2072 -0.2614  0.6399
 8942SOL    HW138459   0.045   1.962   4.937  0.9132  1.2199  1.4804
 8942SOL    HW238460   4.718   2.085   4.944 -3.7703 -0.0132 -0.2879
 8943SOL     OW38461   1.273   1.174   4.537 -0.7834  0.3614 -0.4110
 8943SOL    HW138462   1.322   1.132   4.467 -0.9028  1.5149 -1.1840
 8943SOL    HW238463   1.253   1.108   4.603  1.5105 -0.3440 -0.4439
 8944SOL     OW38464   0.225   3.316   8.842 -0.1048  0.2841  0.0555
 8944SOL    HW138465   0.224   3.410   8.824  0.8670  0.2387 -0.2210
 8944SOL    HW238466   0.307   3.296   8.886 -0.2031 -0.4737 -0.1009
 8945SOL     OW38467   4.455   3.903  13.594 -0.3527 -0.2319 -0.4847
 8945SOL    HW138468   4.500   3.965  13.652  2.8289 -2.2334 -0.7775
 8945SOL    HW238469   4.375   3.881  13.643 -0.9727 -1.5962 -2.1185
 8946SOL     OW38470   3.646   1.384   8.402 -0.0173  0.5571 -0.1339
 8946SOL    HW138471   3.652   1.320   8.473 -2.1568 -0.3913 -0.8112
 8946SOL    HW238472   3.566   1.363   8.355 -0.1372 -0.2338  0.4108
 8947SOL     OW38473   3.232   2.332   2.847  0.5290 -0.1326 -0.4623
 8947SOL    HW138474   3.279   2.258   2.808 -4.1147 -1.9329 -2.5974
 8947SOL    HW238475   3.161   2.293   2.897  1.4310 -2.7315 -1.2187
 8948SOL     OW38476   2.237   1.236   8.478 -0.6158 -0.0963 -0.3504
 8948SOL    HW138477   2.301   1.250   8.548  1.0863  2.3419 -2.4155
 8948SOL    HW238478   2.288   1.191   8.412  0.7928  1.6403 -0.4535
 8949SOL     OW38479   1.174   2.602   2.529 -0.1739  0.3341  0.7684
 8949SOL    HW138480   1.099   2.544   2.538  1.2520 -1.1917  2.5950
 8949SOL    HW238481   1.124   2.683   2.513 -1.7665 -1.0664 -1.3130
 8950SOL     OW38482   2.104   2.928   9.020 -0.0720 -0.0973 -0.0381
 8950SOL    HW138483   2.083   2.956   9.109 -2.4390 -1.2750 -0.2275
 8950SOL    HW238484   2.027   2.940   8.964 -0.5750 -0.1258  0.6533
 8951SOL     OW38485   2.696   0.939   2.271 -0.8499 -0.8071 -0.0198
 8951SOL    HW138486   2.668   0.907   2.356  1.1628  1.0512  1.3606
 8951SOL    HW238487   2.776   0.987   2.295 -0.1430 -0.7682 -2.4024
 8952SOL     OW38488   0.445   2.564   9.064  0.1599 -0.8644 -0.5497
 8952SOL    HW138489   0.447   2.600   8.975  1.0886 -0.3411 -0.3209
 8952SOL    HW238490   0.352   2.550   9.078 -0.2974  0.0605 -2.6872
 8953SOL     OW38491   2.758   4.118   1.846 -0.0263 -0.2118  0.2753
 8953SOL    HW138492   2.756   4.023   1.848  1.2731 -0.2499 -0.1816
 8953SOL    HW238493   2.815   4.141   1.772  0.7988 -1.1069  0.6418
 8954SOL     OW38494   2.442   0.076   9.761  0.1110  0.3587  0.3976
 8954SOL    HW138495   2.483   4.727   9.778 -0.4158  0.1246  0.5250
 8954SOL    HW238496   2.448   0.086   9.666  2.2178 -0.7410  0.4100
 8955SOL     OW38497   3.281   4.080  17.281  0.6453  0.0838 -0.2071
 8955SOL    HW138498   3.345   4.150  17.270  1.4755 -0.5237  0.7527
 8955SOL    HW238499   3.274   4.052  17.190 -3.5196  0.1350  0.1103
 8956SOL     OW38500   1.096   2.937   8.282 -0.0454 -0.0100  0.4175
 8956SOL    HW138501   1.129   2.860   8.236 -1.9566  1.2618 -3.0741
 8956SOL    HW238502   1.004   2.917   8.296 -0.1378 -1.4127 -2.1807
 8957SOL     OW38503   1.609   3.850  14.472 -0.2793 -0.0571  0.0691
 8957SOL    HW138504   1.665   3.794  14.418  1.1934  0.7644  0.7547
 8957SOL    HW238505   1.522   3.835  14.435 -0.9360 -0.6745  1.8374
 8958SOL     OW38506   2.354   0.054   2.438  0.3521  0.0777  0.4279
 8958SOL    HW138507   2.402   0.135   2.455  0.0007  0.4957 -0.6290
 8958SOL    HW238508   2.307   0.039   2.521 -0.3945  0.3512  0.0529
 8959SOL     OW38509   2.879   3.602   7.862 -0.2402  0.0118  0.3132
 8959SOL    HW138510   2.950   3.539   7.871  0.2644  0.3005 -1.8312
 8959SOL    HW238511   2.856   3.601   7.955  0.7896  0.9887  0.5744
 8960SOL     OW38512   0.815   4.202   9.543 -0.0571 -0.0415 -0.4567
 8960SOL    HW138513   0.757   4.127   9.529  1.4536 -1.6260  1.7536
 8960SOL    HW238514   0.750   4.267   9.517 -0.2788 -0.7158 -1.5703
 8961SOL     OW38515   1.013   3.939   6.812 -0.3391  0.1348 -0.2684
 8961SOL    HW138516   0.975   3.911   6.895 -0.3656  1.0920  0.0489
 8961SOL    HW238517   0.932   3.979   6.780 -0.3218  0.0329 -0.4371
 8962SOL     OW38518   1.193   2.557  12.323  0.7730  0.0729  0.0913
 8962SOL    HW138519   1.180   2.614  12.247  2.7557  1.4897  0.8227
 8962SOL    HW238520   1.174   2.471  12.286  0.2352 -0.0935  0.7583
 8963SOL     OW38521   1.747   3.871   4.153  0.1665  0.7952  0.0833
 8963SOL    HW138522   1.789   3.791   4.184  2.9033  1.7157 -1.2812
 8963SOL    HW238523   1.745   3.916   4.237 -0.3901 -0.5636  0.8024
 8964SOL     OW38524   3.520   3.254   6.737 -0.2595  0.2724  0.1074
 8964SOL    HW138525   3.452   3.253   6.669 -2.6562 -0.4327  2.4924
 8964SOL    HW238526   3.466   3.302   6.801  1.9562  2.5458  0.2492
 8965SOL     OW38527   1.301   4.448   3.596  1.0706  0.2551  0.7180
 8965SOL    HW138528   1.238   4.420   3.662  3.1136 -0.7839  2.2267
 8965SOL    HW238529   1.279   4.384   3.529  1.7460  3.1826 -2.3339
 8966SOL     OW38530   0.183   0.574   7.188 -0.1907 -0.3568 -0.8767
 8966SOL    HW138531   0.115   0.510   7.167 -0.5346 -0.8393  1.6998
 8966SOL    HW238532   0.147   0.655   7.150 -1.1986 -0.3788  0.0131
 8967SOL     OW38533   1.842   3.955   3.697 -0.2246  0.4112 -0.2857
 8967SOL    HW138534   1.885   4.025   3.647  0.1589  0.0826 -0.4122
 8967SOL    HW238535   1.864   3.872   3.655  0.4426  0.7920 -0.6801
 8968SOL     OW38536   3.159   4.598  10.668 -0.2016  0.1282 -0.2065
 8968SOL    HW138537   3.195   4.543  10.737  0.4991  2.0888  0.9944
 8968SOL    HW238538   3.078   4.549  10.652 -0.9177 -0.0993  4.3076
 8969SOL     OW38539   0.950   4.023   8.980 -0.5496  0.4997  0.0409
 8969SOL    HW138540   0.868   3.977   8.997  0.5037 -0.6858  1.9569
 8969SOL    HW238541   0.941   4.061   8.892  1.4556 -1.3450 -0.9738
 8970SOL     OW38542   0.059   0.654   8.472 -0.2180  0.0278  0.0319
 8970SOL    HW138543   0.038   0.744   8.498 -1.0858 -0.5608  1.3824
 8970SOL    HW238544   0.153   0.672   8.471 -0.8859  3.4912 -0.7982
 8971SOL     OW38545   3.685   2.650   3.188  0.4487 -0.5842  0.4485
 8971SOL    HW138546   3.732   2.694   3.117 -0.7574  1.5533  0.9658
 8971SOL    HW238547   3.593   2.673   3.173  0.8021  0.1694 -0.5234
 8972SOL     OW38548   2.251   2.384   8.418  0.4473 -0.5832 -0.3793
 8972SOL    HW138549   2.341   2.359   8.439  0.1015 -2.4301 -1.0970
 8972SOL    HW238550   2.237   2.470   8.458 -1.7827 -0.4055 -1.5158
 8973SOL     OW38551   1.538   0.315   7.131  0.0687  0.0534 -0.5456
 8973SOL    HW138552   1.525   0.257   7.205 -1.4200  1.0682 -0.0024
 8973SOL    HW238553   1.511   0.401   7.165 -0.3374 -0.1732 -0.3064
 8974SOL     OW38554   0.130   0.533   8.711 -0.7333  0.2465  0.2841
 8974SOL    HW138555   0.089   0.596   8.651  3.6099  1.8777 -0.9535
 8974SOL    HW238556   0.220   0.564   8.711 -0.1450 -1.3795 -1.2118
 8975SOL     OW38557   3.025   1.439   4.197 -0.0731 -0.0681 -0.0890
 8975SOL    HW138558   2.984   1.392   4.269 -2.0920  0.3009 -0.9813
 8975SOL    HW238559   2.948   1.492   4.173  0.7787  0.1715 -2.3174
 8976SOL     OW38560   3.518   1.355  15.698 -0.5120  0.3588 -0.1255
 8976SOL    HW138561   3.449   1.410  15.735 -1.7025 -2.2824  1.5604
 8976SOL    HW238562   3.579   1.421  15.664  0.0625  0.3365  0.8668
 8977SOL     OW38563   2.709   2.100   3.801 -0.0685 -0.1327 -0.3261
 8977SOL    HW138564   2.797   2.124   3.832 -1.0973  2.0507  0.9050
 8977SOL    HW238565   2.716   2.005   3.805  1.9356 -0.0278 -1.0859
 8978SOL     OW38566   0.672   1.541   5.320  0.0346 -0.1514 -0.0312
 8978SOL    HW138567   0.711   1.608   5.264  3.2586 -0.8001  1.4528
 8978SOL    HW238568   0.712   1.458   5.294 -1.4911 -0.5553 -1.0963
 8979SOL     OW38569   2.128   3.087   1.306  0.4112 -0.1326  0.4732
 8979SOL    HW138570   2.145   3.120   1.394  2.8592  0.7419 -0.3320
 8979SOL    HW238571   2.186   3.144   1.255  1.1948 -1.1194  0.2799
 8980SOL     OW38572   2.260   2.652   8.484 -0.1247  0.0626 -0.7996
 8980SOL    HW138573   2.264   2.745   8.508 -0.4407 -0.2371  0.3971
 8980SOL    HW238574   2.353   2.632   8.478  0.1325  0.7773  0.8277
 8981SOL     OW38575   0.259   0.871   3.794 -0.3715  0.3872  0.1547
 8981SOL    HW138576   0.226   0.884   3.705 -0.1539 -0.8946 -0.1247
 8981SOL    HW238577   0.175   0.849   3.836 -0.4586 -0.2389 -0.3522
 8982SOL     OW38578   4.595   1.097   2.721 -0.4425 -0.0282  0.2717
 8982SOL    HW138579   4.556   1.184   2.711  0.7564  0.5844  0.9556
 8982SOL    HW238580   4.566   1.061   2.637 -0.3892  0.3464  0.0954
 8983SOL     OW38581   1.023   3.730   6.001  0.4641  0.4421  0.4406
 8983SOL    HW138582   0.975   3.661   6.047  0.1656 -0.3456 -1.0757
 8983SOL    HW238583   0.968   3.793   5.957  0.2636 -0.3923 -0.4946
 8984SOL     OW38584   2.689   1.385   2.358 -0.0994 -0.2572  0.3087
 8984SOL    HW138585   2.785   1.389   2.367  0.0076  0.6110 -1.2828
 8984SOL    HW238586   2.656   1.414   2.443 -2.3808 -2.0607  0.0313
 8985SOL     OW38587   3.694   4.379  11.292 -0.7645  0.9787 -0.0938
 8985SOL    HW138588   3.783   4.392  11.326 -0.8278  0.9920  0.0694
 8985SOL    HW238589   3.640   4.405  11.367  0.7915  0.0695  1.3672
 8986SOL     OW38590   2.572   1.138  15.143 -0.3365  0.4435 -0.8233
 8986SOL    HW138591   2.662   1.142  15.174 -0.5538  0.6977 -0.2313
 8986SOL    HW238592   2.582   1.117  15.050  0.6069  0.4756 -0.7288
 8987SOL     OW38593   1.417   1.518   2.648  0.3049 -0.2439 -0.6941
 8987SOL    HW138594   1.489   1.462   2.676  0.2414  0.3498  0.6489
 8987SOL    HW238595   1.457   1.566   2.575 -0.7602 -1.9499 -2.4128
 8988SOL     OW38596   2.745   4.369   8.122 -0.5803  0.0649  0.4996
 8988SOL    HW138597   2.681   4.440   8.116  0.5997  0.9345 -1.6373
 8988SOL    HW238598   2.746   4.378   8.218  0.3698  2.4693  0.2535
 8989SOL     OW38599   1.400   2.144   7.269  0.2333  0.1676  0.4685
 8989SOL    HW138600   1.475   2.085   7.262  0.4809  0.3480  1.6696
 8989SOL    HW238601   1.322   2.096   7.240  0.0255  0.6732  0.1891
 8990SOL     OW38602   4.513   0.414   5.875  0.3565  0.6023  0.2232
 8990SOL    HW138603   4.431   0.396   5.829  0.7644 -1.7794  0.4188
 8990SOL    HW238604   4.537   0.322   5.889 -0.3424  0.3571 -0.2061
 8991SOL     OW38605   4.570   4.314   7.564 -0.4634 -0.0871 -0.2229
 8991SOL    HW138606   4.610   4.389   7.520  0.3362 -0.2263  0.2587
 8991SOL    HW238607   4.483   4.351   7.581 -0.1632 -0.4151  2.0542
 8992SOL     OW38608   0.063   1.767  11.732  0.1884  0.4723 -0.1623
 8992SOL    HW138609   4.717   1.815  11.746 -0.5094 -0.5597 -0.7299
 8992SOL    HW238610   0.117   1.846  11.723 -1.5962  1.8020  0.7364
 8993SOL     OW38611   2.412   2.090  17.491  0.1671  0.4184  0.3938
 8993SOL    HW138612   2.464   2.072  17.569 -1.7635  0.2515  1.6271
 8993SOL    HW238613   2.480   2.135  17.441  2.5003 -1.0894  2.2437
 8994SOL     OW38614   3.098   3.938   0.678  0.0606 -0.2248 -0.3604
 8994SOL    HW138615   3.040   3.898   0.743  1.1441 -0.9273  0.1638
 8994SOL    HW238616   3.140   3.856   0.651  2.2681 -0.1403  2.8858
 8995SOL     OW38617   1.554   0.689   6.067  0.2414  0.1647  0.4009
 8995SOL    HW138618   1.468   0.676   6.028  1.0533  0.4773 -1.5303
 8995SOL    HW238619   1.537   0.666   6.158 -0.2090  1.1661  0.5637
 8996SOL     OW38620   3.650   0.579  16.080  0.2997  0.9659 -0.0949
 8996SOL    HW138621   3.671   0.667  16.050  1.7513  0.8309  0.5400
 8996SOL    HW238622   3.640   0.522  16.004  0.3577 -1.2914  1.5901
 8997SOL     OW38623   3.755   0.025   3.303 -0.2833 -0.4517 -0.4549
 8997SOL    HW138624   3.725   0.107   3.265 -0.8050  0.1422  1.2203
 8997SOL    HW238625   3.820   0.047   3.370  0.7687 -1.6642 -1.0865
 8998SOL     OW38626   1.756   1.136   3.374 -0.0700  0.5243 -0.3237
 8998SOL    HW138627   1.710   1.120   3.456  0.6416 -2.1949 -0.4463
 8998SOL    HW238628   1.689   1.171   3.315  0.3217  0.6321 -0.7079
 8999SOL     OW38629   4.381   4.601   4.618 -0.2781 -0.1153  0.7492
 8999SOL    HW138630   4.399   4.522   4.670  0.4716  0.0727  0.7710
 8999SOL    HW238631   4.292   4.578   4.592 -0.0400 -0.3520  0.1568
 9000SOL     OW38632   3.074   4.196  17.589  0.1213  0.4096 -0.0354
 9000SOL    HW138633   2.983   4.227  17.592  0.3955  0.9980  2.3170
 9000SOL    HW238634   3.118   4.280  17.602  2.7375 -0.7595 -1.2563
 9001SOL     OW38635   2.208   2.208   4.968 -0.3189 -0.3469 -0.0277
 9001SOL    HW138636   2.277   2.270   4.943 -1.7512  0.8673 -0.8977
 9001SOL    HW238637   2.149   2.219   4.895  1.7122  0.4115 -1.5628
 9002SOL     OW38638   0.594   0.280  14.585 -0.8326  0.2755  0.1400
 9002SOL    HW138639   0.524   0.282  14.650  0.1515  1.9524  1.1825
 9002SOL    HW238640   0.540   0.317  14.515  0.1562  0.3008 -0.6099
 9003SOL     OW38641   4.514   3.670   4.617  0.1167  0.4435  0.1199
 9003SOL    HW138642   4.505   3.740   4.553  0.2918 -0.1265 -0.5250
 9003SOL    HW238643   4.485   3.718   4.694 -1.3337 -0.2189 -0.0191
 9004SOL     OW38644   3.610   3.406   1.680  0.1661 -0.0865  0.2993
 9004SOL    HW138645   3.571   3.396   1.594 -0.1002  1.1877  0.2729
 9004SOL    HW238646   3.669   3.331   1.683  1.6091  1.0403  0.6060
 9005SOL     OW38647   3.053   1.682  16.677 -0.8506 -0.3684  0.2938
 9005SOL    HW138648   2.965   1.698  16.711  0.8396  2.9983  3.0418
 9005SOL    HW238649   3.092   1.763  16.709 -0.3429 -0.2761 -0.5405
 9006SOL     OW38650   2.456   0.767  11.481 -0.3426  0.9427 -0.3255
 9006SOL    HW138651   2.363   0.774  11.502  0.1011  3.2540  0.8415
 9006SOL    HW238652   2.451   0.807  11.394  1.2175  1.1559 -0.3325
 9007SOL     OW38653   3.074   0.641  15.105  0.2591  0.2399  0.6409
 9007SOL    HW138654   3.038   0.680  15.185 -1.2536 -0.6062  0.3802
 9007SOL    HW238655   3.111   0.715  15.056  1.5703 -0.2768  0.8496
 9008SOL     OW38656   4.418   0.862   7.184 -0.3163  0.3737  0.1846
 9008SOL    HW138657   4.396   0.941   7.234 -0.5866 -0.7213  1.7980
 9008SOL    HW238658   4.377   0.796   7.240  0.2002  0.0395  0.1692
 9009SOL     OW38659   4.144   1.418   6.159 -0.2507  0.6427 -0.1851
 9009SOL    HW138660   4.126   1.326   6.180 -0.3881  0.5683 -0.6340
 9009SOL    HW238661   4.228   1.413   6.114 -0.5629 -0.5900 -0.6182
 9010SOL     OW38662   4.723   3.291   3.051  0.3940  0.0216  0.2642
 9010SOL    HW138663   4.643   3.339   3.071  1.7107  1.5517  1.8128
 9010SOL    HW238664   4.694   3.237   2.977 -0.1681  0.3114  0.2752
 9011SOL     OW38665   0.850   4.075  10.741 -0.2669  0.3942  0.1322
 9011SOL    HW138666   0.852   4.168  10.761 -1.2406  0.6121 -0.7479
 9011SOL    HW238667   0.844   4.066  10.646 -2.0989  0.8376  0.2136
 9012SOL     OW38668   3.326   1.518  15.841  0.2370  0.2164 -0.2608
 9012SOL    HW138669   3.251   1.522  15.782  0.6821  0.5706 -0.8018
 9012SOL    HW238670   3.286   1.561  15.916 -1.9576 -2.3171  0.0247
 9013SOL     OW38671   4.264   4.134   4.793 -0.3716  0.4750  0.1026
 9013SOL    HW138672   4.203   4.108   4.725  1.8828 -0.5150 -1.5311
 9013SOL    HW238673   4.210   4.114   4.870 -0.5332  0.0676 -0.1226
 9014SOL     OW38674   2.217   4.326   9.910 -0.0430 -0.4521 -0.1795
 9014SOL    HW138675   2.259   4.240   9.901  0.6217 -0.1989  0.5390
 9014SOL    HW238676   2.244   4.363   9.994  0.5938  0.0300 -0.5934
 9015SOL     OW38677   3.874   0.742  12.759  0.1231  0.4794 -0.2429
 9015SOL    HW138678   3.786   0.778  12.743 -1.4038 -2.2956  1.9768
 9015SOL    HW238679   3.911   0.787  12.834 -0.9634  2.2251 -0.7492
 9016SOL     OW38680   3.296   1.829   2.659 -1.0200  0.0033 -0.3348
 9016SOL    HW138681   3.285   1.745   2.703 -0.3875  0.6074  0.9678
 9016SOL    HW238682   3.384   1.817   2.622 -1.1990 -0.3550 -0.6488
 9017SOL     OW38683   2.232   4.196   0.216  0.1360  0.3532 -1.2020
 9017SOL    HW138684   2.265   4.229   0.300 -0.3840  0.6696 -1.1167
 9017SOL    HW238685   2.314   4.177   0.172 -0.2027 -1.3527 -1.0736
 9018SOL     OW38686   1.057   1.432  13.355 -0.1122 -0.2659 -0.0935
 9018SOL    HW138687   1.005   1.360  13.390  0.1842  0.4506  1.8048
 9018SOL    HW238688   1.076   1.393  13.270  0.7259  2.1551 -1.0322
 9019SOL     OW38689   2.185   1.053   4.862 -0.5958 -0.4743 -0.3461
 9019SOL    HW138690   2.206   0.961   4.848  0.9117 -0.3705  1.2147
 9019SOL    HW238691   2.146   1.035   4.948  0.7738  0.8569  0.5591
 9020SOL     OW38692   4.224   4.682   0.583  0.7033  0.1452 -0.2652
 9020SOL    HW138693   4.210   4.659   0.492 -0.7307  1.0231 -0.2669
 9020SOL    HW238694   4.194   4.606   0.633  1.0635 -0.6248 -1.2333
 9021SOL     OW38695   3.470   1.169   5.516 -0.6759  0.1156 -0.0818
 9021SOL    HW138696   3.513   1.180   5.432 -2.6068 -3.3711 -1.5325
 9021SOL    HW238697   3.402   1.103   5.501  0.7225 -1.6598  1.4667
 9022SOL     OW38698   2.953   4.494  16.385  0.1276 -0.3047  0.3640
 9022SOL    HW138699   2.986   4.416  16.429 -1.6112 -0.5933  1.1307
 9022SOL    HW238700   3.006   4.486  16.306 -1.4867 -1.5639 -0.5780
 9023SOL     OW38701   0.480   0.926   6.786 -0.1766  0.0926 -0.2587
 9023SOL    HW138702   0.489   0.841   6.829 -0.1964  0.5459  0.6322
 9023SOL    HW238703   0.429   0.976   6.849 -0.4290  0.5008 -0.7805
 9024SOL     OW38704   1.108   4.093  17.414 -0.3019 -0.4153 -0.0188
 9024SOL    HW138705   1.058   4.172  17.395  0.0107 -0.0942  0.5120
 9024SOL    HW238706   1.089   4.049  17.331  0.4441 -2.9170  1.1342
 9025SOL     OW38707   0.197   1.766   6.744 -0.6472 -0.2747 -0.0991
 9025SOL    HW138708   0.134   1.827   6.781 -2.1654 -1.0545 -1.4003
 9025SOL    HW238709   0.144   1.715   6.682  0.8141 -0.1454 -1.4493
 9026SOL     OW38710   1.649   0.035   3.704 -0.1323 -0.0866 -0.3270
 9026SOL    HW138711   1.652   4.675   3.711 -0.8230 -0.0281  0.7481
 9026SOL    HW238712   1.734   0.051   3.663  0.0150  0.8379  0.3550
 9027SOL     OW38713   2.964   2.629   3.957  1.5454 -0.2996  0.0728
 9027SOL    HW138714   2.925   2.648   4.042  3.2986 -1.9927  1.2481
 9027SOL    HW238715   3.050   2.596   3.981  1.0314  0.3064  2.6918
 9028SOL     OW38716   3.584   0.988  16.094 -1.1223 -0.2440 -0.4775
 9028SOL    HW138717   3.522   1.058  16.074 -0.6766  0.0415 -0.8782
 9028SOL    HW238718   3.546   0.944  16.169 -0.7080  4.0548  2.2769
 9029SOL     OW38719   2.097   4.627   7.550  0.4781 -0.2605 -0.2049
 9029SOL    HW138720   2.174   4.678   7.525  0.7996 -1.4943 -1.7375
 9029SOL    HW238721   2.031   4.696   7.541 -2.7358 -3.7019 -2.7528
 9030SOL     OW38722   4.109   4.413   3.071  0.1450 -0.4343 -0.2453
 9030SOL    HW138723   4.075   4.497   3.103  0.6752  0.5469 -2.2732
 9030SOL    HW238724   4.041   4.352   3.102  0.5852 -0.1183  1.3670
 9031SOL     OW38725   2.526   0.861   4.790  0.0524  0.0110 -0.1608
 9031SOL    HW138726   2.550   0.929   4.728 -1.0397 -0.7273 -1.4014
 9031SOL    HW238727   2.608   0.813   4.798  2.2644  3.8553  0.0854
 9032SOL     OW38728   0.320   3.739   0.326 -0.4145  0.0866 -0.2080
 9032SOL    HW138729   0.381   3.700   0.264  0.1910  1.9393 -0.7791
 9032SOL    HW238730   0.376   3.755   0.402 -0.0963 -1.0785 -0.1959
 9033SOL     OW38731   1.408   4.441   2.306 -0.1223  0.8771 -0.3607
 9033SOL    HW138732   1.321   4.424   2.268 -0.3082  1.3101 -0.1216
 9033SOL    HW238733   1.406   4.535   2.319  1.2821  1.1011 -1.8425
 9034SOL     OW38734   3.009   4.145   6.687  0.2545  0.6460 -0.0285
 9034SOL    HW138735   3.057   4.226   6.672 -1.2497  1.0012 -2.7942
 9034SOL    HW238736   3.043   4.109   6.770 -0.3489  0.7893  0.2789
 9035SOL     OW38737   4.219   0.339   4.683 -0.3404 -0.4476 -0.0298
 9035SOL    HW138738   4.240   0.271   4.747 -0.6053 -2.6176 -2.2453
 9035SOL    HW238739   4.282   0.325   4.613 -2.8108 -1.4384 -2.0487
 9036SOL     OW38740   3.365   3.745  17.645 -0.0913  0.5390 -0.5058
 9036SOL    HW138741   3.326   3.777  17.564 -2.1626  0.0825  0.3203
 9036SOL    HW238742   3.291   3.713  17.696  0.2259  2.1368  0.9754
 9037SOL     OW38743   2.802   2.746  10.370  0.1694  0.1459 -0.0290
 9037SOL    HW138744   2.870   2.805  10.402  1.1758  0.4082 -2.6599
 9037SOL    HW238745   2.724   2.797  10.350 -0.4934 -0.3802  1.1652
 9038SOL     OW38746   3.235   0.017  16.399  0.5303 -0.0957 -0.0644
 9038SOL    HW138747   3.140   0.014  16.395  0.5004  1.5426 -0.1937
 9038SOL    HW238748   3.249   4.658  16.409 -1.1854 -0.1949  1.3126
 9039SOL     OW38749   4.380   2.478   4.240 -0.5592 -0.1437 -0.0010
 9039SOL    HW138750   4.324   2.537   4.189 -0.6260 -1.4809 -1.4756
 9039SOL    HW238751   4.387   2.398   4.187 -1.1740  0.1658 -0.5609
 9040SOL     OW38752   0.933   3.950   8.177 -0.7179  0.5552 -0.0644
 9040SOL    HW138753   0.939   4.045   8.188 -2.4602  0.7919 -1.1314
 9040SOL    HW238754   0.855   3.934   8.231 -0.9185  1.8715  0.0503
 9041SOL     OW38755   0.471   3.040   3.196  0.0770 -0.5900  0.3049
 9041SOL    HW138756   0.398   3.022   3.138  1.2328  0.3396 -1.4549
 9041SOL    HW238757   0.458   2.987   3.275  0.6894 -1.0250  0.1145
 9042SOL     OW38758   1.646   3.285   6.253 -0.3154  0.2470  0.2355
 9042SOL    HW138759   1.614   3.277   6.343  0.6950  1.2757  0.6943
 9042SOL    HW238760   1.646   3.194   6.225  2.0234 -0.0159  1.0695
 9043SOL     OW38761   2.722   0.469  15.867 -0.0810 -0.3337 -0.0078
 9043SOL    HW138762   2.809   0.441  15.837  0.5443  0.3956  1.0878
 9043SOL    HW238763   2.750   0.492  15.956 -0.6860  2.2749 -0.5062
 9044SOL     OW38764   3.481   4.074   5.595 -0.1685  0.2815 -0.4146
 9044SOL    HW138765   3.518   4.121   5.520  1.1604  0.6412  0.4752
 9044SOL    HW238766   3.526   4.121   5.665 -1.3761  0.0218  0.5360
 9045SOL     OW38767   2.681   3.086  14.196  0.0706  0.3450  0.5702
 9045SOL    HW138768   2.749   3.019  14.200 -1.8872 -1.6911 -0.6258
 9045SOL    HW238769   2.619   3.031  14.243 -1.8941  1.3303 -0.8541
 9046SOL     OW38770   3.903   1.133   8.624 -0.0828 -0.3189  0.3334
 9046SOL    HW138771   3.892   1.204   8.686 -0.5297 -0.4826  0.4446
 9046SOL    HW238772   3.828   1.143   8.565 -1.5336 -0.5048  2.1417
 9047SOL     OW38773   4.700   2.252  11.175  0.1382  0.1887  0.1301
 9047SOL    HW138774   4.691   2.204  11.257 -1.7693  1.5303  0.7212
 9047SOL    HW238775   4.707   2.175  11.119 -1.7938  1.8615 -2.4405
 9048SOL     OW38776   1.361   2.592   4.980 -0.4297 -0.0645 -0.6736
 9048SOL    HW138777   1.282   2.646   4.987  1.3352  2.3407  0.2742
 9048SOL    HW238778   1.358   2.565   4.888  0.8850 -0.1404 -0.6962
 9049SOL     OW38779   4.597   4.672   2.918 -0.0302 -0.1960  0.1572
 9049SOL    HW138780   4.553   4.692   3.000  0.0538  1.0173 -0.0874
 9049SOL    HW238781   4.596   0.025   2.881  2.4488 -0.4831 -0.5824
 9050SOL     OW38782   3.319   4.671  14.913  0.2805 -0.2897  0.2978
 9050SOL    HW138783   3.343   0.005  14.852 -1.7304  1.9115  2.0645
 9050SOL    HW238784   3.391   4.608  14.907  1.1497  0.6333  1.3853
 9051SOL     OW38785   1.560   0.225   7.383 -0.0222  0.1387 -0.3588
 9051SOL    HW138786   1.571   0.142   7.429  0.6726  1.0361  1.0915
 9051SOL    HW238787   1.524   0.277   7.455  0.0479  1.4795 -1.2859
 9052SOL     OW38788   2.921   1.300   6.832  0.3514  0.4181  0.3032
 9052SOL    HW138789   2.850   1.236   6.829  2.0319 -1.5031  1.2398
 9052SOL    HW238790   2.973   1.256   6.899  1.0224  1.5112  0.5123
 9053SOL     OW38791   3.659   0.411  16.710 -0.4071 -0.0679 -0.0592
 9053SOL    HW138792   3.712   0.356  16.768  0.1490  2.7963  2.1050
 9053SOL    HW238793   3.635   0.343  16.646  0.8517 -2.2865  1.8096
 9054SOL     OW38794   1.478   0.924   0.844 -0.0801  0.2650  0.1161
 9054SOL    HW138795   1.496   0.884   0.929  1.6608 -2.0095 -1.3150
 9054SOL    HW238796   1.528   1.005   0.854  1.0117 -0.3592 -0.2491
 9055SOL     OW38797   1.092   1.602  17.043 -0.2489 -0.5995 -0.0239
 9055SOL    HW138798   1.147   1.601  17.122  1.1142  0.0208 -0.9568
 9055SOL    HW238799   1.056   1.514  17.037  0.0636 -0.5833 -2.0060
 9056SOL     OW38800   1.230   0.754   1.868 -0.3009 -0.6777  0.1246
 9056SOL    HW138801   1.281   0.679   1.898  1.4592  0.5302  0.1432
 9056SOL    HW238802   1.291   0.826   1.882 -0.4107 -0.5945  0.1761
 9057SOL     OW38803   1.868   3.270   4.414 -0.5655  0.2375  0.0975
 9057SOL    HW138804   1.958   3.245   4.389 -0.9037 -1.1283  0.2293
 9057SOL    HW238805   1.817   3.197   4.377 -0.0036  0.3344 -0.8621
 9058SOL     OW38806   3.711   3.256   5.799  0.1473  0.4925 -0.2267
 9058SOL    HW138807   3.766   3.255   5.877  1.8782  0.8967 -1.4414
 9058SOL    HW238808   3.759   3.312   5.738  1.9036 -0.7648  0.0177
 9059SOL     OW38809   4.306   2.087   4.206 -0.0486 -0.3323  0.4377
 9059SOL    HW138810   4.233   2.050   4.157 -1.3695  0.0206  2.1459
 9059SOL    HW238811   4.331   2.013   4.261 -1.2965 -0.8858  0.2449
 9060SOL     OW38812   0.774   1.688  10.864  0.3527 -0.3882 -0.3505
 9060SOL    HW138813   0.725   1.627  10.919  0.2121  0.8757  0.9102
 9060SOL    HW238814   0.835   1.635  10.813 -0.0827  0.5785 -1.8723
 9061SOL     OW38815   3.037   3.739   8.180 -0.0941 -0.0656 -0.1850
 9061SOL    HW138816   2.966   3.803   8.184  0.3378  0.3560  0.6105
 9061SOL    HW238817   2.988   3.661   8.208  0.6381 -0.3723  0.2479
 9062SOL     OW38818   4.380   2.526   5.486  0.4832  0.7258 -0.0031
 9062SOL    HW138819   4.349   2.607   5.528 -0.7502  0.0499  0.3797
 9062SOL    HW238820   4.300   2.484   5.457 -0.0315  0.1230  2.2487
 9063SOL     OW38821   3.125   1.123  17.315  0.6147 -0.4989  0.2882
 9063SOL    HW138822   3.083   1.208  17.323  1.0545 -0.3984  1.5428
 9063SOL    HW238823   3.200   1.120  17.374  1.7463 -0.6463 -1.1621
 9064SOL     OW38824   4.420   1.639   9.095 -0.1548  0.2586  0.3380
 9064SOL    HW138825   4.490   1.690   9.136 -1.1276  2.3801 -0.6554
 9064SOL    HW238826   4.400   1.583   9.170  1.0761  1.5065  1.6106
 9065SOL     OW38827   3.130   0.796   3.409 -0.1763 -0.2952 -0.2463
 9065SOL    HW138828   3.051   0.808   3.355  0.3801 -0.4564 -1.0983
 9065SOL    HW238829   3.141   0.701   3.406  0.3119 -0.3224  3.0993
 9066SOL     OW38830   4.410   0.991   4.064 -0.0793  0.0761  0.1295
 9066SOL    HW138831   4.335   1.038   4.027  0.5532  2.5877  2.0173
 9066SOL    HW238832   4.391   0.913   4.013  0.8942  0.7635 -1.2710
 9067SOL     OW38833   3.943   0.491   8.997  0.5050  0.6559  0.2063
 9067SOL    HW138834   3.910   0.563   9.051  1.4650  1.6797 -0.5691
 9067SOL    HW238835   4.027   0.516   8.959  0.4241 -0.2296 -0.5733
 9068SOL     OW38836   3.178   0.615   7.112  0.6136  0.2382 -0.1907
 9068SOL    HW138837   3.251   0.668   7.143  1.3188 -1.2100  0.6345
 9068SOL    HW238838   3.106   0.635   7.172  1.6648  0.9158  0.8293
 9069SOL     OW38839   2.776   3.555  15.126  0.2610 -0.2020  0.4415
 9069SOL    HW138840   2.690   3.526  15.099  1.3479 -2.3738 -0.6635
 9069SOL    HW238841   2.819   3.512  15.052  1.6212 -0.0394  1.1357
 9070SOL     OW38842   4.280   2.921   2.251 -0.0428  0.5632  0.0690
 9070SOL    HW138843   4.328   2.942   2.331 -1.2454 -0.9011  1.1784
 9070SOL    HW238844   4.226   2.853   2.290  0.3852 -0.5823 -1.3175
 9071SOL     OW38845   3.319   2.991  15.782 -0.1273  0.2234  0.0805
 9071SOL    HW138846   3.264   3.047  15.837  1.7304  1.1328  1.0334
 9071SOL    HW238847   3.249   2.938  15.744 -0.3874  0.6876 -0.0832
 9072SOL     OW38848   1.920   2.315   6.813  0.5261 -0.0075  0.4038
 9072SOL    HW138849   1.974   2.263   6.874  0.2119 -0.8617 -0.0564
 9072SOL    HW238850   1.905   2.397   6.861  3.3085  1.5971 -1.4765
 9073SOL     OW38851   2.977   2.963   9.350 -0.3028 -0.3464  0.2539
 9073SOL    HW138852   2.889   2.951   9.385  0.7801 -2.6230  2.1583
 9073SOL    HW238853   2.952   2.940   9.261  0.7417 -0.2497 -0.0665
 9074SOL     OW38854   1.917   1.508   3.159  0.3347  0.8008 -0.1227
 9074SOL    HW138855   1.926   1.456   3.239  0.5204  2.2587  0.7914
 9074SOL    HW238856   2.006   1.502   3.125 -0.3263 -1.5809 -1.4784
 9075SOL     OW38857   4.092   2.176   6.658  0.6147  0.3045 -0.0636
 9075SOL    HW138858   4.187   2.178   6.673  0.3571 -0.9355  1.6810
 9075SOL    HW238859   4.050   2.221   6.731 -1.1496 -1.6077  0.1040
 9076SOL     OW38860   3.893   3.051   3.049 -0.1735 -0.4586 -0.0565
 9076SOL    HW138861   3.868   3.077   3.138 -1.8125  2.1440 -1.2644
 9076SOL    HW238862   3.944   3.129   3.027 -2.1853  0.5892 -1.0188
 9077SOL     OW38863   1.352   2.542  16.640  0.6135  0.3487 -0.5562
 9077SOL    HW138864   1.418   2.486  16.680 -0.9896 -0.8088  0.4597
 9077SOL    HW238865   1.279   2.498  16.684 -0.0206  0.5817 -1.3550
 9078SOL     OW38866   0.706   3.774   4.991 -0.2275 -0.4583 -0.5636
 9078SOL    HW138867   0.786   3.801   4.948  0.4541 -0.8268  0.4687
 9078SOL    HW238868   0.718   3.789   5.085 -2.5904  0.5812 -0.4098
 9079SOL     OW38869   1.576   0.898   5.296 -0.2328 -0.3723 -0.3526
 9079SOL    HW138870   1.510   0.922   5.361  2.4324  0.0095  2.1851
 9079SOL    HW238871   1.631   0.847   5.355  3.1509  1.6724 -1.7771
 9080SOL     OW38872   1.311   2.544   1.645 -0.4349 -0.6340 -0.1974
 9080SOL    HW138873   1.335   2.619   1.591  0.6369 -0.3734  0.6567
 9080SOL    HW238874   1.372   2.559   1.717  1.5156 -0.0449 -1.9805
 9081SOL     OW38875   1.303   0.442   1.844  0.1938 -0.3618  0.1506
 9081SOL    HW138876   1.274   0.375   1.905  2.2913 -0.8522  0.6092
 9081SOL    HW238877   1.394   0.451   1.872 -0.5161  2.7130  1.5222
 9082SOL     OW38878   0.194   2.913   5.485 -0.1633  0.4123  0.3912
 9082SOL    HW138879   0.211   2.820   5.467  1.3352  0.8407 -0.3161
 9082SOL    HW238880   0.236   2.925   5.570  2.0880 -1.9780 -0.3993
 9083SOL     OW38881   3.728   0.081  11.075 -0.3832  0.0133 -0.0718
 9083SOL    HW138882   3.708   4.731  11.037 -0.3595  0.7505 -1.7749
 9083SOL    HW238883   3.711   0.050  11.163 -0.8956 -0.2762 -0.2717
 9084SOL     OW38884   4.083   2.323   3.617 -0.0655  0.0202  0.3628
 9084SOL    HW138885   4.081   2.411   3.580 -0.7593  0.4915  1.5150
 9084SOL    HW238886   3.989   2.317   3.637 -0.4075  0.6363 -1.0716
 9085SOL     OW38887   0.600   0.054   3.355  0.0760 -0.0997  0.6336
 9085SOL    HW138888   0.655   0.101   3.293 -0.9754  0.4658  0.1190
 9085SOL    HW238889   0.663   0.042   3.426  0.8775 -0.6931 -0.1825
 9086SOL     OW38890   1.435   1.599   1.699 -0.1783 -0.3827  0.0904
 9086SOL    HW138891   1.390   1.514   1.700  0.5555 -0.8060 -2.2966
 9086SOL    HW238892   1.456   1.603   1.792  0.6797  3.1931 -0.2855
 9087SOL     OW38893   2.974   2.470   2.726  0.2924  0.5905 -0.5828
 9087SOL    HW138894   3.026   2.494   2.803 -4.1463 -1.0624  2.8725
 9087SOL    HW238895   3.003   2.380   2.712 -3.3139 -0.9880  2.3169
 9088SOL     OW38896   3.850   2.264  11.470 -0.1466 -0.2809 -0.0618
 9088SOL    HW138897   3.898   2.289  11.392  0.0448  0.5607  0.3286
 9088SOL    HW238898   3.922   2.261  11.533  0.2014 -0.9477 -0.4968
 9089SOL     OW38899   2.158   4.280   6.435  0.8247  0.0054  0.1063
 9089SOL    HW138900   2.247   4.314   6.432  1.8340 -2.5073  1.2822
 9089SOL    HW238901   2.149   4.268   6.529  0.1610  0.3773  0.0919
 9090SOL     OW38902   4.315   1.956   7.745 -0.6709 -0.2451 -0.1588
 9090SOL    HW138903   4.293   2.021   7.812 -1.7404 -0.3491 -0.3988
 9090SOL    HW238904   4.304   1.877   7.798  1.0010  0.7635  1.6540
 9091SOL     OW38905   3.698   3.369  12.595 -0.5754 -0.1965 -0.3309
 9091SOL    HW138906   3.774   3.426  12.590  0.0518 -1.1527 -2.1169
 9091SOL    HW238907   3.664   3.376  12.684  2.7234  1.4307  0.7876
 9092SOL     OW38908   0.026   0.561   3.217 -0.2635  0.0088  0.0602
 9092SOL    HW138909   4.696   0.525   3.276 -0.5379  0.3418 -0.0421
 9092SOL    HW238910   4.708   0.582   3.141 -0.3301 -1.4414 -0.2885
 9093SOL     OW38911   0.355   3.487   2.532  0.0612  0.4362 -0.0459
 9093SOL    HW138912   0.380   3.528   2.615 -1.8414  1.9102 -0.2021
 9093SOL    HW238913   0.440   3.445   2.517  0.6079  1.0598  1.2452
 9094SOL     OW38914   1.818   0.606  17.542  0.5076 -0.0999  0.2025
 9094SOL    HW138915   1.796   0.526  17.590 -1.8955 -0.5293 -1.5893
 9094SOL    HW238916   1.911   0.620  17.558  0.8051 -1.9558  0.0591
 9095SOL     OW38917   3.509   3.683  15.388 -0.4510 -0.1436  0.2199
 9095SOL    HW138918   3.441   3.626  15.424 -0.4607 -1.1770 -1.4119
 9095SOL    HW238919   3.527   3.631  15.309  0.4756  2.3930 -1.2332
 9096SOL     OW38920   0.735   0.398   6.340 -0.2696 -0.1689 -0.0030
 9096SOL    HW138921   0.722   0.471   6.280  0.3355  1.0285  1.3372
 9096SOL    HW238922   0.651   0.393   6.387  0.5896 -1.0719  1.4471
 9097SOL     OW38923   0.565   0.986   1.158  0.0187 -0.0876  0.4673
 9097SOL    HW138924   0.520   0.965   1.240 -0.8979 -0.1053 -0.0510
 9097SOL    HW238925   0.491   1.004   1.100  0.6716 -0.3917 -0.4558
 9098SOL     OW38926   2.937   1.341  10.812  0.4007 -0.4081  0.3213
 9098SOL    HW138927   2.955   1.420  10.863 -0.1808 -1.4740  2.1775
 9098SOL    HW238928   2.898   1.282  10.876 -0.6353  1.0142  1.0045
 9099SOL     OW38929   2.733   1.851   7.136 -0.0909 -0.4658  0.0569
 9099SOL    HW138930   2.766   1.831   7.223  2.0587 -3.5848 -1.5103
 9099SOL    HW238931   2.760   1.784   7.074  0.6958  0.5787 -0.7172
 9100SOL     OW38932   1.401   0.646   2.701 -0.3276  0.4452 -0.2148
 9100SOL    HW138933   1.496   0.640   2.702 -0.4028 -0.7416  0.0371
 9100SOL    HW238934   1.386   0.563   2.747  3.5401  1.4006  2.7617
 9101SOL     OW38935   0.831   3.555   6.168 -0.0593  0.0855  0.0442
 9101SOL    HW138936   0.779   3.481   6.199  0.9873 -1.4646 -1.9314
 9101SOL    HW238937   0.783   3.567   6.086  2.2798  0.5894 -1.2415
 9102SOL     OW38938   1.441   1.707  15.448  0.1495  0.1013 -0.1923
 9102SOL    HW138939   1.371   1.657  15.490  0.2395 -0.6814 -0.9646
 9102SOL    HW238940   1.386   1.771  15.403 -0.7061 -0.0280  0.6617
 9103SOL     OW38941   0.114   2.664   5.995 -0.4455 -0.2309 -0.9259
 9103SOL    HW138942   0.078   2.603   5.930 -0.8113  0.7023 -1.6018
 9103SOL    HW238943   0.208   2.648   5.993 -0.0275  1.5931  4.5196
 9104SOL     OW38944   1.629   1.071   8.507 -0.0754 -0.1327  0.0115
 9104SOL    HW138945   1.546   1.028   8.484  0.5425 -0.9949 -0.6138
 9104SOL    HW238946   1.600   1.162   8.514 -2.0064 -0.7196 -0.2964
 9105SOL     OW38947   0.179   1.576   8.459  0.4821  0.2542  0.1930
 9105SOL    HW138948   0.120   1.512   8.419 -1.9074  0.7327  2.9613
 9105SOL    HW238949   0.134   1.601   8.540 -1.5704 -0.9558 -0.5755
 9106SOL     OW38950   3.531   2.142   1.029 -0.0413 -0.3305  0.5757
 9106SOL    HW138951   3.473   2.131   1.104  0.9476 -1.4662  1.1708
 9106SOL    HW238952   3.568   2.226   1.058  0.2507 -0.3039  0.1150
 9107SOL     OW38953   2.930   1.578   4.659 -0.2393 -0.3909 -0.4106
 9107SOL    HW138954   2.949   1.503   4.716 -0.0379 -0.2401 -0.2781
 9107SOL    HW238955   2.864   1.632   4.703  0.6609 -0.4386  1.0138
 9108SOL     OW38956   4.299   1.074   8.652 -0.0137  0.2299  0.0761
 9108SOL    HW138957   4.347   1.142   8.605  0.3187  1.8056  2.7589
 9108SOL    HW238958   4.212   1.059   8.614  0.2297 -2.1486  0.4619
 9109SOL     OW38959   0.236   0.093   2.486  0.7921 -0.3662 -0.3289
 9109SOL    HW138960   0.214   0.124   2.574  0.2313 -2.5828  0.3023
 9109SOL    HW238961   0.329   0.078   2.506  0.6568  0.7972  1.2078
 9110SOL     OW38962   3.610   0.834  12.723  0.0941  0.0465  0.2392
 9110SOL    HW138963   3.558   0.793  12.654 -1.7025  0.5761  1.2653
 9110SOL    HW238964   3.597   0.926  12.699  0.4667  0.4531  1.5691
 9111SOL     OW38965   1.383   3.171  11.000  0.7250  0.7776 -0.0477
 9111SOL    HW138966   1.413   3.239  11.060 -1.1622  1.4785  0.0896
 9111SOL    HW238967   1.371   3.224  10.921 -0.4393  0.4930 -0.0659
 9112SOL     OW38968   3.222   3.916   2.345  0.4926 -0.6238  0.1547
 9112SOL    HW138969   3.133   3.900   2.314  1.1623 -1.9493 -1.0610
 9112SOL    HW238970   3.257   3.827   2.349  0.2380 -0.6957  0.8493
 9113SOL     OW38971   0.953   3.265   7.619 -0.2618  0.2176  0.0837
 9113SOL    HW138972   0.943   3.332   7.687  1.4804  0.4511  0.1154
 9113SOL    HW238973   1.042   3.279   7.588 -0.3078  2.2053  0.8301
 9114SOL     OW38974   0.845   3.163   6.184  0.1361  0.1511  0.1696
 9114SOL    HW138975   0.895   3.222   6.127 -0.3444 -0.2533 -0.6644
 9114SOL    HW238976   0.764   3.215   6.182  0.7343  1.1895  2.3790
 9115SOL     OW38977   4.172   3.929   5.634 -0.0080  0.8607 -0.1572
 9115SOL    HW138978   4.234   3.988   5.592  0.6586  1.8212  2.1770
 9115SOL    HW238979   4.145   3.983   5.709  0.2989  1.1086 -0.2284
 9116SOL     OW38980   0.229   2.472  14.614  0.3342 -0.3478 -0.5243
 9116SOL    HW138981   0.244   2.553  14.565 -1.2720 -0.0038 -0.4335
 9116SOL    HW238982   0.310   2.422  14.602  0.0232 -1.2627  1.0797
 9117SOL     OW38983   3.842   0.243  15.931  0.4658  0.2358  0.5495
 9117SOL    HW138984   3.763   0.296  15.917  1.3603  1.4819  0.2721
 9117SOL    HW238985   3.910   0.310  15.932 -0.3517  1.1135 -2.2259
 9118SOL     OW38986   2.830   4.422   7.825  0.4057  0.3398 -0.1056
 9118SOL    HW138987   2.871   4.477   7.892 -0.5312 -1.0716  1.6203
 9118SOL    HW238988   2.744   4.456   7.849  0.5853 -0.3510  1.5361
 9119SOL     OW38989   3.024   1.363   7.675  0.5129 -0.1398 -0.0946
 9119SOL    HW138990   2.993   1.369   7.765  0.4040  1.1273 -0.2111
 9119SOL    HW238991   2.950   1.405   7.629  0.3231  0.2392  0.5615
 9120SOL     OW38992   2.512   2.354  15.172  0.3323  0.2821 -0.0871
 9120SOL    HW138993   2.502   2.438  15.217  0.2870 -1.0857  2.4788
 9120SOL    HW238994   2.434   2.341  15.119 -0.4702 -1.3947  1.5042
 9121SOL     OW38995   1.292   4.673   1.752  0.0176  0.3890  0.6590
 9121SOL    HW138996   1.287   4.611   1.679 -0.2078 -1.5230  2.2942
 9121SOL    HW238997   1.338   0.011   1.712 -2.2547 -0.1690 -2.9434
 9122SOL     OW38998   0.725   4.359   8.925  0.0979 -0.4924  0.1173
 9122SOL    HW138999   0.653   4.297   8.940 -0.6980  0.2727 -0.5007
 9122SOL    HW239000   0.758   4.365   9.014  2.3218  1.9620 -0.8793
 9123SOL     OW39001   3.176   3.705   7.896 -0.5500 -0.1043  0.0146
 9123SOL    HW139002   3.182   3.611   7.909 -0.2603  0.0238  0.8499
 9123SOL    HW239003   3.132   3.727   7.978  0.7209  0.5367  0.5296
 9124SOL     OW39004   1.178   3.316  10.693  0.5964 -0.2475 -0.3645
 9124SOL    HW139005   1.184   3.411  10.688 -1.2010 -0.3092 -3.6869
 9124SOL    HW239006   1.114   3.307  10.622 -1.4851 -1.6942  1.6618
 9125SOL     OW39007   2.299   1.497   2.800 -0.3163 -0.8553 -0.1600
 9125SOL    HW139008   2.308   1.591   2.818  0.0346 -1.2229  1.6128
 9125SOL    HW239009   2.358   1.437   2.845 -0.8042  0.2413  1.9570
 9126SOL     OW39010   0.374   1.578   2.840 -0.0207  0.1590  0.0219
 9126SOL    HW139011   0.458   1.535   2.858  0.1213  0.1500 -0.6459
 9126SOL    HW239012   0.324   1.516   2.892 -1.4814  0.7410 -0.6916
 9127SOL     OW39013   1.723   0.778   8.184  0.3418 -0.1133 -0.0538
 9127SOL    HW139014   1.753   0.856   8.230 -1.6465  0.7028 -0.1256
 9127SOL    HW239015   1.796   0.716   8.189  0.3661 -0.1958 -1.3556
 9128SOL     OW39016   3.092   2.969   6.963  0.0192  0.0969 -0.5084
 9128SOL    HW139017   3.177   3.007   6.981 -1.3392  1.9380  1.8951
 9128SOL    HW239018   3.092   2.879   6.995 -1.3348  0.7299  1.2490
 9129SOL     OW39019   1.910   0.215   5.214  0.5634 -0.4763  0.5680
 9129SOL    HW139020   1.995   0.192   5.178  0.4073  0.3332 -0.3378
 9129SOL    HW239021   1.928   0.266   5.294 -1.9467  0.6824  0.3911
 9130SOL     OW39022   3.991   4.015   3.563 -0.5530  0.4083  0.0345
 9130SOL    HW139023   3.938   4.075   3.616  1.5152  1.0598  1.3800
 9130SOL    HW239024   3.975   4.043   3.472 -0.8372 -0.0436 -0.0539
 9131SOL     OW39025   2.230   3.116   1.048 -0.7351  0.1588  0.4394
 9131SOL    HW139026   2.271   3.081   0.969  0.6532 -1.0692  1.6966
 9131SOL    HW239027   2.138   3.130   1.027 -0.8886 -0.4604  0.6749
 9132SOL     OW39028   4.664   0.322   6.365 -0.0015 -0.1719 -0.6256
 9132SOL    HW139029   4.719   0.376   6.422  0.4413  0.2067 -1.4110
 9132SOL    HW239030   4.584   0.374   6.369  0.3455  0.3343 -0.3609
 9133SOL     OW39031   0.696   1.437  17.469  0.2351  0.2276 -0.0357
 9133SOL    HW139032   0.667   1.348  17.449  1.7403 -0.0414 -1.0007
 9133SOL    HW239033   0.673   1.451  17.561 -0.3879  2.5721 -0.5369
 9134SOL     OW39034   3.954   1.280   4.280  0.2903  0.5926 -0.6398
 9134SOL    HW139035   3.989   1.340   4.214 -1.9781  1.6335 -0.8774
 9134SOL    HW239036   3.879   1.244   4.233 -1.2847  2.9205  0.1198
 9135SOL     OW39037   1.855   0.608   4.269  0.1887  0.3005 -0.1149
 9135SOL    HW139038   1.858   0.688   4.322  1.8444  0.1181  0.0497
 9135SOL    HW239039   1.947   0.596   4.246 -0.5885 -1.9880 -1.9908
 9136SOL     OW39040   3.497   3.699   2.102 -0.4672 -0.0232 -1.0001
 9136SOL    HW139041   3.546   3.619   2.082 -1.3143 -0.9254  0.5147
 9136SOL    HW239042   3.565   3.765   2.087  0.5431 -0.9485 -0.4796
 9137SOL     OW39043   3.086   2.831   8.655 -0.6877  0.5897 -0.5368
 9137SOL    HW139044   3.176   2.826   8.625 -0.5895 -1.4476  0.1466
 9137SOL    HW239045   3.111   2.864   8.741 -1.0594 -2.9058  0.8806
 9138SOL     OW39046   2.400   2.345  13.897 -0.1474 -0.2073  0.2531
 9138SOL    HW139047   2.314   2.326  13.859  0.3972 -0.7987 -0.7051
 9138SOL    HW239048   2.433   2.402  13.828  1.1813 -0.3567  0.7657
 9139SOL     OW39049   4.275   0.721   7.399  0.5641 -0.4060  0.7502
 9139SOL    HW139050   4.353   0.692   7.446  2.1723  1.0424 -1.0399
 9139SOL    HW239051   4.232   0.771   7.468  0.5488  0.2878  0.2429
 9140SOL     OW39052   1.944   4.537   4.751  0.2676  0.4492 -0.5924
 9140SOL    HW139053   1.989   4.585   4.681  1.2987  0.6339  0.1967
 9140SOL    HW239054   1.936   4.609   4.814  0.5726 -0.0084 -0.0397
 9141SOL     OW39055   2.858   3.702   6.038 -0.0638 -0.3971 -0.3403
 9141SOL    HW139056   2.933   3.731   6.090 -1.2338  1.5095  0.3233
 9141SOL    HW239057   2.798   3.708   6.112 -1.2878  0.8982 -1.4211
 9142SOL     OW39058   0.643   1.266  15.043  0.3345 -0.2612 -0.4026
 9142SOL    HW139059   0.579   1.289  15.111 -0.3703 -2.3238 -0.3567
 9142SOL    HW239060   0.594   1.210  14.982  0.2112 -1.6000  0.9093
 9143SOL     OW39061   3.779   1.470  11.187  0.2063  0.6867  0.1765
 9143SOL    HW139062   3.745   1.483  11.276  0.6491  2.3971  0.0974
 9143SOL    HW239063   3.793   1.375  11.181 -0.9992  0.3445  2.7355
 9144SOL     OW39064   1.600   3.069  10.801  0.4663 -0.2958  0.7869
 9144SOL    HW139065   1.544   3.146  10.795  0.4630 -0.2516  1.3963
 9144SOL    HW239066   1.663   3.097  10.868  0.4906  2.1678 -0.2802
 9145SOL     OW39067   1.863   1.336   0.961  0.0382  0.3029 -0.1150
 9145SOL    HW139068   1.875   1.313   1.054  3.0852 -1.1567 -0.8687
 9145SOL    HW239069   1.816   1.419   0.958 -1.4838 -0.5728 -0.5270
 9146SOL     OW39070   4.309   4.034   5.253 -0.0494 -0.9192  0.1785
 9146SOL    HW139071   4.218   4.002   5.255 -0.4483  0.1633 -0.4030
 9146SOL    HW239072   4.288   4.128   5.248  2.6046 -0.1756  3.7235
 9147SOL     OW39073   4.617   0.362   5.015 -0.1972 -0.0745  0.4140
 9147SOL    HW139074   4.689   0.319   4.968  0.0860 -1.4926  2.1593
 9147SOL    HW239075   4.664   0.411   5.082  0.8536 -0.7802  0.1958
 9148SOL     OW39076   1.346   1.255   6.191 -0.2325 -0.1027  0.1373
 9148SOL    HW139077   1.392   1.303   6.260 -2.2412  0.7754  0.8685
 9148SOL    HW239078   1.375   1.164   6.203  0.2023  0.3621  2.7674
 9149SOL     OW39079   1.584   4.657  17.561  0.6199 -0.8407 -0.3735
 9149SOL    HW139080   1.647   4.729  17.553  0.2820 -0.4800  0.2465
 9149SOL    HW239081   1.637   4.590  17.518  1.3142 -0.7735  0.3577
 9150SOL     OW39082   3.151   2.084   3.447 -0.2609  0.0825 -0.1894
 9150SOL    HW139083   3.169   2.032   3.525  1.9612 -0.0062 -0.7541
 9150SOL    HW239084   3.057   2.100   3.457 -0.3255  0.4852 -1.4524
 9151SOL     OW39085   1.001   3.841   7.812 -0.4171 -0.0356 -0.5046
 9151SOL    HW139086   0.918   3.844   7.858 -1.5928 -1.9765 -2.4865
 9151SOL    HW239087   1.059   3.889   7.872  0.1025 -0.1445 -0.9146
 9152SOL     OW39088   2.089   0.946   7.155  0.4620 -1.0867 -0.0168
 9152SOL    HW139089   2.097   1.041   7.142  1.1428 -1.1072  0.2667
 9152SOL    HW239090   2.097   0.945   7.250  0.3600  1.3717  0.0128
 9153SOL     OW39091   0.524   1.103   3.574 -0.3609  0.4821 -0.0038
 9153SOL    HW139092   0.619   1.100   3.569 -0.3902  0.9073 -0.7501
 9153SOL    HW239093   0.495   1.064   3.492 -1.2965  0.6164  0.2620
 9154SOL     OW39094   0.259   0.989   1.664  0.3544  0.0886  0.0952
 9154SOL    HW139095   0.344   0.966   1.703  0.8185 -1.0535 -1.6106
 9154SOL    HW239096   0.291   1.019   1.579 -0.8340  0.0156 -0.3703
 9155SOL     OW39097   4.471   3.653   6.673  0.1978  0.2653 -0.3144
 9155SOL    HW139098   4.381   3.670   6.645 -0.0707 -0.0908  0.3410
 9155SOL    HW239099   4.510   3.740   6.680  0.8416 -0.0506  0.0296
 9156SOL     OW39100   2.117   0.236   7.664 -0.2295 -0.1962  0.6661
 9156SOL    HW139101   2.071   0.310   7.704 -1.0950  0.0764 -0.8050
 9156SOL    HW239102   2.092   0.161   7.717  2.3450 -0.3348  1.7209
 9157SOL     OW39103   2.518   1.014  14.058 -0.5396 -0.2365 -0.6167
 9157SOL    HW139104   2.456   0.974  14.119 -0.2379 -0.1133 -0.2298
 9157SOL    HW239105   2.489   0.971  13.978  0.6821 -0.9003 -0.6940
 9158SOL     OW39106   3.679   0.759   8.092  0.1777 -0.2428  0.7492
 9158SOL    HW139107   3.621   0.763   8.168  1.1084 -0.1535  1.4596
 9158SOL    HW239108   3.694   0.850   8.067 -1.4857  0.1922  1.3584
 9159SOL     OW39109   3.897   3.556   5.041  0.0027 -0.4073  0.2555
 9159SOL    HW139110   3.802   3.545   5.041 -0.1433  0.7812 -2.6391
 9159SOL    HW239111   3.891   3.614   4.964 -4.2817 -1.4098 -0.2008
 9160SOL     OW39112   1.699   1.335   4.725 -0.0520 -0.2094  0.2479
 9160SOL    HW139113   1.606   1.348   4.706 -0.4081 -3.4540 -0.1954
 9160SOL    HW239114   1.691   1.329   4.820  2.1380 -3.0146  0.2606
 9161SOL     OW39115   1.115   3.787   7.212 -0.1172  0.0960  0.1256
 9161SOL    HW139116   1.177   3.783   7.139 -2.3015  1.0155 -1.7666
 9161SOL    HW239117   1.129   3.703   7.256 -1.5322 -0.9452 -1.4014
 9162SOL     OW39118   3.351   2.764   4.587  0.3476 -0.2411 -0.2032
 9162SOL    HW139119   3.300   2.743   4.665  1.5241 -0.1697  0.5860
 9162SOL    HW239120   3.386   2.850   4.611 -1.9752  0.4276  0.7042
 9163SOL     OW39121   3.493   0.467   7.608  0.2554  0.5546  0.2413
 9163SOL    HW139122   3.562   0.435   7.551 -0.5382  0.5448 -0.7135
 9163SOL    HW239123   3.424   0.501   7.551 -1.1891 -0.7492  1.1799
 9164SOL     OW39124   1.949   4.203   1.928 -0.7050  0.2922  0.3217
 9164SOL    HW139125   1.983   4.284   1.891  0.9674 -1.7741 -2.6821
 9164SOL    HW239126   1.895   4.229   2.002 -0.6485  3.3549 -0.7286
 9165SOL     OW39127   4.229   2.344   3.289 -0.0148  0.2044  0.7506
 9165SOL    HW139128   4.193   2.299   3.213  2.8640  0.6269 -0.9009
 9165SOL    HW239129   4.155   2.395   3.322  0.2688  2.1700 -1.5739
 9166SOL     OW39130   4.657   4.663   5.692  0.3828 -0.0020 -0.2446
 9166SOL    HW139131   4.706   4.721   5.751  0.1585 -0.9788  0.8954
 9166SOL    HW239132   4.578   4.656   5.746  1.0218  2.6606  1.0459
 9167SOL     OW39133   2.843   2.712   2.660 -0.1072 -0.3772 -0.0704
 9167SOL    HW139134   2.928   2.755   2.668  0.1319 -0.8248 -0.2037
 9167SOL    HW239135   2.876   2.629   2.696 -0.8404 -0.6197  0.0468
 9168SOL     OW39136   1.661   1.134   0.928 -0.5612  0.1695  0.2573
 9168SOL    HW139137   1.626   1.118   1.016 -0.6275  0.6535  0.3194
 9168SOL    HW239138   1.729   1.201   0.940 -0.2615 -0.4010  1.8697
 9169SOL     OW39139   3.605   0.828   4.410 -0.5131  0.2473 -0.0172
 9169SOL    HW139140   3.559   0.901   4.368  0.0807  0.7193  0.1409
 9169SOL    HW239141   3.632   0.874   4.490  0.8479  0.4627 -0.6003
 9170SOL     OW39142   1.863   4.437   5.412 -0.0780  0.1491 -0.8101
 9170SOL    HW139143   1.783   4.488   5.412  0.4011  0.8560  1.8383
 9170SOL    HW239144   1.898   4.473   5.330  0.6249 -0.4536 -0.7740
 9171SOL     OW39145   0.714   4.229   2.470 -0.4953 -1.0106 -0.1667
 9171SOL    HW139146   0.671   4.253   2.388  3.8479 -1.5288 -2.5991
 9171SOL    HW239147   0.732   4.138   2.444  0.2890 -0.0476 -2.8918
 9172SOL     OW39148   1.095   1.335   2.058 -0.3093  0.3405 -0.2321
 9172SOL    HW139149   1.023   1.367   2.113 -0.6053  0.3125 -0.6068
 9172SOL    HW239150   1.067   1.388   1.984  0.2410  1.3315  0.2551
 9173SOL     OW39151   0.319   0.948   4.050 -0.7333  0.5666 -0.4163
 9173SOL    HW139152   0.309   0.907   3.964  1.8924 -0.3947 -0.2801
 9173SOL    HW239153   0.234   0.982   4.077 -1.2313 -0.9231 -0.1264
 9174SOL     OW39154   1.715   1.639   3.812  0.3075  0.1373 -0.0410
 9174SOL    HW139155   1.765   1.613   3.735  0.9052  0.0875  0.3671
 9174SOL    HW239156   1.627   1.642   3.774  0.0750 -0.6484  0.4273
 9175SOL     OW39157   3.995   1.751  16.114  0.1639 -0.0512 -0.2898
 9175SOL    HW139158   3.929   1.687  16.141  1.0825 -0.8556  0.0200
 9175SOL    HW239159   3.978   1.791  16.028 -1.4066 -4.0381 -1.8507
 9176SOL     OW39160   1.714   0.836   7.868  0.5149 -0.7413  0.0739
 9176SOL    HW139161   1.691   0.780   7.943 -1.7294 -1.7732 -1.3784
 9176SOL    HW239162   1.705   0.926   7.899  0.1053 -0.3002 -1.3598
 9177SOL     OW39163   0.335   0.748   8.192  0.3023 -0.1243 -0.0014
 9177SOL    HW139164   0.263   0.715   8.139 -0.6634  0.2885  1.0540
 9177SOL    HW239165   0.340   0.829   8.141 -1.3724 -0.6886 -1.0589
 9178SOL     OW39166   1.911   4.100  12.452 -0.0216 -0.0507 -0.1569
 9178SOL    HW139167   1.922   4.174  12.392  3.6709 -0.6929 -0.2710
 9178SOL    HW239168   1.911   4.142  12.538 -1.5145  1.8293 -1.0636
 9179SOL     OW39169   0.609   1.039   5.222 -0.0472  0.1918 -0.0722
 9179SOL    HW139170   0.514   1.047   5.223  0.0877  1.5638  1.1813
 9179SOL    HW239171   0.630   1.073   5.135 -0.2439  2.0534  0.6214
 9180SOL     OW39172   1.219   0.875   4.245  0.4608  0.1972  0.4451
 9180SOL    HW139173   1.144   0.834   4.202  1.0558  0.2439 -0.6372
 9180SOL    HW239174   1.200   0.969   4.248  0.6770  0.3199 -2.1662
 9181SOL     OW39175   1.002   3.758   1.172 -0.1521  0.5044  0.0194
 9181SOL    HW139176   1.024   3.789   1.084 -0.4697 -0.6877 -0.4935
 9181SOL    HW239177   1.008   3.835   1.228  1.3574  1.3928 -1.3624
 9182SOL     OW39178   4.630   1.565   8.910  0.2202 -0.8730 -0.1073
 9182SOL    HW139179   4.577   1.584   8.988 -0.1560 -2.1531 -0.0509
 9182SOL    HW239180   4.710   1.529   8.948  0.5007  0.3538  0.4594
 9183SOL     OW39181   2.189   3.386   2.575  0.0514 -0.3888 -0.2341
 9183SOL    HW139182   2.166   3.303   2.534  1.7632 -0.1552 -1.6488
 9183SOL    HW239183   2.205   3.364   2.667  0.6642  3.1128  0.4964
 9184SOL     OW39184   1.353   1.045   9.401  0.0845 -0.5942  0.1383
 9184SOL    HW139185   1.293   1.092   9.343  0.0328  1.6561  2.0313
 9184SOL    HW239186   1.428   1.104   9.394  0.0696 -0.2521  2.9493
 9185SOL     OW39187   3.733   0.290  14.968 -0.4030  0.6200  0.2531
 9185SOL    HW139188   3.806   0.271  15.027 -0.0167 -0.7782 -0.6730
 9185SOL    HW239189   3.776   0.324  14.890  1.4647 -1.6399  0.2948
 9186SOL     OW39190   4.030   1.524   6.376 -0.4924 -0.2765 -0.0897
 9186SOL    HW139191   4.097   1.514   6.444 -0.1946  0.3982 -0.2730
 9186SOL    HW239192   4.089   1.496   6.306 -0.5965 -1.1701  0.1818
 9187SOL     OW39193   2.711   4.671   0.159 -0.6608 -0.1093  0.3667
 9187SOL    HW139194   2.625   4.681   0.200 -0.8680 -0.4676  0.0111
 9187SOL    HW239195   2.757   0.011   0.197  0.0516 -0.0425 -0.6254
 9188SOL     OW39196   0.531   3.893   1.866 -0.1301  0.1205  0.4061
 9188SOL    HW139197   0.547   3.818   1.922  1.4065  2.1309  2.6355
 9188SOL    HW239198   0.588   3.958   1.907  1.2042 -0.3087 -0.7605
 9189SOL     OW39199   2.894   0.180   8.362 -0.1115  0.3578  0.2101
 9189SOL    HW139200   2.799   0.170   8.356  0.0981 -0.5059 -1.6389
 9189SOL    HW239201   2.929   0.109   8.308 -3.0425 -0.8721 -0.0921
 9190SOL     OW39202   2.044   2.558   8.040  0.1989  0.2019 -0.2912
 9190SOL    HW139203   2.116   2.530   7.982  0.9147  1.0274  0.1990
 9190SOL    HW239204   2.085   2.569   8.126 -0.4217  1.1433 -0.1215
 9191SOL     OW39205   0.816   4.662   2.336  0.0896  0.2542  0.1740
 9191SOL    HW139206   0.826   4.582   2.285  3.1280  0.1447  0.9116
 9191SOL    HW239207   0.769   4.620   2.408 -0.9587  1.4459  0.1826
 9192SOL     OW39208   2.194   1.868   2.159  0.5939 -0.2122  0.6059
 9192SOL    HW139209   2.276   1.823   2.141 -0.2816 -1.0189 -1.3516
 9192SOL    HW239210   2.131   1.827   2.099 -0.5968  0.8670  1.1223
 9193SOL     OW39211   0.975   3.725   6.339 -0.1466  0.0029  0.0695
 9193SOL    HW139212   0.922   3.676   6.276  1.1358 -0.4337 -0.6605
 9193SOL    HW239213   0.925   3.710   6.420 -1.6951  3.2650 -0.2770
 9194SOL     OW39214   1.953   2.572  12.217  0.4745  0.2151  0.5380
 9194SOL    HW139215   1.869   2.614  12.201 -1.8540 -4.0926  1.5763
 9194SOL    HW239216   1.941   2.559  12.311 -1.5058 -1.8167  0.0004
 9195SOL     OW39217   4.049   1.975   4.915 -0.1864 -0.9983 -0.3665
 9195SOL    HW139218   4.071   2.049   4.859  0.5864  0.3494  1.6893
 9195SOL    HW239219   3.992   1.919   4.863  0.2189 -1.1169 -0.6841
 9196SOL     OW39220   1.990   2.934   7.314  0.4718  0.0560  0.0662
 9196SOL    HW139221   1.898   2.960   7.306  0.4961  1.0846  3.1554
 9196SOL    HW239222   2.022   3.023   7.324 -0.1537  0.4148 -1.1782
 9197SOL     OW39223   0.196   3.596   3.430  0.1422  0.6861  0.0501
 9197SOL    HW139224   0.101   3.592   3.419  0.2614 -2.2159  0.2258
 9197SOL    HW239225   0.200   3.580   3.524  0.6322 -0.5070 -0.1788
 9198SOL     OW39226   0.681   3.802   2.646  0.0761 -0.2681 -0.2902
 9198SOL    HW139227   0.619   3.866   2.610 -0.2349  0.3375  1.3207
 9198SOL    HW239228   0.742   3.797   2.573  0.7771 -0.2783  0.2981
 9199SOL     OW39229   2.647   2.149   5.858  0.4021  0.3121 -0.3635
 9199SOL    HW139230   2.731   2.107   5.872  0.7133  0.5712 -1.4157
 9199SOL    HW239231   2.592   2.086   5.905 -0.0335 -0.3519 -1.7577
 9200SOL     OW39232   0.063   2.045  16.377  0.0764  0.0711 -0.6326
 9200SOL    HW139233   0.006   2.052  16.454 -0.4848  1.6493 -1.1989
 9200SOL    HW239234   4.733   2.077  16.315 -0.5178  0.6550  0.2970
 9201SOL     OW39235   3.445   2.349   3.097 -0.3408 -0.4367  0.3098
 9201SOL    HW139236   3.443   2.300   3.015 -0.7148 -3.0675  1.8729
 9201SOL    HW239237   3.395   2.290   3.155  0.0594 -1.9763 -0.9120
 9202SOL     OW39238   3.661   3.213   2.588 -0.1489 -0.1863 -0.4264
 9202SOL    HW139239   3.741   3.202   2.641  0.7196 -1.0630 -1.9265
 9202SOL    HW239240   3.691   3.159   2.515  0.7439  1.1815 -1.0818
 9203SOL     OW39241   1.067   0.511   6.375  0.2484 -0.5915 -0.0587
 9203SOL    HW139242   1.034   0.558   6.298  0.5373  1.0633  0.8309
 9203SOL    HW239243   1.080   0.423   6.338  1.2868 -0.0185 -1.0811
 9204SOL     OW39244   2.752   1.080   9.324  0.0417 -0.0671  0.0186
 9204SOL    HW139245   2.786   1.154   9.374  1.4690  0.1365 -1.2506
 9204SOL    HW239246   2.785   1.014   9.384  0.1361 -3.5589 -3.8668
 9205SOL     OW39247   4.272   1.458   0.867  0.3386 -0.0576  0.1015
 9205SOL    HW139248   4.221   1.539   0.869 -0.1903 -0.3745 -0.4646
 9205SOL    HW239249   4.223   1.409   0.934  0.5367  2.0270  1.7950
 9206SOL     OW39250   3.403   0.375   6.268  0.6318  0.2038 -0.0637
 9206SOL    HW139251   3.349   0.426   6.206 -1.5625 -3.5321 -1.2346
 9206SOL    HW239252   3.333   0.329   6.315  0.5053 -1.0842 -1.5167
 9207SOL     OW39253   4.731   1.020   7.705  0.5719  0.0047  0.2540
 9207SOL    HW139254   4.679   1.000   7.628  0.9652  0.3763 -0.1107
 9207SOL    HW239255   0.044   1.098   7.677  0.0911 -0.0361 -0.6894
 9208SOL     OW39256   4.280   4.574   6.067 -0.5553 -0.0877  0.0076
 9208SOL    HW139257   4.298   4.665   6.043 -1.0555  0.8815  3.2989
 9208SOL    HW239258   4.303   4.582   6.159 -1.0637  2.7982 -0.1027
 9209SOL     OW39259   2.474   1.279  10.365 -0.5095  0.2023 -0.3607
 9209SOL    HW139260   2.490   1.372  10.350  1.7628 -0.0035  0.8362
 9209SOL    HW239261   2.555   1.263  10.414 -1.0854 -1.9337 -0.0902
 9210SOL     OW39262   3.949   4.571   7.620 -0.1159  0.7883 -0.7166
 9210SOL    HW139263   3.917   4.610   7.702 -0.7178  1.4707 -1.2839
 9210SOL    HW239264   4.028   4.625   7.612 -0.5147  1.3114 -1.1148
 9211SOL     OW39265   2.814   4.138   5.985  0.2646  0.5721 -0.3082
 9211SOL    HW139266   2.882   4.153   6.051  1.3460 -0.0224 -1.2930
 9211SOL    HW239267   2.740   4.120   6.043  2.2568 -1.5036  1.5912
 9212SOL     OW39268   3.668   3.184   3.923  0.1241  0.1675 -0.2095
 9212SOL    HW139269   3.722   3.263   3.913  1.8528 -0.8092  1.3831
 9212SOL    HW239270   3.583   3.217   3.895  0.7795  1.2884 -0.8744
 9213SOL     OW39271   3.332   4.274   4.408 -0.2757 -0.1026 -0.0390
 9213SOL    HW139272   3.401   4.227   4.363 -2.3725  0.7683 -4.1335
 9213SOL    HW239273   3.269   4.203   4.420 -1.0722  0.6322  0.2167
 9214SOL     OW39274   2.627   4.123   7.243 -0.0648  0.3357  0.1364
 9214SOL    HW139275   2.595   4.158   7.160 -0.9183  0.2161  0.4194
 9214SOL    HW239276   2.554   4.067   7.269 -0.4844  0.6966 -0.2634
 9215SOL     OW39277   3.548   0.484  14.308 -0.3465  0.4650  0.2717
 9215SOL    HW139278   3.642   0.494  14.325 -0.0282 -1.0794 -0.6197
 9215SOL    HW239279   3.529   0.399  14.347  0.1799  0.4892  0.5782
 9216SOL     OW39280   2.617   0.443  10.698 -0.1381  0.2203 -0.1567
 9216SOL    HW139281   2.574   0.403  10.774  1.7451  1.0329  1.3411
 9216SOL    HW239282   2.678   0.507  10.734  0.1087 -0.9569  1.5055
 9217SOL     OW39283   4.124   1.556  14.606 -0.0080 -0.2039 -0.0053
 9217SOL    HW139284   4.214   1.534  14.582 -0.6371 -1.6022 -1.1053
 9217SOL    HW239285   4.121   1.651  14.595  0.9627 -0.1300  0.3234
 9218SOL     OW39286   2.204   4.690   9.791 -0.2278 -0.3077 -0.5028
 9218SOL    HW139287   2.295   4.710   9.812 -0.5875  0.2756  0.5102
 9218SOL    HW239288   2.154   4.710   9.870 -3.8537 -0.7410 -2.7115
 9219SOL     OW39289   4.096   0.478  14.103 -0.5112 -0.3056  0.0768
 9219SOL    HW139290   4.096   0.485  14.199 -0.3757 -0.1842  0.0675
 9219SOL    HW239291   4.035   0.547  14.079  0.5413  0.5866 -0.0324
 9220SOL     OW39292   2.011   0.314   6.793  0.0571  0.0488 -0.5380
 9220SOL    HW139293   2.012   0.225   6.760 -1.8020 -1.3037  2.9920
 9220SOL    HW239294   1.984   0.297   6.883 -2.2926 -2.2608 -1.6923
 9221SOL     OW39295   4.278   1.962  15.373 -0.0887  0.2074  0.5166
 9221SOL    HW139296   4.262   2.056  15.376  3.1550  0.7568  1.4323
 9221SOL    HW239297   4.340   1.954  15.445  2.0684 -0.8357 -1.4436
 9222SOL     OW39298   0.302   4.397   8.875 -0.2756 -0.3473 -0.1396
 9222SOL    HW139299   0.318   4.420   8.783  1.7044  0.8540  0.5300
 9222SOL    HW239300   0.321   4.303   8.878 -1.7859 -0.6751 -0.5064
 9223SOL     OW39301   2.103   2.480   5.657 -0.1223 -0.2137  0.5300
 9223SOL    HW139302   2.103   2.523   5.572 -0.2623 -1.1752  0.0481
 9223SOL    HW239303   2.197   2.462   5.666 -0.6581 -2.1341  2.2017
 9224SOL     OW39304   4.164   0.568   2.693 -0.7175  0.7261  0.5105
 9224SOL    HW139305   4.136   0.505   2.627 -0.0970 -0.4263  1.3537
 9224SOL    HW239306   4.253   0.593   2.669  0.2467 -0.5508  2.7565
 9225SOL     OW39307   3.348   3.527  15.544  0.0822  0.2869 -0.3922
 9225SOL    HW139308   3.323   3.437  15.565 -1.4530  0.4104 -1.6276
 9225SOL    HW239309   3.278   3.570  15.593  0.1664  2.4824 -2.1929
 9226SOL     OW39310   4.524   3.843   5.400  0.4943 -0.1885  0.5093
 9226SOL    HW139311   4.504   3.792   5.322  0.8141 -1.7389  1.4345
 9226SOL    HW239312   4.473   3.923   5.387  0.8582  0.2957  2.0730
 9227SOL     OW39313   2.395   3.130   2.419 -0.1471  0.1242 -0.1390
 9227SOL    HW139314   2.387   3.195   2.350 -0.8514 -0.2085 -0.3724
 9227SOL    HW239315   2.456   3.183   2.471  1.2095  0.5571 -2.1963
 9228SOL     OW39316   2.216   2.103  16.181 -0.6491  0.3867  0.2094
 9228SOL    HW139317   2.257   2.017  16.191  3.2423  2.2371 -0.1979
 9228SOL    HW239318   2.131   2.085  16.223 -0.1653  0.1499  1.0877
 9229SOL     OW39319   1.647   0.587   3.059 -0.3979  0.4137 -0.5310
 9229SOL    HW139320   1.718   0.627   3.110  1.3930 -0.1335 -2.5718
 9229SOL    HW239321   1.612   0.521   3.118 -1.7195  0.6909 -1.0151
 9230SOL     OW39322   1.632   0.138   6.700  0.7747 -0.3701  0.0972
 9230SOL    HW139323   1.592   0.116   6.616  0.0150 -0.0012  0.3674
 9230SOL    HW239324   1.562   0.158   6.761  1.2653  0.2065  0.4740
 9231SOL     OW39325   3.285   0.078   8.235  1.0202  0.2676 -0.2740
 9231SOL    HW139326   3.285   0.125   8.318 -1.4607 -0.4544  0.1358
 9231SOL    HW239327   3.336   0.135   8.177  0.2738  1.0273 -0.1851
 9232SOL     OW39328   1.807   1.201   3.760  0.3116 -0.0874 -0.5584
 9232SOL    HW139329   1.741   1.221   3.694  0.1559  2.3113  0.3212
 9232SOL    HW239330   1.773   1.239   3.841  0.4252 -1.6327  0.2157
 9233SOL     OW39331   2.366   4.135   4.019  0.5531 -0.1860 -0.5252
 9233SOL    HW139332   2.354   4.229   4.002  0.7265 -0.1232 -0.2913
 9233SOL    HW239333   2.458   4.139   4.043  0.5809  2.3477 -1.0032
 9234SOL     OW39334   3.919   4.059   9.249  0.7778 -0.2014  0.5318
 9234SOL    HW139335   3.842   4.088   9.298 -0.7721  0.2571 -2.1980
 9234SOL    HW239336   3.889   4.029   9.163 -0.3499  0.0081  0.8523
 9235SOL     OW39337   2.158   0.359   0.601  0.2450  0.3200 -0.0953
 9235SOL    HW139338   2.175   0.427   0.667  0.2022  0.4606 -0.2291
 9235SOL    HW239339   2.246   0.346   0.568  0.1289 -1.6203  0.3733
 9236SOL     OW39340   1.635   0.362   0.978 -0.3326  0.1405  0.4874
 9236SOL    HW139341   1.702   0.368   1.046  0.3795  2.8446 -0.4192
 9236SOL    HW239342   1.582   0.440   0.993 -0.3683  0.5438 -1.7146
 9237SOL     OW39343   2.516   3.868   6.478  0.0998 -0.0555 -0.2591
 9237SOL    HW139344   2.434   3.908   6.451  0.1803 -0.3888 -1.0196
 9237SOL    HW239345   2.533   3.818   6.398  0.1363 -1.2840  0.5025
 9238SOL     OW39346   4.315   3.617   2.958  0.1446  0.1445 -0.0191
 9238SOL    HW139347   4.365   3.691   2.922  0.4723  1.4419  3.0605
 9238SOL    HW239348   4.245   3.609   2.894 -0.4989 -0.9957  0.8374
 9239SOL     OW39349   2.176   2.536   9.892  0.1088 -0.7882 -0.1624
 9239SOL    HW139350   2.126   2.515   9.971  1.3429 -2.9941  0.0356
 9239SOL    HW239351   2.132   2.477   9.831 -1.3590  1.6659 -1.4686
 9240SOL     OW39352   4.499   1.040   5.646  0.0745  0.1976 -0.2780
 9240SOL    HW139353   4.563   1.008   5.710 -2.4401 -3.3361  0.4803
 9240SOL    HW239354   4.440   0.967   5.663 -0.7072  0.7781 -0.5329
 9241SOL     OW39355   2.620   3.767  16.663  0.1365 -0.1626 -0.0407
 9241SOL    HW139356   2.540   3.751  16.613  1.4487 -2.2093 -1.4853
 9241SOL    HW239357   2.598   3.774  16.756  2.4968 -2.7891  0.7001
 9242SOL     OW39358   1.613   0.008   7.542  0.4347  0.9284 -0.2949
 9242SOL    HW139359   1.618   4.650   7.526 -0.3650  0.8769 -0.2623
 9242SOL    HW239360   1.623   0.008   7.637 -4.4398  2.5283  0.2273
 9243SOL     OW39361   2.465   0.093   5.793  0.1699 -0.3194 -0.5389
 9243SOL    HW139362   2.384   0.069   5.749  0.3626  0.0412 -1.0929
 9243SOL    HW239363   2.472   0.183   5.761 -0.9064 -0.0913 -0.1244
 9244SOL     OW39364   2.631   4.555   6.549  0.0102 -0.0106  0.3636
 9244SOL    HW139365   2.706   4.580   6.603  0.2189 -1.3696  0.7070
 9244SOL    HW239366   2.582   4.629   6.586  0.0484 -0.6112  1.6477
 9245SOL     OW39367   1.573   3.036   6.086  0.6417 -0.1401 -0.2242
 9245SOL    HW139368   1.593   2.982   6.163 -0.3728  0.1300  0.2199
 9245SOL    HW239369   1.583   2.980   6.009  0.3845 -1.8406  0.9648
 9246SOL     OW39370   3.665   3.057   9.554 -0.4015  0.5802 -0.0315
 9246SOL    HW139371   3.574   3.084   9.537  0.4260  4.6018  1.9186
 9246SOL    HW239372   3.656   2.975   9.601  0.4273  0.8178  0.5427
 9247SOL     OW39373   3.509   4.063   1.104  0.2134 -0.4699 -0.7083
 9247SOL    HW139374   3.469   3.985   1.143 -1.6798  1.2414  0.7785
 9247SOL    HW239375   3.540   4.023   1.023  2.2481 -0.2451 -0.0332
 9248SOL     OW39376   2.938   1.344   3.738 -0.3175  0.1192  0.3238
 9248SOL    HW139377   2.923   1.260   3.783  0.3533 -0.7025 -0.9769
 9248SOL    HW239378   2.878   1.342   3.663  0.1877 -0.4253 -0.0635
 9249SOL     OW39379   1.515   2.960   5.538 -0.4160  0.4019  0.3323
 9249SOL    HW139380   1.453   2.893   5.512 -0.8795  0.2462  1.8333
 9249SOL    HW239381   1.448   3.021   5.569 -1.9300  0.1599 -2.5171
 9250SOL     OW39382   3.777   1.248   4.651 -0.9355  0.0185 -0.3817
 9250SOL    HW139383   3.826   1.190   4.593  0.9543 -0.4226  1.6484
 9250SOL    HW239384   3.693   1.247   4.606 -0.5725  0.1310 -1.0579
 9251SOL     OW39385   3.436   1.949  15.296 -0.2194  0.5086  0.3308
 9251SOL    HW139386   3.423   1.881  15.362  1.4184  0.4540  0.5925
 9251SOL    HW239387   3.416   1.911  15.210 -0.9808  3.3614 -0.7656
 9252SOL     OW39388   3.313   1.338   1.855 -0.4127 -0.6639  0.5486
 9252SOL    HW139389   3.346   1.251   1.877  1.0012 -0.0231  0.9445
 9252SOL    HW239390   3.235   1.312   1.806 -0.5164  1.5583 -0.4326
 9253SOL     OW39391   1.841   4.410   6.663 -0.0896 -0.3898  0.1660
 9253SOL    HW139392   1.843   4.490   6.715  1.2813  0.2307 -0.8197
 9253SOL    HW239393   1.819   4.442   6.575  1.4505  0.2575  0.0135
 9254SOL     OW39394   4.044   4.576   4.128 -0.3670 -0.5104  0.0810
 9254SOL    HW139395   4.029   4.518   4.202 -1.5580 -0.8641 -0.4255
 9254SOL    HW239396   4.100   4.638   4.174 -1.4954  0.0745  0.6682
 9255SOL     OW39397   1.927   2.482   3.037 -0.4119  0.9947 -0.4678
 9255SOL    HW139398   1.955   2.400   2.996 -2.1836  1.7627 -3.2247
 9255SOL    HW239399   1.891   2.455   3.122 -0.2353  0.3183 -0.6063
 9256SOL     OW39400   0.683   3.141  17.019 -0.0978  0.1784 -0.5552
 9256SOL    HW139401   0.755   3.084  16.992  0.8938  1.3385 -0.3963
 9256SOL    HW239402   0.708   3.174  17.105  0.3925 -1.1721 -0.1864
 9257SOL     OW39403   3.099   2.881   6.448  0.2976  0.3926  0.9159
 9257SOL    HW139404   3.024   2.923   6.491 -1.4999 -0.8017 -1.0762
 9257SOL    HW239405   3.162   2.891   6.519  0.4311 -0.0862  0.8607
 9258SOL     OW39406   4.635   2.580  14.902  0.5713  0.3259 -0.2105
 9258SOL    HW139407   4.598   2.555  14.817 -1.5521  1.1130  0.4900
 9258SOL    HW239408   4.729   2.583  14.885  0.4662 -1.5793 -1.1494
 9259SOL     OW39409   4.174   3.335   1.118 -0.0551 -0.1982  0.1917
 9259SOL    HW139410   4.233   3.389   1.066  0.2248  0.1147  0.8353
 9259SOL    HW239411   4.230   3.281   1.173 -1.2105 -0.1446  1.4290
 9260SOL     OW39412   4.309   0.540   1.159  0.2803  0.0720  0.1455
 9260SOL    HW139413   4.230   0.501   1.196 -1.3110  3.1029 -0.1120
 9260SOL    HW239414   4.308   0.514   1.067 -2.3418 -1.1250  0.5300
 9261SOL     OW39415   4.420   0.519   4.492  0.3867 -0.0639  0.3736
 9261SOL    HW139416   4.444   0.498   4.582 -1.7202 -0.5272  0.8395
 9261SOL    HW239417   4.461   0.441   4.456  0.6360  0.0895  0.3260
 9262SOL     OW39418   1.423   3.341  16.322 -0.5257 -0.2974  0.0872
 9262SOL    HW139419   1.466   3.255  16.324  0.1798  0.0623  0.3560
 9262SOL    HW239420   1.416   3.360  16.415 -2.6193  1.7339 -0.5079
 9263SOL     OW39421   2.760   1.983  16.844  0.2067  0.7397 -0.1640
 9263SOL    HW139422   2.811   1.994  16.925  3.0003  2.5744 -2.1849
 9263SOL    HW239423   2.717   2.063  16.817 -0.7439  0.2646 -0.0649
 9264SOL     OW39424   3.080   2.115  13.556  0.3792 -0.1529 -0.0145
 9264SOL    HW139425   2.996   2.096  13.512  0.0755  1.1879 -0.0114
 9264SOL    HW239426   3.139   2.078  13.490  0.6850 -1.3966  0.9612
 9265SOL     OW39427   2.841   2.652   9.422  0.0680  0.3980  0.1173
 9265SOL    HW139428   2.801   2.739   9.429  1.1134  1.0359 -1.9361
 9265SOL    HW239429   2.899   2.655   9.498  1.3211  2.9470 -0.9147
 9266SOL     OW39430   2.040   3.906   2.855  0.1749  0.3084 -0.8480
 9266SOL    HW139431   2.068   3.997   2.855 -0.1801  0.4160 -0.3322
 9266SOL    HW239432   2.013   3.894   2.946  0.1451 -2.3751 -1.1877
 9267SOL     OW39433   3.154   0.358   8.741 -0.4791 -0.0886 -0.4412
 9267SOL    HW139434   3.105   0.436   8.765  1.9900  1.2029  0.4203
 9267SOL    HW239435   3.098   0.334   8.667  1.7028 -0.6913 -1.9117
 9268SOL     OW39436   4.636   1.838   7.352 -0.2389  0.3444  0.1710
 9268SOL    HW139437   4.698   1.910   7.343 -0.5591  0.5558 -0.3231
 9268SOL    HW239438   4.579   1.869   7.422 -0.4693 -0.0912  0.1785
 9269SOL     OW39439   2.443   2.446  15.869  0.3827 -0.3867  0.2743
 9269SOL    HW139440   2.389   2.448  15.948  0.1469 -0.8824  0.1265
 9269SOL    HW239441   2.427   2.535  15.838  2.8486  0.4645  1.5053
 9270SOL     OW39442   0.105   2.673  13.921 -0.1073 -0.1016 -0.8862
 9270SOL    HW139443   0.134   2.749  13.971 -2.4471  1.6516 -2.2274
 9270SOL    HW239444   0.010   2.680  13.911 -0.2389  0.0099  0.4777
 9271SOL     OW39445   4.356   0.817   5.781 -0.2606  0.1560  0.0272
 9271SOL    HW139446   4.272   0.776   5.763 -1.0559  2.3745 -1.3038
 9271SOL    HW239447   4.370   0.797   5.874  1.7550 -1.7738 -0.7014
 9272SOL     OW39448   3.175   3.178   7.253 -1.2850  0.0717 -0.0708
 9272SOL    HW139449   3.256   3.139   7.221 -0.6485  1.0515  0.3631
 9272SOL    HW239450   3.158   3.228   7.173  3.1304  0.6175 -0.6477
 9273SOL     OW39451   4.457   1.413   5.157 -0.5581 -0.1216  0.1685
 9273SOL    HW139452   4.374   1.414   5.204 -0.5281  1.1987  0.2125
 9273SOL    HW239453   4.450   1.477   5.086 -0.5301 -0.4619 -0.1392
 9274SOL     OW39454   3.053   0.605   8.760  0.4143 -0.2802 -0.6362
 9274SOL    HW139455   3.056   0.654   8.678  3.2579 -0.4612 -0.6391
 9274SOL    HW239456   3.054   0.679   8.820 -2.0088 -0.8815  0.1632
 9275SOL     OW39457   1.147   1.108  17.338 -0.5550  0.1736  0.0730
 9275SOL    HW139458   1.071   1.098  17.281 -1.2914 -0.8104  1.2399
 9275SOL    HW239459   1.156   1.020  17.373 -1.6986 -0.7083 -1.8632
 9276SOL     OW39460   0.477   1.711   5.397  0.1156 -0.4190 -0.1803
 9276SOL    HW139461   0.552   1.653   5.392  0.5619  0.2838 -1.5718
 9276SOL    HW239462   0.455   1.709   5.490 -1.3846  2.7530 -0.4501
 9277SOL     OW39463   3.326   4.512  11.311 -0.6653 -0.0118  0.4665
 9277SOL    HW139464   3.334   4.606  11.295 -0.8410  0.4937  3.3632
 9277SOL    HW239465   3.233   4.499  11.332 -0.1391 -0.4919  2.5475
 9278SOL     OW39466   3.468   4.417   7.501  0.1420  0.2004  0.6082
 9278SOL    HW139467   3.530   4.348   7.525  0.5249 -0.2102 -1.5744
 9278SOL    HW239468   3.503   4.494   7.546 -3.5896  1.5907  1.1203
 9279SOL     OW39469   4.438   4.298  12.714  0.4611 -0.0906  0.9536
 9279SOL    HW139470   4.409   4.221  12.764  1.2820 -2.0587 -1.5886
 9279SOL    HW239471   4.427   4.365  12.781 -3.1122 -0.3698  0.6462
 9280SOL     OW39472   2.527   4.055  13.282  0.2193 -0.5316 -0.1489
 9280SOL    HW139473   2.477   3.974  13.294 -0.1860 -0.5343 -1.8966
 9280SOL    HW239474   2.611   4.021  13.249 -0.5980 -1.6021 -1.1088
 9281SOL     OW39475   3.901   2.412   8.997 -0.2871  0.5258 -0.2835
 9281SOL    HW139476   3.807   2.396   9.004 -0.4293  2.7664  2.7170
 9281SOL    HW239477   3.894   2.502   8.965 -2.1317  0.1233 -1.0124
 9282SOL     OW39478   1.476   2.625   0.984  0.4188  0.5717 -0.6814
 9282SOL    HW139479   1.406   2.648   1.045  1.8205  1.0027  0.7694
 9282SOL    HW239480   1.549   2.686   0.992  1.6311 -0.9872  0.0630
 9283SOL     OW39481   0.273   0.250  11.436 -0.4759  0.1234 -0.2835
 9283SOL    HW139482   0.232   0.294  11.362 -1.9924 -0.7041  0.0793
 9283SOL    HW239483   0.360   0.281  11.411 -0.5930  0.7553  0.0899
 9284SOL     OW39484   0.645   3.865   3.787  0.2295  0.4376  0.3707
 9284SOL    HW139485   0.594   3.861   3.706  2.2453  3.2812 -1.0297
 9284SOL    HW239486   0.694   3.785   3.768  0.2470  0.7745 -0.9930
 9285SOL     OW39487   0.669   1.915  16.048 -0.6106 -0.2262 -0.0132
 9285SOL    HW139488   0.682   2.010  16.040  1.5337 -0.5266  0.1197
 9285SOL    HW239489   0.755   1.882  16.025 -0.1693  2.0712 -1.6140
 9286SOL     OW39490   0.034   1.145   6.077 -0.0012  0.1635  0.5094
 9286SOL    HW139491   4.683   1.110   6.055  0.4919 -0.4623 -0.4322
 9286SOL    HW239492   0.056   1.188   5.994  0.5148 -0.4517  0.3300
 9287SOL     OW39493   1.026   0.357   5.661  0.0112  0.4652  0.3896
 9287SOL    HW139494   1.082   0.368   5.738  1.0222  0.3847 -0.3362
 9287SOL    HW239495   1.085   0.378   5.589  0.0759  0.4996  0.4524
 9288SOL     OW39496   1.807   1.495   6.675 -0.3825 -0.6262  0.0235
 9288SOL    HW139497   1.861   1.514   6.599  0.0364 -1.7095  0.0550
 9288SOL    HW239498   1.857   1.543   6.742 -1.2328  0.1796  0.0735
 9289SOL     OW39499   0.899   2.684  17.096 -0.6905 -0.0843  0.6469
 9289SOL    HW139500   0.930   2.597  17.122  0.1583  0.1027  0.2579
 9289SOL    HW239501   0.978   2.737  17.110 -0.0000 -0.7839 -0.6395
 9290SOL     OW39502   4.399   4.655   5.396 -0.0240 -0.2736  0.3754
 9290SOL    HW139503   4.472   4.642   5.335  0.2906 -0.8979  0.8784
 9290SOL    HW239504   4.440   4.702   5.469  0.4164 -0.4099  0.2159
 9291SOL     OW39505   1.912   3.944   0.279  0.0479 -0.0626  0.0843
 9291SOL    HW139506   2.008   3.942   0.280  0.0688  0.6086 -0.6474
 9291SOL    HW239507   1.885   3.889   0.352 -2.0816  3.1644  1.6902
 9292SOL     OW39508   0.313   1.697  13.681  0.2560  0.1728 -0.4277
 9292SOL    HW139509   0.230   1.671  13.720  1.6494 -1.9852  1.1026
 9292SOL    HW239510   0.377   1.674  13.749 -0.1063  0.8788  0.1474
 9293SOL     OW39511   3.022   3.022   2.758  0.0440 -0.0510  0.1743
 9293SOL    HW139512   3.061   2.936   2.744 -3.1581 -1.4692  0.1899
 9293SOL    HW239513   2.959   2.996   2.824 -0.2034  0.5070  0.1580
 9294SOL     OW39514   3.752   0.231   2.958  0.5812 -0.3862  0.5030
 9294SOL    HW139515   3.729   0.231   3.051 -0.2543  1.9578  0.2888
 9294SOL    HW239516   3.720   0.151   2.916  1.3741 -0.4890  0.0880
 9295SOL     OW39517   3.784   3.049   1.956  0.5444 -0.3988 -0.4170
 9295SOL    HW139518   3.853   2.983   1.954  0.7268 -0.1810 -1.4222
 9295SOL    HW239519   3.833   3.119   1.998 -1.8780  1.0503  0.0145
 9296SOL     OW39520   1.867   3.443  12.470  0.5039  0.1000  0.2650
 9296SOL    HW139521   1.815   3.523  12.476  0.3939 -0.0205  0.8351
 9296SOL    HW239522   1.793   3.388  12.442  1.1462 -0.3525 -0.5590
 9297SOL     OW39523   4.048   0.390  13.676 -0.0394 -0.2961 -0.0908
 9297SOL    HW139524   4.038   0.315  13.617 -1.5317  0.9668 -1.4319
 9297SOL    HW239525   4.108   0.445  13.626  0.9326  1.2524  2.8182
 9298SOL     OW39526   3.735   1.531   4.418 -0.3700  0.0936  0.7589
 9298SOL    HW139527   3.644   1.501   4.425 -0.7421  1.1385  0.3628
 9298SOL    HW239528   3.765   1.535   4.508  0.2051  3.0947  0.4245
 9299SOL     OW39529   3.223   2.667   3.375  0.1506  0.1895 -0.2773
 9299SOL    HW139530   3.185   2.696   3.458 -2.1975  2.0794 -2.0107
 9299SOL    HW239531   3.313   2.647   3.402  0.0181  2.0080  1.5118
 9300SOL     OW39532   1.439   2.584  14.379  0.8420  0.2416 -0.0561
 9300SOL    HW139533   1.370   2.522  14.402  1.5714 -0.6782 -0.3407
 9300SOL    HW239534   1.386   2.653  14.339 -1.0195 -0.0128  1.9569
 9301SOL     OW39535   2.398   2.689   0.529  0.0783  0.4818  0.0037
 9301SOL    HW139536   2.332   2.628   0.497 -1.4871  1.9823  0.3717
 9301SOL    HW239537   2.452   2.627   0.577 -1.4601 -0.8791 -0.0119
 9302SOL     OW39538   0.371   2.520   6.004 -0.1303 -0.1277  0.1425
 9302SOL    HW139539   0.382   2.451   5.938 -3.8776 -0.3921 -0.2299
 9302SOL    HW239540   0.450   2.570   5.984 -0.0259  0.6910  2.6235
 9303SOL     OW39541   3.267   0.945   7.527  0.0581 -0.0444 -0.0596
 9303SOL    HW139542   3.303   0.881   7.466 -0.6606  0.7584 -1.3208
 9303SOL    HW239543   3.217   0.891   7.588  1.3584  1.3513  2.2534
 9304SOL     OW39544   2.877   1.039   7.226 -0.0280  0.0880 -0.6011
 9304SOL    HW139545   2.802   0.999   7.271  0.6543  1.0058  1.3508
 9304SOL    HW239546   2.924   1.067   7.305 -1.9311 -1.9707  1.2407
 9305SOL     OW39547   4.077   2.817   8.326  0.1577 -0.6410  0.8566
 9305SOL    HW139548   4.047   2.882   8.263 -2.0175 -0.5365  1.9770
 9305SOL    HW239549   4.087   2.740   8.270  0.3255  0.1373 -0.1727
 9306SOL     OW39550   1.736   1.375  12.601  0.4124 -0.0771 -0.9019
 9306SOL    HW139551   1.725   1.332  12.686 -0.3470  0.3777 -0.7647
 9306SOL    HW239552   1.816   1.422  12.623 -0.6737  0.8337  1.1044
 9307SOL     OW39553   1.402   3.744  14.172  0.6615  0.7924 -0.2849
 9307SOL    HW139554   1.418   3.653  14.196 -0.0712  0.5714 -0.6530
 9307SOL    HW239555   1.409   3.744  14.076 -0.1943 -1.1235 -0.3466
 9308SOL     OW39556   1.909   2.154   3.717  0.1628  0.4792  0.1406
 9308SOL    HW139557   1.817   2.156   3.689  0.3632 -0.5561 -0.5746
 9308SOL    HW239558   1.957   2.172   3.636  0.5158 -0.9898  0.0179
 9309SOL     OW39559   4.206   3.341  13.038 -0.9140 -0.6897  0.3251
 9309SOL    HW139560   4.150   3.338  13.116 -1.6695  0.3671 -0.1875
 9309SOL    HW239561   4.200   3.247  13.020 -0.3502 -0.4562 -1.0914
 9310SOL     OW39562   3.774   4.316   2.698  0.0007 -0.6696 -0.0426
 9310SOL    HW139563   3.816   4.253   2.640  0.9330 -0.0591 -0.0371
 9310SOL    HW239564   3.682   4.292   2.697 -0.2639  0.1933  2.3991
 9311SOL     OW39565   2.644   0.513   1.652 -0.1284  0.0037 -0.2395
 9311SOL    HW139566   2.647   0.482   1.561  1.6072  0.3545 -0.2972
 9311SOL    HW239567   2.709   0.582   1.645 -3.3113  3.1106  1.0934
 9312SOL     OW39568   3.103   2.774  16.107 -0.1308 -0.0674 -0.3839
 9312SOL    HW139569   3.114   2.691  16.153  0.9016 -0.0534 -0.6215
 9312SOL    HW239570   3.160   2.825  16.164 -1.2962  0.0867  0.6533
 9313SOL     OW39571   3.428   0.096   4.867 -0.1465 -0.5071  0.3111
 9313SOL    HW139572   3.398   0.039   4.797  2.1128 -0.8660 -0.3808
 9313SOL    HW239573   3.513   0.052   4.873  0.6959  0.9637 -0.7607
 9314SOL     OW39574   4.206   2.601   9.356  0.1327 -0.6960 -0.7451
 9314SOL    HW139575   4.110   2.598   9.356  0.1531 -1.1939  0.0595
 9314SOL    HW239576   4.226   2.571   9.445  0.1193  1.1063 -0.1460
 9315SOL     OW39577   3.708   0.618   9.244 -0.3487 -0.2682  0.4420
 9315SOL    HW139578   3.649   0.693   9.240  1.5380  1.1776 -0.5253
 9315SOL    HW239579   3.777   0.651   9.186 -0.1888  1.4449  1.6022
 9316SOL     OW39580   3.559   4.164   3.018 -0.4937 -0.2399  0.1870
 9316SOL    HW139581   3.527   4.124   2.938  0.2103 -0.6108  0.0903
 9316SOL    HW239582   3.499   4.120   3.079 -2.6275 -0.6392 -2.2184
 9317SOL     OW39583   1.833   4.609  16.869 -0.0889  0.1640 -0.0504
 9317SOL    HW139584   1.913   4.600  16.817  0.1627 -1.2829  0.5864
 9317SOL    HW239585   1.840   4.532  16.925  0.7261  1.3614  1.5074
 9318SOL     OW39586   0.069   3.162   3.342 -0.1915  0.3175 -0.3217
 9318SOL    HW139587   4.713   3.175   3.368 -0.2490  1.5534 -1.1274
 9318SOL    HW239588   0.071   3.217   3.263 -0.2600 -0.9045 -1.1799
 9319SOL     OW39589   1.866   3.561   7.215 -0.0179  0.4238 -0.3191
 9319SOL    HW139590   1.783   3.515   7.203 -0.8386  2.0637 -0.7762
 9319SOL    HW239591   1.902   3.508   7.287  1.0644 -0.2564 -1.3684
 9320SOL     OW39592   2.708   3.263   7.343 -0.1034  0.3123 -0.1090
 9320SOL    HW139593   2.777   3.265   7.409  1.4020 -1.1133 -1.6364
 9320SOL    HW239594   2.692   3.169   7.328 -0.7662  0.1853  1.3515
 9321SOL     OW39595   1.123   2.463  10.253  0.1822  0.1145 -0.1731
 9321SOL    HW139596   1.139   2.376  10.289 -2.3191  0.5741  2.0107
 9321SOL    HW239597   1.210   2.486  10.219  0.2829 -0.9716 -0.6337
 9322SOL     OW39598   3.375   2.506   8.514 -0.1272  0.6454  0.0497
 9322SOL    HW139599   3.398   2.472   8.600 -2.7376 -0.5801  0.2627
 9322SOL    HW239600   3.384   2.434   8.451  0.6989 -1.1842  2.3010
 9323SOL     OW39601   0.087   0.837   3.299 -0.2064  0.1792  0.1639
 9323SOL    HW139602   0.074   0.747   3.267  1.6388  0.4299 -1.3055
 9323SOL    HW239603   4.734   0.871   3.285 -0.3180  0.5888  1.8806
 9324SOL     OW39604   3.499   3.342   7.455 -0.3738 -0.3028 -0.4460
 9324SOL    HW139605   3.567   3.276   7.444 -0.0451  0.3947 -2.6786
 9324SOL    HW239606   3.534   3.399   7.386 -0.6182  1.4973  0.8910
 9325SOL     OW39607   0.231   2.147   9.866 -0.3081 -0.1780 -0.2974
 9325SOL    HW139608   0.150   2.114   9.905  1.2173 -1.6915  1.5484
 9325SOL    HW239609   0.199   2.223   9.817  0.1646  0.9291  1.1405
 9326SOL     OW39610   1.587   4.547   3.435  0.2433  0.3921  0.1248
 9326SOL    HW139611   1.508   4.513   3.394  0.6627  0.1500 -0.4878
 9326SOL    HW239612   1.652   4.506   3.377 -0.4986  1.1318 -1.2215
 9327SOL     OW39613   2.678   2.114   7.191 -0.7697  0.2272 -0.3630
 9327SOL    HW139614   2.719   2.168   7.124  0.8793 -0.8349 -0.2295
 9327SOL    HW239615   2.690   2.025   7.157 -0.0582  0.5080 -0.8606
 9328SOL     OW39616   3.060   1.770   7.189  0.6145  0.4709 -0.0195
 9328SOL    HW139617   2.989   1.716   7.153  2.8576 -1.1275 -2.0538
 9328SOL    HW239618   3.025   1.773   7.278  0.3385  1.0414 -0.1464
 9329SOL     OW39619   1.453   4.508   3.918  0.2992 -0.1710 -0.0085
 9329SOL    HW139620   1.418   4.427   3.879  0.6517  0.6423 -2.0171
 9329SOL    HW239621   1.526   4.530   3.860  0.6695  1.4057  1.0656
 9330SOL     OW39622   3.484   1.675  16.655 -0.1062  0.1813  0.0877
 9330SOL    HW139623   3.440   1.610  16.600 -1.7816  0.5904  0.9562
 9330SOL    HW239624   3.565   1.694  16.607 -1.6255 -0.4098 -2.7032
 9331SOL     OW39625   2.137   4.333   0.683 -0.3368  0.1198 -0.3865
 9331SOL    HW139626   2.057   4.301   0.642  1.7056 -1.3723 -3.2143
 9331SOL    HW239627   2.199   4.268   0.650 -0.6495 -1.6464  2.4785
 9332SOL     OW39628   0.659   0.573   1.773  0.8693  0.3746  0.1740
 9332SOL    HW139629   0.679   0.482   1.797 -1.6022 -0.2948 -0.1966
 9332SOL    HW239630   0.744   0.616   1.768  0.8771  0.3692  0.2645
 9333SOL     OW39631   0.628   3.434   2.126  0.1145 -0.7302  0.5431
 9333SOL    HW139632   0.702   3.410   2.069  1.1847 -2.4531  2.6843
 9333SOL    HW239633   0.575   3.366   2.085  0.4758 -0.2722 -0.7105
 9334SOL     OW39634   3.868   3.681   4.730 -0.5622 -0.0987 -0.1949
 9334SOL    HW139635   3.961   3.660   4.740 -0.3189  1.1485  0.1891
 9334SOL    HW239636   3.858   3.759   4.675  2.8360  0.4298 -0.0645
 9335SOL     OW39637   0.891   0.463   2.054  0.2647  0.0793  0.4719
 9335SOL    HW139638   0.973   0.506   2.078  0.8047  0.4030 -1.9328
 9335SOL    HW239639   0.900   0.457   1.959  1.3431 -1.2419  0.6630
 9336SOL     OW39640   0.927   4.086   3.446  0.1911 -0.6501 -0.1401
 9336SOL    HW139641   0.876   4.011   3.415 -0.9615 -0.2667  0.8636
 9336SOL    HW239642   0.899   4.159   3.391 -1.3727 -0.6750  0.6291
 9337SOL     OW39643   1.902   3.009   1.936 -0.1865 -0.4178  0.3738
 9337SOL    HW139644   1.853   3.086   1.908  0.0614 -0.5937 -0.5487
 9337SOL    HW239645   1.943   2.987   1.852 -0.5990 -2.6357  0.7491
 9338SOL     OW39646   2.946   2.569   9.185  0.2372  0.3744  0.2948
 9338SOL    HW139647   2.859   2.589   9.149  1.3045  2.5996 -1.0263
 9338SOL    HW239648   2.931   2.593   9.276  2.6693  1.2111  0.4653
 9339SOL     OW39649   1.928   1.947   6.874 -0.0760 -0.4027 -0.1971
 9339SOL    HW139650   1.838   1.979   6.865  0.8949  2.6122  0.9042
 9339SOL    HW239651   1.931   1.859   6.838  1.5407  0.1553 -1.4365
 9340SOL     OW39652   2.890   1.347   8.567 -0.2027 -0.8804  0.5662
 9340SOL    HW139653   2.980   1.380   8.571 -0.1045 -1.1546  0.5693
 9340SOL    HW239654   2.859   1.378   8.653 -1.0526  1.6343 -0.6489
 9341SOL     OW39655   0.738   3.944   3.312 -0.5601 -0.3030 -0.3557
 9341SOL    HW139656   0.707   3.893   3.237 -2.1743  0.5512 -0.2651
 9341SOL    HW239657   0.666   4.007   3.313  0.0952  0.4921 -2.1598
 9342SOL     OW39658   3.340   1.450   4.393 -0.1509  0.3867  0.2001
 9342SOL    HW139659   3.368   1.423   4.305 -5.1011 -2.2326 -0.5699
 9342SOL    HW239660   3.290   1.529   4.373 -0.3522  0.7831  2.2576
 9343SOL     OW39661   2.042   3.806  16.685  0.0344 -0.1122 -0.5311
 9343SOL    HW139662   2.112   3.847  16.737  1.8980 -2.1034 -1.4724
 9343SOL    HW239663   2.081   3.734  16.636 -0.1486 -1.4520  1.2852
 9344SOL     OW39664   1.727   1.744   5.799 -0.1490 -0.1017 -0.3356
 9344SOL    HW139665   1.703   1.814   5.860  0.9413  0.5616 -0.6514
 9344SOL    HW239666   1.731   1.666   5.855 -1.2279 -0.0123 -0.1395
 9345SOL     OW39667   0.778   1.075   6.399  0.1136  0.3245 -0.1864
 9345SOL    HW139668   0.787   1.029   6.483  2.7422  0.4580 -0.4015
 9345SOL    HW239669   0.701   1.131   6.409  0.0448 -0.0893  1.5744
 9346SOL     OW39670   1.431   0.067   2.634  0.1837 -0.0626 -0.5330
 9346SOL    HW139671   1.439   0.161   2.645  0.2527 -0.0877 -0.3793
 9346SOL    HW239672   1.517   0.037   2.664 -0.3367 -0.0152  1.0120
 9347SOL     OW39673   3.168   3.843  11.538  0.5464 -0.2807 -0.0245
 9347SOL    HW139674   3.134   3.854  11.449 -1.0653  0.0521  0.6352
 9347SOL    HW239675   3.263   3.844  11.521  1.1290  0.5078  3.1619
 9348SOL     OW39676   1.321   3.272   8.911 -0.0450 -0.1888  0.0424
 9348SOL    HW139677   1.236   3.292   8.871  0.1668  0.7956  0.0703
 9348SOL    HW239678   1.368   3.349   8.879  0.0873 -0.6688 -0.9222
 9349SOL     OW39679   0.101   2.061   8.461 -0.0422  0.4322 -0.3914
 9349SOL    HW139680   0.122   2.063   8.554 -1.1500 -2.7021 -0.0822
 9349SOL    HW239681   0.011   2.033   8.448 -0.4692  3.2731 -3.6338
 9350SOL     OW39682   0.814   3.651   3.722  0.2681  0.8443 -0.4479
 9350SOL    HW139683   0.795   3.575   3.776 -0.2907  2.5065  1.6557
 9350SOL    HW239684   0.900   3.680   3.752 -0.9616  2.0571  1.9473
 9351SOL     OW39685   3.120   1.543   5.920 -0.3656 -0.0762  0.3912
 9351SOL    HW139686   3.044   1.507   5.966 -1.8267  0.9351 -1.2208
 9351SOL    HW239687   3.160   1.605   5.981 -0.1025  0.1573 -0.0256
 9352SOL     OW39688   0.102   4.719   8.026 -0.1990 -0.5005  0.0689
 9352SOL    HW139689   0.176   4.728   8.085 -1.0754 -1.5636  1.3418
 9352SOL    HW239690   0.065   0.067   8.053  0.2487 -0.8367  1.6889
 9353SOL     OW39691   2.384   2.695  15.791 -0.0405  0.2006  0.3362
 9353SOL    HW139692   2.400   2.777  15.838  1.1925 -0.7321  1.5572
 9353SOL    HW239693   2.423   2.717  15.706  2.2764 -0.4551  1.2349
 9354SOL     OW39694   2.214   2.570   4.770  0.1300 -0.5348 -0.0594
 9354SOL    HW139695   2.205   2.518   4.691 -2.3553 -0.8916  0.4503
 9354SOL    HW239696   2.129   2.555   4.812 -0.4814  1.4277 -0.6075
 9355SOL     OW39697   3.646   2.836   4.218  0.2722 -0.1507 -0.3550
 9355SOL    HW139698   3.717   2.853   4.280 -0.3845  0.6236  0.1811
 9355SOL    HW239699   3.650   2.919   4.169 -1.5794 -0.6825 -1.4062
 9356SOL     OW39700   3.434   1.133   1.967 -0.0074 -0.3779  0.3137
 9356SOL    HW139701   3.464   1.133   2.058 -0.8255 -1.7589  0.5724
 9356SOL    HW239702   3.518   1.101   1.934  0.3755 -0.2422  1.1705
 9357SOL     OW39703   0.481   2.317   6.412  0.0287  0.0030  0.2862
 9357SOL    HW139704   0.431   2.269   6.478  1.0050 -2.0042 -0.4416
 9357SOL    HW239705   0.411   2.360   6.364 -0.3948 -1.0918 -0.0625
 9358SOL     OW39706   0.112   2.463   6.974  0.1719  0.0972  0.1894
 9358SOL    HW139707   0.040   2.504   7.022  0.1869  0.6312 -0.2425
 9358SOL    HW239708   0.192   2.481   7.023  1.9559 -0.5875 -2.4154
 9359SOL     OW39709   0.891   0.023   8.800  0.0733 -0.2829 -0.0535
 9359SOL    HW139710   0.946   0.091   8.760  0.6385 -1.3699 -1.1548
 9359SOL    HW239711   0.943   0.013   8.879  0.8821 -1.5903 -0.7455
 9360SOL     OW39712   3.454   4.414   0.094  0.1686 -0.0530  0.2960
 9360SOL    HW139713   3.507   4.367   0.159 -0.1791 -0.5342  0.2276
 9360SOL    HW239714   3.527   4.427   0.032 -0.1789 -1.3860 -0.3918
 9361SOL     OW39715   3.397   4.540   2.576 -0.6865 -0.5366 -0.0620
 9361SOL    HW139716   3.443   4.624   2.577  0.7394 -1.3456  2.3563
 9361SOL    HW239717   3.428   4.502   2.658 -2.7520 -0.0048  0.9645
 9362SOL     OW39718   0.187   2.444  14.090 -0.5013 -0.1052  0.3704
 9362SOL    HW139719   0.255   2.504  14.118  0.2588 -1.0523  0.5711
 9362SOL    HW239720   0.132   2.498  14.033  2.0841  0.5652 -1.4726
 9363SOL     OW39721   2.665   3.548   2.553  0.4770 -0.4166 -0.2338
 9363SOL    HW139722   2.572   3.565   2.540  0.9064  2.6903  0.8344
 9363SOL    HW239723   2.683   3.621   2.612 -3.8922 -0.7734  1.5306
 9364SOL     OW39724   0.312   2.427  16.800 -0.0109  0.2956  0.1731
 9364SOL    HW139725   0.375   2.355  16.810  0.3549  0.6059  0.0940
 9364SOL    HW239726   0.245   2.374  16.843 -0.4881  0.3896 -0.4705
 9365SOL     OW39727   2.777   0.484   6.345 -0.6160  0.9664 -0.0536
 9365SOL    HW139728   2.795   0.558   6.403  2.0225  1.2787 -1.2773
 9365SOL    HW239729   2.695   0.444   6.376  0.9222 -0.5244  2.1563
 9366SOL     OW39730   0.384   4.220  15.933 -0.4324 -1.5870 -0.0115
 9366SOL    HW139731   0.323   4.155  15.969 -2.3227  0.1402 -0.0743
 9366SOL    HW239732   0.472   4.193  15.961  1.2951  2.1969 -1.8556
 9367SOL     OW39733   4.670   0.268   3.712  0.4747  0.2591 -0.3660
 9367SOL    HW139734   4.674   0.206   3.786 -1.7466 -0.4202 -0.8066
 9367SOL    HW239735   4.622   0.342   3.747  0.1483 -0.6331  1.0917
 9368SOL     OW39736   0.923   2.126  17.059 -0.7584  0.2586  0.1490
 9368SOL    HW139737   1.014   2.101  17.047 -1.0409 -1.6862  2.0354
 9368SOL    HW239738   0.926   2.153  17.151  1.7795 -1.0274  0.4417
 9369SOL     OW39739   1.690   3.096   5.221  0.0485 -0.1641 -0.0233
 9369SOL    HW139740   1.709   3.128   5.133 -0.2038 -0.4571 -0.1825
 9369SOL    HW239741   1.623   3.029   5.209 -1.7026  1.5932 -0.0364
 9370SOL     OW39742   2.469   4.005   4.950  0.0813  0.0118 -0.4291
 9370SOL    HW139743   2.461   4.044   5.037  0.7218  1.6523 -1.1072
 9370SOL    HW239744   2.376   3.981   4.944 -0.2553  1.6119 -1.4038
 9371SOL     OW39745   4.648   3.840   3.440  0.1181  0.3438 -0.0550
 9371SOL    HW139746   4.650   3.766   3.380 -3.2359 -1.2580  1.8178
 9371SOL    HW239747   4.675   3.918   3.391 -0.4989  0.7868  0.3088
 9372SOL     OW39748   1.824   2.587  14.501 -0.0024  0.4427 -0.5501
 9372SOL    HW139749   1.788   2.578  14.412 -3.7345 -2.0102  1.1938
 9372SOL    HW239750   1.867   2.502  14.509 -0.4945  0.3766  1.2682
 9373SOL     OW39751   2.877   3.388   2.737  0.4359  0.5127  0.1478
 9373SOL    HW139752   2.948   3.406   2.799  0.5514  2.4837 -0.5333
 9373SOL    HW239753   2.838   3.474   2.717  0.6782  1.0364  1.9177
 9374SOL     OW39754   3.081   3.674   2.635 -0.2141  0.6088 -0.4227
 9374SOL    HW139755   3.122   3.744   2.685  0.4750  1.0638 -1.6414
 9374SOL    HW239756   3.001   3.652   2.683  0.4558 -0.8720  0.0138
 9375SOL     OW39757   2.760   1.757  11.689 -0.2996  0.0218  0.1572
 9375SOL    HW139758   2.817   1.688  11.723 -0.5813  0.0659  0.7184
 9375SOL    HW239759   2.679   1.744  11.738 -1.7247 -0.5338 -2.3396
 9376SOL     OW39760   2.296   3.765   7.950 -0.1724  0.4084 -0.3047
 9376SOL    HW139761   2.234   3.795   8.017 -0.0383 -0.4700  0.2201
 9376SOL    HW239762   2.313   3.674   7.975 -0.8645  0.3845  0.0832
 9377SOL     OW39763   1.289   0.666  11.361  0.2580 -0.5024  0.1971
 9377SOL    HW139764   1.221   0.644  11.297  0.7392  0.7229 -0.7328
 9377SOL    HW239765   1.363   0.630  11.311  0.1863  0.0308 -0.2926
 9378SOL     OW39766   0.227   2.565  16.024  0.3558 -0.3046 -0.7369
 9378SOL    HW139767   0.247   2.628  15.955 -0.9320  0.0163 -0.8130
 9378SOL    HW239768   0.318   2.541  16.044  0.8070  1.7178 -0.3734
 9379SOL     OW39769   4.356   2.711   8.506 -0.6555 -0.0027  0.2208
 9379SOL    HW139770   4.427   2.774   8.520 -1.1427  0.2913  1.3937
 9379SOL    HW239771   4.283   2.768   8.483 -0.0144  1.1405  0.9714
 9380SOL     OW39772   2.667   0.413   8.575 -0.2675 -0.3808 -0.4003
 9380SOL    HW139773   2.610   0.354   8.527  1.0141 -2.5790  0.8008
 9380SOL    HW239774   2.605   0.486   8.579  0.1940 -0.1015  1.4765
 9381SOL     OW39775   1.340   4.021  14.107  0.0591  0.5063  0.0498
 9381SOL    HW139776   1.336   3.929  14.133  2.0286  0.6829  0.9811
 9381SOL    HW239777   1.383   4.063  14.181 -0.6638  0.8917  0.2492
 9382SOL     OW39778   0.105   3.205  14.729  0.6990  0.3354  0.6069
 9382SOL    HW139779   0.043   3.181  14.660  2.2984 -0.2407 -0.6253
 9382SOL    HW239780   0.120   3.127  14.781  1.0880  0.4491  0.6652
 9383SOL     OW39781   1.319   1.112   9.749 -0.0633  0.0705 -0.2657
 9383SOL    HW139782   1.263   1.045   9.709 -0.0802  0.3757 -0.7544
 9383SOL    HW239783   1.358   1.140   9.667 -0.5301  0.8145 -0.2362
 9384SOL     OW39784   0.297   3.871   4.025  0.0669  0.1450 -0.1646
 9384SOL    HW139785   0.365   3.810   3.995 -0.0437  0.3464 -0.8052
 9384SOL    HW239786   0.326   3.958   3.999 -2.2345  0.7201 -0.7636
 9385SOL     OW39787   1.962   2.893  15.087  0.7387  0.1324 -0.4040
 9385SOL    HW139788   1.969   2.969  15.145 -0.6659 -0.6830  0.8349
 9385SOL    HW239789   1.945   2.939  15.005 -0.0719  0.0739 -0.2662
 9386SOL     OW39790   2.430   3.335   6.191  0.5167 -0.1217 -0.3768
 9386SOL    HW139791   2.361   3.269   6.189  1.2638 -0.9539  1.4004
 9386SOL    HW239792   2.388   3.412   6.230 -0.7088 -0.7069 -0.5347
 9387SOL     OW39793   3.452   0.549   8.090  0.6299 -0.0451 -0.4503
 9387SOL    HW139794   3.468   0.636   8.125  0.0680  0.1042 -0.5740
 9387SOL    HW239795   3.414   0.573   8.005 -0.2160  0.2399  0.0144
 9388SOL     OW39796   2.588   2.679   4.424 -0.3055 -0.3310 -0.3988
 9388SOL    HW139797   2.526   2.742   4.461  0.9997  1.2914 -0.9515
 9388SOL    HW239798   2.535   2.600   4.414  1.6916 -1.2708 -3.3987
 9389SOL     OW39799   3.063   0.108   4.580 -0.3353 -0.0430  0.1134
 9389SOL    HW139800   3.027   0.107   4.668  2.3166 -1.4451  1.1857
 9389SOL    HW239801   3.066   0.201   4.560  1.5487  0.0284  0.7222
 9390SOL     OW39802   3.960   2.001   0.025 -0.1572  0.2359  0.4196
 9390SOL    HW139803   3.936   1.917   0.062  1.4698  0.2134  1.4258
 9390SOL    HW239804   4.040   1.969  17.723 -1.1095 -2.6255  0.7849
 9391SOL     OW39805   0.547   2.697   4.062  0.2764  0.4027  0.1919
 9391SOL    HW139806   0.620   2.641   4.036 -0.9283 -1.2901  0.3767
 9391SOL    HW239807   0.468   2.642   4.064  1.0122 -0.6866 -0.4548
 9392SOL     OW39808   0.491   1.814   4.240  0.5122  0.3602  0.2670
 9392SOL    HW139809   0.428   1.758   4.195  0.2736  0.6006  0.3039
 9392SOL    HW239810   0.473   1.892   4.188 -2.9776 -1.3172 -1.0459
 9393SOL     OW39811   0.223   3.164   5.134  0.1166 -0.3998 -0.1036
 9393SOL    HW139812   0.245   3.082   5.091 -3.0452 -0.4767 -1.6046
 9393SOL    HW239813   0.234   3.228   5.063  1.1742 -0.1631  0.2723
 9394SOL     OW39814   0.727   1.087   0.928 -0.2396 -0.0400  0.1689
 9394SOL    HW139815   0.695   1.061   1.014  0.4227  1.5752  0.8951
 9394SOL    HW239816   0.650   1.096   0.872  0.4065  0.6203 -0.6079
 9395SOL     OW39817   0.178   3.845  14.705 -0.0815  0.1969  0.1657
 9395SOL    HW139818   0.175   3.790  14.783 -0.7011 -1.7657 -1.2538
 9395SOL    HW239819   0.142   3.776  14.650  0.0415  0.9948 -0.9373
 9396SOL     OW39820   3.517   3.937   7.831  0.3984 -0.0552  0.1917
 9396SOL    HW139821   3.526   4.031   7.844 -1.6343  0.2269 -0.4110
 9396SOL    HW239822   3.434   3.931   7.782 -0.3716  0.6852  1.4052
 9397SOL     OW39823   0.406   0.465   4.382  0.4030  0.6433 -0.5683
 9397SOL    HW139824   0.463   0.493   4.453  0.7160 -1.0386 -0.1688
 9397SOL    HW239825   0.437   0.504   4.300  0.9219  1.3434 -0.0323
 9398SOL     OW39826   0.454   2.332   4.950 -0.1516 -0.1354 -0.2606
 9398SOL    HW139827   0.464   2.237   4.940 -0.1274 -0.1011 -0.5529
 9398SOL    HW239828   0.449   2.354   4.857 -1.5608  2.5540  0.4638
 9399SOL     OW39829   1.738   0.086   3.984  0.1692  0.1353 -0.4936
 9399SOL    HW139830   1.708   0.101   3.895  0.3642  0.5191 -0.4941
 9399SOL    HW239831   1.680   0.012   4.002  1.4750 -0.7879 -0.0669
 9400SOL     OW39832   1.336   3.131  10.443 -0.4146  0.4717 -0.8435
 9400SOL    HW139833   1.268   3.198  10.441  0.8331  1.7861  1.5851
 9400SOL    HW239834   1.314   3.087  10.525 -0.9155  1.3596 -0.4990
 9401SOL     OW39835   1.782   2.793   8.696  0.0237 -0.0184 -0.1059
 9401SOL    HW139836   1.689   2.816   8.702  0.4178  2.3790 -3.2320
 9401SOL    HW239837   1.803   2.771   8.605  1.4841  0.0897  0.2065
 9402SOL     OW39838   2.325   4.733  17.202  0.0877 -0.1958 -0.7686
 9402SOL    HW139839   2.421   0.006  17.197 -0.0513  1.6073 -0.2085
 9402SOL    HW239840   2.321   0.059  17.275 -0.0663 -0.7736 -0.2841
 9403SOL     OW39841   4.428   0.104   8.143  0.0036 -0.2295 -0.3401
 9403SOL    HW139842   4.435   0.139   8.232 -0.2932  0.3556 -0.5446
 9403SOL    HW239843   4.350   0.049   8.154 -0.3984  1.0449  3.0025
 9404SOL     OW39844   2.459   2.152  10.469  0.7980  0.0830 -0.5475
 9404SOL    HW139845   2.521   2.208  10.422  0.4901  0.8877  0.0101
 9404SOL    HW239846   2.441   2.210  10.542 -0.0111 -0.4579 -0.3166
 9405SOL     OW39847   1.704   0.853   9.333 -0.7687 -0.2151  0.2286
 9405SOL    HW139848   1.707   0.931   9.278 -0.1409 -0.1144  0.4011
 9405SOL    HW239849   1.693   0.782   9.269  0.5328 -1.4007  1.3013
 9406SOL     OW39850   2.661   4.358   2.511  0.5544 -0.1471 -0.7190
 9406SOL    HW139851   2.665   4.403   2.596  0.6873 -0.6728 -0.4486
 9406SOL    HW239852   2.754   4.348   2.489  1.0503  3.0488 -0.0699
 9407SOL     OW39853   1.762   1.817   4.707  0.6002  0.0764  0.0607
 9407SOL    HW139854   1.720   1.731   4.716 -0.6722  0.5836 -1.1109
 9407SOL    HW239855   1.841   1.772   4.676  0.5745 -0.9451  1.4528
 9408SOL     OW39856   1.648   0.713   2.820 -0.3469  0.0651 -0.4363
 9408SOL    HW139857   1.584   0.772   2.859 -2.3119 -2.8720  0.7501
 9408SOL    HW239858   1.679   0.672   2.901  0.2719  0.2447 -0.5806
 9409SOL     OW39859   3.981   3.846   6.803  0.8453  0.3586 -0.1855
 9409SOL    HW139860   4.040   3.863   6.730  1.5139 -0.2233  0.2200
 9409SOL    HW239861   3.957   3.755   6.789  1.3056  0.4947 -1.8860
 9410SOL     OW39862   3.217   4.186   2.786 -0.0208  0.5363 -0.2125
 9410SOL    HW139863   3.216   4.196   2.690 -0.3194 -0.1773 -0.2818
 9410SOL    HW239864   3.166   4.105   2.779 -0.0061  0.4170  1.1132
 9411SOL     OW39865   2.405   4.446   7.803 -0.2923  0.6030 -0.1115
 9411SOL    HW139866   2.395   4.387   7.728  1.1347 -0.6677  0.7043
 9411SOL    HW239867   2.416   4.534   7.766 -0.4520 -0.6393 -3.1247
 9412SOL     OW39868   4.590   3.024   2.949  0.2846  0.0543  0.2289
 9412SOL    HW139869   4.500   3.055   2.961  0.0945 -0.5437  0.3509
 9412SOL    HW239870   4.574   2.931   2.930 -0.7950  0.3841 -0.5097
 9413SOL     OW39871   2.178   2.792   7.403  0.1469  0.5354 -0.5135
 9413SOL    HW139872   2.109   2.834   7.351  1.4773  0.5531 -2.2732
 9413SOL    HW239873   2.134   2.708   7.418 -0.2747  0.6910 -0.8485
 9414SOL     OW39874   0.078   2.369   6.465  0.2552 -0.0464 -0.1784
 9414SOL    HW139875   0.081   2.423   6.387  0.8785 -1.4135 -1.0926
 9414SOL    HW239876   0.053   2.432   6.533  0.7551 -0.4345  0.3727
 9415SOL     OW39877   1.810   0.812   3.460 -0.0825 -0.2134 -0.6520
 9415SOL    HW139878   1.797   0.815   3.555  1.2186  2.1987 -0.5435
 9415SOL    HW239879   1.725   0.848   3.435  0.1475  2.5828  2.5704
 9416SOL     OW39880   2.932   1.816   7.439 -0.4611 -0.4255 -0.1374
 9416SOL    HW139881   2.862   1.849   7.495 -0.5955  0.2471 -0.7123
 9416SOL    HW239882   2.997   1.885   7.439 -0.0789 -0.7791  1.1852
 9417SOL     OW39883   4.582   2.595  16.933  0.3966 -0.1304 -0.0457
 9417SOL    HW139884   4.663   2.591  16.882  0.8592 -0.6555  0.7342
 9417SOL    HW239885   4.615   2.573  17.020  1.9009 -0.0100 -0.5894
 9418SOL     OW39886   3.640   0.001  14.859 -0.5835 -0.3051  0.1454
 9418SOL    HW139887   3.643   4.641  14.858  0.0587 -0.2684 -0.5800
 9418SOL    HW239888   3.686   0.013  14.777  0.6786 -2.5707  0.5177
 9419SOL     OW39889   2.883   2.903   5.211 -0.1654 -0.6884  0.5734
 9419SOL    HW139890   2.882   2.912   5.115 -0.0047 -1.0621  0.5368
 9419SOL    HW239891   2.975   2.890   5.232  0.4983  1.3464 -1.1256
 9420SOL     OW39892   2.926   0.760   2.176  0.9273  0.1582 -0.7312
 9420SOL    HW139893   2.843   0.719   2.153  0.6658  1.0620 -1.3980
 9420SOL    HW239894   2.955   0.771   2.086  2.5155  4.7891  0.3336
 9421SOL     OW39895   4.313   1.314  13.420  0.2536  0.2718  0.1723
 9421SOL    HW139896   4.373   1.281  13.487 -0.4328  0.4590  0.8725
 9421SOL    HW239897   4.233   1.323  13.471  1.4716 -1.3712  2.3649
 9422SOL     OW39898   4.735   3.668   8.763 -0.1037 -0.0648 -0.2264
 9422SOL    HW139899   4.723   3.712   8.678 -0.0016 -0.6897 -0.5632
 9422SOL    HW239900   0.078   3.712   8.794  0.0633 -0.8886  0.5160
 9423SOL     OW39901   4.492   1.638   3.929  0.0071 -0.0116 -0.6255
 9423SOL    HW139902   4.442   1.628   3.848  0.2424 -0.3829 -0.7217
 9423SOL    HW239903   4.418   1.661   3.985 -0.4789 -0.1374 -1.2166
 9424SOL     OW39904   3.708   2.421  15.517 -0.0485 -0.4068  0.1690
 9424SOL    HW139905   3.662   2.505  15.515  0.2631 -0.1902  1.5510
 9424SOL    HW239906   3.699   2.387  15.606 -2.4359  0.5631  0.2952
 9425SOL     OW39907   1.827   2.208   9.792 -0.6300 -0.1908  0.3494
 9425SOL    HW139908   1.756   2.222   9.855 -2.2844  0.1489 -1.5638
 9425SOL    HW239909   1.780   2.189   9.710 -0.1684 -2.4200  0.5863
 9426SOL     OW39910   3.965   2.335   4.486  0.5440  0.8327 -0.0110
 9426SOL    HW139911   3.887   2.391   4.490  0.1247  0.2816 -0.5189
 9426SOL    HW239912   4.020   2.372   4.555  0.2103 -0.3139  0.8731
 9427SOL     OW39913   3.697   0.323   3.475 -0.3215  0.5417  0.0242
 9427SOL    HW139914   3.676   0.402   3.526 -1.0908  2.0988 -2.6834
 9427SOL    HW239915   3.722   0.262   3.544  0.8239  0.5501 -0.3981
 9428SOL     OW39916   1.426   2.452   6.601  0.0815 -0.5833 -0.0419
 9428SOL    HW139917   1.401   2.540   6.571  1.2722 -0.2314 -0.0099
 9428SOL    HW239918   1.449   2.477   6.690  0.3432 -0.6029 -0.1030
 9429SOL     OW39919   3.418   3.028   4.109 -0.5194 -0.1311 -0.0488
 9429SOL    HW139920   3.478   2.955   4.096 -0.0443  0.3184 -0.3610
 9429SOL    HW239921   3.365   3.003   4.184 -1.2921 -2.4628 -1.3475
 9430SOL     OW39922   1.722   4.115   9.239 -0.4675  0.1362  0.5235
 9430SOL    HW139923   1.818   4.112   9.244 -0.5111  0.8316  1.9082
 9430SOL    HW239924   1.703   4.093   9.330 -0.6150 -0.0209  0.4519
 9431SOL     OW39925   0.498   3.625   6.434 -0.7055 -0.0412  0.0916
 9431SOL    HW139926   0.446   3.570   6.492  0.9791  1.0955  2.7019
 9431SOL    HW239927   0.548   3.668   6.504  1.1463  0.6720 -1.6647
 9432SOL     OW39928   4.070   2.477  15.061  0.0632 -0.0106 -0.2927
 9432SOL    HW139929   4.042   2.564  15.091 -1.1545  0.3881 -2.5791
 9432SOL    HW239930   3.995   2.418  15.065  1.6573 -2.0234 -0.4570
 9433SOL     OW39931   2.746   0.210   0.257 -0.8132  0.1127 -0.0692
 9433SOL    HW139932   2.769   0.205   0.350 -1.4840 -1.5909 -0.0051
 9433SOL    HW239933   2.718   0.301   0.245  2.3117  1.1234  0.2894
 9434SOL     OW39934   3.815   3.943  11.076  0.0047  0.1418  0.3267
 9434SOL    HW139935   3.853   4.031  11.079  0.6514 -0.1118 -0.3882
 9434SOL    HW239936   3.730   3.958  11.118  0.0649  0.0172  0.4923
 9435SOL     OW39937   4.619   4.017   4.517  0.3249 -0.1172  0.4567
 9435SOL    HW139938   4.693   4.066   4.481  0.7970 -1.5642 -0.5087
 9435SOL    HW239939   4.595   4.082   4.584 -2.0635  1.2097 -1.7089
 9436SOL     OW39940   1.225   1.183   9.202 -0.1233  0.1236  0.5362
 9436SOL    HW139941   1.185   1.270   9.208  0.9312  0.8098 -2.6198
 9436SOL    HW239942   1.159   1.126   9.161 -1.7895  0.8643  2.1899
 9437SOL     OW39943   3.821   0.322   8.435 -0.2726  0.1021 -0.0396
 9437SOL    HW139944   3.768   0.367   8.369 -0.4462  1.4259  1.0182
 9437SOL    HW239945   3.887   0.296   8.371 -1.1646  1.6620 -1.5633
 9438SOL     OW39946   1.312   2.692   7.762  0.4972  0.4682  0.0994
 9438SOL    HW139947   1.372   2.620   7.783 -1.4563 -0.9743  0.7174
 9438SOL    HW239948   1.316   2.689   7.666 -1.4789 -1.0422  0.0590
 9439SOL     OW39949   0.143   3.875   6.098  0.1452 -0.0717  0.4971
 9439SOL    HW139950   0.117   3.866   6.006 -0.4059 -0.7666  0.7136
 9439SOL    HW239951   0.122   3.785   6.125  2.1036 -0.9095 -0.8054
 9440SOL     OW39952   2.538   1.594  16.401  0.6484  0.0478 -0.9740
 9440SOL    HW139953   2.463   1.638  16.360 -1.1778 -0.6247  1.6107
 9440SOL    HW239954   2.559   1.535  16.328 -0.4438 -0.9085 -0.5130
 9441SOL     OW39955   2.621   0.198   6.292 -0.3552  0.2361 -0.5340
 9441SOL    HW139956   2.695   0.179   6.234 -0.1259 -1.5312  0.3507
 9441SOL    HW239957   2.670   0.233   6.367 -0.5407 -0.1073 -0.2563
 9442SOL     OW39958   2.495   3.532   1.594 -0.4673 -0.4367 -0.2376
 9442SOL    HW139959   2.576   3.491   1.561 -0.2068  0.1677 -0.3495
 9442SOL    HW239960   2.442   3.455   1.614 -2.4940  0.0877 -3.6573
 9443SOL     OW39961   3.563   0.838  16.500  0.1760  0.7426 -0.2911
 9443SOL    HW139962   3.548   0.826  16.593 -0.2481  2.3358 -0.1501
 9443SOL    HW239963   3.644   0.790  16.485  0.5253  0.2867  3.0601
 9444SOL     OW39964   1.952   1.260   5.002 -0.0440  0.2398  0.5937
 9444SOL    HW139965   2.016   1.189   5.005  1.4725  1.5848 -0.0987
 9444SOL    HW239966   1.923   1.246   5.092 -2.5256  1.2866 -0.0385
 9445SOL     OW39967   2.083   1.405   1.801 -0.4126 -0.2745 -0.2065
 9445SOL    HW139968   2.164   1.423   1.849  0.2938  1.7001 -2.1544
 9445SOL    HW239969   2.013   1.377   1.860 -2.6707  1.0488 -2.2613
 9446SOL     OW39970   1.509   4.334   1.776  0.5069 -0.0087  0.3219
 9446SOL    HW139971   1.544   4.405   1.722  3.3902 -1.4913  0.2303
 9446SOL    HW239972   1.579   4.270   1.760  1.0220  0.2950  1.3702
 9447SOL     OW39973   1.451   2.465   5.200  0.1471 -0.2406 -0.8018
 9447SOL    HW139974   1.402   2.390   5.233  1.3680 -0.5610  0.2733
 9447SOL    HW239975   1.401   2.496   5.124  0.9956 -1.0172 -1.6801
 9448SOL     OW39976   3.386   2.277   7.217  0.1040  0.6034 -0.2678
 9448SOL    HW139977   3.349   2.345   7.272 -0.3042  1.4112 -1.5313
 9448SOL    HW239978   3.433   2.221   7.278  0.8333 -1.0643 -2.3510
 9449SOL     OW39979   4.282   0.300   5.311  0.4890  0.4735  0.5040
 9449SOL    HW139980   4.251   0.378   5.358 -0.2225  0.0325  0.7549
 9449SOL    HW239981   4.254   0.324   5.223  0.8023 -0.7818  0.0694
 9450SOL     OW39982   2.745   3.011   7.274  0.0666  1.0861  0.5154
 9450SOL    HW139983   2.839   2.991   7.279 -0.4928 -1.5530  0.7538
 9450SOL    HW239984   2.732   2.994   7.180 -1.2158 -1.0267  1.0700
 9451SOL     OW39985   0.680   4.376  17.355 -0.4107 -0.4465  0.1900
 9451SOL    HW139986   0.711   4.433  17.426  0.8195 -0.4797 -0.3259
 9451SOL    HW239987   0.613   4.325  17.401 -1.6453  0.7154 -0.3043
 9452SOL     OW39988   3.003   0.808   6.781  0.4916  0.7077  0.5603
 9452SOL    HW139989   2.909   0.795   6.792  0.8032 -2.0363  0.2050
 9452SOL    HW239990   3.035   0.717   6.776 -0.5149  0.4178 -0.5912
 9453SOL     OW39991   2.472   1.728   4.189 -0.5630  0.4323 -0.0032
 9453SOL    HW139992   2.557   1.733   4.232 -1.2200  0.2977  1.3394
 9453SOL    HW239993   2.418   1.714   4.267 -1.7592 -1.2051 -1.1278
 9454SOL     OW39994   2.244   3.930   4.809  0.2028 -0.0873  0.0779
 9454SOL    HW139995   2.163   3.880   4.808  0.7036 -0.8956 -2.2181
 9454SOL    HW239996   2.241   3.999   4.742  0.6566  0.2154  0.3690
 9455SOL     OW39997   0.928   3.889  16.089  0.3238 -0.7085 -0.4632
 9455SOL    HW139998   0.868   3.861  16.020  0.4499  1.1956 -1.3438
 9455SOL    HW239999   0.935   3.981  16.063 -0.4245 -0.1404  1.3894
 9456SOL     OW40000   2.761   2.289  16.327  0.3661 -0.0381  0.1087
 9456SOL    HW140001   2.669   2.292  16.356  0.1303 -1.1556 -0.5011
 9456SOL    HW240002   2.797   2.208  16.362 -0.6790  0.0838  1.4343
 9457SOL     OW40003   3.431   1.361   9.068 -0.1215 -0.0889  0.2075
 9457SOL    HW140004   3.398   1.370   9.158 -0.2691 -0.3362  0.1760
 9457SOL    HW240005   3.480   1.279   9.078 -0.8111 -0.4089  0.9608
 9458SOL     OW40006   2.903   2.824   3.361  0.1826  0.8579  0.1752
 9458SOL    HW140007   2.868   2.886   3.426 -0.6386 -1.2301  1.7331
 9458SOL    HW240008   2.964   2.769   3.409  0.0309  0.5575  0.0220
 9459SOL     OW40009   3.771   3.639   2.823  0.6460  0.4402  0.0061
 9459SOL    HW140010   3.713   3.689   2.880 -1.0437 -0.0641 -1.2618
 9459SOL    HW240011   3.716   3.570   2.788 -0.1081  2.0816 -2.0452
 9460SOL     OW40012   3.307   2.897   2.988 -0.0265  0.5271 -0.3170
 9460SOL    HW140013   3.217   2.877   3.014  0.8828 -0.8594  1.7624
 9460SOL    HW240014   3.324   2.983   3.026 -1.3188  0.7790 -0.3220
 9461SOL     OW40015   2.348   4.308   3.687  0.1264 -0.0530 -0.0608
 9461SOL    HW140016   2.329   4.354   3.606  1.2591  0.6521  0.0742
 9461SOL    HW240017   2.343   4.384   3.745  0.7660 -2.1840  2.8242
 9462SOL     OW40018   3.104   2.677   4.368  0.3175  0.0812 -0.1484
 9462SOL    HW140019   3.112   2.624   4.448  0.7608  1.9587  1.0375
 9462SOL    HW240020   3.017   2.714   4.380  0.6103  0.7759 -0.2105
 9463SOL     OW40021   0.800   0.033   6.223 -0.4095  0.0248 -0.3209
 9463SOL    HW140022   0.707   0.050   6.236 -0.5044 -0.4796 -0.3398
 9463SOL    HW240023   0.808   0.014   6.130 -0.7576 -0.8424 -0.1689
 9464SOL     OW40024   2.668   1.564   7.163 -0.3621  0.5487 -0.4464
 9464SOL    HW140025   2.713   1.484   7.190 -0.1380  1.1785  1.0343
 9464SOL    HW240026   2.715   1.582   7.082 -2.8235  1.4491 -1.6803
 9465SOL     OW40027   1.991   2.666  16.819 -0.3765  0.1385 -0.1860
 9465SOL    HW140028   2.008   2.742  16.874 -2.6920  0.8475 -0.4290
 9465SOL    HW240029   1.900   2.641  16.835  0.2470 -1.2283  1.1996
 9466SOL     OW40030   1.780   3.124   8.408 -0.0172 -0.0445  0.1127
 9466SOL    HW140031   1.774   3.139   8.503  2.5811  2.5018 -0.1310
 9466SOL    HW240032   1.690   3.152   8.395  0.2284  1.4795  1.7000
 9467SOL     OW40033   1.332   0.377   3.531 -0.0386  0.1240  0.2039
 9467SOL    HW140034   1.332   0.457   3.584  1.5312  1.5686 -1.9785
 9467SOL    HW240035   1.386   0.322   3.588  2.1593 -0.7364 -2.6639
 9468SOL     OW40036   3.212   1.870   5.118 -0.0962  0.1623  0.6677
 9468SOL    HW140037   3.267   1.826   5.053  2.0030  1.8942  1.2639
 9468SOL    HW240038   3.239   1.817   5.193  1.0597 -0.3048 -0.0754
 9469SOL     OW40039   2.547   3.321   2.006 -0.2995  0.4262 -0.3880
 9469SOL    HW140040   2.538   3.280   1.920 -0.5806 -0.9764  0.3214
 9469SOL    HW240041   2.637   3.350   1.994  0.2498 -0.6587  1.2220
 9470SOL     OW40042   1.696   3.278   7.560  0.1278 -0.0285 -0.3065
 9470SOL    HW140043   1.760   3.206   7.562  2.4316  1.9938 -1.6953
 9470SOL    HW240044   1.693   3.289   7.655  0.6937  0.6962 -0.3784
 9471SOL     OW40045   1.684   1.199   1.384 -0.4519 -0.0568 -0.0488
 9471SOL    HW140046   1.603   1.223   1.428 -1.0176  0.2584 -1.2872
 9471SOL    HW240047   1.645   1.136   1.324  0.1219 -1.6290  1.2183
 9472SOL     OW40048   2.859   2.900   3.623  0.8264 -0.4323 -0.2298
 9472SOL    HW140049   2.823   2.985   3.648 -1.5403 -1.3778 -0.4851
 9472SOL    HW240050   2.903   2.870   3.703 -0.7569 -0.4684  0.6099
 9473SOL     OW40051   1.767   2.085  11.244  0.4415 -0.2010  0.4037
 9473SOL    HW140052   1.672   2.086  11.254  0.6842  0.7763  2.4060
 9473SOL    HW240053   1.772   1.989  11.244  2.6923 -0.0691  0.5362
 9474SOL     OW40054   2.556   3.008   6.728  0.2199  0.1387 -0.2448
 9474SOL    HW140055   2.527   3.098   6.710  0.0175  0.1006 -0.1080
 9474SOL    HW240056   2.539   3.012   6.822  0.4459 -0.3936 -0.1848
 9475SOL     OW40057   2.151   0.185   5.974 -0.3348 -0.0992  0.1727
 9475SOL    HW140058   2.211   0.145   6.037  0.1146  1.5585  0.7971
 9475SOL    HW240059   2.065   0.155   6.002  0.5540 -1.8992  0.9607
 9476SOL     OW40060   2.331   3.914   9.476  0.0768  0.1813  0.1815
 9476SOL    HW140061   2.393   3.847   9.448  0.8053  0.1199  1.9327
 9476SOL    HW240062   2.318   3.884   9.566 -1.5419  0.6136  0.0896
 9477SOL     OW40063   1.787   3.009   4.689  0.0576 -0.0484 -0.4986
 9477SOL    HW140064   1.785   2.944   4.619  0.3475 -0.8007  0.1967
 9477SOL    HW240065   1.751   2.960   4.762 -0.6498  0.7530 -0.3119
 9478SOL     OW40066   1.409   1.109   7.684  0.4624  0.1587 -0.0124
 9478SOL    HW140067   1.390   1.174   7.752  1.2462 -1.0166  1.3358
 9478SOL    HW240068   1.489   1.143   7.645 -0.1035 -0.4792 -1.7214
 9479SOL     OW40069   2.167   3.463   4.426 -0.0762  0.2061 -0.2936
 9479SOL    HW140070   2.215   3.482   4.507 -0.8041 -1.5913  0.5553
 9479SOL    HW240071   2.081   3.490   4.456 -0.6844 -2.4579  0.4059
 9480SOL     OW40072   4.700   1.499   8.209 -0.5907  0.4732 -0.1655
 9480SOL    HW140073   0.013   1.508   8.127 -0.0119  2.6676  0.4327
 9480SOL    HW240074   4.727   1.407   8.212  0.3613  0.8176  1.6553
 9481SOL     OW40075   2.144   2.574  13.982  1.1086  0.1357  0.3999
 9481SOL    HW140076   2.101   2.494  14.012  1.7486 -1.2606 -2.4408
 9481SOL    HW240077   2.079   2.636  14.014  0.2636 -1.0829  1.0340
 9482SOL     OW40078   2.843   3.388   3.069  0.3601 -0.2409  0.8863
 9482SOL    HW140079   2.784   3.423   3.003  0.0059  2.9489  2.8655
 9482SOL    HW240080   2.862   3.473   3.111  1.2113 -0.0696  0.1627
 9483SOL     OW40081   4.445   3.390   4.515  0.1001  0.3319 -0.0206
 9483SOL    HW140082   4.395   3.354   4.589 -1.7439  2.1791 -0.3723
 9483SOL    HW240083   4.480   3.472   4.550 -3.7523  2.4248 -1.1141
 9484SOL     OW40084   2.274   0.089   8.409  0.1514  0.2477 -0.7251
 9484SOL    HW140085   2.308   0.077   8.320  1.0855  0.2979 -0.3769
 9484SOL    HW240086   2.325   0.163   8.442 -2.0868  1.0253  0.9409
 9485SOL     OW40087   1.427   3.390   6.878 -0.1215  0.2543  0.6057
 9485SOL    HW140088   1.376   3.315   6.845  0.0641 -0.2180  1.3870
 9485SOL    HW240089   1.514   3.372   6.842 -0.3313 -0.5172  0.4679
 9486SOL     OW40090   2.773   3.496   3.400 -0.2889  0.0385 -0.1210
 9486SOL    HW140091   2.829   3.571   3.419 -1.5148  0.9502 -0.1150
 9486SOL    HW240092   2.745   3.490   3.491  0.7455 -1.3091  0.1190
 9487SOL     OW40093   0.864   4.324   5.123  0.4766 -0.4752  0.1999
 9487SOL    HW140094   0.812   4.325   5.203 -0.7204 -1.0387 -0.5843
 9487SOL    HW240095   0.923   4.397   5.143  0.2077 -1.0235  3.0831
 9488SOL     OW40096   4.280   2.021   2.872  0.3156 -0.1353 -0.4285
 9488SOL    HW140097   4.263   2.062   2.787  0.5587 -1.4994 -1.1387
 9488SOL    HW240098   4.328   2.097   2.904  0.1307 -0.4832  0.6656
 9489SOL     OW40099   4.007   3.825  11.817 -0.2947 -0.4797  0.5508
 9489SOL    HW140100   4.043   3.785  11.896 -0.8560 -0.5982  0.7493
 9489SOL    HW240101   4.069   3.896  11.806  0.1852 -0.6779  1.9205
 9490SOL     OW40102   2.741   0.560   0.666  0.4659  0.0987  0.2989
 9490SOL    HW140103   2.682   0.597   0.731  1.1837 -0.5838  1.3505
 9490SOL    HW240104   2.692   0.480   0.645 -0.8818  1.2038 -0.7235
 9491SOL     OW40105   2.473   0.658   4.493 -0.3177 -0.2907  0.1081
 9491SOL    HW140106   2.417   0.730   4.464  1.6641  0.1954 -2.4974
 9491SOL    HW240107   2.429   0.584   4.450 -0.5137  0.7662 -1.4983
 9492SOL     OW40108   3.527   0.394   2.895 -0.0033  0.3103 -0.5772
 9492SOL    HW140109   3.609   0.347   2.911  0.6512  1.2099 -1.3078
 9492SOL    HW240110   3.469   0.323   2.923  1.7063 -0.6261  0.5894
 9493SOL     OW40111   0.048   0.510   5.187  0.1191 -0.1874 -0.4379
 9493SOL    HW140112   0.078   0.458   5.262 -1.1312  0.5172  0.5741
 9493SOL    HW240113   4.712   0.561   5.226 -0.4830 -1.2160 -0.2183
 9494SOL     OW40114   2.135   4.602  10.281 -0.3759 -0.1059 -0.4839
 9494SOL    HW140115   2.085   4.670  10.325 -0.9949  0.2753 -1.7953
 9494SOL    HW240116   2.134   4.626  10.189  0.5160  1.0739 -0.1836
 9495SOL     OW40117   1.595   1.577   3.442  0.8070  0.0998  0.0579
 9495SOL    HW140118   1.561   1.489   3.430  1.8434 -0.2914 -0.0305
 9495SOL    HW240119   1.543   1.623   3.376 -1.4103 -1.4101  0.7540
 9496SOL     OW40120   1.846   1.541  12.125 -0.5799 -0.1073  0.5956
 9496SOL    HW140121   1.930   1.495  12.122 -0.3658  0.4805 -1.9134
 9496SOL    HW240122   1.832   1.508  12.214 -0.0995 -1.0468  0.3219
 9497SOL     OW40123   3.905   0.658  14.040  0.2978  0.0820  0.3034
 9497SOL    HW140124   3.823   0.615  14.062  0.6646 -1.0090 -0.4440
 9497SOL    HW240125   3.891   0.672  13.947 -0.5365 -0.1479  0.3955
 9498SOL     OW40126   0.592   3.702   6.688 -0.2630  0.5188 -0.4838
 9498SOL    HW140127   0.594   3.694   6.783  1.3665 -0.3256 -0.5863
 9498SOL    HW240128   0.517   3.761   6.684  0.5256  1.6905  1.9722
 9499SOL     OW40129   0.822   0.781   7.655  0.5002  0.0377 -0.1554
 9499SOL    HW140130   0.754   0.723   7.620 -0.1055  0.1921  0.7558
 9499SOL    HW240131   0.780   0.859   7.690 -1.2957 -1.7755  1.7549
 9500SOL     OW40132   1.193   2.163   6.039 -0.2497  0.2656  0.0616
 9500SOL    HW140133   1.215   2.145   6.130 -1.0916 -1.1816 -0.0068
 9500SOL    HW240134   1.268   2.120   5.998  1.2157  2.0235  0.9216
 9501SOL     OW40135   4.070   2.742  10.839 -0.5184 -0.0235 -0.0849
 9501SOL    HW140136   4.071   2.686  10.761 -0.8452  1.3116 -1.0484
 9501SOL    HW240137   4.162   2.757  10.862 -0.4385  2.2582 -1.8659
 9502SOL     OW40138   1.928   0.146   4.168  0.8093  0.1838 -0.3422
 9502SOL    HW140139   1.962   0.061   4.140  1.0263  0.3232 -0.5140
 9502SOL    HW240140   1.851   0.152   4.111  0.2096  1.1935  0.5763
 9503SOL     OW40141   1.433   3.760   6.433  0.3620 -1.0241 -1.2509
 9503SOL    HW140142   1.523   3.768   6.403  1.1016  0.9856  1.5124
 9503SOL    HW240143   1.433   3.687   6.496 -1.2339 -1.5353 -1.8330
 9504SOL     OW40144   3.354   3.497   0.355 -0.4013  0.7837 -0.2625
 9504SOL    HW140145   3.290   3.517   0.286 -1.2005 -0.3798  0.1361
 9504SOL    HW240146   3.305   3.434   0.408 -0.2640  0.6837 -0.2534
 9505SOL     OW40147   2.402   0.867  10.632  0.7971 -0.3885  0.7754
 9505SOL    HW140148   2.311   0.847  10.654  0.3574 -0.7063 -1.3353
 9505SOL    HW240149   2.437   0.890  10.718  2.2462  0.2742  0.0069
 9506SOL     OW40150   4.620   2.632   3.101 -0.0329  0.0032  0.2037
 9506SOL    HW140151   4.564   2.682   3.161 -0.0703 -1.9681  1.8207
 9506SOL    HW240152   4.610   2.679   3.019  0.5430 -0.2357 -0.0064
 9507SOL     OW40153   0.504   1.973  10.838 -0.6414 -0.3281 -0.1152
 9507SOL    HW140154   0.413   1.963  10.811 -0.7901  0.4815  0.1143
 9507SOL    HW240155   0.503   2.036  10.909 -1.1214  0.0007 -0.4154
 9508SOL     OW40156   1.176   0.013  12.861  0.4905 -0.2382  0.1000
 9508SOL    HW140157   1.237   0.033  12.932 -1.2091  1.6265  1.0029
 9508SOL    HW240158   1.100   4.735  12.917 -0.0153 -0.1918 -0.5759
 9509SOL     OW40159   1.987   4.655   3.201  0.3088 -0.4684 -0.3263
 9509SOL    HW140160   1.968   0.011   3.216 -2.8480 -1.0486 -0.7386
 9509SOL    HW240161   1.899   4.623   3.223  0.3718  0.4037  1.1647
 9510SOL     OW40162   0.229   4.246  12.255  0.4661 -0.5604 -0.1926
 9510SOL    HW140163   0.182   4.329  12.267  1.9787  0.4384 -1.1428
 9510SOL    HW240164   0.177   4.198  12.191 -1.7157 -0.8863  1.8266
 9511SOL     OW40165   4.302   2.403  15.215 -0.3965 -0.4476 -0.0928
 9511SOL    HW140166   4.302   2.490  15.257  2.6232 -0.0425 -0.9986
 9511SOL    HW240167   4.244   2.422  15.141 -2.7111 -3.2580  1.0082
 9512SOL     OW40168   2.077   1.380  12.481 -0.3002  0.3939  0.1267
 9512SOL    HW140169   2.007   1.366  12.418 -0.3909  0.9191  0.1128
 9512SOL    HW240170   2.033   1.433  12.547 -0.4508  1.0589 -0.5082
 9513SOL     OW40171   1.411   0.300   8.445 -0.4012 -0.1846  0.0692
 9513SOL    HW140172   1.419   0.348   8.527 -0.1884  0.8289 -0.5506
 9513SOL    HW240173   1.452   0.214   8.462  1.6239  0.8211  0.3077
 9514SOL     OW40174   0.447   4.262   8.611 -0.2016  0.0925  0.2575
 9514SOL    HW140175   0.381   4.226   8.552 -0.1264 -0.7297  0.6802
 9514SOL    HW240176   0.407   4.347   8.633  0.8986  0.7050 -0.1269
 9515SOL     OW40177   3.147   4.337  17.305  0.1952 -0.2488 -0.4232
 9515SOL    HW140178   3.190   4.390  17.373  1.7414 -0.6776 -1.0577
 9515SOL    HW240179   3.161   4.251  17.345 -0.0483  0.6477  1.5936
 9516SOL     OW40180   1.626   1.074   9.645 -0.2897  0.0825  0.7910
 9516SOL    HW140181   1.654   1.089   9.735 -1.1846 -1.0134  1.2668
 9516SOL    HW240182   1.627   0.978   9.642  0.1153  0.2452 -4.1981
 9517SOL     OW40183   1.724   1.753   7.276  0.6539 -0.3851 -0.4619
 9517SOL    HW140184   1.809   1.766   7.235  1.0610 -1.6891 -0.0143
 9517SOL    HW240185   1.689   1.706   7.200 -2.5140  0.6540  0.3627
 9518SOL     OW40186   3.960   2.036   3.860 -0.1540 -0.4541  0.0149
 9518SOL    HW140187   3.914   2.115   3.832  0.2873 -0.7954 -1.6320
 9518SOL    HW240188   3.985   2.013   3.771 -1.4020  1.0071 -0.7170
 9519SOL     OW40189   0.830   3.972  16.852  0.5687  0.8974  0.3582
 9519SOL    HW140190   0.815   3.953  16.759  0.6325  1.6189  0.2015
 9519SOL    HW240191   0.914   4.018  16.855  0.5473  0.6667  4.3348
 9520SOL     OW40192   3.882   0.505   2.355  0.2169  0.2414 -0.2408
 9520SOL    HW140193   3.939   0.524   2.280 -0.9373  1.3294 -0.8357
 9520SOL    HW240194   3.850   0.593   2.376  1.9844  1.0313 -0.8145
 9521SOL     OW40195   4.477   3.449   3.101  0.1820 -0.3583  0.5283
 9521SOL    HW140196   4.434   3.510   3.042  1.3479  0.0218  0.0709
 9521SOL    HW240197   4.400   3.401   3.131 -0.2433  0.2359  0.3876
 9522SOL     OW40198   3.405   2.651   7.218 -0.0651 -0.2942 -0.0390
 9522SOL    HW140199   3.500   2.650   7.233  0.5496  4.5264 -3.5009
 9522SOL    HW240200   3.396   2.745   7.234 -0.4126 -0.1842 -0.8712
 9523SOL     OW40201   2.134   0.944  14.483 -0.3532  0.1775 -0.1602
 9523SOL    HW140202   2.220   0.964  14.519  0.0321  0.3862 -1.2080
 9523SOL    HW240203   2.153   0.862  14.437 -1.9932  0.5115 -1.4463
 9524SOL     OW40204   2.818   2.073   1.085  0.0374 -0.1879  0.8111
 9524SOL    HW140205   2.826   2.126   1.005 -1.7902  1.7953  1.9466
 9524SOL    HW240206   2.771   1.999   1.049  2.0393 -0.4775 -1.2095
 9525SOL     OW40207   4.368   0.385   7.929 -0.3333 -0.1058 -0.2909
 9525SOL    HW140208   4.399   0.394   8.019  2.2811 -0.6684 -1.1418
 9525SOL    HW240209   4.432   0.336   7.877  1.2205  0.5774  0.9914
 9526SOL     OW40210   2.110   0.610   2.000 -0.5716 -0.4288  0.2959
 9526SOL    HW140211   2.070   0.687   2.039 -0.4127 -0.0201 -0.3512
 9526SOL    HW240212   2.087   0.543   2.064 -1.7500  1.0967  1.4593
 9527SOL     OW40213   0.357   1.415   0.953 -0.0625  0.4458 -0.1027
 9527SOL    HW140214   0.372   1.469   0.876  0.9903  1.0783  0.5568
 9527SOL    HW240215   0.340   1.484   1.017  1.7838  0.1785  0.6821
 9528SOL     OW40216   3.917   3.789   3.089 -0.0094  0.3969  0.4765
 9528SOL    HW140217   3.888   3.850   3.021 -2.5548 -2.0024 -0.5876
 9528SOL    HW240218   3.982   3.846   3.128 -0.5053  0.0098  1.8953
 9529SOL     OW40219   1.052   2.517   6.275 -0.0796 -0.4311  0.4836
 9529SOL    HW140220   1.111   2.582   6.314  0.6683 -1.2075  0.6311
 9529SOL    HW240221   1.102   2.511   6.194 -1.4847 -1.4463 -0.3071
 9530SOL     OW40222   0.868   2.962   1.520  0.1034  0.5119 -0.4122
 9530SOL    HW140223   0.818   2.973   1.601 -0.9264  0.7634 -1.0804
 9530SOL    HW240224   0.950   3.003   1.549 -0.2909  0.2771  1.0325
 9531SOL     OW40225   2.872   1.698   6.583  0.1176 -0.3739 -0.4241
 9531SOL    HW140226   2.903   1.782   6.549 -0.1335  0.1890  0.7405
 9531SOL    HW240227   2.883   1.651   6.500 -0.9024  1.1545 -1.4389
 9532SOL     OW40228   3.208   3.935  17.507  0.1480  0.3126  0.4484
 9532SOL    HW140229   3.251   3.976  17.431 -0.0047  0.6787  0.5611
 9532SOL    HW240230   3.171   4.010  17.553 -0.7055 -0.9806  1.8839
 9533SOL     OW40231   1.547   2.446   0.765 -0.0254  0.0418 -0.2227
 9533SOL    HW140232   1.497   2.511   0.815  1.3016  1.6727 -1.0343
 9533SOL    HW240233   1.618   2.428   0.827 -0.0653  0.2512 -0.1165
 9534SOL     OW40234   2.027   4.713   7.838 -0.1937  0.1593 -0.5506
 9534SOL    HW140235   1.986   4.641   7.789  0.5817  0.3834 -1.5321
 9534SOL    HW240236   1.960   0.011   7.898 -0.0986  0.6823 -0.7363
 9535SOL     OW40237   1.840   1.107   2.951 -0.2460 -0.5052 -0.1460
 9535SOL    HW140238   1.913   1.087   3.010  0.5331  0.7325 -0.7027
 9535SOL    HW240239   1.777   1.055   3.001 -0.1742  1.6381  2.1704
 9536SOL     OW40240   4.367   2.218   6.722 -1.1111 -0.6026  0.3379
 9536SOL    HW140241   4.370   2.144   6.782 -1.2944 -1.4393 -0.7039
 9536SOL    HW240242   4.440   2.205   6.661 -2.2557 -0.7949 -0.9831
 9537SOL     OW40243   3.665   4.584  16.727 -0.0688 -0.3241 -0.0544
 9537SOL    HW140244   3.629   4.532  16.798  0.7339  2.1155  2.1386
 9537SOL    HW240245   3.588   4.632  16.698 -0.7608  0.4834  3.0998
 9538SOL     OW40246   4.607   4.104   9.391 -0.4180  0.0105 -0.3599
 9538SOL    HW140247   4.597   4.173   9.326 -0.0938 -2.0171 -2.5837
 9538SOL    HW240248   4.616   4.147   9.475 -0.0745  0.7704 -0.7903
 9539SOL     OW40249   1.626   2.892   6.333  0.0657  0.1957  0.0939
 9539SOL    HW140250   1.584   2.818   6.288 -2.4372  0.7130  1.5881
 9539SOL    HW240251   1.669   2.841   6.402 -0.0254  1.7263  1.2737
 9540SOL     OW40252   4.298   1.503   2.882  0.2345 -0.2065  0.4237
 9540SOL    HW140253   4.306   1.584   2.831 -1.1307 -1.2897 -1.4888
 9540SOL    HW240254   4.207   1.478   2.866 -0.2181  1.5033  0.3722
 9541SOL     OW40255   0.622   0.374   1.550  0.1004 -0.1152 -0.1499
 9541SOL    HW140256   0.569   0.306   1.507  1.6589 -2.2558  1.3286
 9541SOL    HW240257   0.656   0.327   1.626  1.0443 -0.4397 -0.7791
 9542SOL     OW40258   4.352   4.385   1.503  0.0618 -0.1444 -0.2059
 9542SOL    HW140259   4.372   4.326   1.575  0.3177 -0.9933 -0.9719
 9542SOL    HW240260   4.260   4.394   1.525  0.2829 -3.2888  1.9926
 9543SOL     OW40261   3.949   2.158   3.265 -0.2342  0.0683  0.1193
 9543SOL    HW140262   3.916   2.245   3.287 -0.4712 -0.0561  0.2490
 9543SOL    HW240263   3.896   2.097   3.316  2.2651 -1.3444  1.0633
 9544SOL     OW40264   3.117   4.718   0.286  0.3286 -0.5166  0.0888
 9544SOL    HW140265   3.083   0.049   0.226 -0.3525 -0.0640  0.9838
 9544SOL    HW240266   3.198   4.691   0.242 -0.1635 -1.6164 -0.1239
 9545SOL     OW40267   1.711   0.263   5.515  0.2154  0.2285 -0.0880
 9545SOL    HW140268   1.768   0.260   5.591 -2.2422  1.0948  1.7761
 9545SOL    HW240269   1.642   0.228   5.570 -1.2955  1.0794 -1.4319
 9546SOL     OW40270   4.200   4.599  12.549  0.2123  0.1354 -0.0884
 9546SOL    HW140271   4.171   4.642  12.629 -1.7164  0.9544 -1.2128
 9546SOL    HW240272   4.291   4.627  12.543 -0.3672  1.7836 -0.9991
 9547SOL     OW40273   0.858   0.879  15.947 -0.1783  0.0651  0.2170
 9547SOL    HW140274   0.801   0.807  15.974 -0.2747 -0.4941 -1.4691
 9547SOL    HW240275   0.877   0.870  15.853  0.3789  0.2830  0.3082
 9548SOL     OW40276   0.055   4.498   2.385  0.4765  0.0085  0.0726
 9548SOL    HW140277   0.033   4.590   2.367 -1.2624 -0.2839  0.6565
 9548SOL    HW240278   4.697   4.478   2.394  0.0675  2.5539  1.5169
 9549SOL     OW40279   1.743   0.719   1.670  0.4876  0.1978  0.5528
 9549SOL    HW140280   1.652   0.691   1.675  1.2925 -2.7404 -1.0356
 9549SOL    HW240281   1.758   0.783   1.739  0.4891  1.4763 -0.6458
 9550SOL     OW40282   3.736   4.482   6.448 -0.1877 -0.2146 -0.5334
 9550SOL    HW140283   3.708   4.473   6.357  0.8041 -0.5901 -0.8058
 9550SOL    HW240284   3.803   4.414   6.456 -0.0765 -0.0440 -0.0332
 9551SOL     OW40285   3.772   2.779   7.614  0.0162 -0.0873  0.3585
 9551SOL    HW140286   3.802   2.688   7.610 -2.4965 -0.9988  2.4884
 9551SOL    HW240287   3.723   2.776   7.696  0.0136  0.6102  0.3859
 9552SOL     OW40288   3.955   2.777   3.045 -0.0971 -0.2384 -0.3353
 9552SOL    HW140289   4.041   2.789   3.005  0.2841  0.9651  0.8584
 9552SOL    HW240290   3.911   2.862   3.040 -1.8721 -1.0632  1.4833
 9553SOL     OW40291   2.027   1.458   6.523 -0.3582  0.1663 -0.5868
 9553SOL    HW140292   2.029   1.414   6.438 -1.6033 -1.2204  0.0906
 9553SOL    HW240293   2.075   1.536   6.496 -1.7806  0.6423 -1.7429
 9554SOL     OW40294   3.256   4.413  17.058  0.1662  0.5505 -0.4476
 9554SOL    HW140295   3.208   4.396  17.138  1.6169  0.8825  0.4975
 9554SOL    HW240296   3.187   4.410  16.991 -0.6794 -2.9336  0.6033
 9555SOL     OW40297   3.512   0.622   2.083  0.1304  0.0069 -0.4221
 9555SOL    HW140298   3.423   0.643   2.055  0.2455  0.7606 -0.2237
 9555SOL    HW240299   3.546   0.699   2.131  3.7349 -1.8029 -0.0435
 9556SOL     OW40300   2.576   1.233   7.024 -0.0874 -0.3283  0.1862
 9556SOL    HW140301   2.591   1.241   7.119  2.1776  0.1334 -0.2086
 9556SOL    HW240302   2.574   1.326   7.003  0.7349 -0.4808 -0.5894
 9557SOL     OW40303   3.137   1.961  16.785  0.4405  0.2039 -0.1485
 9557SOL    HW140304   3.080   2.025  16.743  1.0244 -0.0063 -1.2670
 9557SOL    HW240305   3.214   1.974  16.730  1.1904  4.2408  1.8887
 9558SOL     OW40306   2.433   0.651  14.898  0.1606  0.4046 -0.3435
 9558SOL    HW140307   2.368   0.689  14.958  0.5621 -0.2562  0.5164
 9558SOL    HW240308   2.373   0.592  14.851  0.0433 -0.4737  0.8886
 9559SOL     OW40309   1.375   2.973  10.675 -0.1545 -0.0160  0.3282
 9559SOL    HW140310   1.395   2.904  10.612 -0.7015  2.1445 -2.1729
 9559SOL    HW240311   1.458   2.981  10.722  0.9399  3.2278 -2.1965
 9560SOL     OW40312   2.664   3.422  14.386 -0.1166 -0.2076 -0.3416
 9560SOL    HW140313   2.729   3.419  14.316 -0.2788  1.0743 -0.5464
 9560SOL    HW240314   2.709   3.477  14.449  1.7182 -1.6439 -0.3992
 9561SOL     OW40315   1.822   2.974   9.570 -0.1616  0.5444  0.3955
 9561SOL    HW140316   1.887   2.970   9.500 -2.5792  0.3954 -1.8288
 9561SOL    HW240317   1.876   3.027   9.630  0.0307 -0.9357  1.5324
 9562SOL     OW40318   1.689   3.312   7.952 -0.2521  0.0478 -0.2261
 9562SOL    HW140319   1.738   3.234   7.977 -0.4091  0.2831  0.8012
 9562SOL    HW240320   1.601   3.273   7.954 -0.2076 -0.0284  0.3575
 9563SOL     OW40321   3.178   2.591   2.063  0.5836 -0.0100  0.4142
 9563SOL    HW140322   3.256   2.642   2.041  0.1766  0.1241 -0.7154
 9563SOL    HW240323   3.198   2.498   2.057  0.8316  0.1392 -0.9739
 9564SOL     OW40324   3.801   2.302  15.752  0.4822  1.0272 -0.1078
 9564SOL    HW140325   3.873   2.244  15.777 -0.2125  0.1053 -0.2573
 9564SOL    HW240326   3.721   2.249  15.752  2.3708 -1.8479  0.9554
 9565SOL     OW40327   1.659   2.824   6.840  0.5725  0.1944  0.8037
 9565SOL    HW140328   1.731   2.838   6.902 -0.1666  0.5935  1.5695
 9565SOL    HW240329   1.714   2.831   6.762 -2.5191 -1.9026 -1.5658
 9566SOL     OW40330   2.198   2.275  16.555 -0.6507  0.1680 -0.4311
 9566SOL    HW140331   2.170   2.223  16.631  0.4261  0.0727 -0.0949
 9566SOL    HW240332   2.278   2.231  16.528  0.2230 -0.2290  2.7300
 9567SOL     OW40333   2.726   0.609   3.207  0.0146 -0.3161 -0.5641
 9567SOL    HW140334   2.808   0.571   3.176 -0.9551 -0.7377 -2.6131
 9567SOL    HW240335   2.712   0.685   3.151  0.5469 -1.2186 -1.9283
 9568SOL     OW40336   4.697   4.440  10.709 -0.2583  0.3454  0.2682
 9568SOL    HW140337   4.661   4.506  10.768 -2.7801  0.6961 -1.6551
 9568SOL    HW240338   4.672   4.486  10.628  0.3569 -0.8965 -0.6110
 9569SOL     OW40339   3.528   1.441   5.518  0.3707  0.1742 -0.3934
 9569SOL    HW140340   3.501   1.352   5.541  2.9876 -0.2340  1.1296
 9569SOL    HW240341   3.608   1.454   5.569  0.8129 -2.2555 -0.4682
 9570SOL     OW40342   3.315   2.137   2.461  0.0363  0.1158  0.2565
 9570SOL    HW140343   3.302   2.224   2.500 -2.2224  0.6462 -1.7080
 9570SOL    HW240344   3.248   2.137   2.393  0.5277  0.3853 -0.2333
 9571SOL     OW40345   1.789   0.372  10.239  0.1669  0.2386  0.2579
 9571SOL    HW140346   1.791   0.280  10.216 -2.7056 -0.4172  2.5620
 9571SOL    HW240347   1.757   0.376  10.330 -1.1345  1.5601 -0.2442
   4.73570   4.73570  17.74150
